<LesHouchesEvents version="3.0">
<header>
<!--
#*********************************************************************
#                                                                    *
#                        MadGraph5_aMC@NLO                           *
#                                                                    *
#                           Going Beyond                             *
#                                                                    *
#                   http://madgraph.hep.uiuc.edu                     *
#                   http://madgraph.phys.ucl.ac.be                   *
#                   http://amcatnlo.cern.ch                          *
#                                                                    *
#                     The MadGraph5_aMC@NLO team                     *
#                                                                    *
#....................................................................*
#                                                                    *
# This file contains all the information necessary to reproduce      *
# the events generated:                                              *
#                                                                    *
# 1. software version                                                *
# 2. proc_card          : code generation info including model       *
# 3. param_card         : model primary parameters in the LH format  *
# 4. run_card           : running parameters (collider and cuts)     *
# 5. pythia_card        : present only if pythia has been run        *
# 6. pgs_card           : present only if pgs has been run           *
# 7. delphes_cards      : present only if delphes has been run       *
#                                                                    *
#                                                                    *
#*********************************************************************
-->
<MGVersion>
#5.2.2.3
</MGVersion>
<MG5ProcCard>
#************************************************************
#*                     MadGraph5_aMC@NLO                    *
#*                                                          *
#*                *                       *                 *
#*                  *        * *        *                   *
#*                    * * * * 5 * * * *                     *
#*                  *        * *        *                   *
#*                *                       *                 *
#*                                                          *
#*                                                          *
#*         VERSION 2.2.3                 2015-02-10         *
#*                                                          *
#*    The MadGraph5_aMC@NLO Development Team - Find us at   *
#*    https://server06.fynu.ucl.ac.be/projects/madgraph     *
#*                                                          *
#************************************************************
#*                                                          *
#*               Command File for MadGraph5_aMC@NLO         *
#*                                                          *
#*     run as ./bin/mg5_aMC  filename                       *
#*                                                          *
#************************************************************
set group_subprocesses Auto
set ignore_six_quark_processes False
set loop_optimized_output True
set gauge unitary
set complex_mass_scheme False
import model sm
define p = g u c d s u~ c~ d~ s~
define j = g u c d s u~ c~ d~ s~
define l+ = e+ mu+
define l- = e- mu-
define vl = ve vm vt
define vl~ = ve~ vm~ vt~
import model Zprime_UFO
generate p p > zph, zph > j j
add process p p > zph, zph > b b~
output Dijet_signal
</MG5ProcCard>
<MGProcCard>
#*********************************************************************
#                        MadGraph/MadEvent                           *
#                   http://madgraph.hep.uiuc.edu                     *
#                                                                    *
#                          proc_card.dat                             *
#*********************************************************************
#                                                                    *
#            This Files is generated by MADGRAPH 5                   *
#                                                                    *
# WARNING: This Files is generated for MADEVENT (compatibility issue)*
#          This files is NOT a valid MG4 proc_card.dat               *
#          Running this in MG4 will NEVER reproduce the result of MG5*
#                                                                    *
#*********************************************************************
#*********************************************************************
# Process(es) requested : mg2 input                                  *
#*********************************************************************
# Begin PROCESS # This is TAG. Do not modify this line
p p > zph , zph > j j           #Process
# Be carefull the coupling are here in MG5 convention
          
end_coup           # End the couplings input

done               # this tells MG there are no more procs
# End PROCESS  # This is TAG. Do not modify this line
#*********************************************************************
# Model information                                                  *
#*********************************************************************
# Begin MODEL  # This is TAG. Do not modify this line
Zprime_UFO
# End   MODEL  # This is TAG. Do not modify this line
#*********************************************************************
# Start multiparticle definitions                                    *
#*********************************************************************
# Begin MULTIPARTICLES # This is TAG. Do not modify this line

# End  MULTIPARTICLES # This is TAG. Do not modify this line
</MGProcCard>
<MGRunCard>
#*********************************************************************
#                       MadGraph5_aMC@NLO                            *
#                                                                    *
#                     run_card.dat MadEvent                          *
#                                                                    *
#  This file is used to set the parameters of the run.               *
#                                                                    *
#  Some notation/conventions:                                        *
#                                                                    *
#   Lines starting with a '# ' are info or comments                  *
#                                                                    *
#   mind the format:   value    = variable     ! comment             *
#*********************************************************************
#
#*******************                                                 
# Running parameters
#*******************                                                 
#                                                                    
#*********************************************************************
# Tag name for the run (one word)                                    *
#*********************************************************************
  tag_1     = run_tag ! name of the run 
#*********************************************************************
# Run to generate the grid pack                                      *
#*********************************************************************
  .false.     = gridpack  !True = setting up the grid pack
#*********************************************************************
# Number of events and rnd seed                                      *
# Warning: Do not generate more than 1M events in a single run       *
# If you want to run Pythia, avoid more than 50k events in a run.    *
#*********************************************************************
  2000 = nevents ! Number of unweighted events requested 
 894 = iseed   ! rnd seed (0=assigned automatically=default))
#*********************************************************************
# Collider type and energy                                           *
# lpp: 0=No PDF, 1=proton, -1=antiproton, 2=photon from proton,      *
#                                         3=photon from electron     *
#*********************************************************************
        1     = lpp1    ! beam 1 type 
        1     = lpp2    ! beam 2 type
     4000     = ebeam1  ! beam 1 total energy in GeV
     4000     = ebeam2  ! beam 2 total energy in GeV
#*********************************************************************
# Beam polarization from -100 (left-handed) to 100 (right-handed)    *
#*********************************************************************
        0     = polbeam1 ! beam polarization for beam 1
        0     = polbeam2 ! beam polarization for beam 2
#*********************************************************************
# PDF CHOICE: this automatically fixes also alpha_s and its evol.    *
#*********************************************************************
 'nn23lo1'    = pdlabel     ! PDF set                                     
 230000    = lhaid     ! if pdlabel=lhapdf, this is the lhapdf number
#*********************************************************************
# Renormalization and factorization scales                           *
#*********************************************************************
 F        = fixed_ren_scale  ! if .true. use fixed ren scale
 F        = fixed_fac_scale  ! if .true. use fixed fac scale
 91.1880  = scale            ! fixed ren scale
 91.1880  = dsqrt_q2fact1    ! fixed fact scale for pdf1
 91.1880  = dsqrt_q2fact2    ! fixed fact scale for pdf2
 1        = scalefact        ! scale factor for event-by-event scales
#*********************************************************************
# Matching - Warning! ickkw > 1 is still beta
#*********************************************************************
 0        = ickkw            ! 0 no matching, 1 MLM, 2 CKKW matching
 1        = highestmult      ! for ickkw=2, highest mult group
 1        = ktscheme         ! for ickkw=1, 1 Durham kT, 2 Pythia pTE
 1        = alpsfact         ! scale factor for QCD emission vx
 F        = chcluster        ! cluster only according to channel diag
 T        = pdfwgt           ! for ickkw=1, perform pdf reweighting
 5        = asrwgtflavor     ! highest quark flavor for a_s reweight
 T        = clusinfo         ! include clustering tag in output
 3.0      = lhe_version       ! Change the way clustering information pass to shower.        
#*********************************************************************
#**********************************************************
#
#**********************************************************
# Automatic ptj and mjj cuts if xqcut > 0
# (turn off for VBF and single top processes)
#**********************************************************
   T  = auto_ptj_mjj  ! Automatic setting of ptj and mjj
#**********************************************************
#                                                                    
#**********************************
# BW cutoff (M+/-bwcutoff*Gamma)
#**********************************
  15  = bwcutoff      ! (M+/-bwcutoff*Gamma)
#**********************************************************
# Apply pt/E/eta/dr/mij cuts on decay products or not
# (note that etmiss/ptll/ptheavy/ht/sorted cuts always apply)
#**********************************************************
   T  = cut_decays    ! Cut decay products 
#*************************************************************
# Number of helicities to sum per event (0 = all helicities)
# 0 gives more stable result, but longer run time (needed for
# long decay chains e.g.).
# Use >=2 if most helicities contribute, e.g. pure QCD.
#*************************************************************
   0  = nhel          ! Number of helicities used per event
#*******************                                                 
# Standard Cuts
#*******************                                                 
#                                                                    
#*********************************************************************
# Minimum and maximum pt's (for max, -1 means no cut)                *
#*********************************************************************
 20  = ptj       ! minimum pt for the jets 
  0  = ptb       ! minimum pt for the b 
 10  = pta       ! minimum pt for the photons 
 10  = ptl       ! minimum pt for the charged leptons 
  0  = misset    ! minimum missing Et (sum of neutrino's momenta)
  0  = ptheavy   ! minimum pt for one heavy final state
 1.0 = ptonium   ! minimum pt for the quarkonium states
 -1  = ptjmax    ! maximum pt for the jets
 -1  = ptbmax    ! maximum pt for the b
 -1  = ptamax    ! maximum pt for the photons
 -1  = ptlmax    ! maximum pt for the charged leptons
 -1  = missetmax ! maximum missing Et (sum of neutrino's momenta)
#*********************************************************************
# Minimum and maximum E's (in the center of mass frame)              *
#*********************************************************************
  0  = ej     ! minimum E for the jets 
  0  = eb     ! minimum E for the b 
  0  = ea     ! minimum E for the photons 
  0  = el     ! minimum E for the charged leptons 
 -1   = ejmax ! maximum E for the jets
 -1   = ebmax ! maximum E for the b
 -1   = eamax ! maximum E for the photons
 -1   = elmax ! maximum E for the charged leptons
#*********************************************************************
# Maximum and minimum absolute rapidity (for max, -1 means no cut)   *
#*********************************************************************
   5  = etaj    ! max rap for the jets 
  -1  = etab    ! max rap for the b
 2.5  = etaa    ! max rap for the photons 
 2.5  = etal    ! max rap for the charged leptons 
 0.6  = etaonium ! max rap for the quarkonium states
   0  = etajmin ! min rap for the jets
   0  = etabmin ! min rap for the b
   0  = etaamin ! min rap for the photons
   0  = etalmin ! main rap for the charged leptons
#*********************************************************************
# Minimum and maximum DeltaR distance                                *
#*********************************************************************
 0.4 = drjj    ! min distance between jets 
 0   = drbb    ! min distance between b's 
 0.4 = drll    ! min distance between leptons 
 0.4 = draa    ! min distance between gammas 
 0   = drbj    ! min distance between b and jet 
 0.4 = draj    ! min distance between gamma and jet 
 0.4 = drjl    ! min distance between jet and lepton 
 0   = drab    ! min distance between gamma and b 
 0   = drbl    ! min distance between b and lepton 
 0.4 = dral    ! min distance between gamma and lepton 
 -1  = drjjmax ! max distance between jets
 -1  = drbbmax ! max distance between b's
 -1  = drllmax ! max distance between leptons
 -1  = draamax ! max distance between gammas
 -1  = drbjmax ! max distance between b and jet
 -1  = drajmax ! max distance between gamma and jet
 -1  = drjlmax ! max distance between jet and lepton
 -1  = drabmax ! max distance between gamma and b
 -1  = drblmax ! max distance between b and lepton
 -1  = dralmax ! maxdistance between gamma and lepton
#*********************************************************************
# Minimum and maximum invariant mass for pairs                       *
# WARNING: for four lepton final state mmll cut require to have      *
#          different lepton masses for each flavor!                  *           
#*********************************************************************
 0   = mmjj    ! min invariant mass of a jet pair 
 0   = mmbb    ! min invariant mass of a b pair 
 0   = mmaa    ! min invariant mass of gamma gamma pair
 0   = mmll    ! min invariant mass of l+l- (same flavour) lepton pair
 -1  = mmjjmax ! max invariant mass of a jet pair
 -1  = mmbbmax ! max invariant mass of a b pair
 -1  = mmaamax ! max invariant mass of gamma gamma pair
 -1  = mmllmax ! max invariant mass of l+l- (same flavour) lepton pair
#*********************************************************************
# Minimum and maximum invariant mass for all letpons                 *
#*********************************************************************
 0   = mmnl    ! min invariant mass for all letpons (l+- and vl) 
 -1  = mmnlmax ! max invariant mass for all letpons (l+- and vl) 
#*********************************************************************
# Minimum and maximum pt for 4-momenta sum of leptons                *
#*********************************************************************
 0   = ptllmin  ! Minimum pt for 4-momenta sum of leptons(l and vl)
 -1  = ptllmax  ! Maximum pt for 4-momenta sum of leptons(l and vl)
#*********************************************************************
# Inclusive cuts                                                     *
#*********************************************************************
 0  = xptj ! minimum pt for at least one jet  
 0  = xptb ! minimum pt for at least one b 
 0  = xpta ! minimum pt for at least one photon 
 0  = xptl ! minimum pt for at least one charged lepton 
#*********************************************************************
# Control the pt's of the jets sorted by pt                          *
#*********************************************************************
 0   = ptj1min ! minimum pt for the leading jet in pt
 0   = ptj2min ! minimum pt for the second jet in pt
 0   = ptj3min ! minimum pt for the third jet in pt
 0   = ptj4min ! minimum pt for the fourth jet in pt
 -1  = ptj1max ! maximum pt for the leading jet in pt 
 -1  = ptj2max ! maximum pt for the second jet in pt
 -1  = ptj3max ! maximum pt for the third jet in pt
 -1  = ptj4max ! maximum pt for the fourth jet in pt
 0   = cutuse  ! reject event if fails any (0) / all (1) jet pt cuts
#*********************************************************************
# Control the pt's of leptons sorted by pt                           *
#*********************************************************************
 0   = ptl1min ! minimum pt for the leading lepton in pt
 0   = ptl2min ! minimum pt for the second lepton in pt
 0   = ptl3min ! minimum pt for the third lepton in pt
 0   = ptl4min ! minimum pt for the fourth lepton in pt
 -1  = ptl1max ! maximum pt for the leading lepton in pt 
 -1  = ptl2max ! maximum pt for the second lepton in pt
 -1  = ptl3max ! maximum pt for the third lepton in pt
 -1  = ptl4max ! maximum pt for the fourth lepton in pt
#*********************************************************************
# Control the Ht(k)=Sum of k leading jets                            *
#*********************************************************************
 0   = htjmin ! minimum jet HT=Sum(jet pt)
 -1  = htjmax ! maximum jet HT=Sum(jet pt)
 0   = ihtmin  !inclusive Ht for all partons (including b)
 -1  = ihtmax  !inclusive Ht for all partons (including b)
 0   = ht2min ! minimum Ht for the two leading jets
 0   = ht3min ! minimum Ht for the three leading jets
 0   = ht4min ! minimum Ht for the four leading jets
 -1  = ht2max ! maximum Ht for the two leading jets
 -1  = ht3max ! maximum Ht for the three leading jets
 -1  = ht4max ! maximum Ht for the four leading jets
#***********************************************************************
# Photon-isolation cuts, according to hep-ph/9801442                   *
# When ptgmin=0, all the other parameters are ignored                  *
# When ptgmin>0, pta and draj are not going to be used                 *
#***********************************************************************
   0 = ptgmin ! Min photon transverse momentum
 0.4 = R0gamma ! Radius of isolation code
 1.0 = xn ! n parameter of eq.(3.4) in hep-ph/9801442
 1.0 = epsgamma ! epsilon_gamma parameter of eq.(3.4) in hep-ph/9801442
 .true. = isoEM ! isolate photons from EM energy (photons and leptons)
#*********************************************************************
# WBF cuts                                                           *
#*********************************************************************
 0   = xetamin ! minimum rapidity for two jets in the WBF case  
 0   = deltaeta ! minimum rapidity for two jets in the WBF case 
#*********************************************************************
# KT DURHAM CUT                                                      *
#*********************************************************************
 -1    =  ktdurham        
 0.4  =  dparameter 
#*********************************************************************
# maximal pdg code for quark to be considered as a light jet         *
# (otherwise b cuts are applied)                                     *
#*********************************************************************
 4 = maxjetflavor    ! Maximum jet pdg code
#*********************************************************************
# Jet measure cuts                                                   *
#*********************************************************************
 0   = xqcut   ! minimum kt jet measure between partons
#*********************************************************************
#
#*********************************************************************
# Store info for systematics studies                                 *
# WARNING: If use_syst is T, matched Pythia output is                *
#          meaningful ONLY if plotted taking matchscale              *
#          reweighting into account!                                 *
#*********************************************************************
   F  = use_syst      ! Enable systematics studies
#
#**************************************
# Parameter of the systematics study
#  will be used by SysCalc (if installed)
#**************************************                                  
#
0.5 1 2 = sys_scalefact  # factorization/renormalization scale factor
0.5 1 2 = sys_alpsfact  # \alpha_s emission scale factors
30 50 = sys_matchscale # variation of merging scale
# PDF sets and number of members (0 or none for all members).
CT10nlo.LHgrid = sys_pdf # matching scales
# MSTW2008nlo68cl.LHgrid 1  = sys_pdf
</MGRunCard>
<slha>
######################################################################
## PARAM_CARD AUTOMATICALY GENERATED BY MG5 FOLLOWING UFO MODEL   ####
######################################################################
##                                                                  ##
##  Width set on Auto will be computed following the information    ##
##        present in the decay.py files of the model.               ##
##        See  arXiv:1402.1178 for more details.                    ##
##                                                                  ##
######################################################################

###################################
## INFORMATION FOR CKMBLOCK
###################################
Block ckmblock 
    1 2.277360e-01 # cabi 

###################################
## INFORMATION FOR FRBLOCK
###################################
Block frblock 
    1 4.000000e-01 # gz 

###################################
## INFORMATION FOR MASS
###################################
Block mass 
    1 5.040000e-03 # MD 
    2 2.550000e-03 # MU 
    3 1.010000e-01 # MS 
    4 1.270000e+00 # MC 
    5 4.700000e+00 # MB 
    6 1.720000e+02 # MT 
   11 5.110000e-04 # Me 
   13 1.056600e-01 # MM 
   15 1.777000e+00 # MTA 
   23 9.118760e+01 # MZ 
   25 1.200000e+02 # MH 
  10030 1.300000e+03 # MZph 
  10031 3.000000e+02 # MZpl 
## Dependent parameters, given by model restrictions.
## Those values should be edited following the 
## analytical expression. MG5 ignores those values 
## but they are important for interfacing the output of MG5
## to external program such as Pythia.
  12 0.000000 # ve : 0.0 
  14 0.000000 # vm : 0.0 
  16 0.000000 # vt : 0.0 
  21 0.000000 # g : 0.0 
  22 0.000000 # a : 0.0 
  24 79.824360 # w+ : cmath.sqrt(MZ__exp__2/2. + cmath.sqrt(MZ__exp__4/4. - (aEW*cmath.pi*MZ__exp__2)/(Gf*sqrt__2))) 

###################################
## INFORMATION FOR SMINPUTS
###################################
Block sminputs 
    1 1.279000e+02 # aEWM1 
    2 1.166370e-05 # Gf 
    3 1.184000e-01 # aS 

###################################
## INFORMATION FOR YUKAWA
###################################
Block yukawa 
    1 5.040000e-03 # ymdo 
    2 2.550000e-03 # ymup 
    3 1.010000e-01 # yms 
    4 1.270000e+00 # ymc 
    5 4.700000e+00 # ymb 
    6 1.720000e+02 # ymt 
   11 5.110000e-04 # yme 
   13 1.056600e-01 # ymm 
   15 1.777000e+00 # ymtau 

###################################
## INFORMATION FOR DECAY
###################################
DECAY   6 1.508336e+00 # WT 
DECAY  23 2.495200e+00 # WZ 
DECAY  24 2.085000e+00 # WW 
DECAY  25 5.753088e-03 # WH 
## Dependent parameters, given by model restrictions.
## Those values should be edited following the 
## analytical expression. MG5 ignores those values 
## but they are important for interfacing the output of MG5
## to external program such as Pythia.
DECAY  1 0.000000 # d : 0.0 
DECAY  2 0.000000 # u : 0.0 
DECAY  3 0.000000 # s : 0.0 
DECAY  4 0.000000 # c : 0.0 
DECAY  5 0.000000 # b : 0.0 
DECAY  11 0.000000 # e- : 0.0 
DECAY  12 0.000000 # ve : 0.0 
DECAY  13 0.000000 # mu- : 0.0 
DECAY  14 0.000000 # vm : 0.0 
DECAY  15 0.000000 # ta- : 0.0 
DECAY  16 0.000000 # vt : 0.0 
DECAY  21 0.000000 # g : 0.0 
DECAY  22 0.000000 # a : 0.0 
DECAY  10030 0.308725 # zph : (gz__exp__2*MZph*(5 + cmath.sqrt(1 - (4*MT__exp__2)/MZph__exp__2)))/(144.*cmath.pi) 
DECAY  10031 0.132629 # zpl : (5*gz__exp__2*MZpl)/(144.*cmath.pi) 
#===========================================================
# QUANTUM NUMBERS OF NEW STATE(S) (NON SM PDG CODE)
#===========================================================

Block QNUMBERS 10030  # zph 
        1 0  # 3 times electric charge
        2 3  # number of spin states (2S+1)
        3 1  # colour rep (1: singlet, 3: triplet, 8: octet)
        4 0  # Particle/Antiparticle distinction (0=own anti)
Block QNUMBERS 10031  # zpl 
        1 0  # 3 times electric charge
        2 3  # number of spin states (2S+1)
        3 1  # colour rep (1: singlet, 3: triplet, 8: octet)
        4 0  # Particle/Antiparticle distinction (0=own anti)
</slha>
## END BANNER##
<MGGenerationInfo>
#  Number of Events        :         3993
#  Integrated weight (pb)  :  0.80231E-01
#  Max wgt                 :  0.27948E-04
#  Average wgt             :  0.20093E-04
</MGGenerationInfo>
</header>
<init>
     2212     2212  0.40000000000E+04  0.40000000000E+04 0 0  247000  247000 2   1
  0.80294407380E-01  0.17528842284E-03  0.27948250000E-04   0
</init>
<event>
 5   0  0.2794825E-04  0.1303148E+04  0.7818609E-02  0.9027073E-01
        2   -1    0    0  501    0  0.00000000000E+00  0.00000000000E+00  0.10885865131E+04  0.10885865131E+04  0.25500000920E-02 0.  1.
       -2   -1    0    0    0  501  0.00000000000E+00  0.00000000000E+00 -0.38999979436E+03  0.38999979437E+03  0.25500000920E-02 0. -1.
    10030    2    1    2    0    0  0.00000000000E+00  0.00000000000E+00  0.69858671873E+03  0.14785863075E+04  0.13031477526E+04 0.  0.
        1    1    3    3  502    0  0.38725771082E+03  0.16220356274E+03 -0.21605369078E+03  0.47218399770E+03  0.50400001928E-02 0. -1.
       -1    1    3    3    0  502 -0.38725771082E+03 -0.16220356274E+03  0.91464040951E+03  0.10064023098E+04  0.50400001928E-02 0.  1.
</event>
<event>
 5   0  0.2794825E-04  0.1300566E+04  0.7818609E-02  0.9029117E-01
        2   -1    0    0  501    0  0.00000000000E+00  0.00000000000E+00  0.11765797717E+04  0.11765797717E+04  0.25500000920E-02 0.  1.
       -2   -1    0    0    0  501  0.00000000000E+00  0.00000000000E+00 -0.35940421146E+03  0.35940421147E+03  0.25500000920E-02 0. -1.
    10030    2    1    2    0    0  0.00000000000E+00  0.00000000000E+00  0.81717556027E+03  0.15359839832E+04  0.13005656079E+04 0.  0.
        1    1    3    3  502    0 -0.41139426540E+03  0.78613002143E+02 -0.17889014315E+03  0.45544146611E+03  0.50400001928E-02 0. -1.
       -1    1    3    3    0  502  0.41139426540E+03 -0.78613002143E+02  0.99606570342E+03  0.10805425171E+04  0.50400001928E-02 0.  1.
</event>
<event>
 5   0  0.2756984E-04  0.1297368E+04  0.7818609E-02  0.9031655E-01
       -2   -1    0    0    0  501  0.00000000000E+00  0.00000000000E+00  0.72618411512E+03  0.72618411512E+03  0.25500000920E-02 0.  1.
        2   -1    0    0  501    0  0.00000000000E+00  0.00000000000E+00 -0.57945458051E+03  0.57945458052E+03  0.25500000920E-02 0. -1.
    10030    2    1    2    0    0  0.00000000000E+00  0.00000000000E+00  0.14672953461E+03  0.13056386956E+04  0.12973676608E+04 0.  0.
        3    1    3    3  502    0 -0.15256710844E+03  0.14161397078E+01  0.70786977223E+03  0.72412592321E+03  0.10100000352E+00 0.  1.
       -3    1    3    3    0  502  0.15256710844E+03 -0.14161397078E+01 -0.56114023762E+03  0.58151277243E+03  0.10100000352E+00 0. -1.
</event>
<event>
 5   0  0.2794825E-04  0.1302195E+04  0.7818609E-02  0.9027826E-01
        2   -1    0    0  501    0  0.00000000000E+00  0.00000000000E+00  0.15624926147E+04  0.15624926147E+04  0.25500000920E-02 0. -1.
       -2   -1    0    0    0  501  0.00000000000E+00  0.00000000000E+00 -0.27131515436E+03  0.27131515437E+03  0.25500000920E-02 0.  1.
    10030    2    1    2    0    0  0.00000000000E+00  0.00000000000E+00  0.12911774604E+04  0.18338077691E+04  0.13021949546E+04 0.  0.
        1    1    3    3  502    0  0.23404898733E+03  0.34842974625E+03 -0.55351311474E+02  0.42337452008E+03  0.50400001928E-02 0.  1.
       -1    1    3    3    0  502 -0.23404898733E+03 -0.34842974625E+03  0.13465287718E+04  0.14104332490E+04  0.50400001928E-02 0. -1.
</event>
<event>
 5   0  0.2756984E-04  0.1300824E+04  0.7818609E-02  0.9028912E-01
        2   -1    0    0  501    0  0.00000000000E+00  0.00000000000E+00  0.87921469344E+03  0.87921469344E+03  0.25500000920E-02 0. -1.
       -2   -1    0    0    0  501  0.00000000000E+00  0.00000000000E+00 -0.48115187856E+03  0.48115187857E+03  0.25500000920E-02 0.  1.
    10030    2    1    2    0    0  0.00000000000E+00  0.00000000000E+00  0.39806281488E+03  0.13603665720E+04  0.13008240487E+04 0.  0.
        3    1    3    3  502    0 -0.55204272162E+03 -0.18485799447E+03  0.50232745628E+03  0.76893206992E+03  0.10100000352E+00 0.  1.
       -3    1    3    3    0  502  0.55204272162E+03  0.18485799447E+03 -0.10426464140E+03  0.59143450209E+03  0.10100000352E+00 0. -1.
</event>
<event>
 5   0  0.1479690E-04  0.1299056E+04  0.7818609E-02  0.9030314E-01
        1   -1    0    0  501    0  0.00000000000E+00  0.00000000000E+00  0.17972913339E+04  0.17972913339E+04  0.50400001928E-02 0. -1.
       -1   -1    0    0    0  501  0.00000000000E+00  0.00000000000E+00 -0.23473465426E+03  0.23473465431E+03  0.50400001928E-02 0.  1.
    10030    2    1    2    0    0  0.00000000000E+00  0.00000000000E+00  0.15625566796E+04  0.20320259882E+04  0.12990559032E+04 0.  0.
        1    1    3    3  502    0 -0.32244688659E+03 -0.28471786722E+03  0.15425477656E+04  0.16014024690E+04  0.50400001928E-02 0. -1.
       -1    1    3    3    0  502  0.32244688659E+03  0.28471786722E+03  0.20008913994E+02  0.43062351915E+03  0.50400001928E-02 0.  1.
</event>
<event>
 5   0  0.1475396E-04  0.1301818E+04  0.7818609E-02  0.9028125E-01
       -1   -1    0    0    0  501  0.00000000000E+00  0.00000000000E+00  0.40769076578E+03  0.40769076581E+03  0.50400001928E-02 0. -1.
        1   -1    0    0  501    0  0.00000000000E+00  0.00000000000E+00 -0.10392247313E+04  0.10392247313E+04  0.50400001928E-02 0.  1.
    10030    2    1    2    0    0  0.00000000000E+00  0.00000000000E+00 -0.63153396553E+03  0.14469154971E+04  0.13018176932E+04 0.  0.
        3    1    3    3  502    0 -0.35620599929E+03 -0.88145082576E+02 -0.91330355992E+03  0.98426402570E+03  0.10100000352E+00 0.  1.
       -3    1    3    3    0  502  0.35620599929E+03  0.88145082576E+02  0.28176959439E+03  0.46265147145E+03  0.10100000352E+00 0. -1.
</event>
<event>
 5   0  0.2794825E-04  0.1303226E+04  0.7818609E-02  0.9027011E-01
       -2   -1    0    0    0  501  0.00000000000E+00  0.00000000000E+00  0.18736447982E+03  0.18736447984E+03  0.25500000920E-02 0.  1.
        2   -1    0    0  501    0  0.00000000000E+00  0.00000000000E+00 -0.22661685800E+04  0.22661685800E+04  0.25500000920E-02 0. -1.
    10030    2    1    2    0    0  0.00000000000E+00  0.00000000000E+00 -0.20788041001E+04  0.24535330598E+04  0.13032259930E+04 0.  0.
        1    1    3    3  502    0  0.50929113322E+02 -0.37919930835E+03 -0.46374347309E+02  0.38540429441E+03  0.50400001928E-02 0.  1.
       -1    1    3    3    0  502 -0.50929113322E+02  0.37919930835E+03 -0.20324297528E+04  0.20681287654E+04  0.50400001928E-02 0. -1.
</event>
<event>
 5   0  0.1476511E-04  0.1299764E+04  0.7818609E-02  0.9029753E-01
        1   -1    0    0  501    0  0.00000000000E+00  0.00000000000E+00  0.67592097559E+03  0.67592097561E+03  0.50400001928E-02 0. -1.
       -1   -1    0    0    0  501  0.00000000000E+00  0.00000000000E+00 -0.62484593111E+03  0.62484593113E+03  0.50400001928E-02 0.  1.
    10030    2    1    2    0    0  0.00000000000E+00  0.00000000000E+00  0.51075044474E+02  0.13007669067E+04  0.12997637807E+04 0.  0.
        2    1    3    3  502    0 -0.11118775682E+03 -0.61016975030E+03  0.21979201556E+03  0.65801092055E+03  0.25500000920E-02 0. -1.
       -2    1    3    3    0  502  0.11118775682E+03  0.61016975030E+03 -0.16871697109E+03  0.64275598619E+03  0.25500000920E-02 0.  1.
</event>
<event>
 5   0  0.2794825E-04  0.1304393E+04  0.7818609E-02  0.9026089E-01
       -2   -1    0    0    0  501  0.00000000000E+00  0.00000000000E+00  0.39949299460E+03  0.39949299461E+03  0.25500000920E-02 0. -1.
        2   -1    0    0  501    0  0.00000000000E+00  0.00000000000E+00 -0.10647502717E+04  0.10647502717E+04  0.25500000920E-02 0.  1.
    10030    2    1    2    0    0  0.00000000000E+00  0.00000000000E+00 -0.66525727712E+03  0.14642432663E+04  0.13043929999E+04 0.  0.
        1    1    3    3  502    0 -0.98439378444E+00 -0.63725549843E+03 -0.17682187797E+03  0.66133313532E+03  0.50400001928E-02 0. -1.
       -1    1    3    3    0  502  0.98439378444E+00  0.63725549843E+03 -0.48843539915E+03  0.80291013101E+03  0.50400001928E-02 0.  1.
</event>
<event>
 5   0  0.1002887E-04  0.1300151E+04  0.7818609E-02  0.9029445E-01
        4   -1    0    0  501    0  0.00000000000E+00  0.00000000000E+00  0.10393384051E+04  0.10393391811E+04  0.12699999809E+01 0. -1.
       -4   -1    0    0    0  501  0.00000000000E+00  0.00000000000E+00 -0.40660119267E+03  0.40660317606E+03  0.12699999809E+01 0.  1.
    10030    2    1    2    0    0  0.00000000000E+00  0.00000000000E+00  0.63273721246E+03  0.14459423571E+04  0.13001511143E+04 0.  0.
        5    1    3    3  502    0  0.23920503455E+03 -0.60442784549E+03  0.31091222405E+03  0.72058349275E+03  0.46999998093E+01 0.  1.
       -5    1    3    3    0  502 -0.23920503455E+03  0.60442784549E+03  0.32182498841E+03  0.72535886437E+03  0.46999998093E+01 0. -1.
</event>
<event>
 5   0  0.2661377E-04  0.1299923E+04  0.7818609E-02  0.9029627E-01
       -2   -1    0    0    0  501  0.00000000000E+00  0.00000000000E+00  0.68587760269E+03  0.68587760270E+03  0.25500000920E-02 0.  1.
        2   -1    0    0  501    0  0.00000000000E+00  0.00000000000E+00 -0.61592578111E+03  0.61592578111E+03  0.25500000920E-02 0. -1.
    10030    2    1    2    0    0  0.00000000000E+00  0.00000000000E+00  0.69951821584E+02  0.13018033838E+04  0.12999226103E+04 0.  0.
        5    1    3    3  502    0  0.17655349018E+03 -0.59260019849E+03  0.23546916383E+03  0.66167510703E+03  0.46999998093E+01 0.  1.
       -5    1    3    3    0  502 -0.17655349018E+03  0.59260019849E+03 -0.16551734225E+03  0.64012827678E+03  0.46999998093E+01 0. -1.
</event>
<event>
 5   0  0.1408341E-04  0.1301178E+04  0.7818609E-02  0.9028631E-01
       -1   -1    0    0    0  501  0.00000000000E+00  0.00000000000E+00  0.12549954644E+04  0.12549954644E+04  0.50400001928E-02 0.  1.
        1   -1    0    0  501    0  0.00000000000E+00  0.00000000000E+00 -0.33726507809E+03  0.33726507813E+03  0.50400001928E-02 0. -1.
    10030    2    1    2    0    0  0.00000000000E+00  0.00000000000E+00  0.91773038629E+03  0.15922605425E+04  0.13011781482E+04 0.  0.
        5    1    3    3  502    0 -0.26861924527E+03 -0.13989075146E+03 -0.24571616149E+03  0.39003107990E+03  0.46999998093E+01 0. -1.
       -5    1    3    3    0  502  0.26861924527E+03  0.13989075146E+03  0.11634465478E+04  0.12022294626E+04  0.46999998093E+01 0.  1.
</event>
<event>
 5   0  0.1002887E-04  0.1300004E+04  0.7818609E-02  0.9029562E-01
       -3   -1    0    0    0  501  0.00000000000E+00  0.00000000000E+00  0.84319871267E+03  0.84319871872E+03  0.10100000352E+00 0. -1.
        3   -1    0    0  501    0  0.00000000000E+00  0.00000000000E+00 -0.50107104064E+03  0.50107105081E+03  0.10100000352E+00 0.  1.
    10030    2    1    2    0    0  0.00000000000E+00  0.00000000000E+00  0.34212767203E+03  0.13442697695E+04  0.13000037959E+04 0.  0.
        3    1    3    3  502    0  0.13392939446E+03  0.17050014091E+03 -0.46257813341E+03  0.51086781114E+03  0.10100000352E+00 0.  1.
       -3    1    3    3    0  502 -0.13392939446E+03 -0.17050014091E+03  0.80470580544E+03  0.83340195840E+03  0.10100000352E+00 0. -1.
</event>
<event>
 5   0  0.1479690E-04  0.1300331E+04  0.7818609E-02  0.9029302E-01
        1   -1    0    0  501    0  0.00000000000E+00  0.00000000000E+00  0.14490925256E+04  0.14490925256E+04  0.50400001928E-02 0. -1.
       -1   -1    0    0    0  501  0.00000000000E+00  0.00000000000E+00 -0.29171042124E+03  0.29171042128E+03  0.50400001928E-02 0.  1.
    10030    2    1    2    0    0  0.00000000000E+00  0.00000000000E+00  0.11573821044E+04  0.17408029469E+04  0.13003313287E+04 0.  0.
        1    1    3    3  502    0 -0.47385000831E+03 -0.30889521138E+03  0.14953143073E+03  0.58507241500E+03  0.50400001928E-02 0.  1.
       -1    1    3    3    0  502  0.47385000831E+03  0.30889521138E+03  0.10078506737E+04  0.11557305319E+04  0.50400001928E-02 0. -1.
</event>
<event>
 5   0  0.1475396E-04  0.1297750E+04  0.7818609E-02  0.9031352E-01
       -1   -1    0    0    0  501  0.00000000000E+00  0.00000000000E+00  0.33281912590E+03  0.33281912593E+03  0.50400001928E-02 0.  1.
        1   -1    0    0  501    0  0.00000000000E+00  0.00000000000E+00 -0.12650668700E+04  0.12650668700E+04  0.50400001928E-02 0. -1.
    10030    2    1    2    0    0  0.00000000000E+00  0.00000000000E+00 -0.93224774414E+03  0.15978859960E+04  0.12977495135E+04 0.  0.
        3    1    3    3  502    0  0.17724484205E+02  0.55948562253E+03 -0.87019982945E+03  0.10346912933E+04  0.10100000352E+00 0. -1.
       -3    1    3    3    0  502 -0.17724484205E+02 -0.55948562253E+03 -0.62047914689E+02  0.56319470263E+03  0.10100000352E+00 0.  1.
</event>
<event>
 5   0  0.1475396E-04  0.1305990E+04  0.7818609E-02  0.9024829E-01
       -1   -1    0    0    0  501  0.00000000000E+00  0.00000000000E+00  0.54874273813E+03  0.54874273815E+03  0.50400001928E-02 0.  1.
        1   -1    0    0  501    0  0.00000000000E+00  0.00000000000E+00 -0.77705327189E+03  0.77705327191E+03  0.50400001928E-02 0. -1.
    10030    2    1    2    0    0  0.00000000000E+00  0.00000000000E+00 -0.22831053376E+03  0.13257960101E+04  0.13059898011E+04 0.  0.
        3    1    3    3  502    0 -0.10055063471E+03  0.56217631618E+03 -0.43557936940E+03  0.71824928672E+03  0.10100000352E+00 0. -1.
       -3    1    3    3    0  502  0.10055063471E+03 -0.56217631618E+03  0.20726883564E+03  0.60754672334E+03  0.10100000352E+00 0.  1.
</event>
<event>
 5   0  0.2794825E-04  0.1298216E+04  0.7818609E-02  0.9030981E-01
       -2   -1    0    0    0  501  0.00000000000E+00  0.00000000000E+00  0.34708068511E+03  0.34708068512E+03  0.25500000920E-02 0.  1.
        2   -1    0    0  501    0  0.00000000000E+00  0.00000000000E+00 -0.12139569480E+04  0.12139569480E+04  0.25500000920E-02 0. -1.
    10030    2    1    2    0    0  0.00000000000E+00  0.00000000000E+00 -0.86687626292E+03  0.15610376331E+04  0.12982157128E+04 0.  0.
        1    1    3    3  502    0  0.14259865659E+03 -0.39837981929E+03  0.15845507460E+03  0.45182836118E+03  0.50400001928E-02 0.  1.
       -1    1    3    3    0  502 -0.14259865659E+03  0.39837981929E+03 -0.10253313375E+04  0.11092092720E+04  0.50400001928E-02 0. -1.
</event>
<event>
 5   0  0.1430636E-04  0.1295322E+04  0.7818609E-02  0.9033283E-01
        1   -1    0    0  501    0  0.00000000000E+00  0.00000000000E+00  0.50146612020E+03  0.50146612022E+03  0.50400001928E-02 0. -1.
       -1   -1    0    0    0  501  0.00000000000E+00  0.00000000000E+00 -0.83647739431E+03  0.83647739433E+03  0.50400001928E-02 0.  1.
    10030    2    1    2    0    0  0.00000000000E+00  0.00000000000E+00 -0.33501127411E+03  0.13379435146E+04  0.12953224673E+04 0.  0.
        4    1    3    3  502    0  0.34950624581E+03  0.54482970612E+03 -0.18988502207E+03  0.67457539166E+03  0.12699999809E+01 0. -1.
       -4    1    3    3    0  502 -0.34950624581E+03 -0.54482970612E+03 -0.14512625204E+03  0.66336812289E+03  0.12699999809E+01 0.  1.
</event>
<event>
 5   0  0.1479690E-04  0.1298787E+04  0.7818609E-02  0.9030528E-01
       -1   -1    0    0    0  501  0.00000000000E+00  0.00000000000E+00  0.10514648283E+04  0.10514648283E+04  0.50400001928E-02 0.  1.
        1   -1    0    0  501    0  0.00000000000E+00  0.00000000000E+00 -0.40107089403E+03  0.40107089406E+03  0.50400001928E-02 0. -1.
    10030    2    1    2    0    0  0.00000000000E+00  0.00000000000E+00  0.65039393425E+03  0.14525357224E+04  0.12987870322E+04 0.  0.
        1    1    3    3  502    0 -0.14216702847E+03 -0.25735591204E+03  0.97276469184E+03  0.10162257009E+04  0.50400001928E-02 0.  1.
       -1    1    3    3    0  502  0.14216702847E+03  0.25735591204E+03 -0.32237075759E+03  0.43631002146E+03  0.50400001928E-02 0. -1.
</event>
<event>
 5   0  0.2723209E-04  0.1302546E+04  0.7818609E-02  0.9027549E-01
        2   -1    0    0  501    0  0.00000000000E+00  0.00000000000E+00  0.14307693635E+04  0.14307693635E+04  0.25500000920E-02 0. -1.
       -2   -1    0    0    0  501  0.00000000000E+00  0.00000000000E+00 -0.29645328253E+03  0.29645328254E+03  0.25500000920E-02 0.  1.
    10030    2    1    2    0    0  0.00000000000E+00  0.00000000000E+00  0.11343160809E+04  0.17272226460E+04  0.13025456220E+04 0.  0.
        2    1    3    3  502    0 -0.42158549287E+03  0.31756708509E+03  0.61221630461E+02  0.53134853851E+03  0.25500000920E-02 0.  1.
       -2    1    3    3    0  502  0.42158549287E+03 -0.31756708509E+03  0.10730944505E+04  0.11958741075E+04  0.25500000920E-02 0. -1.
</event>
<event>
 5   0  0.1475396E-04  0.1301885E+04  0.7818609E-02  0.9028072E-01
        1   -1    0    0  501    0  0.00000000000E+00  0.00000000000E+00  0.26930674303E+04  0.26930674303E+04  0.50400001928E-02 0. -1.
       -1   -1    0    0    0  501  0.00000000000E+00  0.00000000000E+00 -0.15733964434E+03  0.15733964442E+03  0.50400001928E-02 0.  1.
    10030    2    1    2    0    0  0.00000000000E+00  0.00000000000E+00  0.25357277860E+04  0.28504070748E+04  0.13018852051E+04 0.  0.
        3    1    3    3  502    0  0.35583143086E+03  0.49284233627E+03  0.17776648888E+04  0.18787235142E+04  0.10100000352E+00 0. -1.
       -3    1    3    3    0  502 -0.35583143086E+03 -0.49284233627E+03  0.75806289715E+03  0.97168356055E+03  0.10100000352E+00 0.  1.
</event>
<event>
 5   0  0.1002887E-04  0.1300456E+04  0.7818609E-02  0.9029203E-01
        3   -1    0    0  501    0  0.00000000000E+00  0.00000000000E+00  0.33160484095E+03  0.33160485633E+03  0.10100000352E+00 0.  1.
       -3   -1    0    0    0  501  0.00000000000E+00  0.00000000000E+00 -0.12750015386E+04  0.12750015426E+04  0.10100000352E+00 0. -1.
    10030    2    1    2    0    0  0.00000000000E+00  0.00000000000E+00 -0.94339669765E+03  0.16066063989E+04  0.13004563783E+04 0.  0.
        5    1    3    3  502    0 -0.10888793595E+03 -0.64017484562E+03 -0.43083249690E+03  0.77930683684E+03  0.46999998093E+01 0. -1.
       -5    1    3    3    0  502  0.10888793595E+03  0.64017484562E+03 -0.51256420075E+03  0.82729956210E+03  0.46999998093E+01 0.  1.
</event>
<event>
 5   0  0.2756984E-04  0.1303051E+04  0.7818609E-02  0.9027149E-01
        2   -1    0    0  501    0  0.00000000000E+00  0.00000000000E+00  0.25003552473E+04  0.25003552473E+04  0.25500000920E-02 0.  1.
       -2   -1    0    0    0  501  0.00000000000E+00  0.00000000000E+00 -0.16977015376E+03  0.16977015378E+03  0.25500000920E-02 0. -1.
    10030    2    1    2    0    0  0.00000000000E+00  0.00000000000E+00  0.23305850935E+04  0.26701254011E+04  0.13030513341E+04 0.  0.
        3    1    3    3  502    0 -0.19745090527E+03  0.10447438242E+03  0.24194287442E+04  0.24297195753E+04  0.10100000352E+00 0.  1.
       -3    1    3    3    0  502  0.19745090527E+03 -0.10447438242E+03 -0.88843650642E+02  0.24040582570E+03  0.10100000352E+00 0. -1.
</event>
<event>
 5   0  0.1479690E-04  0.1299471E+04  0.7818609E-02  0.9029984E-01
        1   -1    0    0  501    0  0.00000000000E+00  0.00000000000E+00  0.10540964518E+04  0.10540964518E+04  0.50400001928E-02 0. -1.
       -1   -1    0    0    0  501  0.00000000000E+00  0.00000000000E+00 -0.40049130044E+03  0.40049130047E+03  0.50400001928E-02 0.  1.
    10030    2    1    2    0    0  0.00000000000E+00  0.00000000000E+00  0.65360515138E+03  0.14545877523E+04  0.12994713676E+04 0.  0.
        1    1    3    3  502    0  0.63244577713E+03 -0.11141668336E+03  0.43736041177E+03  0.77697198672E+03  0.50400001928E-02 0. -1.
       -1    1    3    3    0  502 -0.63244577713E+03  0.11141668336E+03  0.21624473961E+03  0.67761576559E+03  0.50400001928E-02 0.  1.
</event>
<event>
 5   0  0.2723209E-04  0.1300059E+04  0.7818609E-02  0.9029518E-01
        2   -1    0    0  501    0  0.00000000000E+00  0.00000000000E+00  0.14784085443E+04  0.14784085443E+04  0.25500000920E-02 0. -1.
       -2   -1    0    0    0  501  0.00000000000E+00  0.00000000000E+00 -0.28580634630E+03  0.28580634631E+03  0.25500000920E-02 0.  1.
    10030    2    1    2    0    0  0.00000000000E+00  0.00000000000E+00  0.11926021980E+04  0.17642148907E+04  0.13000592977E+04 0.  0.
        2    1    3    3  502    0  0.14715031391E+03  0.46416637618E+03  0.11936276433E+02  0.48707916642E+03  0.25500000920E-02 0.  1.
       -2    1    3    3    0  502 -0.14715031391E+03 -0.46416637618E+03  0.11806659216E+04  0.12771357242E+04  0.25500000920E-02 0. -1.
</event>
<event>
 5   0  0.1476511E-04  0.1293908E+04  0.7818609E-02  0.9034410E-01
        1   -1    0    0  501    0  0.00000000000E+00  0.00000000000E+00  0.61234567716E+03  0.61234567718E+03  0.50400001928E-02 0. -1.
       -1   -1    0    0    0  501  0.00000000000E+00  0.00000000000E+00 -0.68351876244E+03  0.68351876245E+03  0.50400001928E-02 0.  1.
    10030    2    1    2    0    0  0.00000000000E+00  0.00000000000E+00 -0.71173085280E+02  0.12958644396E+04  0.12939084349E+04 0.  0.
        2    1    3    3  502    0 -0.15723796083E+03 -0.71807749418E+02 -0.65996273072E+03  0.68222498866E+03  0.25500000920E-02 0.  1.
       -2    1    3    3    0  502  0.15723796083E+03  0.71807749418E+02  0.58878964544E+03  0.61363945097E+03  0.25500000920E-02 0. -1.
</event>
<event>
 5   0  0.2756984E-04  0.1296753E+04  0.7818609E-02  0.9032144E-01
       -2   -1    0    0    0  501  0.00000000000E+00  0.00000000000E+00  0.74947806717E+03  0.74947806718E+03  0.25500000920E-02 0. -1.
        2   -1    0    0  501    0  0.00000000000E+00  0.00000000000E+00 -0.56091289050E+03  0.56091289051E+03  0.25500000920E-02 0.  1.
    10030    2    1    2    0    0  0.00000000000E+00  0.00000000000E+00  0.18856517667E+03  0.13103909577E+04  0.12967527274E+04 0.  0.
        3    1    3    3  502    0  0.29688382628E+03  0.38316628546E+03 -0.34086857193E+03  0.59257725416E+03  0.10100000352E+00 0.  1.
       -3    1    3    3    0  502 -0.29688382628E+03 -0.38316628546E+03  0.52943374859E+03  0.71781370353E+03  0.10100000352E+00 0. -1.
</event>
<event>
 5   0  0.2661377E-04  0.1298799E+04  0.7818609E-02  0.9030518E-01
       -2   -1    0    0    0  501  0.00000000000E+00  0.00000000000E+00  0.63198905556E+03  0.63198905556E+03  0.25500000920E-02 0.  1.
        2   -1    0    0  501    0  0.00000000000E+00  0.00000000000E+00 -0.66728998531E+03  0.66728998532E+03  0.25500000920E-02 0. -1.
    10030    2    1    2    0    0  0.00000000000E+00  0.00000000000E+00 -0.35300929757E+02  0.12992790409E+04  0.12987993958E+04 0.  0.
        5    1    3    3  502    0 -0.31408275125E+03  0.48476645465E+03  0.27919365918E+03  0.64157437566E+03  0.46999998093E+01 0.  1.
       -5    1    3    3    0  502  0.31408275125E+03 -0.48476645465E+03 -0.31449458894E+03  0.65770466522E+03  0.46999998093E+01 0. -1.
</event>
<event>
 5   0  0.1476511E-04  0.1300493E+04  0.7818609E-02  0.9029174E-01
       -1   -1    0    0    0  501  0.00000000000E+00  0.00000000000E+00  0.45338388170E+03  0.45338388173E+03  0.50400001928E-02 0.  1.
        1   -1    0    0  501    0  0.00000000000E+00  0.00000000000E+00 -0.93258851872E+03  0.93258851873E+03  0.50400001928E-02 0. -1.
    10030    2    1    2    0    0  0.00000000000E+00  0.00000000000E+00 -0.47920463702E+03  0.13859724005E+04  0.13004931414E+04 0.  0.
        2    1    3    3  502    0 -0.28678167784E+03 -0.41699652211E+03  0.19551091843E+03  0.54254432946E+03  0.25500000920E-02 0.  1.
       -2    1    3    3    0  502  0.28678167784E+03  0.41699652211E+03 -0.67471555545E+03  0.84342807101E+03  0.25500000920E-02 0. -1.
</event>
<event>
 5   0  0.2756984E-04  0.1288152E+04  0.7818609E-02  0.9039013E-01
       -2   -1    0    0    0  501  0.00000000000E+00  0.00000000000E+00  0.56810033746E+03  0.56810033746E+03  0.25500000920E-02 0.  1.
        2   -1    0    0  501    0  0.00000000000E+00  0.00000000000E+00 -0.73021290984E+03  0.73021290985E+03  0.25500000920E-02 0. -1.
    10030    2    1    2    0    0  0.00000000000E+00  0.00000000000E+00 -0.16211257239E+03  0.12983132473E+04  0.12881524762E+04 0.  0.
        3    1    3    3  502    0  0.21630211675E+03  0.29099300441E+03 -0.61758090355E+03  0.71614922814E+03  0.10100000352E+00 0. -1.
       -3    1    3    3    0  502 -0.21630211675E+03 -0.29099300441E+03  0.45546833117E+03  0.58216401917E+03  0.10100000352E+00 0.  1.
</event>
<event>
 5   0  0.2794825E-04  0.1304959E+04  0.7818609E-02  0.9025642E-01
       -2   -1    0    0    0  501  0.00000000000E+00  0.00000000000E+00  0.79268799645E+03  0.79268799645E+03  0.25500000920E-02 0.  1.
        2   -1    0    0  501    0  0.00000000000E+00  0.00000000000E+00 -0.53707101579E+03  0.53707101580E+03  0.25500000920E-02 0. -1.
    10030    2    1    2    0    0  0.00000000000E+00  0.00000000000E+00  0.25561698066E+03  0.13297590122E+04  0.13049593825E+04 0.  0.
        1    1    3    3  502    0  0.58231458871E+03  0.13447987814E+03  0.39461372275E+03  0.71616695543E+03  0.50400001928E-02 0.  1.
       -1    1    3    3    0  502 -0.58231458871E+03 -0.13447987814E+03 -0.13899674209E+03  0.61359205681E+03  0.50400001928E-02 0. -1.
</event>
<event>
 5   0  0.1408341E-04  0.1301166E+04  0.7818609E-02  0.9028641E-01
       -1   -1    0    0    0  501  0.00000000000E+00  0.00000000000E+00  0.87854938871E+03  0.87854938872E+03  0.50400001928E-02 0. -1.
        1   -1    0    0  501    0  0.00000000000E+00  0.00000000000E+00 -0.48176932214E+03  0.48176932217E+03  0.50400001928E-02 0.  1.
    10030    2    1    2    0    0  0.00000000000E+00  0.00000000000E+00  0.39678006656E+03  0.13603187109E+04  0.13011658518E+04 0.  0.
        5    1    3    3  502    0  0.48853831363E+03 -0.35496932853E+02 -0.24921684814E+03  0.54960062183E+03  0.46999998093E+01 0.  1.
       -5    1    3    3    0  502 -0.48853831363E+03  0.35496932853E+02  0.64599691471E+03  0.81071808906E+03  0.46999998093E+01 0. -1.
</event>
<event>
 5   0  0.2756984E-04  0.1293826E+04  0.7818609E-02  0.9034476E-01
       -2   -1    0    0    0  501  0.00000000000E+00  0.00000000000E+00  0.53832931271E+03  0.53832931272E+03  0.25500000920E-02 0.  1.
        2   -1    0    0  501    0  0.00000000000E+00  0.00000000000E+00 -0.77739822851E+03  0.77739822852E+03  0.25500000920E-02 0. -1.
    10030    2    1    2    0    0  0.00000000000E+00  0.00000000000E+00 -0.23906891580E+03  0.13157275412E+04  0.12938257287E+04 0.  0.
        3    1    3    3  502    0  0.63583624344E+02 -0.63085546741E+03  0.10992297877E+02  0.63414693791E+03  0.10100000352E+00 0. -1.
       -3    1    3    3    0  502 -0.63583624344E+02  0.63085546741E+03 -0.25006121368E+03  0.68158060333E+03  0.10100000352E+00 0.  1.
</event>
<event>
 5   0  0.1430636E-04  0.1300533E+04  0.7818609E-02  0.9029142E-01
        1   -1    0    0  501    0  0.00000000000E+00  0.00000000000E+00  0.40291831789E+03  0.40291831792E+03  0.50400001928E-02 0. -1.
       -1   -1    0    0    0  501  0.00000000000E+00  0.00000000000E+00 -0.10494603276E+04  0.10494603276E+04  0.50400001928E-02 0.  1.
    10030    2    1    2    0    0  0.00000000000E+00  0.00000000000E+00 -0.64654200968E+03  0.14523786455E+04  0.13005334135E+04 0.  0.
        4    1    3    3  502    0  0.11119841755E+03  0.32676679078E+03 -0.93870754340E+03  0.10001575319E+04  0.12699999809E+01 0.  1.
       -4    1    3    3    0  502 -0.11119841755E+03 -0.32676679078E+03  0.29216553372E+03  0.45222111364E+03  0.12699999809E+01 0. -1.
</event>
<event>
 5   0  0.1479690E-04  0.1296231E+04  0.7818609E-02  0.9032560E-01
        1   -1    0    0  501    0  0.00000000000E+00  0.00000000000E+00  0.74042363617E+03  0.74042363619E+03  0.50400001928E-02 0. -1.
       -1   -1    0    0    0  501  0.00000000000E+00  0.00000000000E+00 -0.56731518669E+03  0.56731518672E+03  0.50400001928E-02 0.  1.
    10030    2    1    2    0    0  0.00000000000E+00  0.00000000000E+00  0.17310844948E+03  0.13077388229E+04  0.12962308026E+04 0.  0.
        1    1    3    3  502    0  0.60205534392E+03  0.86600917955E+02  0.31233387140E+03  0.68375639184E+03  0.50400001928E-02 0. -1.
       -1    1    3    3    0  502 -0.60205534392E+03 -0.86600917955E+02 -0.13922542192E+03  0.62398243106E+03  0.50400001928E-02 0.  1.
</event>
<event>
 5   0  0.1475396E-04  0.1297835E+04  0.7818609E-02  0.9031284E-01
       -1   -1    0    0    0  501  0.00000000000E+00  0.00000000000E+00  0.57933051038E+03  0.57933051040E+03  0.50400001928E-02 0. -1.
        1   -1    0    0  501    0  0.00000000000E+00  0.00000000000E+00 -0.72686295124E+03  0.72686295126E+03  0.50400001928E-02 0.  1.
    10030    2    1    2    0    0  0.00000000000E+00  0.00000000000E+00 -0.14753244086E+03  0.13061934617E+04  0.12978349426E+04 0.  0.
        3    1    3    3  502    0  0.22980932281E+03  0.49285866879E+03  0.28259309459E+03  0.61284652203E+03  0.10100000352E+00 0. -1.
       -3    1    3    3    0  502 -0.22980932281E+03 -0.49285866879E+03 -0.43012553545E+03  0.69334693963E+03  0.10100000352E+00 0.  1.
</event>
<event>
 5   0  0.2573071E-04  0.1280299E+04  0.7818609E-02  0.9045336E-01
       -2   -1    0    0    0  501  0.00000000000E+00  0.00000000000E+00  0.80925222334E+03  0.80925222334E+03  0.25500000920E-02 0. -1.
        2   -1    0    0  501    0  0.00000000000E+00  0.00000000000E+00 -0.50638275519E+03  0.50638275520E+03  0.25500000920E-02 0.  1.
    10030    2    1    2    0    0  0.00000000000E+00  0.00000000000E+00  0.30286946814E+03  0.13156349785E+04  0.12802989815E+04 0.  0.
        4    1    3    3  502    0  0.20239135740E+02 -0.24847926606E+03 -0.45444684845E+03  0.51833880738E+03  0.12699999809E+01 0.  1.
       -4    1    3    3    0  502 -0.20239135740E+02  0.24847926606E+03  0.75731631659E+03  0.79729617116E+03  0.12699999809E+01 0. -1.
</event>
<event>
 5   0  0.2573071E-04  0.1302924E+04  0.7818609E-02  0.9027249E-01
       -2   -1    0    0    0  501  0.00000000000E+00  0.00000000000E+00  0.33044071180E+03  0.33044071181E+03  0.25500000920E-02 0. -1.
        2   -1    0    0  501    0  0.00000000000E+00  0.00000000000E+00 -0.12843539646E+04  0.12843539646E+04  0.25500000920E-02 0.  1.
    10030    2    1    2    0    0  0.00000000000E+00  0.00000000000E+00 -0.95391325279E+03  0.16147946764E+04  0.13029241548E+04 0.  0.
        4    1    3    3  502    0  0.25035775870E+03  0.37594271676E+03  0.10486976677E+03  0.46369301754E+03  0.12699999809E+01 0. -1.
       -4    1    3    3    0  502 -0.25035775870E+03 -0.37594271676E+03 -0.10587830196E+04  0.11511016589E+04  0.12699999809E+01 0.  1.
</event>
<event>
 5   0  0.1476511E-04  0.1298634E+04  0.7818609E-02  0.9030649E-01
       -1   -1    0    0    0  501  0.00000000000E+00  0.00000000000E+00  0.39627184706E+03  0.39627184709E+03  0.50400001928E-02 0.  1.
        1   -1    0    0  501    0  0.00000000000E+00  0.00000000000E+00 -0.10639485339E+04  0.10639485340E+04  0.50400001928E-02 0. -1.
    10030    2    1    2    0    0  0.00000000000E+00  0.00000000000E+00 -0.66767668689E+03  0.14602203810E+04  0.12986344378E+04 0.  0.
        2    1    3    3  502    0 -0.27280848937E+02  0.14792712647E+03  0.37641029858E+03  0.40535341660E+03  0.25500000920E-02 0.  1.
       -2    1    3    3    0  502  0.27280848937E+02 -0.14792712647E+03 -0.10440869855E+04  0.10548669645E+04  0.25500000920E-02 0. -1.
</event>
<event>
 5   0  0.1475396E-04  0.1300005E+04  0.7818609E-02  0.9029561E-01
       -1   -1    0    0    0  501  0.00000000000E+00  0.00000000000E+00  0.13343215615E+04  0.13343215615E+04  0.50400001928E-02 0.  1.
        1   -1    0    0  501    0  0.00000000000E+00  0.00000000000E+00 -0.31664272832E+03  0.31664272836E+03  0.50400001928E-02 0. -1.
    10030    2    1    2    0    0  0.00000000000E+00  0.00000000000E+00  0.10176788331E+04  0.16509642898E+04  0.13000049534E+04 0.  0.
        3    1    3    3  502    0  0.39761608683E+03 -0.48036468692E+03  0.74181679665E+03  0.96909285156E+03  0.10100000352E+00 0.  1.
       -3    1    3    3    0  502 -0.39761608683E+03  0.48036468692E+03  0.27586203649E+03  0.68187143827E+03  0.10100000352E+00 0. -1.
</event>
<event>
 5   0  0.1408341E-04  0.1299889E+04  0.7818609E-02  0.9029653E-01
        1   -1    0    0  501    0  0.00000000000E+00  0.00000000000E+00  0.50929129431E+03  0.50929129434E+03  0.50400001928E-02 0. -1.
       -1   -1    0    0    0  501  0.00000000000E+00  0.00000000000E+00 -0.82944212072E+03  0.82944212074E+03  0.50400001928E-02 0.  1.
    10030    2    1    2    0    0  0.00000000000E+00  0.00000000000E+00 -0.32015082641E+03  0.13387334151E+04  0.12998886895E+04 0.  0.
        5    1    3    3  502    0 -0.25881003981E+03  0.40577773629E+03 -0.60989666089E+03  0.77693901623E+03  0.46999998093E+01 0.  1.
       -5    1    3    3    0  502  0.25881003981E+03 -0.40577773629E+03  0.28974583448E+03  0.56179439885E+03  0.46999998093E+01 0. -1.
</event>
<event>
 5   0  0.2723209E-04  0.1299736E+04  0.7818609E-02  0.9029774E-01
       -2   -1    0    0    0  501  0.00000000000E+00  0.00000000000E+00  0.51052074980E+03  0.51052074980E+03  0.25500000920E-02 0.  1.
        2   -1    0    0  501    0  0.00000000000E+00  0.00000000000E+00 -0.82725045791E+03  0.82725045792E+03  0.25500000920E-02 0. -1.
    10030    2    1    2    0    0  0.00000000000E+00  0.00000000000E+00 -0.31672970812E+03  0.13377712077E+04  0.12997361641E+04 0.  0.
        2    1    3    3  502    0 -0.54890106551E+03  0.33940841270E+03 -0.23700809966E+03  0.68750511972E+03  0.25500000920E-02 0. -1.
       -2    1    3    3    0  502  0.54890106551E+03 -0.33940841270E+03 -0.79721608456E+02  0.65026608800E+03  0.25500000920E-02 0.  1.
</event>
<event>
 5   0  0.2661377E-04  0.1303337E+04  0.7818609E-02  0.9026923E-01
       -2   -1    0    0    0  501  0.00000000000E+00  0.00000000000E+00  0.42082064734E+03  0.42082064735E+03  0.25500000920E-02 0.  1.
        2   -1    0    0  501    0  0.00000000000E+00  0.00000000000E+00 -0.10091514899E+04  0.10091514899E+04  0.25500000920E-02 0. -1.
    10030    2    1    2    0    0  0.00000000000E+00  0.00000000000E+00 -0.58833084252E+03  0.14299721372E+04  0.13033369223E+04 0.  0.
        5    1    3    3  502    0  0.63184833140E+03  0.26856854411E+02 -0.46658435903E+03  0.78592407942E+03  0.46999998093E+01 0.  1.
       -5    1    3    3    0  502 -0.63184833140E+03 -0.26856854411E+02 -0.12174648349E+03  0.64404805780E+03  0.46999998093E+01 0. -1.
</event>
<event>
 5   0  0.2794825E-04  0.1298403E+04  0.7818609E-02  0.9030832E-01
       -2   -1    0    0    0  501  0.00000000000E+00  0.00000000000E+00  0.45594003768E+03  0.45594003769E+03  0.25500000920E-02 0. -1.
        2   -1    0    0  501    0  0.00000000000E+00  0.00000000000E+00 -0.92438192001E+03  0.92438192001E+03  0.25500000920E-02 0.  1.
    10030    2    1    2    0    0  0.00000000000E+00  0.00000000000E+00 -0.46844188233E+03  0.13803219577E+04  0.12984032154E+04 0.  0.
        1    1    3    3  502    0  0.43611235562E+01  0.15191687842E+03 -0.90520373773E+03  0.91787339223E+03  0.50400001928E-02 0.  1.
       -1    1    3    3    0  502 -0.43611235562E+01 -0.15191687842E+03  0.43676185540E+03  0.46244856547E+03  0.50400001928E-02 0. -1.
</event>
<event>
 5   0  0.2723209E-04  0.1300128E+04  0.7818609E-02  0.9029464E-01
        2   -1    0    0  501    0  0.00000000000E+00  0.00000000000E+00  0.11911426129E+04  0.11911426129E+04  0.25500000920E-02 0. -1.
       -2   -1    0    0    0  501  0.00000000000E+00  0.00000000000E+00 -0.35477137173E+03  0.35477137174E+03  0.25500000920E-02 0.  1.
    10030    2    1    2    0    0  0.00000000000E+00  0.00000000000E+00  0.83637124112E+03  0.15459139846E+04  0.13001281455E+04 0.  0.
        2    1    3    3  502    0  0.30763940581E+03  0.76194905622E+02  0.10930531732E+04  0.11380742098E+04  0.25500000920E-02 0. -1.
       -2    1    3    3    0  502 -0.30763940581E+03 -0.76194905622E+02 -0.25668193205E+03  0.40783977479E+03  0.25500000920E-02 0.  1.
</event>
<event>
 5   0  0.2756984E-04  0.1295922E+04  0.7818609E-02  0.9032805E-01
        2   -1    0    0  501    0  0.00000000000E+00  0.00000000000E+00  0.11923069826E+04  0.11923069826E+04  0.25500000920E-02 0.  1.
       -2   -1    0    0    0  501  0.00000000000E+00  0.00000000000E+00 -0.35213550869E+03  0.35213550870E+03  0.25500000920E-02 0. -1.
    10030    2    1    2    0    0  0.00000000000E+00  0.00000000000E+00  0.84017147387E+03  0.15444424913E+04  0.12959222597E+04 0.  0.
        3    1    3    3  502    0  0.60580674211E+03  0.22474905564E+03  0.47773184427E+03  0.80358053238E+03  0.10100000352E+00 0.  1.
       -3    1    3    3    0  502 -0.60580674211E+03 -0.22474905564E+03  0.36243962961E+03  0.74086195888E+03  0.10100000352E+00 0. -1.
</event>
<event>
 5   0  0.1475396E-04  0.1301762E+04  0.7818609E-02  0.9028169E-01
       -1   -1    0    0    0  501  0.00000000000E+00  0.00000000000E+00  0.24625681325E+03  0.24625681330E+03  0.50400001928E-02 0.  1.
        1   -1    0    0  501    0  0.00000000000E+00  0.00000000000E+00 -0.17203434621E+04  0.17203434621E+04  0.50400001928E-02 0. -1.
    10030    2    1    2    0    0  0.00000000000E+00  0.00000000000E+00 -0.14740866488E+04  0.19666002754E+04  0.13017623419E+04 0.  0.
        3    1    3    3  502    0 -0.43995177740E+01  0.50863991825E+03 -0.13505382904E+04  0.14431519692E+04  0.10100000352E+00 0. -1.
       -3    1    3    3    0  502  0.43995177740E+01 -0.50863991825E+03 -0.12354835847E+03  0.52344830621E+03  0.10100000352E+00 0.  1.
</event>
<event>
 5   0  0.2661377E-04  0.1300644E+04  0.7818609E-02  0.9029054E-01
        2   -1    0    0  501    0  0.00000000000E+00  0.00000000000E+00  0.91091262174E+03  0.91091262174E+03  0.25500000920E-02 0.  1.
       -2   -1    0    0    0  501  0.00000000000E+00  0.00000000000E+00 -0.46428040237E+03  0.46428040238E+03  0.25500000920E-02 0. -1.
    10030    2    1    2    0    0  0.00000000000E+00  0.00000000000E+00  0.44663221937E+03  0.13751930241E+04  0.13006442689E+04 0.  0.
        5    1    3    3  502    0 -0.24401549721E+03  0.39616579965E+03 -0.25704314987E+03  0.53158646953E+03  0.46999998093E+01 0. -1.
       -5    1    3    3    0  502  0.24401549721E+03 -0.39616579965E+03  0.70367536924E+03  0.84360655460E+03  0.46999998093E+01 0.  1.
</event>
<event>
 5   0  0.1408341E-04  0.1300679E+04  0.7818609E-02  0.9029027E-01
        1   -1    0    0  501    0  0.00000000000E+00  0.00000000000E+00  0.17457556442E+04  0.17457556442E+04  0.50400001928E-02 0.  1.
       -1   -1    0    0    0  501  0.00000000000E+00  0.00000000000E+00 -0.24226834843E+03  0.24226834848E+03  0.50400001928E-02 0. -1.
    10030    2    1    2    0    0  0.00000000000E+00  0.00000000000E+00  0.15034872958E+04  0.19880239927E+04  0.13006788024E+04 0.  0.
        5    1    3    3  502    0  0.23883920163E+03 -0.19135422561E+03  0.16287851620E+04  0.16572941193E+04  0.46999998093E+01 0.  1.
       -5    1    3    3    0  502 -0.23883920163E+03  0.19135422561E+03 -0.12529786622E+03  0.33072987341E+03  0.46999998093E+01 0. -1.
</event>
<event>
 5   0  0.1475396E-04  0.1302058E+04  0.7818609E-02  0.9027935E-01
        1   -1    0    0  501    0  0.00000000000E+00  0.00000000000E+00  0.96660434568E+03  0.96660434569E+03  0.50400001928E-02 0.  1.
       -1   -1    0    0    0  501  0.00000000000E+00  0.00000000000E+00 -0.43848226608E+03  0.43848226611E+03  0.50400001928E-02 0. -1.
    10030    2    1    2    0    0  0.00000000000E+00  0.00000000000E+00  0.52812207960E+03  0.14050866118E+04  0.13020581614E+04 0.  0.
        3    1    3    3  502    0  0.13489782197E+03 -0.14172673237E+03  0.93412438549E+03  0.95439628394E+03  0.10100000352E+00 0.  1.
       -3    1    3    3    0  502 -0.13489782197E+03  0.14172673237E+03 -0.40600230588E+03  0.45069032786E+03  0.10100000352E+00 0. -1.
</event>
<event>
 5   0  0.2756984E-04  0.1299039E+04  0.7818609E-02  0.9030327E-01
        2   -1    0    0  501    0  0.00000000000E+00  0.00000000000E+00  0.11237120085E+04  0.11237120085E+04  0.25500000920E-02 0. -1.
       -2   -1    0    0    0  501  0.00000000000E+00  0.00000000000E+00 -0.37543054007E+03  0.37543054008E+03  0.25500000920E-02 0.  1.
    10030    2    1    2    0    0  0.00000000000E+00  0.00000000000E+00  0.74828146843E+03  0.14991425486E+04  0.12990393470E+04 0.  0.
        3    1    3    3  502    0 -0.44863583035E+03 -0.84890523592E+02  0.90724607844E+03  0.10156652826E+04  0.10100000352E+00 0. -1.
       -3    1    3    3    0  502  0.44863583035E+03  0.84890523592E+02 -0.15896461001E+03  0.48347726597E+03  0.10100000352E+00 0.  1.
</event>
<event>
 5   0  0.1479690E-04  0.1299412E+04  0.7818609E-02  0.9030031E-01
        1   -1    0    0  501    0  0.00000000000E+00  0.00000000000E+00  0.61109585750E+03  0.61109585753E+03  0.50400001928E-02 0. -1.
       -1   -1    0    0    0  501  0.00000000000E+00  0.00000000000E+00 -0.69075571337E+03  0.69075571339E+03  0.50400001928E-02 0.  1.
    10030    2    1    2    0    0  0.00000000000E+00  0.00000000000E+00 -0.79659855862E+02  0.13018515709E+04  0.12994121055E+04 0.  0.
        1    1    3    3  502    0 -0.16852893352E+02 -0.60864617682E+03  0.18727550850E+03  0.63702928086E+03  0.50400001928E-02 0. -1.
       -1    1    3    3    0  502  0.16852893352E+02  0.60864617682E+03 -0.26693536436E+03  0.66482229005E+03  0.50400001928E-02 0.  1.
</event>
<event>
 5   0  0.1475396E-04  0.1302778E+04  0.7818609E-02  0.9027365E-01
        1   -1    0    0  501    0  0.00000000000E+00  0.00000000000E+00  0.57315301797E+03  0.57315301799E+03  0.50400001928E-02 0. -1.
       -1   -1    0    0    0  501  0.00000000000E+00  0.00000000000E+00 -0.74030409630E+03  0.74030409631E+03  0.50400001928E-02 0.  1.
    10030    2    1    2    0    0  0.00000000000E+00  0.00000000000E+00 -0.16715107833E+03  0.13134571143E+04  0.13027778430E+04 0.  0.
        3    1    3    3  502    0 -0.15285993117E+03 -0.63164000037E+03 -0.12834980984E+03  0.66242654877E+03  0.10100000352E+00 0.  1.
       -3    1    3    3    0  502  0.15285993117E+03  0.63164000037E+03 -0.38801268489E+02  0.65103056554E+03  0.10100000352E+00 0. -1.
</event>
<event>
 5   0  0.1430636E-04  0.1301570E+04  0.7818609E-02  0.9028321E-01
       -1   -1    0    0    0  501  0.00000000000E+00  0.00000000000E+00  0.70188918078E+03  0.70188918079E+03  0.50400001928E-02 0.  1.
        1   -1    0    0  501    0  0.00000000000E+00  0.00000000000E+00 -0.60340202859E+03  0.60340202861E+03  0.50400001928E-02 0. -1.
    10030    2    1    2    0    0  0.00000000000E+00  0.00000000000E+00  0.98487152188E+02  0.13052912094E+04  0.13015703677E+04 0.  0.
        4    1    3    3  502    0  0.99577422265E+02  0.51394658813E+03  0.43695320333E+03  0.68189916650E+03  0.12699999809E+01 0.  1.
       -4    1    3    3    0  502 -0.99577422265E+02 -0.51394658813E+03 -0.33846605114E+03  0.62339204290E+03  0.12699999809E+01 0. -1.
</event>
<event>
 5   0  0.1408341E-04  0.1299018E+04  0.7818609E-02  0.9030344E-01
        1   -1    0    0  501    0  0.00000000000E+00  0.00000000000E+00  0.67010020970E+03  0.67010020972E+03  0.50400001928E-02 0. -1.
       -1   -1    0    0    0  501  0.00000000000E+00  0.00000000000E+00 -0.62955090505E+03  0.62955090507E+03  0.50400001928E-02 0.  1.
    10030    2    1    2    0    0  0.00000000000E+00  0.00000000000E+00  0.40549304648E+02  0.12996511148E+04  0.12990183887E+04 0.  0.
        5    1    3    3  502    0 -0.18811313382E+03 -0.33108281935E+03 -0.50613532968E+03  0.63340148905E+03  0.46999998093E+01 0. -1.
       -5    1    3    3    0  502  0.18811313382E+03  0.33108281935E+03  0.54668463433E+03  0.66624962574E+03  0.46999998093E+01 0.  1.
</event>
<event>
 5   0  0.2573071E-04  0.1304069E+04  0.7818609E-02  0.9026344E-01
        2   -1    0    0  501    0  0.00000000000E+00  0.00000000000E+00  0.76637725029E+03  0.76637725030E+03  0.25500000920E-02 0. -1.
       -2   -1    0    0    0  501  0.00000000000E+00  0.00000000000E+00 -0.55475195183E+03  0.55475195183E+03  0.25500000920E-02 0.  1.
    10030    2    1    2    0    0  0.00000000000E+00  0.00000000000E+00  0.21162529847E+03  0.13211292021E+04  0.13040694390E+04 0.  0.
        4    1    3    3  502    0  0.54518544596E+03  0.20832377780E+03 -0.18871676630E+03  0.61338535821E+03  0.12699999809E+01 0.  1.
       -4    1    3    3    0  502 -0.54518544596E+03 -0.20832377780E+03  0.40034206477E+03  0.70774384392E+03  0.12699999809E+01 0. -1.
</event>
<event>
 5   0  0.2794825E-04  0.1304741E+04  0.7818609E-02  0.9025814E-01
       -2   -1    0    0    0  501  0.00000000000E+00  0.00000000000E+00  0.56474276964E+03  0.56474276964E+03  0.25500000920E-02 0. -1.
        2   -1    0    0  501    0  0.00000000000E+00  0.00000000000E+00 -0.75359529341E+03  0.75359529342E+03  0.25500000920E-02 0.  1.
    10030    2    1    2    0    0  0.00000000000E+00  0.00000000000E+00 -0.18885252378E+03  0.13183380631E+04  0.13047413432E+04 0.  0.
        1    1    3    3  502    0 -0.53892274986E+03  0.38956656933E+02  0.27494051659E+03  0.60625707346E+03  0.50400001928E-02 0.  1.
       -1    1    3    3    0  502  0.53892274986E+03 -0.38956656933E+02 -0.46379304037E+03  0.71208098960E+03  0.50400001928E-02 0. -1.
</event>
<event>
 5   0  0.1430636E-04  0.1297872E+04  0.7818609E-02  0.9031254E-01
        1   -1    0    0  501    0  0.00000000000E+00  0.00000000000E+00  0.24721261231E+04  0.24721261231E+04  0.50400001928E-02 0.  1.
       -1   -1    0    0    0  501  0.00000000000E+00  0.00000000000E+00 -0.17034655668E+03  0.17034655676E+03  0.50400001928E-02 0. -1.
    10030    2    1    2    0    0  0.00000000000E+00  0.00000000000E+00  0.23017795664E+04  0.26424726798E+04  0.12978723710E+04 0.  0.
        4    1    3    3  502    0 -0.45815943363E+03 -0.19640780585E+03  0.19968252652E+04  0.20581056449E+04  0.12699999809E+01 0.  1.
       -4    1    3    3    0  502  0.45815943363E+03  0.19640780585E+03  0.30495430116E+03  0.58436703494E+03  0.12699999809E+01 0. -1.
</event>
<event>
 5   0  0.2723209E-04  0.1298503E+04  0.7818609E-02  0.9030753E-01
       -2   -1    0    0    0  501  0.00000000000E+00  0.00000000000E+00  0.47555513452E+03  0.47555513453E+03  0.25500000920E-02 0. -1.
        2   -1    0    0  501    0  0.00000000000E+00  0.00000000000E+00 -0.88639000203E+03  0.88639000203E+03  0.25500000920E-02 0.  1.
    10030    2    1    2    0    0  0.00000000000E+00  0.00000000000E+00 -0.41083486750E+03  0.13619451366E+04  0.12985027018E+04 0.  0.
        2    1    3    3  502    0  0.61450249083E+03 -0.71225016576E+02 -0.41212766389E+03  0.74332733407E+03  0.25500000920E-02 0.  1.
       -2    1    3    3    0  502 -0.61450249083E+03  0.71225016576E+02  0.12927963826E+01  0.61861780249E+03  0.25500000920E-02 0. -1.
</event>
<event>
 5   0  0.1408341E-04  0.1299669E+04  0.7818609E-02  0.9029828E-01
       -1   -1    0    0    0  501  0.00000000000E+00  0.00000000000E+00  0.65366225707E+03  0.65366225709E+03  0.50400001928E-02 0.  1.
        1   -1    0    0  501    0  0.00000000000E+00  0.00000000000E+00 -0.64602932916E+03  0.64602932918E+03  0.50400001928E-02 0. -1.
    10030    2    1    2    0    0  0.00000000000E+00  0.00000000000E+00  0.76329279115E+01  0.12996915863E+04  0.12996691725E+04 0.  0.
        5    1    3    3  502    0 -0.26227148898E+03 -0.51687336401E+03  0.29762161773E+03  0.65157127446E+03  0.46999998093E+01 0. -1.
       -5    1    3    3    0  502  0.26227148898E+03  0.51687336401E+03 -0.28998868982E+03  0.64812031181E+03  0.46999998093E+01 0.  1.
</event>
<event>
 5   0  0.2723209E-04  0.1300090E+04  0.7818609E-02  0.9029494E-01
       -2   -1    0    0    0  501  0.00000000000E+00  0.00000000000E+00  0.32956365336E+03  0.32956365337E+03  0.25500000920E-02 0. -1.
        2   -1    0    0  501    0  0.00000000000E+00  0.00000000000E+00 -0.12821757659E+04  0.12821757659E+04  0.25500000920E-02 0.  1.
    10030    2    1    2    0    0  0.00000000000E+00  0.00000000000E+00 -0.95261211251E+03  0.16117394192E+04  0.13000900425E+04 0.  0.
        2    1    3    3  502    0  0.27302953674E+03 -0.44656733523E+03  0.15726432539E+01  0.52342142299E+03  0.25500000920E-02 0. -1.
       -2    1    3    3    0  502 -0.27302953674E+03  0.44656733523E+03 -0.95418475577E+03  0.10883179963E+04  0.25500000920E-02 0.  1.
</event>
<event>
 5   0  0.1430636E-04  0.1299143E+04  0.7818609E-02  0.9030245E-01
       -1   -1    0    0    0  501  0.00000000000E+00  0.00000000000E+00  0.48440684024E+03  0.48440684026E+03  0.50400001928E-02 0.  1.
        1   -1    0    0  501    0  0.00000000000E+00  0.00000000000E+00 -0.87105081569E+03  0.87105081570E+03  0.50400001928E-02 0. -1.
    10030    2    1    2    0    0  0.00000000000E+00  0.00000000000E+00 -0.38664397545E+03  0.13554576560E+04  0.12991427533E+04 0.  0.
        4    1    3    3  502    0 -0.15874502409E+02 -0.92265447093E+02 -0.86397342338E+03  0.86903199122E+03  0.12699999809E+01 0. -1.
       -4    1    3    3    0  502  0.15874502409E+02  0.92265447093E+02  0.47732944793E+03  0.48642566474E+03  0.12699999809E+01 0.  1.
</event>
<event>
 5   0  0.1430636E-04  0.1301289E+04  0.7818609E-02  0.9028544E-01
       -1   -1    0    0    0  501  0.00000000000E+00  0.00000000000E+00  0.10821650296E+04  0.10821650296E+04  0.50400001928E-02 0.  1.
        1   -1    0    0  501    0  0.00000000000E+00  0.00000000000E+00 -0.39119567328E+03  0.39119567331E+03  0.50400001928E-02 0. -1.
    10030    2    1    2    0    0  0.00000000000E+00  0.00000000000E+00  0.69096935630E+03  0.14733607029E+04  0.13012890184E+04 0.  0.
        4    1    3    3  502    0  0.33199915025E+03  0.11444063669E+03 -0.27468130051E+03  0.44583800292E+03  0.12699999809E+01 0. -1.
       -4    1    3    3    0  502 -0.33199915025E+03 -0.11444063669E+03  0.96565065682E+03  0.10275227000E+04  0.12699999809E+01 0.  1.
</event>
<event>
 5   0  0.1476511E-04  0.1300313E+04  0.7818609E-02  0.9029317E-01
        1   -1    0    0  501    0  0.00000000000E+00  0.00000000000E+00  0.83883815896E+03  0.83883815898E+03  0.50400001928E-02 0.  1.
       -1   -1    0    0    0  501  0.00000000000E+00  0.00000000000E+00 -0.50391534715E+03  0.50391534718E+03  0.50400001928E-02 0. -1.
    10030    2    1    2    0    0  0.00000000000E+00  0.00000000000E+00  0.33492281181E+03  0.13427535062E+04  0.13003129194E+04 0.  0.
        2    1    3    3  502    0 -0.12113915588E+03  0.59207933665E+03  0.41501656777E+03  0.73312440111E+03  0.25500000920E-02 0.  1.
       -2    1    3    3    0  502  0.12113915588E+03 -0.59207933665E+03 -0.80093755964E+02  0.60962910505E+03  0.25500000920E-02 0. -1.
</event>
<event>
 5   0  0.2573071E-04  0.1297194E+04  0.7818609E-02  0.9031793E-01
        2   -1    0    0  501    0  0.00000000000E+00  0.00000000000E+00  0.17511306831E+04  0.17511306831E+04  0.25500000920E-02 0. -1.
       -2   -1    0    0    0  501  0.00000000000E+00  0.00000000000E+00 -0.24023242024E+03  0.24023242025E+03  0.25500000920E-02 0.  1.
    10030    2    1    2    0    0  0.00000000000E+00  0.00000000000E+00  0.15108982628E+04  0.19913631033E+04  0.12971944529E+04 0.  0.
        4    1    3    3  502    0  0.41313491711E+03  0.28490378496E+03  0.13862106595E+04  0.14742565014E+04  0.12699999809E+01 0. -1.
       -4    1    3    3    0  502 -0.41313491711E+03 -0.28490378496E+03  0.12468760328E+03  0.51710660190E+03  0.12699999809E+01 0.  1.
</event>
<event>
 5   0  0.1408341E-04  0.1305683E+04  0.7818609E-02  0.9025071E-01
       -1   -1    0    0    0  501  0.00000000000E+00  0.00000000000E+00  0.24990609410E+03  0.24990609415E+03  0.50400001928E-02 0. -1.
        1   -1    0    0  501    0  0.00000000000E+00  0.00000000000E+00 -0.17054480113E+04  0.17054480113E+04  0.50400001928E-02 0.  1.
    10030    2    1    2    0    0  0.00000000000E+00  0.00000000000E+00 -0.14555419172E+04  0.19553541055E+04  0.13056827352E+04 0.  0.
        5    1    3    3  502    0 -0.57987484504E+03 -0.24650026486E+03 -0.98351202119E+03  0.11680476028E+04  0.46999998093E+01 0.  1.
       -5    1    3    3    0  502  0.57987484504E+03  0.24650026486E+03 -0.47202989605E+03  0.78730650274E+03  0.46999998093E+01 0. -1.
</event>
<event>
 5   0  0.2661377E-04  0.1298818E+04  0.7818609E-02  0.9030503E-01
       -2   -1    0    0    0  501  0.00000000000E+00  0.00000000000E+00  0.30557126988E+03  0.30557126989E+03  0.25500000920E-02 0.  1.
        2   -1    0    0  501    0  0.00000000000E+00  0.00000000000E+00 -0.13801430535E+04  0.13801430535E+04  0.25500000920E-02 0. -1.
    10030    2    1    2    0    0  0.00000000000E+00  0.00000000000E+00 -0.10745717836E+04  0.16857143234E+04  0.12988180249E+04 0.  0.
        5    1    3    3  502    0  0.29674204776E+02  0.58360410434E+03 -0.16964873222E+03  0.60850397810E+03  0.46999998093E+01 0.  1.
       -5    1    3    3    0  502 -0.29674204776E+02 -0.58360410434E+03 -0.90492305137E+03  0.10772103453E+04  0.46999998093E+01 0. -1.
</event>
<event>
 5   0  0.2661377E-04  0.1300900E+04  0.7818609E-02  0.9028851E-01
        2   -1    0    0  501    0  0.00000000000E+00  0.00000000000E+00  0.53766246263E+03  0.53766246264E+03  0.25500000920E-02 0.  1.
       -2   -1    0    0    0  501  0.00000000000E+00  0.00000000000E+00 -0.78689781790E+03  0.78689781790E+03  0.25500000920E-02 0. -1.
    10030    2    1    2    0    0  0.00000000000E+00  0.00000000000E+00 -0.24923535527E+03  0.13245602805E+04  0.13009003323E+04 0.  0.
        5    1    3    3  502    0  0.53530706424E+03  0.28750206401E+03  0.11166374908E+03  0.61782034014E+03  0.46999998093E+01 0.  1.
       -5    1    3    3    0  502 -0.53530706424E+03 -0.28750206401E+03 -0.36089910435E+03  0.70673994040E+03  0.46999998093E+01 0. -1.
</event>
<event>
 5   0  0.2573071E-04  0.1299734E+04  0.7818609E-02  0.9029776E-01
        2   -1    0    0  501    0  0.00000000000E+00  0.00000000000E+00  0.11342535684E+04  0.11342535684E+04  0.25500000920E-02 0.  1.
       -2   -1    0    0    0  501  0.00000000000E+00  0.00000000000E+00 -0.37233916579E+03  0.37233916580E+03  0.25500000920E-02 0. -1.
    10030    2    1    2    0    0  0.00000000000E+00  0.00000000000E+00  0.76191440264E+03  0.15065927342E+04  0.12997338612E+04 0.  0.
        4    1    3    3  502    0  0.43195475693E+02  0.41191971334E+03 -0.19952561667E+03  0.45973447115E+03  0.12699999809E+01 0. -1.
       -4    1    3    3    0  502 -0.43195475693E+02 -0.41191971334E+03  0.96144001931E+03  0.10468582631E+04  0.12699999809E+01 0.  1.
</event>
<event>
 5   0  0.1430636E-04  0.1300083E+04  0.7818609E-02  0.9029500E-01
       -1   -1    0    0    0  501  0.00000000000E+00  0.00000000000E+00  0.43422636534E+03  0.43422636537E+03  0.50400001928E-02 0. -1.
        1   -1    0    0  501    0  0.00000000000E+00  0.00000000000E+00 -0.97311831049E+03  0.97311831051E+03  0.50400001928E-02 0.  1.
    10030    2    1    2    0    0  0.00000000000E+00  0.00000000000E+00 -0.53889194515E+03  0.14073446759E+04  0.13000825005E+04 0.  0.
        4    1    3    3  502    0 -0.33714942727E+03 -0.31703514110E+03 -0.76358390859E+03  0.89288465961E+03  0.12699999809E+01 0. -1.
       -4    1    3    3    0  502  0.33714942727E+03  0.31703514110E+03  0.22469196344E+03  0.51446001627E+03  0.12699999809E+01 0.  1.
</event>
<event>
 5   0  0.1476511E-04  0.1295395E+04  0.7818609E-02  0.9033225E-01
       -1   -1    0    0    0  501  0.00000000000E+00  0.00000000000E+00  0.12047834480E+04  0.12047834480E+04  0.50400001928E-02 0. -1.
        1   -1    0    0  501    0  0.00000000000E+00  0.00000000000E+00 -0.34820535720E+03  0.34820535724E+03  0.50400001928E-02 0.  1.
    10030    2    1    2    0    0  0.00000000000E+00  0.00000000000E+00  0.85657809080E+03  0.15529888053E+04  0.12953949991E+04 0.  0.
        2    1    3    3  502    0 -0.57627616406E+02  0.35798728369E+03  0.10717017847E+04  0.11313799330E+04  0.25500000920E-02 0. -1.
       -2    1    3    3    0  502  0.57627616406E+02 -0.35798728369E+03 -0.21512369392E+03  0.42160887223E+03  0.25500000920E-02 0.  1.
</event>
<event>
 5   0  0.2723209E-04  0.1303168E+04  0.7818609E-02  0.9027057E-01
       -2   -1    0    0    0  501  0.00000000000E+00  0.00000000000E+00  0.17159759815E+03  0.17159759817E+03  0.25500000920E-02 0.  1.
        2   -1    0    0  501    0  0.00000000000E+00  0.00000000000E+00 -0.24741689590E+04  0.24741689590E+04  0.25500000920E-02 0. -1.
    10030    2    1    2    0    0  0.00000000000E+00  0.00000000000E+00 -0.23025713609E+04  0.26457665572E+04  0.13031676037E+04 0.  0.
        2    1    3    3  502    0 -0.55041719463E+03  0.36901388239E+02 -0.44727879675E+03  0.71019653803E+03  0.25500000920E-02 0.  1.
       -2    1    3    3    0  502  0.55041719463E+03 -0.36901388239E+02 -0.18552925641E+04  0.19355700192E+04  0.25500000920E-02 0. -1.
</event>
<event>
 5   0  0.1476511E-04  0.1285892E+04  0.7818609E-02  0.9040828E-01
        1   -1    0    0  501    0  0.00000000000E+00  0.00000000000E+00  0.80696710958E+03  0.80696710959E+03  0.50400001928E-02 0.  1.
       -1   -1    0    0    0  501  0.00000000000E+00  0.00000000000E+00 -0.51226317932E+03  0.51226317935E+03  0.50400001928E-02 0. -1.
    10030    2    1    2    0    0  0.00000000000E+00  0.00000000000E+00  0.29470393026E+03  0.13192302889E+04  0.12858919662E+04 0.  0.
        2    1    3    3  502    0  0.93138621033E+01  0.62962362010E+03  0.14112283011E+02  0.62985062321E+03  0.25500000920E-02 0. -1.
       -2    1    3    3    0  502 -0.93138621033E+01 -0.62962362010E+03  0.28059164725E+03  0.68937966573E+03  0.25500000920E-02 0.  1.
</event>
<event>
 5   0  0.2756984E-04  0.1300122E+04  0.7818609E-02  0.9029468E-01
        2   -1    0    0  501    0  0.00000000000E+00  0.00000000000E+00  0.15295494891E+04  0.15295494891E+04  0.25500000920E-02 0.  1.
       -2   -1    0    0    0  501  0.00000000000E+00  0.00000000000E+00 -0.27627701411E+03  0.27627701412E+03  0.25500000920E-02 0. -1.
    10030    2    1    2    0    0  0.00000000000E+00  0.00000000000E+00  0.12532724750E+04  0.18058265032E+04  0.13001220955E+04 0.  0.
        3    1    3    3  502    0 -0.82585558825E+02  0.26923580262E+03  0.14404227382E+04  0.14676940985E+04  0.10100000352E+00 0.  1.
       -3    1    3    3    0  502  0.82585558825E+02 -0.26923580262E+03 -0.18715026316E+03  0.33813240475E+03  0.10100000352E+00 0. -1.
</event>
<event>
 5   0  0.2661377E-04  0.1287031E+04  0.7818609E-02  0.9039913E-01
       -2   -1    0    0    0  501  0.00000000000E+00  0.00000000000E+00  0.38218306273E+03  0.38218306274E+03  0.25500000920E-02 0.  1.
        2   -1    0    0  501    0  0.00000000000E+00  0.00000000000E+00 -0.10835444089E+04  0.10835444089E+04  0.25500000920E-02 0. -1.
    10030    2    1    2    0    0  0.00000000000E+00  0.00000000000E+00 -0.70136134612E+03  0.14657274716E+04  0.12870311897E+04 0.  0.
        5    1    3    3  502    0 -0.49763812408E+03 -0.18335441009E+03 -0.76573836213E+03  0.93147188443E+03  0.46999998093E+01 0. -1.
       -5    1    3    3    0  502  0.49763812408E+03  0.18335441009E+03  0.64377016018E+02  0.53425558717E+03  0.46999998093E+01 0.  1.
</event>
<event>
 5   0  0.1408341E-04  0.1301256E+04  0.7818609E-02  0.9028570E-01
       -1   -1    0    0    0  501  0.00000000000E+00  0.00000000000E+00  0.74792091029E+03  0.74792091031E+03  0.50400001928E-02 0. -1.
        1   -1    0    0  501    0  0.00000000000E+00  0.00000000000E+00 -0.56599102372E+03  0.56599102374E+03  0.50400001928E-02 0.  1.
    10030    2    1    2    0    0  0.00000000000E+00  0.00000000000E+00  0.18192988657E+03  0.13139119340E+04  0.13012555809E+04 0.  0.
        5    1    3    3  502    0 -0.64383700127E+03  0.89573169960E+02  0.63404877509E+02  0.65313988201E+03  0.46999998093E+01 0.  1.
       -5    1    3    3    0  502  0.64383700127E+03 -0.89573169960E+02  0.11852500906E+03  0.66077205204E+03  0.46999998093E+01 0. -1.
</event>
<event>
 5   0  0.1475396E-04  0.1295765E+04  0.7818609E-02  0.9032931E-01
        1   -1    0    0  501    0  0.00000000000E+00  0.00000000000E+00  0.88501473090E+03  0.88501473091E+03  0.50400001928E-02 0.  1.
       -1   -1    0    0    0  501  0.00000000000E+00  0.00000000000E+00 -0.47428758227E+03  0.47428758230E+03  0.50400001928E-02 0. -1.
    10030    2    1    2    0    0  0.00000000000E+00  0.00000000000E+00  0.41072714863E+03  0.13593023132E+04  0.12957646345E+04 0.  0.
        3    1    3    3  502    0  0.41889069459E+03  0.23372734656E+01 -0.31311507323E+03  0.52298751051E+03  0.10100000352E+00 0. -1.
       -3    1    3    3    0  502 -0.41889069459E+03 -0.23372734656E+01  0.72384222186E+03  0.83631480270E+03  0.10100000352E+00 0.  1.
</event>
<event>
 5   0  0.2756984E-04  0.1300149E+04  0.7818609E-02  0.9029447E-01
       -2   -1    0    0    0  501  0.00000000000E+00  0.00000000000E+00  0.59070531074E+03  0.59070531075E+03  0.25500000920E-02 0. -1.
        2   -1    0    0  501    0  0.00000000000E+00  0.00000000000E+00 -0.71541097796E+03  0.71541097796E+03  0.25500000920E-02 0.  1.
    10030    2    1    2    0    0  0.00000000000E+00  0.00000000000E+00 -0.12470566722E+03  0.13061162887E+04  0.13001493207E+04 0.  0.
        3    1    3    3  502    0 -0.29168765090E+03 -0.13275890153E+02 -0.64582744755E+03  0.70876726587E+03  0.10100000352E+00 0.  1.
       -3    1    3    3    0  502  0.29168765090E+03  0.13275890153E+02  0.52112178034E+03  0.59734902284E+03  0.10100000352E+00 0. -1.
</event>
<event>
 5   0  0.2794825E-04  0.1301595E+04  0.7818609E-02  0.9028301E-01
        2   -1    0    0  501    0  0.00000000000E+00  0.00000000000E+00  0.78694723050E+03  0.78694723050E+03  0.25500000920E-02 0. -1.
       -2   -1    0    0    0  501  0.00000000000E+00  0.00000000000E+00 -0.53820288697E+03  0.53820288698E+03  0.25500000920E-02 0.  1.
    10030    2    1    2    0    0  0.00000000000E+00  0.00000000000E+00  0.24874434352E+03  0.13251501175E+04  0.13015948238E+04 0.  0.
        1    1    3    3  502    0  0.28871213538E+03  0.56424455875E+02 -0.46664959962E+03  0.55163417696E+03  0.50400001928E-02 0.  1.
       -1    1    3    3    0  502 -0.28871213538E+03 -0.56424455875E+02  0.71539394314E+03  0.77351594052E+03  0.50400001928E-02 0. -1.
</event>
<event>
 5   0  0.2794825E-04  0.1301484E+04  0.7818609E-02  0.9028389E-01
        2   -1    0    0  501    0  0.00000000000E+00  0.00000000000E+00  0.63335741776E+03  0.63335741777E+03  0.25500000920E-02 0. -1.
       -2   -1    0    0    0  501  0.00000000000E+00  0.00000000000E+00 -0.66860390683E+03  0.66860390683E+03  0.25500000920E-02 0.  1.
    10030    2    1    2    0    0  0.00000000000E+00  0.00000000000E+00 -0.35246489063E+02  0.13019613246E+04  0.13014841435E+04 0.  0.
        1    1    3    3  502    0 -0.22345240841E+03  0.40870927248E+03  0.43695616628E+03  0.63867436109E+03  0.50400001928E-02 0. -1.
       -1    1    3    3    0  502  0.22345240841E+03 -0.40870927248E+03 -0.47220265534E+03  0.66328696352E+03  0.50400001928E-02 0.  1.
</event>
<event>
 5   0  0.2723209E-04  0.1304856E+04  0.7818609E-02  0.9025723E-01
        2   -1    0    0  501    0  0.00000000000E+00  0.00000000000E+00  0.60005143318E+03  0.60005143319E+03  0.25500000920E-02 0.  1.
       -2   -1    0    0    0  501  0.00000000000E+00  0.00000000000E+00 -0.70937614253E+03  0.70937614254E+03  0.25500000920E-02 0. -1.
    10030    2    1    2    0    0  0.00000000000E+00  0.00000000000E+00 -0.10932470935E+03  0.13094275757E+04  0.13048558097E+04 0.  0.
        2    1    3    3  502    0 -0.65604278718E+02  0.67398088128E+02  0.59321234162E+03  0.60062243208E+03  0.25500000920E-02 0.  1.
       -2    1    3    3    0  502  0.65604278718E+02 -0.67398088128E+02 -0.70253705096E+03  0.70880514364E+03  0.25500000920E-02 0. -1.
</event>
<event>
 5   0  0.1479690E-04  0.1299157E+04  0.7818609E-02  0.9030234E-01
        1   -1    0    0  501    0  0.00000000000E+00  0.00000000000E+00  0.37629761966E+03  0.37629761970E+03  0.50400001928E-02 0. -1.
       -1   -1    0    0    0  501  0.00000000000E+00  0.00000000000E+00 -0.11213249736E+04  0.11213249736E+04  0.50400001928E-02 0.  1.
    10030    2    1    2    0    0  0.00000000000E+00  0.00000000000E+00 -0.74502735397E+03  0.14976225933E+04  0.12991565240E+04 0.  0.
        1    1    3    3  502    0 -0.54526551448E+03  0.31122616244E+03 -0.56463409043E+03  0.84438608561E+03  0.50400001928E-02 0.  1.
       -1    1    3    3    0  502  0.54526551448E+03 -0.31122616244E+03 -0.18039326354E+03  0.65323650773E+03  0.50400001928E-02 0. -1.
</event>
<event>
 5   0  0.2794825E-04  0.1296054E+04  0.7818609E-02  0.9032701E-01
       -2   -1    0    0    0  501  0.00000000000E+00  0.00000000000E+00  0.36049597185E+03  0.36049597186E+03  0.25500000920E-02 0.  1.
        2   -1    0    0  501    0  0.00000000000E+00  0.00000000000E+00 -0.11648916292E+04  0.11648916292E+04  0.25500000920E-02 0. -1.
    10030    2    1    2    0    0  0.00000000000E+00  0.00000000000E+00 -0.80439565732E+03  0.15253876010E+04  0.12960536099E+04 0.  0.
        1    1    3    3  502    0  0.36808111502E+03  0.52836876033E+03 -0.48773114368E+03  0.80779881324E+03  0.50400001928E-02 0.  1.
       -1    1    3    3    0  502 -0.36808111502E+03 -0.52836876033E+03 -0.31666451364E+03  0.71758878778E+03  0.50400001928E-02 0. -1.
</event>
<event>
 5   0  0.2573071E-04  0.1301791E+04  0.7818609E-02  0.9028146E-01
        2   -1    0    0  501    0  0.00000000000E+00  0.00000000000E+00  0.28465071678E+04  0.28465071678E+04  0.25500000920E-02 0. -1.
       -2   -1    0    0    0  501  0.00000000000E+00  0.00000000000E+00 -0.14883686767E+03  0.14883686769E+03  0.25500000920E-02 0.  1.
    10030    2    1    2    0    0  0.00000000000E+00  0.00000000000E+00  0.26976703001E+04  0.29953440355E+04  0.13017913976E+04 0.  0.
        4    1    3    3  502    0  0.52899273286E+03 -0.37875601534E+03  0.13043271390E+04  0.14575871600E+04  0.12699999809E+01 0. -1.
       -4    1    3    3    0  502 -0.52899273286E+03  0.37875601534E+03  0.13933431611E+04  0.15377568755E+04  0.12699999809E+01 0.  1.
</event>
<event>
 5   0  0.2756984E-04  0.1300461E+04  0.7818609E-02  0.9029200E-01
        2   -1    0    0  501    0  0.00000000000E+00  0.00000000000E+00  0.10597326525E+04  0.10597326525E+04  0.25500000920E-02 0.  1.
       -2   -1    0    0    0  501  0.00000000000E+00  0.00000000000E+00 -0.39896837063E+03  0.39896837064E+03  0.25500000920E-02 0. -1.
    10030    2    1    2    0    0  0.00000000000E+00  0.00000000000E+00  0.66076428186E+03  0.14587010231E+04  0.13004611639E+04 0.  0.
        3    1    3    3  502    0  0.54971607096E+03  0.34434663117E+03  0.38101251599E+03  0.75228512454E+03  0.10100000352E+00 0.  1.
       -3    1    3    3    0  502 -0.54971607096E+03 -0.34434663117E+03  0.27975176587E+03  0.70641589858E+03  0.10100000352E+00 0. -1.
</event>
<event>
 5   0  0.1408341E-04  0.1301645E+04  0.7818609E-02  0.9028262E-01
        1   -1    0    0  501    0  0.00000000000E+00  0.00000000000E+00  0.15472751991E+04  0.15472751991E+04  0.50400001928E-02 0.  1.
       -1   -1    0    0    0  501  0.00000000000E+00  0.00000000000E+00 -0.27375214486E+03  0.27375214490E+03  0.50400001928E-02 0. -1.
    10030    2    1    2    0    0  0.00000000000E+00  0.00000000000E+00  0.12735230542E+04  0.18210273440E+04  0.13016449662E+04 0.  0.
        5    1    3    3  502    0 -0.50280730566E+02  0.61674368329E+03  0.35470406477E+03  0.71325870925E+03  0.46999998093E+01 0. -1.
       -5    1    3    3    0  502  0.50280730566E+02 -0.61674368329E+03  0.91881898946E+03  0.11077686348E+04  0.46999998093E+01 0.  1.
</event>
<event>
 5   0  0.1476511E-04  0.1300115E+04  0.7818609E-02  0.9029474E-01
        1   -1    0    0  501    0  0.00000000000E+00  0.00000000000E+00  0.15332097972E+04  0.15332097972E+04  0.50400001928E-02 0.  1.
       -1   -1    0    0    0  501  0.00000000000E+00  0.00000000000E+00 -0.27561428018E+03  0.27561428023E+03  0.50400001928E-02 0. -1.
    10030    2    1    2    0    0  0.00000000000E+00  0.00000000000E+00  0.12575955170E+04  0.18088240774E+04  0.13001146329E+04 0.  0.
        2    1    3    3  502    0 -0.56573052807E+03  0.20600769769E+03  0.28776567915E+03  0.66730749134E+03  0.25500000920E-02 0. -1.
       -2    1    3    3    0  502  0.56573052807E+03 -0.20600769769E+03  0.96982983789E+03  0.11415165861E+04  0.25500000920E-02 0.  1.
</event>
<event>
 5   0  0.2794825E-04  0.1300406E+04  0.7818609E-02  0.9029243E-01
        2   -1    0    0  501    0  0.00000000000E+00  0.00000000000E+00  0.83487430349E+03  0.83487430350E+03  0.25500000920E-02 0.  1.
       -2   -1    0    0    0  501  0.00000000000E+00  0.00000000000E+00 -0.50638039586E+03  0.50638039587E+03  0.25500000920E-02 0. -1.
    10030    2    1    2    0    0  0.00000000000E+00  0.00000000000E+00  0.32849390763E+03  0.13412546994E+04  0.13004060601E+04 0.  0.
        1    1    3    3  502    0  0.52027129081E+03 -0.38353962573E+03  0.91467539453E+02  0.65280255158E+03  0.50400001928E-02 0. -1.
       -1    1    3    3    0  502 -0.52027129081E+03  0.38353962573E+03  0.23702636818E+03  0.68845214778E+03  0.50400001928E-02 0.  1.
</event>
<event>
 5   0  0.2573071E-04  0.1297893E+04  0.7818609E-02  0.9031238E-01
       -2   -1    0    0    0  501  0.00000000000E+00  0.00000000000E+00  0.54936589681E+03  0.54936589682E+03  0.25500000920E-02 0. -1.
        2   -1    0    0  501    0  0.00000000000E+00  0.00000000000E+00 -0.76657731302E+03  0.76657731303E+03  0.25500000920E-02 0.  1.
    10030    2    1    2    0    0  0.00000000000E+00  0.00000000000E+00 -0.21721141621E+03  0.13159432098E+04  0.12978928046E+04 0.  0.
        4    1    3    3  502    0  0.61592525747E+03  0.12634010123E+03  0.54264810962E+02  0.63108797055E+03  0.12699999809E+01 0. -1.
       -4    1    3    3    0  502 -0.61592525747E+03 -0.12634010123E+03 -0.27147622717E+03  0.68485523929E+03  0.12699999809E+01 0.  1.
</event>
<event>
 5   0  0.2756984E-04  0.1299540E+04  0.7818609E-02  0.9029930E-01
        2   -1    0    0  501    0  0.00000000000E+00  0.00000000000E+00  0.41258565215E+03  0.41258565216E+03  0.25500000920E-02 0.  1.
       -2   -1    0    0    0  501  0.00000000000E+00  0.00000000000E+00 -0.10233052249E+04  0.10233052249E+04  0.25500000920E-02 0. -1.
    10030    2    1    2    0    0  0.00000000000E+00  0.00000000000E+00 -0.61071957272E+03  0.14358908770E+04  0.12995400010E+04 0.  0.
        3    1    3    3  502    0  0.61649887139E+03  0.10964334518E+03 -0.49708379512E+03  0.79949035713E+03  0.10100000352E+00 0. -1.
       -3    1    3    3    0  502 -0.61649887139E+03 -0.10964334518E+03 -0.11363577760E+03  0.63640051990E+03  0.10100000352E+00 0.  1.
</event>
<event>
 5   0  0.1479690E-04  0.1302975E+04  0.7818609E-02  0.9027209E-01
       -1   -1    0    0    0  501  0.00000000000E+00  0.00000000000E+00  0.89422463943E+03  0.89422463945E+03  0.50400001928E-02 0. -1.
        1   -1    0    0  501    0  0.00000000000E+00  0.00000000000E+00 -0.47464135431E+03  0.47464135434E+03  0.50400001928E-02 0.  1.
    10030    2    1    2    0    0  0.00000000000E+00  0.00000000000E+00  0.41958328513E+03  0.13688659938E+04  0.13029750480E+04 0.  0.
        1    1    3    3  502    0 -0.47371945538E+03  0.43221844280E+03  0.89030553976E+02  0.64741744205E+03  0.50400001928E-02 0.  1.
       -1    1    3    3    0  502  0.47371945538E+03 -0.43221844280E+03  0.33055273115E+03  0.72144855173E+03  0.50400001928E-02 0. -1.
</event>
<event>
 5   0  0.2723209E-04  0.1297247E+04  0.7818609E-02  0.9031751E-01
       -2   -1    0    0    0  501  0.00000000000E+00  0.00000000000E+00  0.43056713162E+03  0.43056713163E+03  0.25500000920E-02 0. -1.
        2   -1    0    0  501    0  0.00000000000E+00  0.00000000000E+00 -0.97711297049E+03  0.97711297049E+03  0.25500000920E-02 0.  1.
    10030    2    1    2    0    0  0.00000000000E+00  0.00000000000E+00 -0.54654583886E+03  0.14076801021E+04  0.12972474382E+04 0.  0.
        2    1    3    3  502    0  0.17720868602E+03  0.27790631302E+03  0.33292250195E+03  0.46847863294E+03  0.25500000920E-02 0. -1.
       -2    1    3    3    0  502 -0.17720868602E+03 -0.27790631302E+03 -0.87946834081E+03  0.93920146918E+03  0.25500000920E-02 0.  1.
</event>
<event>
 5   0  0.1479690E-04  0.1299308E+04  0.7818609E-02  0.9030114E-01
        1   -1    0    0  501    0  0.00000000000E+00  0.00000000000E+00  0.13899189117E+04  0.13899189117E+04  0.50400001928E-02 0. -1.
       -1   -1    0    0    0  501  0.00000000000E+00  0.00000000000E+00 -0.30365105649E+03  0.30365105654E+03  0.50400001928E-02 0.  1.
    10030    2    1    2    0    0  0.00000000000E+00  0.00000000000E+00  0.10862678552E+04  0.16935699683E+04  0.12993080405E+04 0.  0.
        1    1    3    3  502    0  0.36468336686E+03 -0.12263436153E+03  0.12254410912E+04  0.12844216647E+04  0.50400001928E-02 0. -1.
       -1    1    3    3    0  502 -0.36468336686E+03  0.12263436153E+03 -0.13917323597E+03  0.40914830358E+03  0.50400001928E-02 0.  1.
</event>
<event>
 5   0  0.1476511E-04  0.1301057E+04  0.7818609E-02  0.9028727E-01
       -1   -1    0    0    0  501  0.00000000000E+00  0.00000000000E+00  0.52324203206E+03  0.52324203208E+03  0.50400001928E-02 0.  1.
        1   -1    0    0  501    0  0.00000000000E+00  0.00000000000E+00 -0.80877962841E+03  0.80877962843E+03  0.50400001928E-02 0. -1.
    10030    2    1    2    0    0  0.00000000000E+00  0.00000000000E+00 -0.28553759636E+03  0.13320216605E+04  0.13010572567E+04 0.  0.
        2    1    3    3  502    0  0.35927051437E+03 -0.14671141313E+03  0.39175643123E+03  0.55142782180E+03  0.25500000920E-02 0.  1.
       -2    1    3    3    0  502 -0.35927051437E+03  0.14671141313E+03 -0.67729402758E+03  0.78059383872E+03  0.25500000920E-02 0. -1.
</event>
<event>
 5   0  0.2661377E-04  0.1300214E+04  0.7818609E-02  0.9029396E-01
       -2   -1    0    0    0  501  0.00000000000E+00  0.00000000000E+00  0.30715320702E+03  0.30715320703E+03  0.25500000920E-02 0.  1.
        2   -1    0    0  501    0  0.00000000000E+00  0.00000000000E+00 -0.13759871484E+04  0.13759871484E+04  0.25500000920E-02 0. -1.
    10030    2    1    2    0    0  0.00000000000E+00  0.00000000000E+00 -0.10688339414E+04  0.16831403555E+04  0.13002136216E+04 0.  0.
        5    1    3    3  502    0 -0.59661657478E+03  0.24372870895E+03 -0.64472989701E+03  0.91162149545E+03  0.46999998093E+01 0.  1.
       -5    1    3    3    0  502  0.59661657478E+03 -0.24372870895E+03 -0.42410404440E+03  0.77151886000E+03  0.46999998093E+01 0. -1.
</event>
<event>
 5   0  0.1479690E-04  0.1301259E+04  0.7818609E-02  0.9028567E-01
       -1   -1    0    0    0  501  0.00000000000E+00  0.00000000000E+00  0.26283545205E+03  0.26283545210E+03  0.50400001928E-02 0. -1.
        1   -1    0    0  501    0  0.00000000000E+00  0.00000000000E+00 -0.16105858921E+04  0.16105858921E+04  0.50400001928E-02 0.  1.
    10030    2    1    2    0    0  0.00000000000E+00  0.00000000000E+00 -0.13477504400E+04  0.18734213442E+04  0.13012594992E+04 0.  0.
        1    1    3    3  502    0 -0.26100383483E+03  0.40010430192E+03 -0.13098124164E+04  0.13942076676E+04  0.50400001928E-02 0.  1.
       -1    1    3    3    0  502  0.26100383483E+03 -0.40010430192E+03 -0.37938023671E+02  0.47921367663E+03  0.50400001928E-02 0. -1.
</event>
<event>
 5   0  0.2573071E-04  0.1260911E+04  0.7818609E-02  0.9061150E-01
        2   -1    0    0  501    0  0.00000000000E+00  0.00000000000E+00  0.15487755348E+04  0.15487755348E+04  0.25500000920E-02 0.  1.
       -2   -1    0    0    0  501  0.00000000000E+00  0.00000000000E+00 -0.25663773818E+03  0.25663773819E+03  0.25500000920E-02 0. -1.
    10030    2    1    2    0    0  0.00000000000E+00  0.00000000000E+00  0.12921377966E+04  0.18054132730E+04  0.12609111788E+04 0.  0.
        4    1    3    3  502    0 -0.17092973786E+03  0.35034120944E+03  0.13555366408E+04  0.14104740819E+04  0.12699999809E+01 0.  1.
       -4    1    3    3    0  502  0.17092973786E+03 -0.35034120944E+03 -0.63398844163E+02  0.39493919109E+03  0.12699999809E+01 0. -1.
</event>
<event>
 5   0  0.1002887E-04  0.1303732E+04  0.7818609E-02  0.9026611E-01
       -3   -1    0    0    0  501  0.00000000000E+00  0.00000000000E+00  0.66877331944E+03  0.66877332707E+03  0.10100000352E+00 0. -1.
        3   -1    0    0  501    0  0.00000000000E+00  0.00000000000E+00 -0.63538565881E+03  0.63538566684E+03  0.10100000352E+00 0.  1.
    10030    2    1    2    0    0  0.00000000000E+00  0.00000000000E+00  0.33387660631E+02  0.13041589939E+04  0.13037315466E+04 0.  0.
        2    1    3    3  502    0 -0.13558282185E+03 -0.17581589685E+03 -0.59639785159E+03  0.63638379029E+03  0.25500000920E-02 0.  1.
       -2    1    3    3    0  502  0.13558282185E+03  0.17581589685E+03  0.62978551222E+03  0.66777520362E+03  0.25500000920E-02 0. -1.
</event>
<event>
 5   0  0.2756984E-04  0.1302412E+04  0.7818609E-02  0.9027655E-01
       -2   -1    0    0    0  501  0.00000000000E+00  0.00000000000E+00  0.97725939200E+03  0.97725939200E+03  0.25500000920E-02 0.  1.
        2   -1    0    0  501    0  0.00000000000E+00  0.00000000000E+00 -0.43393694950E+03  0.43393694951E+03  0.25500000920E-02 0. -1.
    10030    2    1    2    0    0  0.00000000000E+00  0.00000000000E+00  0.54332244250E+03  0.14111963415E+04  0.13024115470E+04 0.  0.
        3    1    3    3  502    0  0.58537002240E+02 -0.14507355461E+03  0.95659689709E+03  0.96930415794E+03  0.10100000352E+00 0.  1.
       -3    1    3    3    0  502 -0.58537002240E+02  0.14507355461E+03 -0.41327445459E+03  0.44189218357E+03  0.10100000352E+00 0. -1.
</event>
<event>
 5   0  0.2661377E-04  0.1301511E+04  0.7818609E-02  0.9028368E-01
        2   -1    0    0  501    0  0.00000000000E+00  0.00000000000E+00  0.11970669041E+04  0.11970669041E+04  0.25500000920E-02 0. -1.
       -2   -1    0    0    0  501  0.00000000000E+00  0.00000000000E+00 -0.35376669314E+03  0.35376669315E+03  0.25500000920E-02 0.  1.
    10030    2    1    2    0    0  0.00000000000E+00  0.00000000000E+00  0.84330021094E+03  0.15508335972E+04  0.13015105073E+04 0.  0.
        5    1    3    3  502    0 -0.50915524015E+03  0.37026982738E+03  0.61788418251E+03  0.88212343617E+03  0.46999998093E+01 0. -1.
       -5    1    3    3    0  502  0.50915524015E+03 -0.37026982738E+03  0.22541602843E+03  0.66871016107E+03  0.46999998093E+01 0.  1.
</event>
<event>
 5   0  0.1475396E-04  0.1299724E+04  0.7818609E-02  0.9029784E-01
        1   -1    0    0  501    0  0.00000000000E+00  0.00000000000E+00  0.17980211317E+04  0.17980211317E+04  0.50400001928E-02 0.  1.
       -1   -1    0    0    0  501  0.00000000000E+00  0.00000000000E+00 -0.23488073383E+03  0.23488073388E+03  0.50400001928E-02 0. -1.
    10030    2    1    2    0    0  0.00000000000E+00  0.00000000000E+00  0.15631403979E+04  0.20329018656E+04  0.12997238521E+04 0.  0.
        3    1    3    3  502    0  0.35876958368E+03 -0.20846382661E+03  0.15638526896E+04  0.16179641609E+04  0.10100000352E+00 0.  1.
       -3    1    3    3    0  502 -0.35876958368E+03  0.20846382661E+03 -0.71229170402E+00  0.41493770465E+03  0.10100000352E+00 0. -1.
</event>
<event>
 5   0  0.2723209E-04  0.1290477E+04  0.7818609E-02  0.9037151E-01
       -2   -1    0    0    0  501  0.00000000000E+00  0.00000000000E+00  0.44163610195E+03  0.44163610196E+03  0.25500000920E-02 0.  1.
        2   -1    0    0  501    0  0.00000000000E+00  0.00000000000E+00 -0.94270573473E+03  0.94270573474E+03  0.25500000920E-02 0. -1.
    10030    2    1    2    0    0  0.00000000000E+00  0.00000000000E+00 -0.50106963278E+03  0.13843418367E+04  0.12904772543E+04 0.  0.
        2    1    3    3  502    0  0.57243299917E+03 -0.28740281255E+03 -0.33399460467E+03  0.72237961707E+03  0.25500000920E-02 0. -1.
       -2    1    3    3    0  502 -0.57243299917E+03  0.28740281255E+03 -0.16707502811E+03  0.66196221963E+03  0.25500000920E-02 0.  1.
</event>
<event>
 5   0  0.2573071E-04  0.1298944E+04  0.7818609E-02  0.9030403E-01
       -2   -1    0    0    0  501  0.00000000000E+00  0.00000000000E+00  0.50064141107E+03  0.50064141108E+03  0.25500000920E-02 0.  1.
        2   -1    0    0  501    0  0.00000000000E+00  0.00000000000E+00 -0.84254641759E+03  0.84254641759E+03  0.25500000920E-02 0. -1.
    10030    2    1    2    0    0  0.00000000000E+00  0.00000000000E+00 -0.34190500651E+03  0.13431878287E+04  0.12989436129E+04 0.  0.
        4    1    3    3  502    0 -0.66327953180E+02 -0.50537631622E+03  0.24525879956E+03  0.56564839788E+03  0.12699999809E+01 0.  1.
       -4    1    3    3    0  502  0.66327953180E+02  0.50537631622E+03 -0.58716380608E+03  0.77753943079E+03  0.12699999809E+01 0. -1.
</event>
<event>
 5   0  0.2573071E-04  0.1295882E+04  0.7818609E-02  0.9032837E-01
        2   -1    0    0  501    0  0.00000000000E+00  0.00000000000E+00  0.16076382416E+04  0.16076382416E+04  0.25500000920E-02 0. -1.
       -2   -1    0    0    0  501  0.00000000000E+00  0.00000000000E+00 -0.26114540403E+03  0.26114540404E+03  0.25500000920E-02 0.  1.
    10030    2    1    2    0    0  0.00000000000E+00  0.00000000000E+00  0.13464928376E+04  0.18687836456E+04  0.12958816893E+04 0.  0.
        4    1    3    3  502    0 -0.33588472393E+03 -0.53002094212E+03  0.90615683532E+03  0.11022080430E+04  0.12699999809E+01 0. -1.
       -4    1    3    3    0  502  0.33588472393E+03  0.53002094212E+03  0.44033600226E+03  0.76657560270E+03  0.12699999809E+01 0.  1.
</event>
<event>
 5   0  0.1430636E-04  0.1301101E+04  0.7818609E-02  0.9028693E-01
        1   -1    0    0  501    0  0.00000000000E+00  0.00000000000E+00  0.15481537671E+04  0.15481537671E+04  0.50400001928E-02 0. -1.
       -1   -1    0    0    0  501  0.00000000000E+00  0.00000000000E+00 -0.27336814507E+03  0.27336814511E+03  0.50400001928E-02 0.  1.
    10030    2    1    2    0    0  0.00000000000E+00  0.00000000000E+00  0.12747856220E+04  0.18215219122E+04  0.13011009548E+04 0.  0.
        4    1    3    3  502    0  0.46445763284E+03 -0.26244929145E+03  0.11616615292E+03  0.54598233604E+03  0.12699999809E+01 0.  1.
       -4    1    3    3    0  502 -0.46445763284E+03  0.26244929145E+03  0.11586194691E+04  0.12755395762E+04  0.12699999809E+01 0. -1.
</event>
<event>
 5   0  0.1475396E-04  0.1301131E+04  0.7818609E-02  0.9028669E-01
       -1   -1    0    0    0  501  0.00000000000E+00  0.00000000000E+00  0.53238850310E+03  0.53238850312E+03  0.50400001928E-02 0.  1.
        1   -1    0    0  501    0  0.00000000000E+00  0.00000000000E+00 -0.79497482607E+03  0.79497482608E+03  0.50400001928E-02 0. -1.
    10030    2    1    2    0    0  0.00000000000E+00  0.00000000000E+00 -0.26258632297E+03  0.13273633292E+04  0.13011309814E+04 0.  0.
        3    1    3    3  502    0 -0.11818505156E+03  0.58196217650E+03  0.13974691832E+03  0.61006302352E+03  0.10100000352E+00 0. -1.
       -3    1    3    3    0  502  0.11818505156E+03 -0.58196217650E+03 -0.40233324129E+03  0.71730030568E+03  0.10100000352E+00 0.  1.
</event>
<event>
 5   0  0.1479690E-04  0.1297150E+04  0.7818609E-02  0.9031829E-01
        1   -1    0    0  501    0  0.00000000000E+00  0.00000000000E+00  0.10269932710E+04  0.10269932710E+04  0.50400001928E-02 0.  1.
       -1   -1    0    0    0  501  0.00000000000E+00  0.00000000000E+00 -0.40959301489E+03  0.40959301492E+03  0.50400001928E-02 0. -1.
    10030    2    1    2    0    0  0.00000000000E+00  0.00000000000E+00  0.61740025610E+03  0.14365862859E+04  0.12971495984E+04 0.  0.
        1    1    3    3  502    0  0.37334300554E+03  0.52518449407E+03  0.39042631403E+03  0.75341652445E+03  0.50400001928E-02 0.  1.
       -1    1    3    3    0  502 -0.37334300554E+03 -0.52518449407E+03  0.22697394207E+03  0.68316976148E+03  0.50400001928E-02 0. -1.
</event>
<event>
 5   0  0.1430636E-04  0.1298486E+04  0.7818609E-02  0.9030767E-01
        1   -1    0    0  501    0  0.00000000000E+00  0.00000000000E+00  0.59356320827E+03  0.59356320829E+03  0.50400001928E-02 0.  1.
       -1   -1    0    0    0  501  0.00000000000E+00  0.00000000000E+00 -0.71014588077E+03  0.71014588079E+03  0.50400001928E-02 0. -1.
    10030    2    1    2    0    0  0.00000000000E+00  0.00000000000E+00 -0.11658267250E+03  0.13037090891E+04  0.12984859912E+04 0.  0.
        4    1    3    3  502    0 -0.64523548254E+03  0.31257323402E+02 -0.12342915493E+03  0.65767941839E+03  0.12699999809E+01 0.  1.
       -4    1    3    3    0  502  0.64523548254E+03 -0.31257323402E+02  0.68464824234E+01  0.64602967069E+03  0.12699999809E+01 0. -1.
</event>
<event>
 5   0  0.1479690E-04  0.1301213E+04  0.7818609E-02  0.9028604E-01
        1   -1    0    0  501    0  0.00000000000E+00  0.00000000000E+00  0.62176377192E+03  0.62176377194E+03  0.50400001928E-02 0. -1.
       -1   -1    0    0    0  501  0.00000000000E+00  0.00000000000E+00 -0.68078758478E+03  0.68078758479E+03  0.50400001928E-02 0.  1.
    10030    2    1    2    0    0  0.00000000000E+00  0.00000000000E+00 -0.59023812854E+02  0.13025513567E+04  0.13012133670E+04 0.  0.
        1    1    3    3  502    0  0.14793594472E+03  0.69600205967E+02 -0.65988939585E+03  0.67984060425E+03  0.50400001928E-02 0.  1.
       -1    1    3    3    0  502 -0.14793594472E+03 -0.69600205967E+02  0.60086558299E+03  0.62271075249E+03  0.50400001928E-02 0. -1.
</event>
<event>
 5   0  0.2723209E-04  0.1310857E+04  0.7818609E-02  0.9021000E-01
       -2   -1    0    0    0  501  0.00000000000E+00  0.00000000000E+00  0.38510805428E+03  0.38510805428E+03  0.25500000920E-02 0. -1.
        2   -1    0    0  501    0  0.00000000000E+00  0.00000000000E+00 -0.11154955200E+04  0.11154955201E+04  0.25500000920E-02 0.  1.
    10030    2    1    2    0    0  0.00000000000E+00  0.00000000000E+00 -0.73038746577E+03  0.15006035743E+04  0.13108566806E+04 0.  0.
        2    1    3    3  502    0  0.21614889981E+02  0.46619389107E+03  0.16161826641E+03  0.49388704334E+03  0.25500000920E-02 0. -1.
       -2    1    3    3    0  502 -0.21614889981E+02 -0.46619389107E+03 -0.89200573218E+03  0.10067165310E+04  0.25500000920E-02 0.  1.
</event>
<event>
 5   0  0.1430636E-04  0.1297094E+04  0.7818609E-02  0.9031873E-01
       -1   -1    0    0    0  501  0.00000000000E+00  0.00000000000E+00  0.51295511589E+03  0.51295511592E+03  0.50400001928E-02 0.  1.
        1   -1    0    0  501    0  0.00000000000E+00  0.00000000000E+00 -0.81997995103E+03  0.81997995105E+03  0.50400001928E-02 0. -1.
    10030    2    1    2    0    0  0.00000000000E+00  0.00000000000E+00 -0.30702483514E+03  0.13329350670E+04  0.12970935369E+04 0.  0.
        4    1    3    3  502    0 -0.47914559992E+03  0.27535414221E+03  0.19529399532E+03  0.58612436143E+03  0.12699999809E+01 0.  1.
       -4    1    3    3    0  502  0.47914559992E+03 -0.27535414221E+03 -0.50231883046E+03  0.74681070553E+03  0.12699999809E+01 0. -1.
</event>
<event>
 5   0  0.2573071E-04  0.1302042E+04  0.7818609E-02  0.9027948E-01
       -2   -1    0    0    0  501  0.00000000000E+00  0.00000000000E+00  0.62161556103E+03  0.62161556104E+03  0.25500000920E-02 0. -1.
        2   -1    0    0  501    0  0.00000000000E+00  0.00000000000E+00 -0.68181720292E+03  0.68181720293E+03  0.25500000920E-02 0.  1.
    10030    2    1    2    0    0  0.00000000000E+00  0.00000000000E+00 -0.60201641890E+02  0.13034327640E+04  0.13020417553E+04 0.  0.
        4    1    3    3  502    0 -0.27577711557E+03  0.83485747711E+02  0.55430678717E+03  0.62472435101E+03  0.12699999809E+01 0. -1.
       -4    1    3    3    0  502  0.27577711557E+03 -0.83485747711E+02 -0.61450842906E+03  0.67870841296E+03  0.12699999809E+01 0.  1.
</event>
<event>
 5   0  0.1479690E-04  0.1299319E+04  0.7818609E-02  0.9030105E-01
       -1   -1    0    0    0  501  0.00000000000E+00  0.00000000000E+00  0.44620546242E+03  0.44620546245E+03  0.50400001928E-02 0.  1.
        1   -1    0    0  501    0  0.00000000000E+00  0.00000000000E+00 -0.94588158511E+03  0.94588158513E+03  0.50400001928E-02 0. -1.
    10030    2    1    2    0    0  0.00000000000E+00  0.00000000000E+00 -0.49967612270E+03  0.13920870476E+04  0.12993190988E+04 0.  0.
        1    1    3    3  502    0 -0.39033983707E+03 -0.38265063310E+03  0.12632897783E+03  0.56102201924E+03  0.50400001928E-02 0.  1.
       -1    1    3    3    0  502  0.39033983707E+03  0.38265063310E+03 -0.62600510052E+03  0.83106502833E+03  0.50400001928E-02 0. -1.
</event>
<event>
 5   0  0.1475396E-04  0.1295603E+04  0.7818609E-02  0.9033059E-01
        1   -1    0    0  501    0  0.00000000000E+00  0.00000000000E+00  0.10155510457E+04  0.10155510457E+04  0.50400001928E-02 0. -1.
       -1   -1    0    0    0  501  0.00000000000E+00  0.00000000000E+00 -0.41322100390E+03  0.41322100393E+03  0.50400001928E-02 0.  1.
    10030    2    1    2    0    0  0.00000000000E+00  0.00000000000E+00  0.60233004180E+03  0.14287720496E+04  0.12956033693E+04 0.  0.
        3    1    3    3  502    0  0.22814442432E+03  0.60037386932E+03  0.39440320694E+03  0.75369261716E+03  0.10100000352E+00 0. -1.
       -3    1    3    3    0  502 -0.22814442432E+03 -0.60037386932E+03  0.20792683486E+03  0.67507943249E+03  0.10100000352E+00 0.  1.
</event>
<event>
 5   0  0.2723209E-04  0.1301516E+04  0.7818609E-02  0.9028364E-01
       -2   -1    0    0    0  501  0.00000000000E+00  0.00000000000E+00  0.32294193659E+03  0.32294193660E+03  0.25500000920E-02 0.  1.
        2   -1    0    0  501    0  0.00000000000E+00  0.00000000000E+00 -0.13113374634E+04  0.13113374634E+04  0.25500000920E-02 0. -1.
    10030    2    1    2    0    0  0.00000000000E+00  0.00000000000E+00 -0.98839552681E+03  0.16342794000E+04  0.13015158239E+04 0.  0.
        2    1    3    3  502    0  0.22660057211E+03  0.21736894938E+03 -0.12099195063E+04  0.12500009164E+04  0.25500000920E-02 0. -1.
       -2    1    3    3    0  502 -0.22660057211E+03 -0.21736894938E+03  0.22152397946E+03  0.38427848355E+03  0.25500000920E-02 0.  1.
</event>
<event>
 5   0  0.2756984E-04  0.1293429E+04  0.7818609E-02  0.9034792E-01
       -2   -1    0    0    0  501  0.00000000000E+00  0.00000000000E+00  0.76986795534E+03  0.76986795534E+03  0.25500000920E-02 0. -1.
        2   -1    0    0  501    0  0.00000000000E+00  0.00000000000E+00 -0.54326151566E+03  0.54326151567E+03  0.25500000920E-02 0.  1.
    10030    2    1    2    0    0  0.00000000000E+00  0.00000000000E+00  0.22660643968E+03  0.13131294710E+04  0.12934289811E+04 0.  0.
        3    1    3    3  502    0 -0.29397873462E+03 -0.13516124847E+03 -0.45517872418E+03  0.55846194199E+03  0.10100000352E+00 0.  1.
       -3    1    3    3    0  502  0.29397873462E+03  0.13516124847E+03  0.68178516386E+03  0.75466752902E+03  0.10100000352E+00 0. -1.
</event>
<event>
 5   0  0.2661377E-04  0.1300176E+04  0.7818609E-02  0.9029426E-01
        2   -1    0    0  501    0  0.00000000000E+00  0.00000000000E+00  0.65444889579E+03  0.65444889580E+03  0.25500000920E-02 0.  1.
       -2   -1    0    0    0  501  0.00000000000E+00  0.00000000000E+00 -0.64575628991E+03  0.64575628991E+03  0.25500000920E-02 0. -1.
    10030    2    1    2    0    0  0.00000000000E+00  0.00000000000E+00  0.86926058826E+01  0.13002051857E+04  0.13001761279E+04 0.  0.
        5    1    3    3  502    0  0.12608340085E+03  0.99347816417E+02 -0.62560855727E+03  0.64589098888E+03  0.46999998093E+01 0. -1.
       -5    1    3    3    0  502 -0.12608340085E+03 -0.99347816417E+02  0.63430116315E+03  0.65431419683E+03  0.46999998093E+01 0.  1.
</event>
<event>
 5   0  0.1430636E-04  0.1300096E+04  0.7818609E-02  0.9029489E-01
       -1   -1    0    0    0  501  0.00000000000E+00  0.00000000000E+00  0.57271190956E+03  0.57271190959E+03  0.50400001928E-02 0.  1.
        1   -1    0    0  501    0  0.00000000000E+00  0.00000000000E+00 -0.73782707732E+03  0.73782707733E+03  0.50400001928E-02 0. -1.
    10030    2    1    2    0    0  0.00000000000E+00  0.00000000000E+00 -0.16511516775E+03  0.13105389869E+04  0.13000959263E+04 0.  0.
        4    1    3    3  502    0 -0.61601174399E+03 -0.68345976597E+01 -0.29169351035E+03  0.68161858641E+03  0.12699999809E+01 0. -1.
       -4    1    3    3    0  502  0.61601174399E+03  0.68345976597E+01  0.12657834260E+03  0.62892040051E+03  0.12699999809E+01 0.  1.
</event>
<event>
 5   0  0.1479690E-04  0.1299630E+04  0.7818609E-02  0.9029858E-01
       -1   -1    0    0    0  501  0.00000000000E+00  0.00000000000E+00  0.76470702743E+03  0.76470702744E+03  0.50400001928E-02 0. -1.
        1   -1    0    0  501    0  0.00000000000E+00  0.00000000000E+00 -0.55218494371E+03  0.55218494373E+03  0.50400001928E-02 0.  1.
    10030    2    1    2    0    0  0.00000000000E+00  0.00000000000E+00  0.21252208372E+03  0.13168919712E+04  0.12996302658E+04 0.  0.
        1    1    3    3  502    0 -0.29886319288E+03  0.19311004218E+03 -0.44469702745E+03  0.56953151159E+03  0.50400001928E-02 0.  1.
       -1    1    3    3    0  502  0.29886319288E+03 -0.19311004218E+03  0.65721911116E+03  0.74736045959E+03  0.50400001928E-02 0. -1.
</event>
<event>
 5   0  0.1475396E-04  0.1299707E+04  0.7818609E-02  0.9029798E-01
       -1   -1    0    0    0  501  0.00000000000E+00  0.00000000000E+00  0.67228794797E+03  0.67228794799E+03  0.50400001928E-02 0.  1.
        1   -1    0    0  501    0  0.00000000000E+00  0.00000000000E+00 -0.62816722038E+03  0.62816722040E+03  0.50400001928E-02 0. -1.
    10030    2    1    2    0    0  0.00000000000E+00  0.00000000000E+00  0.44120727591E+02  0.13004551684E+04  0.12997065078E+04 0.  0.
        3    1    3    3  502    0 -0.37109184402E+03 -0.36975974942E+03 -0.36270998780E+03  0.63717342571E+03  0.10100000352E+00 0. -1.
       -3    1    3    3    0  502  0.37109184402E+03  0.36975974942E+03  0.40683071539E+03  0.66328174268E+03  0.10100000352E+00 0.  1.
</event>
<event>
 5   0  0.2756984E-04  0.1299336E+04  0.7818609E-02  0.9030092E-01
        2   -1    0    0  501    0  0.00000000000E+00  0.00000000000E+00  0.43998228520E+03  0.43998228521E+03  0.25500000920E-02 0.  1.
       -2   -1    0    0    0  501  0.00000000000E+00  0.00000000000E+00 -0.95928505665E+03  0.95928505666E+03  0.25500000920E-02 0. -1.
    10030    2    1    2    0    0  0.00000000000E+00  0.00000000000E+00 -0.51930277145E+03  0.13992673419E+04  0.12993358787E+04 0.  0.
        3    1    3    3  502    0  0.24777240221E+03 -0.59785572664E+03 -0.19829788559E+03  0.67686386726E+03  0.10100000352E+00 0. -1.
       -3    1    3    3    0  502 -0.24777240221E+03  0.59785572664E+03 -0.32100488586E+03  0.72240347460E+03  0.10100000352E+00 0.  1.
</event>
<event>
 5   0  0.2723209E-04  0.1295856E+04  0.7818609E-02  0.9032857E-01
        2   -1    0    0  501    0  0.00000000000E+00  0.00000000000E+00  0.15841985688E+04  0.15841985688E+04  0.25500000920E-02 0. -1.
       -2   -1    0    0    0  501  0.00000000000E+00  0.00000000000E+00 -0.26499897571E+03  0.26499897573E+03  0.25500000920E-02 0.  1.
    10030    2    1    2    0    0  0.00000000000E+00  0.00000000000E+00  0.13191995931E+04  0.18491975446E+04  0.12958564706E+04 0.  0.
        2    1    3    3  502    0  0.14199098319E+03  0.59208310956E+03  0.34343732647E+03  0.69905153255E+03  0.25500000920E-02 0. -1.
       -2    1    3    3    0  502 -0.14199098319E+03 -0.59208310956E+03  0.97576226665E+03  0.11501460120E+04  0.25500000920E-02 0.  1.
</event>
<event>
 5   0  0.1476511E-04  0.1291052E+04  0.7818609E-02  0.9036691E-01
        1   -1    0    0  501    0  0.00000000000E+00  0.00000000000E+00  0.10330448776E+04  0.10330448776E+04  0.50400001928E-02 0.  1.
       -1   -1    0    0    0  501  0.00000000000E+00  0.00000000000E+00 -0.40337435855E+03  0.40337435858E+03  0.50400001928E-02 0. -1.
    10030    2    1    2    0    0  0.00000000000E+00  0.00000000000E+00  0.62967051903E+03  0.14364192362E+04  0.12910519972E+04 0.  0.
        2    1    3    3  502    0 -0.14365583900E+03  0.47939109699E+03  0.76848388555E+03  0.91707159280E+03  0.25500000920E-02 0.  1.
       -2    1    3    3    0  502  0.14365583900E+03 -0.47939109699E+03 -0.13881336652E+03  0.51934764338E+03  0.25500000920E-02 0. -1.
</event>
<event>
 5   0  0.1476511E-04  0.1299620E+04  0.7818609E-02  0.9029866E-01
        1   -1    0    0  501    0  0.00000000000E+00  0.00000000000E+00  0.64286467879E+03  0.64286467881E+03  0.50400001928E-02 0.  1.
       -1   -1    0    0    0  501  0.00000000000E+00  0.00000000000E+00 -0.65683081223E+03  0.65683081225E+03  0.50400001928E-02 0. -1.
    10030    2    1    2    0    0  0.00000000000E+00  0.00000000000E+00 -0.13966133436E+02  0.12996954911E+04  0.12996204510E+04 0.  0.
        2    1    3    3  502    0 -0.11987830552E+03 -0.17668823220E+03  0.60678178076E+03  0.64325241469E+03  0.25500000920E-02 0.  1.
       -2    1    3    3    0  502  0.11987830552E+03  0.17668823220E+03 -0.62074791420E+03  0.65644307637E+03  0.25500000920E-02 0. -1.
</event>
<event>
 5   0  0.2794825E-04  0.1277218E+04  0.7818609E-02  0.9047829E-01
        2   -1    0    0  501    0  0.00000000000E+00  0.00000000000E+00  0.21179207129E+04  0.21179207129E+04  0.25500000920E-02 0.  1.
       -2   -1    0    0    0  501  0.00000000000E+00  0.00000000000E+00 -0.19255743255E+03  0.19255743257E+03  0.25500000920E-02 0. -1.
    10030    2    1    2    0    0  0.00000000000E+00  0.00000000000E+00  0.19253632803E+04  0.23104781454E+04  0.12772178747E+04 0.  0.
        1    1    3    3  502    0  0.51467810207E+03 -0.14766244769E+03  0.33310107701E+03  0.63059818802E+03  0.50400001928E-02 0. -1.
       -1    1    3    3    0  502 -0.51467810207E+03  0.14766244769E+03  0.15922622033E+04  0.16798799574E+04  0.50400001928E-02 0.  1.
</event>
<event>
 5   0  0.1475396E-04  0.1301460E+04  0.7818609E-02  0.9028408E-01
        1   -1    0    0  501    0  0.00000000000E+00  0.00000000000E+00  0.14826753081E+04  0.14826753081E+04  0.50400001928E-02 0.  1.
       -1   -1    0    0    0  501  0.00000000000E+00  0.00000000000E+00 -0.28559842101E+03  0.28559842106E+03  0.50400001928E-02 0. -1.
    10030    2    1    2    0    0  0.00000000000E+00  0.00000000000E+00  0.11970768871E+04  0.17682737292E+04  0.13014602982E+04 0.  0.
        3    1    3    3  502    0  0.14470000281E+03 -0.35383909151E+03 -0.11694726375E+03  0.39977101720E+03  0.10100000352E+00 0. -1.
       -3    1    3    3    0  502 -0.14470000281E+03  0.35383909151E+03  0.13140241508E+04  0.13685027120E+04  0.10100000352E+00 0.  1.
</event>
<event>
 5   0  0.2794825E-04  0.1298521E+04  0.7818609E-02  0.9030739E-01
       -2   -1    0    0    0  501  0.00000000000E+00  0.00000000000E+00  0.62155064279E+03  0.62155064279E+03  0.25500000920E-02 0.  1.
        2   -1    0    0  501    0  0.00000000000E+00  0.00000000000E+00 -0.67820558022E+03  0.67820558022E+03  0.25500000920E-02 0. -1.
    10030    2    1    2    0    0  0.00000000000E+00  0.00000000000E+00 -0.56654937430E+02  0.12997562230E+04  0.12985208729E+04 0.  0.
        1    1    3    3  502    0 -0.28268809117E+02 -0.44375010193E+02 -0.67606817532E+03  0.67811241310E+03  0.50400001928E-02 0. -1.
       -1    1    3    3    0  502  0.28268809117E+02  0.44375010193E+02  0.61941323789E+03  0.62164380991E+03  0.50400001928E-02 0.  1.
</event>
<event>
 5   0  0.1476511E-04  0.1298465E+04  0.7818609E-02  0.9030783E-01
        1   -1    0    0  501    0  0.00000000000E+00  0.00000000000E+00  0.91732412972E+03  0.91732412973E+03  0.50400001928E-02 0. -1.
       -1   -1    0    0    0  501  0.00000000000E+00  0.00000000000E+00 -0.45949196443E+03  0.45949196445E+03  0.50400001928E-02 0.  1.
    10030    2    1    2    0    0  0.00000000000E+00  0.00000000000E+00  0.45783216529E+03  0.13768160942E+04  0.12984653502E+04 0.  0.
        2    1    3    3  502    0 -0.15260400353E+02 -0.62177680522E+03  0.31499514313E+02  0.62276118596E+03  0.25500000920E-02 0.  1.
       -2    1    3    3    0  502  0.15260400353E+02  0.62177680522E+03  0.42633265098E+03  0.75405490823E+03  0.25500000920E-02 0. -1.
</event>
<event>
 5   0  0.1430636E-04  0.1296026E+04  0.7818609E-02  0.9032723E-01
        1   -1    0    0  501    0  0.00000000000E+00  0.00000000000E+00  0.19328177993E+04  0.19328177993E+04  0.50400001928E-02 0.  1.
       -1   -1    0    0    0  501  0.00000000000E+00  0.00000000000E+00 -0.21725831994E+03  0.21725832000E+03  0.50400001928E-02 0. -1.
    10030    2    1    2    0    0  0.00000000000E+00  0.00000000000E+00  0.17155594794E+04  0.21500761193E+04  0.12960258453E+04 0.  0.
        4    1    3    3  502    0  0.49474614825E+03 -0.23286332007E+03  0.14346648724E+04  0.15353383946E+04  0.12699999809E+01 0. -1.
       -4    1    3    3    0  502 -0.49474614825E+03  0.23286332007E+03  0.28089460701E+03  0.61473772471E+03  0.12699999809E+01 0.  1.
</event>
<event>
 5   0  0.2573071E-04  0.1299526E+04  0.7818609E-02  0.9029941E-01
        2   -1    0    0  501    0  0.00000000000E+00  0.00000000000E+00  0.11793247771E+04  0.11793247771E+04  0.25500000920E-02 0. -1.
       -2   -1    0    0    0  501  0.00000000000E+00  0.00000000000E+00 -0.35799452833E+03  0.35799452834E+03  0.25500000920E-02 0.  1.
    10030    2    1    2    0    0  0.00000000000E+00  0.00000000000E+00  0.82133024874E+03  0.15373193054E+04  0.12995257863E+04 0.  0.
        4    1    3    3  502    0 -0.40685001716E+03  0.19935170194E+02  0.10095240865E+04  0.10886068352E+04  0.12699999809E+01 0. -1.
       -4    1    3    3    0  502  0.40685001716E+03 -0.19935170194E+02 -0.18819383776E+03  0.44871247024E+03  0.12699999809E+01 0.  1.
</event>
<event>
 5   0  0.2723209E-04  0.1304039E+04  0.7818609E-02  0.9026368E-01
       -2   -1    0    0    0  501  0.00000000000E+00  0.00000000000E+00  0.21109202672E+03  0.21109202673E+03  0.25500000920E-02 0.  1.
        2   -1    0    0  501    0  0.00000000000E+00  0.00000000000E+00 -0.20139535943E+04  0.20139535943E+04  0.25500000920E-02 0. -1.
    10030    2    1    2    0    0  0.00000000000E+00  0.00000000000E+00 -0.18028615676E+04  0.22250456210E+04  0.13040391803E+04 0.  0.
        2    1    3    3  502    0  0.44143408136E+03  0.35766064081E+03 -0.35557207306E+03  0.67023628767E+03  0.25500000920E-02 0.  1.
       -2    1    3    3    0  502 -0.44143408136E+03 -0.35766064081E+03 -0.14472894945E+04  0.15548093334E+04  0.25500000920E-02 0. -1.
</event>
<event>
 5   0  0.1408341E-04  0.1299461E+04  0.7818609E-02  0.9029993E-01
        1   -1    0    0  501    0  0.00000000000E+00  0.00000000000E+00  0.84293278349E+03  0.84293278351E+03  0.50400001928E-02 0. -1.
       -1   -1    0    0    0  501  0.00000000000E+00  0.00000000000E+00 -0.50081064650E+03  0.50081064653E+03  0.50400001928E-02 0.  1.
    10030    2    1    2    0    0  0.00000000000E+00  0.00000000000E+00  0.34212213699E+03  0.13437434300E+04  0.12994609841E+04 0.  0.
        5    1    3    3  502    0 -0.21105692177E+03  0.69398709495E+02  0.80241297922E+03  0.83261628877E+03  0.46999998093E+01 0. -1.
       -5    1    3    3    0  502  0.21105692177E+03 -0.69398709495E+02 -0.46029084223E+03  0.51112714127E+03  0.46999998093E+01 0.  1.
</event>
<event>
 5   0  0.2661377E-04  0.1298794E+04  0.7818609E-02  0.9030522E-01
       -2   -1    0    0    0  501  0.00000000000E+00  0.00000000000E+00  0.12260985972E+04  0.12260985972E+04  0.25500000920E-02 0.  1.
        2   -1    0    0  501    0  0.00000000000E+00  0.00000000000E+00 -0.34394982626E+03  0.34394982627E+03  0.25500000920E-02 0. -1.
    10030    2    1    2    0    0  0.00000000000E+00  0.00000000000E+00  0.88214877099E+03  0.15700484235E+04  0.12987939013E+04 0.  0.
        5    1    3    3  502    0 -0.61619846997E+03 -0.15580614836E+03  0.28016454770E+03  0.69461527053E+03  0.46999998093E+01 0. -1.
       -5    1    3    3    0  502  0.61619846997E+03  0.15580614836E+03  0.60198422329E+03  0.87543315299E+03  0.46999998093E+01 0.  1.
</event>
<event>
 5   0  0.2723209E-04  0.1299457E+04  0.7818609E-02  0.9029996E-01
        2   -1    0    0  501    0  0.00000000000E+00  0.00000000000E+00  0.69571756248E+03  0.69571756248E+03  0.25500000920E-02 0. -1.
       -2   -1    0    0    0  501  0.00000000000E+00  0.00000000000E+00 -0.60677900882E+03  0.60677900882E+03  0.25500000920E-02 0.  1.
    10030    2    1    2    0    0  0.00000000000E+00  0.00000000000E+00  0.88938553658E+02  0.13024965713E+04  0.12994565218E+04 0.  0.
        2    1    3    3  502    0 -0.51271222303E+03 -0.39828606586E+03  0.69850425914E+02  0.65298139017E+03  0.25500000920E-02 0. -1.
       -2    1    3    3    0  502  0.51271222303E+03  0.39828606586E+03  0.19088127744E+02  0.64951518114E+03  0.25500000920E-02 0.  1.
</event>
<event>
 5   0  0.1002887E-04  0.1301868E+04  0.7818609E-02  0.9028085E-01
        4   -1    0    0  501    0  0.00000000000E+00  0.00000000000E+00  0.12533873990E+04  0.12533880425E+04  0.12699999809E+01 0.  1.
       -4   -1    0    0    0  501  0.00000000000E+00  0.00000000000E+00 -0.33805398489E+03  0.33805637045E+03  0.12699999809E+01 0. -1.
    10030    2    1    2    0    0  0.00000000000E+00  0.00000000000E+00  0.91533341415E+03  0.15914444129E+04  0.13018679120E+04 0.  0.
        5    1    3    3  502    0 -0.42046868142E+03 -0.45123296466E+03  0.71200246993E+03  0.94200568344E+03  0.46999998093E+01 0. -1.
       -5    1    3    3    0  502  0.42046868142E+03  0.45123296466E+03  0.20333094422E+03  0.64943872947E+03  0.46999998093E+01 0.  1.
</event>
<event>
 5   0  0.1475396E-04  0.1303625E+04  0.7818609E-02  0.9026696E-01
        1   -1    0    0  501    0  0.00000000000E+00  0.00000000000E+00  0.43721734858E+03  0.43721734861E+03  0.50400001928E-02 0.  1.
       -1   -1    0    0    0  501  0.00000000000E+00  0.00000000000E+00 -0.97173512411E+03  0.97173512412E+03  0.50400001928E-02 0. -1.
    10030    2    1    2    0    0  0.00000000000E+00  0.00000000000E+00 -0.53451777553E+03  0.14089524727E+04  0.13036248763E+04 0.  0.
        3    1    3    3  502    0  0.57420678173E+03 -0.24044341702E+03 -0.58430262584E+02  0.62525240564E+03  0.10100000352E+00 0.  1.
       -3    1    3    3    0  502 -0.57420678173E+03  0.24044341702E+03 -0.47608751294E+03  0.78370006709E+03  0.10100000352E+00 0. -1.
</event>
<event>
 5   0  0.2794825E-04  0.1304142E+04  0.7818609E-02  0.9026287E-01
        2   -1    0    0  501    0  0.00000000000E+00  0.00000000000E+00  0.48918810411E+03  0.48918810412E+03  0.25500000920E-02 0. -1.
       -2   -1    0    0    0  501  0.00000000000E+00  0.00000000000E+00 -0.86918781309E+03  0.86918781310E+03  0.25500000920E-02 0.  1.
    10030    2    1    2    0    0  0.00000000000E+00  0.00000000000E+00 -0.37999970898E+03  0.13583759172E+04  0.13041416156E+04 0.  0.
        1    1    3    3  502    0 -0.90044413454E+02 -0.14405931351E+03  0.46573244024E+03  0.49574972327E+03  0.50400001928E-02 0. -1.
       -1    1    3    3    0  502  0.90044413454E+02  0.14405931351E+03 -0.84573214923E+03  0.86262619394E+03  0.50400001928E-02 0.  1.
</event>
<event>
 5   0  0.1475396E-04  0.1299508E+04  0.7818609E-02  0.9029955E-01
        1   -1    0    0  501    0  0.00000000000E+00  0.00000000000E+00  0.12384775682E+04  0.12384775682E+04  0.50400001928E-02 0.  1.
       -1   -1    0    0    0  501  0.00000000000E+00  0.00000000000E+00 -0.34088667884E+03  0.34088667888E+03  0.50400001928E-02 0. -1.
    10030    2    1    2    0    0  0.00000000000E+00  0.00000000000E+00  0.89759088931E+03  0.15793642470E+04  0.12995083764E+04 0.  0.
        3    1    3    3  502    0  0.36983321399E+03  0.20128587315E+03  0.10502279136E+04  0.11314907378E+04  0.10100000352E+00 0.  1.
       -3    1    3    3    0  502 -0.36983321399E+03 -0.20128587315E+03 -0.15263702433E+03  0.44787350926E+03  0.10100000352E+00 0. -1.
</event>
<event>
 5   0  0.2723209E-04  0.1300069E+04  0.7818609E-02  0.9029510E-01
       -2   -1    0    0    0  501  0.00000000000E+00  0.00000000000E+00  0.31405187733E+03  0.31405187734E+03  0.25500000920E-02 0. -1.
        2   -1    0    0  501    0  0.00000000000E+00  0.00000000000E+00 -0.13454621077E+04  0.13454621077E+04  0.25500000920E-02 0.  1.
    10030    2    1    2    0    0  0.00000000000E+00  0.00000000000E+00 -0.10314102304E+04  0.16595139851E+04  0.13000690763E+04 0.  0.
        2    1    3    3  502    0 -0.18765673930E+03  0.37890763537E+03  0.11451852104E+03  0.43806453818E+03  0.25500000920E-02 0. -1.
       -2    1    3    3    0  502  0.18765673930E+03 -0.37890763537E+03 -0.11459287514E+04  0.12214494469E+04  0.25500000920E-02 0.  1.
</event>
<event>
 5   0  0.2756984E-04  0.1303447E+04  0.7818609E-02  0.9026837E-01
        2   -1    0    0  501    0  0.00000000000E+00  0.00000000000E+00  0.93716397200E+03  0.93716397200E+03  0.25500000920E-02 0. -1.
       -2   -1    0    0    0  501  0.00000000000E+00  0.00000000000E+00 -0.45322185979E+03  0.45322185979E+03  0.25500000920E-02 0.  1.
    10030    2    1    2    0    0  0.00000000000E+00  0.00000000000E+00  0.48394211221E+03  0.13903858318E+04  0.13034465057E+04 0.  0.
        3    1    3    3  502    0  0.30948702309E+03  0.24618252287E+03 -0.31061138081E+03  0.50285931642E+03  0.10100000352E+00 0.  1.
       -3    1    3    3    0  502 -0.30948702309E+03 -0.24618252287E+03  0.79455349302E+03  0.88752651537E+03  0.10100000352E+00 0. -1.
</event>
<event>
 5   0  0.2794825E-04  0.1297116E+04  0.7818609E-02  0.9031855E-01
       -2   -1    0    0    0  501  0.00000000000E+00  0.00000000000E+00  0.10507884419E+04  0.10507884419E+04  0.25500000920E-02 0. -1.
        2   -1    0    0  501    0  0.00000000000E+00  0.00000000000E+00 -0.40029688788E+03  0.40029688789E+03  0.25500000920E-02 0.  1.
    10030    2    1    2    0    0  0.00000000000E+00  0.00000000000E+00  0.65049155400E+03  0.14510853298E+04  0.12971157899E+04 0.  0.
        1    1    3    3  502    0 -0.10932628938E+03  0.62247815644E+03  0.48811599442E+03  0.79855401622E+03  0.50400001928E-02 0. -1.
       -1    1    3    3    0  502  0.10932628938E+03 -0.62247815644E+03  0.16237555959E+03  0.65253131356E+03  0.50400001928E-02 0.  1.
</event>
<event>
 5   0  0.2661377E-04  0.1298874E+04  0.7818609E-02  0.9030458E-01
        2   -1    0    0  501    0  0.00000000000E+00  0.00000000000E+00  0.56547927461E+03  0.56547927462E+03  0.25500000920E-02 0.  1.
       -2   -1    0    0    0  501  0.00000000000E+00  0.00000000000E+00 -0.74586048914E+03  0.74586048915E+03  0.25500000920E-02 0. -1.
    10030    2    1    2    0    0  0.00000000000E+00  0.00000000000E+00 -0.18038121453E+03  0.13113397638E+04  0.12988743563E+04 0.  0.
        5    1    3    3  502    0 -0.26664270191E+03  0.32835553366E+03  0.40731735657E+03  0.58723522197E+03  0.46999998093E+01 0.  1.
       -5    1    3    3    0  502  0.26664270191E+03 -0.32835553366E+03 -0.58769857110E+03  0.72410454179E+03  0.46999998093E+01 0. -1.
</event>
<event>
 5   0  0.1430636E-04  0.1298501E+04  0.7818609E-02  0.9030755E-01
        1   -1    0    0  501    0  0.00000000000E+00  0.00000000000E+00  0.90239615958E+03  0.90239615960E+03  0.50400001928E-02 0. -1.
       -1   -1    0    0    0  501  0.00000000000E+00  0.00000000000E+00 -0.46711896415E+03  0.46711896417E+03  0.50400001928E-02 0.  1.
    10030    2    1    2    0    0  0.00000000000E+00  0.00000000000E+00  0.43527719544E+03  0.13695151238E+04  0.12985012273E+04 0.  0.
        4    1    3    3  502    0 -0.20847094978E+03 -0.60972265588E+03  0.30137116681E+03  0.71137054133E+03  0.12699999809E+01 0. -1.
       -4    1    3    3    0  502  0.20847094978E+03  0.60972265588E+03  0.13390602863E+03  0.65814458244E+03  0.12699999809E+01 0.  1.
</event>
<event>
 5   0  0.1408341E-04  0.1300211E+04  0.7818609E-02  0.9029398E-01
        1   -1    0    0  501    0  0.00000000000E+00  0.00000000000E+00  0.81181676584E+03  0.81181676585E+03  0.50400001928E-02 0. -1.
       -1   -1    0    0    0  501  0.00000000000E+00  0.00000000000E+00 -0.52060684252E+03  0.52060684254E+03  0.50400001928E-02 0.  1.
    10030    2    1    2    0    0  0.00000000000E+00  0.00000000000E+00  0.29120992332E+03  0.13324236084E+04  0.13002113108E+04 0.  0.
        5    1    3    3  502    0 -0.25318185547E+03 -0.24076580097E+03 -0.41619782861E+03  0.54342611769E+03  0.46999998093E+01 0.  1.
       -5    1    3    3    0  502  0.25318185547E+03  0.24076580097E+03  0.70740775192E+03  0.78899749070E+03  0.46999998093E+01 0. -1.
</event>
<event>
 5   0  0.2573071E-04  0.1298362E+04  0.7818609E-02  0.9030865E-01
       -2   -1    0    0    0  501  0.00000000000E+00  0.00000000000E+00  0.35244140376E+03  0.35244140377E+03  0.25500000920E-02 0. -1.
        2   -1    0    0  501    0  0.00000000000E+00  0.00000000000E+00 -0.11957614558E+04  0.11957614558E+04  0.25500000920E-02 0.  1.
    10030    2    1    2    0    0  0.00000000000E+00  0.00000000000E+00 -0.84332005205E+03  0.15482028596E+04  0.12983618079E+04 0.  0.
        4    1    3    3  502    0 -0.82817855615E+02  0.62655770450E+03 -0.59852920034E+03  0.87044366322E+03  0.12699999809E+01 0.  1.
       -4    1    3    3    0  502  0.82817855615E+02 -0.62655770450E+03 -0.24479085171E+03  0.67775919637E+03  0.12699999809E+01 0. -1.
</event>
<event>
 5   0  0.1430636E-04  0.1302358E+04  0.7818609E-02  0.9027697E-01
       -1   -1    0    0    0  501  0.00000000000E+00  0.00000000000E+00  0.54943250912E+03  0.54943250914E+03  0.50400001928E-02 0. -1.
        1   -1    0    0  501    0  0.00000000000E+00  0.00000000000E+00 -0.77176725227E+03  0.77176725229E+03  0.50400001928E-02 0.  1.
    10030    2    1    2    0    0  0.00000000000E+00  0.00000000000E+00 -0.22233474315E+03  0.13211997614E+04  0.13023578892E+04 0.  0.
        4    1    3    3  502    0 -0.31224372477E+03 -0.16292822285E+03  0.44447071224E+03  0.56709573830E+03  0.12699999809E+01 0. -1.
       -4    1    3    3    0  502  0.31224372477E+03  0.16292822285E+03 -0.66680545539E+03  0.75410402313E+03  0.12699999809E+01 0.  1.
</event>
<event>
 5   0  0.1479690E-04  0.1300863E+04  0.7818609E-02  0.9028881E-01
        1   -1    0    0  501    0  0.00000000000E+00  0.00000000000E+00  0.14300078346E+04  0.14300078346E+04  0.50400001928E-02 0. -1.
       -1   -1    0    0    0  501  0.00000000000E+00  0.00000000000E+00 -0.29584510888E+03  0.29584510892E+03  0.50400001928E-02 0.  1.
    10030    2    1    2    0    0  0.00000000000E+00  0.00000000000E+00  0.11341627258E+04  0.17258529436E+04  0.13008625194E+04 0.  0.
        1    1    3    3  502    0  0.56890282607E+03  0.19499684653E+03  0.23837411874E+03  0.64691298965E+03  0.50400001928E-02 0.  1.
       -1    1    3    3    0  502 -0.56890282607E+03 -0.19499684653E+03  0.89578860702E+03  0.10789399539E+04  0.50400001928E-02 0. -1.
</event>
<event>
 5   0  0.2794825E-04  0.1299789E+04  0.7818609E-02  0.9029732E-01
       -2   -1    0    0    0  501  0.00000000000E+00  0.00000000000E+00  0.56439557610E+03  0.56439557611E+03  0.25500000920E-02 0. -1.
        2   -1    0    0  501    0  0.00000000000E+00  0.00000000000E+00 -0.74834551348E+03  0.74834551348E+03  0.25500000920E-02 0.  1.
    10030    2    1    2    0    0  0.00000000000E+00  0.00000000000E+00 -0.18394993737E+03  0.13127410896E+04  0.12997890555E+04 0.  0.
        1    1    3    3  502    0 -0.38086313215E+03  0.34057347226E+03  0.31366876036E+03  0.59952907076E+03  0.50400001928E-02 0. -1.
       -1    1    3    3    0  502  0.38086313215E+03 -0.34057347226E+03 -0.49761869773E+03  0.71321201882E+03  0.50400001928E-02 0.  1.
</event>
<event>
 5   0  0.1408341E-04  0.1296558E+04  0.7818609E-02  0.9032299E-01
        1   -1    0    0  501    0  0.00000000000E+00  0.00000000000E+00  0.11166505908E+04  0.11166505908E+04  0.50400001928E-02 0.  1.
       -1   -1    0    0    0  501  0.00000000000E+00  0.00000000000E+00 -0.37636275161E+03  0.37636275164E+03  0.50400001928E-02 0. -1.
    10030    2    1    2    0    0  0.00000000000E+00  0.00000000000E+00  0.74028783917E+03  0.14930133424E+04  0.12965580418E+04 0.  0.
        5    1    3    3  502    0  0.28236083849E+03 -0.24415332833E+03  0.98045540640E+03  0.10491202909E+04  0.46999998093E+01 0.  1.
       -5    1    3    3    0  502 -0.28236083849E+03  0.24415332833E+03 -0.24016756723E+03  0.44389305153E+03  0.46999998093E+01 0. -1.
</event>
<event>
 5   0  0.2573071E-04  0.1299418E+04  0.7818609E-02  0.9030026E-01
       -2   -1    0    0    0  501  0.00000000000E+00  0.00000000000E+00  0.81073142067E+03  0.81073142067E+03  0.25500000920E-02 0. -1.
        2   -1    0    0  501    0  0.00000000000E+00  0.00000000000E+00 -0.52066822484E+03  0.52066822485E+03  0.25500000920E-02 0.  1.
    10030    2    1    2    0    0  0.00000000000E+00  0.00000000000E+00  0.29006319583E+03  0.13313996455E+04  0.12994184694E+04 0.  0.
        4    1    3    3  502    0 -0.46836569447E+02  0.17875955762E+03 -0.49317237000E+03  0.52665856407E+03  0.12699999809E+01 0.  1.
       -4    1    3    3    0  502  0.46836569447E+02 -0.17875955762E+03  0.78323556584E+03  0.80474108145E+03  0.12699999809E+01 0. -1.
</event>
<event>
 5   0  0.2794825E-04  0.1300910E+04  0.7818609E-02  0.9028843E-01
        2   -1    0    0  501    0  0.00000000000E+00  0.00000000000E+00  0.85150223285E+03  0.85150223285E+03  0.25500000920E-02 0.  1.
       -2   -1    0    0    0  501  0.00000000000E+00  0.00000000000E+00 -0.49687713712E+03  0.49687713712E+03  0.25500000920E-02 0. -1.
    10030    2    1    2    0    0  0.00000000000E+00  0.00000000000E+00  0.35462509573E+03  0.13483793700E+04  0.13009104377E+04 0.  0.
        1    1    3    3  502    0  0.46796907306E+03 -0.27927688169E+03 -0.19075250948E+03  0.57738821420E+03  0.50400001928E-02 0. -1.
       -1    1    3    3    0  502 -0.46796907306E+03  0.27927688169E+03  0.54537760522E+03  0.77099115578E+03  0.50400001928E-02 0.  1.
</event>
<event>
 5   0  0.2756984E-04  0.1299299E+04  0.7818609E-02  0.9030122E-01
        2   -1    0    0  501    0  0.00000000000E+00  0.00000000000E+00  0.47863747430E+03  0.47863747430E+03  0.25500000920E-02 0.  1.
       -2   -1    0    0    0  501  0.00000000000E+00  0.00000000000E+00 -0.88176172351E+03  0.88176172352E+03  0.25500000920E-02 0. -1.
    10030    2    1    2    0    0  0.00000000000E+00  0.00000000000E+00 -0.40312424921E+03  0.13603991978E+04  0.12992985866E+04 0.  0.
        3    1    3    3  502    0 -0.16970505837E+03 -0.62685048879E+03 -0.21978314036E+03  0.68559899440E+03  0.10100000352E+00 0.  1.
       -3    1    3    3    0  502  0.16970505837E+03  0.62685048879E+03 -0.18334110885E+03  0.67480020342E+03  0.10100000352E+00 0. -1.
</event>
<event>
 5   0  0.2723209E-04  0.1299059E+04  0.7818609E-02  0.9030312E-01
       -2   -1    0    0    0  501  0.00000000000E+00  0.00000000000E+00  0.17848765505E+03  0.17848765507E+03  0.25500000920E-02 0. -1.
        2   -1    0    0  501    0  0.00000000000E+00  0.00000000000E+00 -0.23636853821E+04  0.23636853821E+04  0.25500000920E-02 0.  1.
    10030    2    1    2    0    0  0.00000000000E+00  0.00000000000E+00 -0.21851977271E+04  0.25421730372E+04  0.12990591382E+04 0.  0.
        2    1    3    3  502    0  0.21221293710E+03 -0.21561012196E+03  0.32198414203E+02  0.30423476667E+03  0.25500000920E-02 0. -1.
       -2    1    3    3    0  502 -0.21221293710E+03  0.21561012196E+03 -0.22173961413E+04  0.22379382705E+04  0.25500000920E-02 0.  1.
</event>
<event>
 5   0  0.2794825E-04  0.1301482E+04  0.7818609E-02  0.9028391E-01
        2   -1    0    0  501    0  0.00000000000E+00  0.00000000000E+00  0.26949567746E+03  0.26949567748E+03  0.25500000920E-02 0. -1.
       -2   -1    0    0    0  501  0.00000000000E+00  0.00000000000E+00 -0.15713197793E+04  0.15713197793E+04  0.25500000920E-02 0.  1.
    10030    2    1    2    0    0  0.00000000000E+00  0.00000000000E+00 -0.13018241018E+04  0.18408154567E+04  0.13014820605E+04 0.  0.
        1    1    3    3  502    0 -0.62547471642E+03 -0.15041837725E+03 -0.51218852898E+03  0.82230249807E+03  0.50400001928E-02 0. -1.
       -1    1    3    3    0  502  0.62547471642E+03  0.15041837725E+03 -0.78963557281E+03  0.10185129587E+04  0.50400001928E-02 0.  1.
</event>
<event>
 5   0  0.2661377E-04  0.1297026E+04  0.7818609E-02  0.9031927E-01
       -2   -1    0    0    0  501  0.00000000000E+00  0.00000000000E+00  0.52784710692E+03  0.52784710693E+03  0.25500000920E-02 0. -1.
        2   -1    0    0  501    0  0.00000000000E+00  0.00000000000E+00 -0.79676320486E+03  0.79676320487E+03  0.25500000920E-02 0.  1.
    10030    2    1    2    0    0  0.00000000000E+00  0.00000000000E+00 -0.26891609794E+03  0.13246103118E+04  0.12970260639E+04 0.  0.
        5    1    3    3  502    0 -0.72029779185E+02  0.11880168907E+03 -0.78136856106E+03  0.79363785736E+03  0.46999998093E+01 0.  1.
       -5    1    3    3    0  502  0.72029779185E+02 -0.11880168907E+03  0.51245246312E+03  0.53097245444E+03  0.46999998093E+01 0. -1.
</event>
<event>
 5   0  0.2723209E-04  0.1302313E+04  0.7818609E-02  0.9027733E-01
        2   -1    0    0  501    0  0.00000000000E+00  0.00000000000E+00  0.14006141010E+04  0.14006141010E+04  0.25500000920E-02 0. -1.
       -2   -1    0    0    0  501  0.00000000000E+00  0.00000000000E+00 -0.30272799007E+03  0.30272799008E+03  0.25500000920E-02 0.  1.
    10030    2    1    2    0    0  0.00000000000E+00  0.00000000000E+00  0.10978861110E+04  0.17033420911E+04  0.13023134671E+04 0.  0.
        2    1    3    3  502    0 -0.24558011541E+03  0.56835711127E+03  0.28518821796E+03  0.68166833481E+03  0.25500000920E-02 0.  1.
       -2    1    3    3    0  502  0.24558011541E+03 -0.56835711127E+03  0.81269789302E+03  0.10216737563E+04  0.25500000920E-02 0. -1.
</event>
<event>
 5   0  0.1475396E-04  0.1300006E+04  0.7818609E-02  0.9029561E-01
        1   -1    0    0  501    0  0.00000000000E+00  0.00000000000E+00  0.18601379659E+04  0.18601379659E+04  0.50400001928E-02 0.  1.
       -1   -1    0    0    0  501  0.00000000000E+00  0.00000000000E+00 -0.22713574085E+03  0.22713574090E+03  0.50400001928E-02 0. -1.
    10030    2    1    2    0    0  0.00000000000E+00  0.00000000000E+00  0.16330022251E+04  0.20872737068E+04  0.13000058693E+04 0.  0.
        3    1    3    3  502    0 -0.18341412576E+03  0.33164245898E+03 -0.31389694233E+02  0.38027987750E+03  0.10100000352E+00 0. -1.
       -3    1    3    3    0  502  0.18341412576E+03 -0.33164245898E+03  0.16643919193E+04  0.17069938293E+04  0.10100000352E+00 0.  1.
</event>
<event>
 5   0  0.1479690E-04  0.1302628E+04  0.7818609E-02  0.9027484E-01
        1   -1    0    0  501    0  0.00000000000E+00  0.00000000000E+00  0.45757320163E+03  0.45757320166E+03  0.50400001928E-02 0.  1.
       -1   -1    0    0    0  501  0.00000000000E+00  0.00000000000E+00 -0.92708637602E+03  0.92708637604E+03  0.50400001928E-02 0. -1.
    10030    2    1    2    0    0  0.00000000000E+00  0.00000000000E+00 -0.46951317439E+03  0.13846595777E+04  0.13026279304E+04 0.  0.
        1    1    3    3  502    0  0.43398998853E+02 -0.14265274342E+03 -0.90869935316E+03  0.92085166708E+03  0.50400001928E-02 0. -1.
       -1    1    3    3    0  502 -0.43398998853E+02  0.14265274342E+03  0.43918617877E+03  0.46380791062E+03  0.50400001928E-02 0.  1.
</event>
<event>
 5   0  0.2573071E-04  0.1299822E+04  0.7818609E-02  0.9029706E-01
        2   -1    0    0  501    0  0.00000000000E+00  0.00000000000E+00  0.71272497433E+03  0.71272497434E+03  0.25500000920E-02 0. -1.
       -2   -1    0    0    0  501  0.00000000000E+00  0.00000000000E+00 -0.59263296862E+03  0.59263296863E+03  0.25500000920E-02 0.  1.
    10030    2    1    2    0    0  0.00000000000E+00  0.00000000000E+00  0.12009200571E+03  0.13053579430E+04  0.12998220145E+04 0.  0.
        4    1    3    3  502    0 -0.28930787499E+02 -0.60018389378E+03 -0.18864755387E+03  0.62979934050E+03  0.12699999809E+01 0.  1.
       -4    1    3    3    0  502  0.28930787499E+02  0.60018389378E+03  0.30873955957E+03  0.67555860246E+03  0.12699999809E+01 0. -1.
</event>
<event>
 5   0  0.2661377E-04  0.1297444E+04  0.7818609E-02  0.9031595E-01
       -2   -1    0    0    0  501  0.00000000000E+00  0.00000000000E+00  0.60277102408E+03  0.60277102408E+03  0.25500000920E-02 0. -1.
        2   -1    0    0  501    0  0.00000000000E+00  0.00000000000E+00 -0.69817593975E+03  0.69817593976E+03  0.25500000920E-02 0.  1.
    10030    2    1    2    0    0  0.00000000000E+00  0.00000000000E+00 -0.95404915672E+02  0.13009469638E+04  0.12974439891E+04 0.  0.
        5    1    3    3  502    0  0.50222674430E+03  0.23175818882E+03 -0.38754906080E+03  0.67539612473E+03  0.46999998093E+01 0.  1.
       -5    1    3    3    0  502 -0.50222674430E+03 -0.23175818882E+03  0.29214414513E+03  0.62555083911E+03  0.46999998093E+01 0. -1.
</event>
<event>
 5   0  0.2661377E-04  0.1299876E+04  0.7818609E-02  0.9029664E-01
       -2   -1    0    0    0  501  0.00000000000E+00  0.00000000000E+00  0.39813437564E+03  0.39813437565E+03  0.25500000920E-02 0. -1.
        2   -1    0    0  501    0  0.00000000000E+00  0.00000000000E+00 -0.10609970233E+04  0.10609970233E+04  0.25500000920E-02 0.  1.
    10030    2    1    2    0    0  0.00000000000E+00  0.00000000000E+00 -0.66286264770E+03  0.14591313990E+04  0.12998759748E+04 0.  0.
        5    1    3    3  502    0 -0.22763113313E+03 -0.43130000340E+03 -0.81367133859E+03  0.94864048140E+03  0.46999998093E+01 0.  1.
       -5    1    3    3    0  502  0.22763113313E+03  0.43130000340E+03  0.15080869088E+03  0.51049091760E+03  0.46999998093E+01 0. -1.
</event>
<event>
 5   0  0.1430636E-04  0.1301038E+04  0.7818609E-02  0.9028742E-01
       -1   -1    0    0    0  501  0.00000000000E+00  0.00000000000E+00  0.26355925870E+03  0.26355925875E+03  0.50400001928E-02 0. -1.
        1   -1    0    0  501    0  0.00000000000E+00  0.00000000000E+00 -0.16056158907E+04  0.16056158907E+04  0.50400001928E-02 0.  1.
    10030    2    1    2    0    0  0.00000000000E+00  0.00000000000E+00 -0.13420566320E+04  0.18691751494E+04  0.13010379456E+04 0.  0.
        4    1    3    3  502    0 -0.51035536274E+03  0.20064697458E+03 -0.11737667859E+04  0.12955508038E+04  0.12699999809E+01 0.  1.
       -4    1    3    3    0  502  0.51035536274E+03 -0.20064697458E+03 -0.16828984607E+03  0.57362434561E+03  0.12699999809E+01 0. -1.
</event>
<event>
 5   0  0.1408341E-04  0.1300129E+04  0.7818609E-02  0.9029463E-01
        1   -1    0    0  501    0  0.00000000000E+00  0.00000000000E+00  0.76110278281E+03  0.76110278283E+03  0.50400001928E-02 0. -1.
       -1   -1    0    0    0  501  0.00000000000E+00  0.00000000000E+00 -0.55522595624E+03  0.55522595626E+03  0.50400001928E-02 0.  1.
    10030    2    1    2    0    0  0.00000000000E+00  0.00000000000E+00  0.20587682658E+03  0.13163287391E+04  0.13001292557E+04 0.  0.
        5    1    3    3  502    0  0.61164864975E+01 -0.42069546525E+03  0.60463231325E+03  0.73663044338E+03  0.46999998093E+01 0. -1.
       -5    1    3    3    0  502 -0.61164864975E+01  0.42069546525E+03 -0.39875548668E+03  0.57969829571E+03  0.46999998093E+01 0.  1.
</event>
<event>
 5   0  0.2794825E-04  0.1290253E+04  0.7818609E-02  0.9037331E-01
        2   -1    0    0  501    0  0.00000000000E+00  0.00000000000E+00  0.14492580110E+04  0.14492580110E+04  0.25500000920E-02 0.  1.
       -2   -1    0    0    0  501  0.00000000000E+00  0.00000000000E+00 -0.28717316021E+03  0.28717316022E+03  0.25500000920E-02 0. -1.
    10030    2    1    2    0    0  0.00000000000E+00  0.00000000000E+00  0.11620848508E+04  0.17364311712E+04  0.12902526931E+04 0.  0.
        1    1    3    3  502    0  0.39302999006E+03 -0.31220582190E+03  0.35628560668E+02  0.50320417593E+03  0.50400001928E-02 0. -1.
       -1    1    3    3    0  502 -0.39302999006E+03  0.31220582190E+03  0.11264562901E+04  0.12332269953E+04  0.50400001928E-02 0.  1.
</event>
<event>
 5   0  0.2573071E-04  0.1299508E+04  0.7818609E-02  0.9029955E-01
        2   -1    0    0  501    0  0.00000000000E+00  0.00000000000E+00  0.88827928592E+03  0.88827928592E+03  0.25500000920E-02 0. -1.
       -2   -1    0    0    0  501  0.00000000000E+00  0.00000000000E+00 -0.47527866095E+03  0.47527866096E+03  0.25500000920E-02 0.  1.
    10030    2    1    2    0    0  0.00000000000E+00  0.00000000000E+00  0.41300062497E+03  0.13635579469E+04  0.12995078908E+04 0.  0.
        4    1    3    3  502    0  0.41284826243E+03 -0.24703249528E+03 -0.25172726550E+03  0.54298892310E+03  0.12699999809E+01 0.  1.
       -4    1    3    3    0  502 -0.41284826243E+03  0.24703249528E+03  0.66472789047E+03  0.82056902378E+03  0.12699999809E+01 0. -1.
</event>
<event>
 5   0  0.2723209E-04  0.1299043E+04  0.7818609E-02  0.9030324E-01
        2   -1    0    0  501    0  0.00000000000E+00  0.00000000000E+00  0.94315888277E+03  0.94315888277E+03  0.25500000920E-02 0.  1.
       -2   -1    0    0    0  501  0.00000000000E+00  0.00000000000E+00 -0.44730371712E+03  0.44730371713E+03  0.25500000920E-02 0. -1.
    10030    2    1    2    0    0  0.00000000000E+00  0.00000000000E+00  0.49585516565E+03  0.13904625999E+04  0.12990434544E+04 0.  0.
        2    1    3    3  502    0  0.62268817810E+03 -0.19898300961E+02  0.51310695919E+02  0.62511542698E+03  0.25500000920E-02 0. -1.
       -2    1    3    3    0  502 -0.62268817810E+03  0.19898300961E+02  0.44454446973E+03  0.76534717292E+03  0.25500000920E-02 0.  1.
</event>
<event>
 5   0  0.2723209E-04  0.1298636E+04  0.7818609E-02  0.9030647E-01
       -2   -1    0    0    0  501  0.00000000000E+00  0.00000000000E+00  0.39483214785E+03  0.39483214786E+03  0.25500000920E-02 0.  1.
        2   -1    0    0  501    0  0.00000000000E+00  0.00000000000E+00 -0.10678310675E+04  0.10678310675E+04  0.25500000920E-02 0. -1.
    10030    2    1    2    0    0  0.00000000000E+00  0.00000000000E+00 -0.67299891964E+03  0.14626632153E+04  0.12986362600E+04 0.  0.
        2    1    3    3  502    0  0.61756454504E+03  0.57943433105E+02 -0.55276985080E+03  0.83084169171E+03  0.25500000920E-02 0. -1.
       -2    1    3    3    0  502 -0.61756454504E+03 -0.57943433105E+02 -0.12022906884E+03  0.63182152363E+03  0.25500000920E-02 0.  1.
</event>
<event>
 5   0  0.1476511E-04  0.1301376E+04  0.7818609E-02  0.9028474E-01
       -1   -1    0    0    0  501  0.00000000000E+00  0.00000000000E+00  0.39177649504E+03  0.39177649508E+03  0.50400001928E-02 0.  1.
        1   -1    0    0  501    0  0.00000000000E+00  0.00000000000E+00 -0.10807058922E+04  0.10807058922E+04  0.50400001928E-02 0. -1.
    10030    2    1    2    0    0  0.00000000000E+00  0.00000000000E+00 -0.68892939711E+03  0.14724823872E+04  0.13013764507E+04 0.  0.
        2    1    3    3  502    0  0.22412604628E+03 -0.22282723994E+03  0.29909893042E+03  0.43513748824E+03  0.25500000920E-02 0.  1.
       -2    1    3    3    0  502 -0.22412604628E+03  0.22282723994E+03 -0.98802832753E+03  0.10373448990E+04  0.25500000920E-02 0. -1.
</event>
<event>
 5   0  0.1475396E-04  0.1300767E+04  0.7818609E-02  0.9028957E-01
       -1   -1    0    0    0  501  0.00000000000E+00  0.00000000000E+00  0.33599371052E+03  0.33599371056E+03  0.50400001928E-02 0. -1.
        1   -1    0    0  501    0  0.00000000000E+00  0.00000000000E+00 -0.12589484447E+04  0.12589484447E+04  0.50400001928E-02 0.  1.
    10030    2    1    2    0    0  0.00000000000E+00  0.00000000000E+00 -0.92295473419E+03  0.15949421553E+04  0.13007670957E+04 0.  0.
        3    1    3    3  502    0 -0.16127370396E+03  0.31969764397E+03  0.20425026073E+03  0.41223048208E+03  0.10100000352E+00 0. -1.
       -3    1    3    3    0  502  0.16127370396E+03 -0.31969764397E+03 -0.11272049949E+04  0.11827116732E+04  0.10100000352E+00 0.  1.
</event>
<event>
 5   0  0.2661377E-04  0.1301256E+04  0.7818609E-02  0.9028570E-01
        2   -1    0    0  501    0  0.00000000000E+00  0.00000000000E+00  0.55748958239E+03  0.55748958239E+03  0.25500000920E-02 0.  1.
       -2   -1    0    0    0  501  0.00000000000E+00  0.00000000000E+00 -0.75932683966E+03  0.75932683967E+03  0.25500000920E-02 0. -1.
    10030    2    1    2    0    0  0.00000000000E+00  0.00000000000E+00 -0.20183725728E+03  0.13168164221E+04  0.13012560128E+04 0.  0.
        5    1    3    3  502    0 -0.85702711302E+02  0.44274086473E+03  0.37365653146E+03  0.58566690322E+03  0.46999998093E+01 0.  1.
       -5    1    3    3    0  502  0.85702711302E+02 -0.44274086473E+03 -0.57549378873E+03  0.73114951884E+03  0.46999998093E+01 0. -1.
</event>
<event>
 5   0  0.2794825E-04  0.1299356E+04  0.7818609E-02  0.9030076E-01
       -2   -1    0    0    0  501  0.00000000000E+00  0.00000000000E+00  0.48819931383E+03  0.48819931384E+03  0.25500000920E-02 0.  1.
        2   -1    0    0  501    0  0.00000000000E+00  0.00000000000E+00 -0.86456802125E+03  0.86456802126E+03  0.25500000920E-02 0. -1.
    10030    2    1    2    0    0  0.00000000000E+00  0.00000000000E+00 -0.37636870742E+03  0.13527673351E+04  0.12993560170E+04 0.  0.
        1    1    3    3  502    0 -0.25687730889E+02 -0.10637533800E+03 -0.85490357719E+03  0.86187916692E+03  0.50400001928E-02 0. -1.
       -1    1    3    3    0  502  0.25687730889E+02  0.10637533800E+03  0.47853486977E+03  0.49088816818E+03  0.50400001928E-02 0.  1.
</event>
<event>
 5   0  0.1430636E-04  0.1299848E+04  0.7818609E-02  0.9029686E-01
       -1   -1    0    0    0  501  0.00000000000E+00  0.00000000000E+00  0.15423247800E+04  0.15423247801E+04  0.50400001928E-02 0. -1.
        1   -1    0    0  501    0  0.00000000000E+00  0.00000000000E+00 -0.27387312567E+03  0.27387312571E+03  0.50400001928E-02 0.  1.
    10030    2    1    2    0    0  0.00000000000E+00  0.00000000000E+00  0.12684516544E+04  0.18161979058E+04  0.12998481578E+04 0.  0.
        4    1    3    3  502    0 -0.88698501390E+02  0.40819824224E+02 -0.26356489765E+03  0.28107250021E+03  0.12699999809E+01 0.  1.
       -4    1    3    3    0  502  0.88698501390E+02 -0.40819824224E+02  0.15320165520E+04  0.15351254056E+04  0.12699999809E+01 0. -1.
</event>
<event>
 5   0  0.1475396E-04  0.1300033E+04  0.7818609E-02  0.9029539E-01
        1   -1    0    0  501    0  0.00000000000E+00  0.00000000000E+00  0.16791780752E+04  0.16791780752E+04  0.50400001928E-02 0.  1.
       -1   -1    0    0    0  501  0.00000000000E+00  0.00000000000E+00 -0.25162390417E+03  0.25162390422E+03  0.50400001928E-02 0. -1.
    10030    2    1    2    0    0  0.00000000000E+00  0.00000000000E+00  0.14275541710E+04  0.19308019794E+04  0.13000328352E+04 0.  0.
        3    1    3    3  502    0 -0.31502278809E+03 -0.32436584103E+03  0.20223281781E+02  0.45261633551E+03  0.10100000352E+00 0. -1.
       -3    1    3    3    0  502  0.31502278809E+03  0.32436584103E+03  0.14073308893E+04  0.14781856439E+04  0.10100000352E+00 0.  1.
</event>
<event>
 5   0  0.2661377E-04  0.1300620E+04  0.7818609E-02  0.9029073E-01
        2   -1    0    0  501    0  0.00000000000E+00  0.00000000000E+00  0.48889786975E+03  0.48889786975E+03  0.25500000920E-02 0. -1.
       -2   -1    0    0    0  501  0.00000000000E+00  0.00000000000E+00 -0.86501371370E+03  0.86501371370E+03  0.25500000920E-02 0.  1.
    10030    2    1    2    0    0  0.00000000000E+00  0.00000000000E+00 -0.37611584395E+03  0.13539115835E+04  0.13006204088E+04 0.  0.
        5    1    3    3  502    0 -0.48347615121E+03 -0.42918017889E+03 -0.26119665405E+03  0.69727368861E+03  0.46999998093E+01 0. -1.
       -5    1    3    3    0  502  0.48347615121E+03  0.42918017889E+03 -0.11491918991E+03  0.65663789485E+03  0.46999998093E+01 0.  1.
</event>
<event>
 5   0  0.1002887E-04  0.1302110E+04  0.7818609E-02  0.9027893E-01
        4   -1    0    0  501    0  0.00000000000E+00  0.00000000000E+00  0.45608521731E+03  0.45608698551E+03  0.12699999809E+01 0. -1.
       -4   -1    0    0    0  501  0.00000000000E+00  0.00000000000E+00 -0.92936790800E+03  0.92936877574E+03  0.12699999809E+01 0.  1.
    10030    2    1    2    0    0  0.00000000000E+00  0.00000000000E+00 -0.47328269069E+03  0.13854557613E+04  0.13021102722E+04 0.  0.
        1    1    3    3  502    0  0.85130088348E+02 -0.62302884701E+03 -0.41614272638E+03  0.75404697790E+03  0.50400001928E-02 0.  1.
       -1    1    3    3    0  502 -0.85130088348E+02  0.62302884701E+03 -0.57139964310E+02  0.63140878335E+03  0.50400001928E-02 0. -1.
</event>
<event>
 5   0  0.2723209E-04  0.1302220E+04  0.7818609E-02  0.9027807E-01
        2   -1    0    0  501    0  0.00000000000E+00  0.00000000000E+00  0.79706625884E+03  0.79706625885E+03  0.25500000920E-02 0. -1.
       -2   -1    0    0    0  501  0.00000000000E+00  0.00000000000E+00 -0.53188062254E+03  0.53188062254E+03  0.25500000920E-02 0.  1.
    10030    2    1    2    0    0  0.00000000000E+00  0.00000000000E+00  0.26518563631E+03  0.13289468814E+04  0.13022197940E+04 0.  0.
        2    1    3    3  502    0  0.26290811093E+03  0.36093919292E+03  0.61618169503E+03  0.76097152186E+03  0.25500000920E-02 0. -1.
       -2    1    3    3    0  502 -0.26290811093E+03 -0.36093919292E+03 -0.35099605873E+03  0.56797535953E+03  0.25500000920E-02 0.  1.
</event>
<event>
 5   0  0.2573071E-04  0.1304946E+04  0.7818609E-02  0.9025652E-01
        2   -1    0    0  501    0  0.00000000000E+00  0.00000000000E+00  0.18223795090E+04  0.18223795090E+04  0.25500000920E-02 0.  1.
       -2   -1    0    0    0  501  0.00000000000E+00  0.00000000000E+00 -0.23360724559E+03  0.23360724561E+03  0.25500000920E-02 0. -1.
    10030    2    1    2    0    0  0.00000000000E+00  0.00000000000E+00  0.15887722635E+04  0.20559867547E+04  0.13049460641E+04 0.  0.
        4    1    3    3  502    0  0.81207572898E+02  0.55602611566E+03  0.13168359589E+04  0.14317186409E+04  0.12699999809E+01 0.  1.
       -4    1    3    3    0  502 -0.81207572898E+02 -0.55602611566E+03  0.27193630454E+03  0.62426811373E+03  0.12699999809E+01 0. -1.
</event>
<event>
 5   0  0.1479690E-04  0.1293092E+04  0.7818609E-02  0.9035061E-01
        1   -1    0    0  501    0  0.00000000000E+00  0.00000000000E+00  0.12243425907E+04  0.12243425907E+04  0.50400001928E-02 0. -1.
       -1   -1    0    0    0  501  0.00000000000E+00  0.00000000000E+00 -0.34142533054E+03  0.34142533057E+03  0.50400001928E-02 0.  1.
    10030    2    1    2    0    0  0.00000000000E+00  0.00000000000E+00  0.88291726016E+03  0.15657679213E+04  0.12930917582E+04 0.  0.
        1    1    3    3  502    0  0.31936470817E+02 -0.58156027300E+02  0.12202095210E+04  0.12220120036E+04  0.50400001928E-02 0. -1.
       -1    1    3    3    0  502 -0.31936470817E+02  0.58156027300E+02 -0.33729226087E+03  0.34375591769E+03  0.50400001928E-02 0.  1.
</event>
<event>
 5   0  0.1479690E-04  0.1297569E+04  0.7818609E-02  0.9031495E-01
        1   -1    0    0  501    0  0.00000000000E+00  0.00000000000E+00  0.11640257754E+04  0.11640257754E+04  0.50400001928E-02 0. -1.
       -1   -1    0    0    0  501  0.00000000000E+00  0.00000000000E+00 -0.36160818931E+03  0.36160818935E+03  0.50400001928E-02 0.  1.
    10030    2    1    2    0    0  0.00000000000E+00  0.00000000000E+00  0.80241758608E+03  0.15256339648E+04  0.12975688852E+04 0.  0.
        1    1    3    3  502    0  0.62747340897E+03 -0.14804834362E+03  0.31577308269E+03  0.71788148799E+03  0.50400001928E-02 0.  1.
       -1    1    3    3    0  502 -0.62747340897E+03  0.14804834362E+03  0.48664450340E+03  0.80775247677E+03  0.50400001928E-02 0. -1.
</event>
<event>
 5   0  0.1475396E-04  0.1300438E+04  0.7818609E-02  0.9029218E-01
       -1   -1    0    0    0  501  0.00000000000E+00  0.00000000000E+00  0.58834744773E+03  0.58834744775E+03  0.50400001928E-02 0.  1.
        1   -1    0    0  501    0  0.00000000000E+00  0.00000000000E+00 -0.71859655731E+03  0.71859655733E+03  0.50400001928E-02 0. -1.
    10030    2    1    2    0    0  0.00000000000E+00  0.00000000000E+00 -0.13024910958E+03  0.13069440051E+04  0.13004375425E+04 0.  0.
        3    1    3    3  502    0 -0.61779231242E+03  0.16305611817E+02  0.13800355619E+03  0.63322839954E+03  0.10100000352E+00 0.  1.
       -3    1    3    3    0  502  0.61779231242E+03 -0.16305611817E+02 -0.26825266577E+03  0.67371560554E+03  0.10100000352E+00 0. -1.
</event>
<event>
 5   0  0.2794825E-04  0.1299908E+04  0.7818609E-02  0.9029638E-01
        2   -1    0    0  501    0  0.00000000000E+00  0.00000000000E+00  0.96397677059E+03  0.96397677060E+03  0.25500000920E-02 0. -1.
       -2   -1    0    0    0  501  0.00000000000E+00  0.00000000000E+00 -0.43822661590E+03  0.43822661591E+03  0.25500000920E-02 0.  1.
    10030    2    1    2    0    0  0.00000000000E+00  0.00000000000E+00  0.52575015469E+03  0.14022033865E+04  0.12999081167E+04 0.  0.
        1    1    3    3  502    0 -0.28013053270E+03  0.14012125874E+03 -0.35144407678E+03  0.47076535730E+03  0.50400001928E-02 0.  1.
       -1    1    3    3    0  502  0.28013053270E+03 -0.14012125874E+03  0.87719423147E+03  0.93143802921E+03  0.50400001928E-02 0. -1.
</event>
<event>
 5   0  0.1002887E-04  0.1299694E+04  0.7818609E-02  0.9029808E-01
       -3   -1    0    0    0  501  0.00000000000E+00  0.00000000000E+00  0.12031753947E+04  0.12031753990E+04  0.10100000352E+00 0.  1.
        3   -1    0    0  501    0  0.00000000000E+00  0.00000000000E+00 -0.35098877087E+03  0.35098878540E+03  0.10100000352E+00 0. -1.
    10030    2    1    2    0    0  0.00000000000E+00  0.00000000000E+00  0.85218662388E+03  0.15541641844E+04  0.12996939140E+04 0.  0.
        1    1    3    3  502    0 -0.45961698783E+03 -0.43315307678E+03  0.60913826040E+03  0.87745016026E+03  0.50400001928E-02 0.  1.
       -1    1    3    3    0  502  0.45961698783E+03  0.43315307678E+03  0.24304836348E+03  0.67671402412E+03  0.50400001928E-02 0. -1.
</event>
<event>
 5   0  0.2573071E-04  0.1300316E+04  0.7818609E-02  0.9029315E-01
       -2   -1    0    0    0  501  0.00000000000E+00  0.00000000000E+00  0.24243557644E+03  0.24243557645E+03  0.25500000920E-02 0.  1.
        2   -1    0    0  501    0  0.00000000000E+00  0.00000000000E+00 -0.17435784162E+04  0.17435784162E+04  0.25500000920E-02 0. -1.
    10030    2    1    2    0    0  0.00000000000E+00  0.00000000000E+00 -0.15011428398E+04  0.19860139927E+04  0.13003160207E+04 0.  0.
        4    1    3    3  502    0  0.35579113094E+02  0.23229252182E+03 -0.16764395674E+04  0.16928310385E+04  0.12699999809E+01 0. -1.
       -4    1    3    3    0  502 -0.35579113094E+02 -0.23229252182E+03  0.17529672762E+03  0.29318295413E+03  0.12699999809E+01 0.  1.
</event>
<event>
 5   0  0.1430636E-04  0.1300690E+04  0.7818609E-02  0.9029018E-01
        1   -1    0    0  501    0  0.00000000000E+00  0.00000000000E+00  0.46742286243E+03  0.46742286245E+03  0.50400001928E-02 0.  1.
       -1   -1    0    0    0  501  0.00000000000E+00  0.00000000000E+00 -0.90485202626E+03  0.90485202627E+03  0.50400001928E-02 0. -1.
    10030    2    1    2    0    0  0.00000000000E+00  0.00000000000E+00 -0.43742916383E+03  0.13722748887E+04  0.13006898542E+04 0.  0.
        4    1    3    3  502    0  0.94219931528E+02 -0.28253559503E+03  0.39124158082E+03  0.49170656435E+03  0.12699999809E+01 0.  1.
       -4    1    3    3    0  502 -0.94219931528E+02  0.28253559503E+03 -0.82867074465E+03  0.88056832438E+03  0.12699999809E+01 0. -1.
</event>
<event>
 5   0  0.1408341E-04  0.1290785E+04  0.7818609E-02  0.9036905E-01
       -1   -1    0    0    0  501  0.00000000000E+00  0.00000000000E+00  0.50775617130E+03  0.50775617133E+03  0.50400001928E-02 0.  1.
        1   -1    0    0  501    0  0.00000000000E+00  0.00000000000E+00 -0.82033699813E+03  0.82033699815E+03  0.50400001928E-02 0. -1.
    10030    2    1    2    0    0  0.00000000000E+00  0.00000000000E+00 -0.31258082683E+03  0.13280931695E+04  0.12907845264E+04 0.  0.
        5    1    3    3  502    0  0.59746944660E+02 -0.14111820950E+03 -0.80132782066E+03  0.81586298642E+03  0.46999998093E+01 0. -1.
       -5    1    3    3    0  502 -0.59746944660E+02  0.14111820950E+03  0.48874699384E+03  0.51223018305E+03  0.46999998093E+01 0.  1.
</event>
<event>
 5   0  0.2794825E-04  0.1300335E+04  0.7818609E-02  0.9029299E-01
        2   -1    0    0  501    0  0.00000000000E+00  0.00000000000E+00  0.12610835652E+04  0.12610835652E+04  0.25500000920E-02 0. -1.
       -2   -1    0    0    0  501  0.00000000000E+00  0.00000000000E+00 -0.33520215243E+03  0.33520215244E+03  0.25500000920E-02 0.  1.
    10030    2    1    2    0    0  0.00000000000E+00  0.00000000000E+00  0.92588141277E+03  0.15962857176E+04  0.13003352267E+04 0.  0.
        1    1    3    3  502    0 -0.30398520731E+03  0.45232023857E+03  0.89820481656E+03  0.10506057762E+04  0.50400001928E-02 0. -1.
       -1    1    3    3    0  502  0.30398520731E+03 -0.45232023857E+03  0.27676596207E+02  0.54567994144E+03  0.50400001928E-02 0.  1.
</event>
<event>
 5   0  0.1475396E-04  0.1298399E+04  0.7818609E-02  0.9030836E-01
       -1   -1    0    0    0  501  0.00000000000E+00  0.00000000000E+00  0.43524851105E+03  0.43524851108E+03  0.50400001928E-02 0.  1.
        1   -1    0    0  501    0  0.00000000000E+00  0.00000000000E+00 -0.96831996668E+03  0.96831996669E+03  0.50400001928E-02 0. -1.
    10030    2    1    2    0    0  0.00000000000E+00  0.00000000000E+00 -0.53307145563E+03  0.14035684778E+04  0.12983987427E+04 0.  0.
        3    1    3    3  502    0 -0.54903577300E+03 -0.24725084457E+03 -0.42144086500E+01  0.60215532183E+03  0.10100000352E+00 0.  1.
       -3    1    3    3    0  502  0.54903577300E+03  0.24725084457E+03 -0.52885704698E+03  0.80141315594E+03  0.10100000352E+00 0. -1.
</event>
<event>
 5   0  0.2723209E-04  0.1299011E+04  0.7818609E-02  0.9030350E-01
       -2   -1    0    0    0  501  0.00000000000E+00  0.00000000000E+00  0.66764477506E+03  0.66764477507E+03  0.25500000920E-02 0. -1.
        2   -1    0    0  501    0  0.00000000000E+00  0.00000000000E+00 -0.63185922938E+03  0.63185922939E+03  0.25500000920E-02 0.  1.
    10030    2    1    2    0    0  0.00000000000E+00  0.00000000000E+00  0.35785545680E+02  0.12995040045E+04  0.12990111825E+04 0.  0.
        2    1    3    3  502    0 -0.28772185284E+03  0.10464080552E+03  0.59093113665E+03  0.66553224644E+03  0.25500000920E-02 0. -1.
       -2    1    3    3    0  502  0.28772185284E+03 -0.10464080552E+03 -0.55514559097E+03  0.63397175802E+03  0.25500000920E-02 0.  1.
</event>
<event>
 5   0  0.2723209E-04  0.1299681E+04  0.7818609E-02  0.9029818E-01
        2   -1    0    0  501    0  0.00000000000E+00  0.00000000000E+00  0.18738197127E+04  0.18738197127E+04  0.25500000920E-02 0. -1.
       -2   -1    0    0    0  501  0.00000000000E+00  0.00000000000E+00 -0.22536451211E+03  0.22536451212E+03  0.25500000920E-02 0.  1.
    10030    2    1    2    0    0  0.00000000000E+00  0.00000000000E+00  0.16484552006E+04  0.20991842249E+04  0.12996806767E+04 0.  0.
        2    1    3    3  502    0  0.58657076845E+03  0.27260911309E+03  0.92524214649E+03  0.11289171912E+04  0.25500000920E-02 0. -1.
       -2    1    3    3    0  502 -0.58657076845E+03 -0.27260911309E+03  0.72321305413E+03  0.97026703366E+03  0.25500000920E-02 0.  1.
</event>
<event>
 5   0  0.2573071E-04  0.1299887E+04  0.7818609E-02  0.9029655E-01
        2   -1    0    0  501    0  0.00000000000E+00  0.00000000000E+00  0.18296435996E+04  0.18296435996E+04  0.25500000920E-02 0. -1.
       -2   -1    0    0    0  501  0.00000000000E+00  0.00000000000E+00 -0.23087917599E+03  0.23087917600E+03  0.25500000920E-02 0.  1.
    10030    2    1    2    0    0  0.00000000000E+00  0.00000000000E+00  0.15987644236E+04  0.20605227756E+04  0.12998870822E+04 0.  0.
        4    1    3    3  502    0  0.48601783250E+03 -0.43059092974E+03  0.84430427582E+03  0.10651165220E+04  0.12699999809E+01 0.  1.
       -4    1    3    3    0  502 -0.48601783250E+03  0.43059092974E+03  0.75446014780E+03  0.99540625365E+03  0.12699999809E+01 0. -1.
</event>
<event>
 5   0  0.2661377E-04  0.1299171E+04  0.7818609E-02  0.9030223E-01
       -2   -1    0    0    0  501  0.00000000000E+00  0.00000000000E+00  0.13152709497E+04  0.13152709497E+04  0.25500000920E-02 0. -1.
        2   -1    0    0  501    0  0.00000000000E+00  0.00000000000E+00 -0.32081690226E+03  0.32081690227E+03  0.25500000920E-02 0.  1.
    10030    2    1    2    0    0  0.00000000000E+00  0.00000000000E+00  0.99445404745E+03  0.16360878520E+04  0.12991707382E+04 0.  0.
        5    1    3    3  502    0 -0.15563570165E+03 -0.45765439290E+02 -0.29487417369E+03  0.33658552460E+03  0.46999998093E+01 0.  1.
       -5    1    3    3    0  502  0.15563570165E+03  0.45765439290E+02  0.12893282211E+04  0.12995023274E+04  0.46999998093E+01 0. -1.
</event>
<event>
 5   0  0.2794825E-04  0.1298993E+04  0.7818609E-02  0.9030364E-01
       -2   -1    0    0    0  501  0.00000000000E+00  0.00000000000E+00  0.21605853197E+03  0.21605853198E+03  0.25500000920E-02 0.  1.
        2   -1    0    0  501    0  0.00000000000E+00  0.00000000000E+00 -0.19524591076E+04  0.19524591076E+04  0.25500000920E-02 0. -1.
    10030    2    1    2    0    0  0.00000000000E+00  0.00000000000E+00 -0.17364005756E+04  0.21685176396E+04  0.12989926074E+04 0.  0.
        1    1    3    3  502    0  0.39403207361E+03 -0.14700683536E+03 -0.41942558262E+02  0.42264815496E+03  0.50400001928E-02 0.  1.
       -1    1    3    3    0  502 -0.39403207361E+03  0.14700683536E+03 -0.16944580174E+04  0.17458694846E+04  0.50400001928E-02 0. -1.
</event>
<event>
 5   0  0.2661377E-04  0.1300750E+04  0.7818609E-02  0.9028971E-01
        2   -1    0    0  501    0  0.00000000000E+00  0.00000000000E+00  0.21473210666E+04  0.21473210666E+04  0.25500000920E-02 0.  1.
       -2   -1    0    0    0  501  0.00000000000E+00  0.00000000000E+00 -0.19698391903E+03  0.19698391905E+03  0.25500000920E-02 0. -1.
    10030    2    1    2    0    0  0.00000000000E+00  0.00000000000E+00  0.19503371476E+04  0.23443049857E+04  0.13007501207E+04 0.  0.
        5    1    3    3  502    0  0.33757296065E+03 -0.34849983896E+03  0.19464141614E+03  0.52279538291E+03  0.46999998093E+01 0. -1.
       -5    1    3    3    0  502 -0.33757296065E+03  0.34849983896E+03  0.17556957314E+04  0.18215096027E+04  0.46999998093E+01 0.  1.
</event>
<event>
 5   0  0.1430636E-04  0.1301077E+04  0.7818609E-02  0.9028711E-01
       -1   -1    0    0    0  501  0.00000000000E+00  0.00000000000E+00  0.40252986124E+03  0.40252986128E+03  0.50400001928E-02 0. -1.
        1   -1    0    0  501    0  0.00000000000E+00  0.00000000000E+00 -0.10513518432E+04  0.10513518432E+04  0.50400001928E-02 0.  1.
    10030    2    1    2    0    0  0.00000000000E+00  0.00000000000E+00 -0.64882198194E+03  0.14538817045E+04  0.13010772638E+04 0.  0.
        4    1    3    3  502    0  0.17076697586E+03  0.80344554278E+02 -0.10200884738E+04  0.10373999782E+04  0.12699999809E+01 0.  1.
       -4    1    3    3    0  502 -0.17076697586E+03 -0.80344554278E+02  0.37126649187E+03  0.41648172629E+03  0.12699999809E+01 0. -1.
</event>
<event>
 5   0  0.1408341E-04  0.1300730E+04  0.7818609E-02  0.9028987E-01
        1   -1    0    0  501    0  0.00000000000E+00  0.00000000000E+00  0.83366649611E+03  0.83366649613E+03  0.50400001928E-02 0.  1.
       -1   -1    0    0    0  501  0.00000000000E+00  0.00000000000E+00 -0.50736663402E+03  0.50736663404E+03  0.50400001928E-02 0. -1.
    10030    2    1    2    0    0  0.00000000000E+00  0.00000000000E+00  0.32629986210E+03  0.13410331302E+04  0.13007298936E+04 0.  0.
        5    1    3    3  502    0  0.15231346493E+03  0.41604902972E+03 -0.32768591401E+03  0.55108650407E+03  0.46999998093E+01 0. -1.
       -5    1    3    3    0  502 -0.15231346493E+03 -0.41604902972E+03  0.65398577611E+03  0.78994662610E+03  0.46999998093E+01 0.  1.
</event>
<event>
 5   0  0.2573071E-04  0.1304041E+04  0.7818609E-02  0.9026367E-01
        2   -1    0    0  501    0  0.00000000000E+00  0.00000000000E+00  0.46181748275E+03  0.46181748276E+03  0.25500000920E-02 0. -1.
       -2   -1    0    0    0  501  0.00000000000E+00  0.00000000000E+00 -0.92055996929E+03  0.92055996929E+03  0.25500000920E-02 0.  1.
    10030    2    1    2    0    0  0.00000000000E+00  0.00000000000E+00 -0.45874248654E+03  0.13823774521E+04  0.13040409315E+04 0.  0.
        4    1    3    3  502    0 -0.27435116572E+03  0.28556516170E+03 -0.77847740490E+03  0.87340981592E+03  0.12699999809E+01 0.  1.
       -4    1    3    3    0  502  0.27435116572E+03 -0.28556516170E+03  0.31973491836E+03  0.50896763613E+03  0.12699999809E+01 0. -1.
</event>
<event>
 5   0  0.2723209E-04  0.1292904E+04  0.7818609E-02  0.9035212E-01
       -2   -1    0    0    0  501  0.00000000000E+00  0.00000000000E+00  0.55494264930E+03  0.55494264931E+03  0.25500000920E-02 0.  1.
        2   -1    0    0  501    0  0.00000000000E+00  0.00000000000E+00 -0.75305075480E+03  0.75305075481E+03  0.25500000920E-02 0. -1.
    10030    2    1    2    0    0  0.00000000000E+00  0.00000000000E+00 -0.19810810550E+03  0.13079934041E+04  0.12929036792E+04 0.  0.
        2    1    3    3  502    0 -0.33642327212E+03  0.20506347918E+03 -0.61754746294E+03  0.73252748584E+03  0.25500000920E-02 0. -1.
       -2    1    3    3    0  502  0.33642327212E+03 -0.20506347918E+03  0.41943935744E+03  0.57546591828E+03  0.25500000920E-02 0.  1.
</event>
<event>
 5   0  0.1408341E-04  0.1299681E+04  0.7818609E-02  0.9029818E-01
       -1   -1    0    0    0  501  0.00000000000E+00  0.00000000000E+00  0.46088527017E+03  0.46088527019E+03  0.50400001928E-02 0. -1.
        1   -1    0    0  501    0  0.00000000000E+00  0.00000000000E+00 -0.91626401198E+03  0.91626401199E+03  0.50400001928E-02 0.  1.
    10030    2    1    2    0    0  0.00000000000E+00  0.00000000000E+00 -0.45537874181E+03  0.13771492822E+04  0.12996808635E+04 0.  0.
        5    1    3    3  502    0  0.60169808549E+03  0.67953880305E+02 -0.47756808288E+03  0.77120145210E+03  0.46999998093E+01 0.  1.
       -5    1    3    3    0  502 -0.60169808549E+03 -0.67953880305E+02  0.22189341064E+02  0.60594783009E+03  0.46999998093E+01 0. -1.
</event>
<event>
 5   0  0.1430636E-04  0.1299522E+04  0.7818609E-02  0.9029945E-01
        1   -1    0    0  501    0  0.00000000000E+00  0.00000000000E+00  0.14226431509E+04  0.14226431509E+04  0.50400001928E-02 0.  1.
       -1   -1    0    0    0  501  0.00000000000E+00  0.00000000000E+00 -0.29676386196E+03  0.29676386200E+03  0.50400001928E-02 0. -1.
    10030    2    1    2    0    0  0.00000000000E+00  0.00000000000E+00  0.11258792890E+04  0.17194070130E+04  0.12995215669E+04 0.  0.
        4    1    3    3  502    0  0.48128560936E+03 -0.18302117387E+03  0.10872892106E+04  0.12030511329E+04  0.12699999809E+01 0.  1.
       -4    1    3    3    0  502 -0.48128560936E+03  0.18302117387E+03  0.38590078382E+02  0.51635588010E+03  0.12699999809E+01 0. -1.
</event>
<event>
 5   0  0.2661377E-04  0.1300365E+04  0.7818609E-02  0.9029276E-01
       -2   -1    0    0    0  501  0.00000000000E+00  0.00000000000E+00  0.80143384759E+03  0.80143384760E+03  0.25500000920E-02 0.  1.
        2   -1    0    0  501    0  0.00000000000E+00  0.00000000000E+00 -0.52747623842E+03  0.52747623843E+03  0.25500000920E-02 0. -1.
    10030    2    1    2    0    0  0.00000000000E+00  0.00000000000E+00  0.27395760917E+03  0.13289100860E+04  0.13003650430E+04 0.  0.
        5    1    3    3  502    0 -0.80323234421E+01  0.30008806498E+03  0.72635153052E+03  0.78595547002E+03  0.46999998093E+01 0.  1.
       -5    1    3    3    0  502  0.80323234421E+01 -0.30008806498E+03 -0.45239392135E+03  0.54295461600E+03  0.46999998093E+01 0. -1.
</event>
<event>
 5   0  0.1476511E-04  0.1301070E+04  0.7818609E-02  0.9028717E-01
        1   -1    0    0  501    0  0.00000000000E+00  0.00000000000E+00  0.12461860104E+04  0.12461860104E+04  0.50400001928E-02 0. -1.
       -1   -1    0    0    0  501  0.00000000000E+00  0.00000000000E+00 -0.33959272382E+03  0.33959272386E+03  0.50400001928E-02 0.  1.
    10030    2    1    2    0    0  0.00000000000E+00  0.00000000000E+00  0.90659328659E+03  0.15857787343E+04  0.13010698701E+04 0.  0.
        2    1    3    3  502    0  0.15247039411E+03  0.26977455841E+03 -0.24385750924E+03  0.39432476242E+03  0.25500000920E-02 0.  1.
       -2    1    3    3    0  502 -0.15247039411E+03 -0.26977455841E+03  0.11504507958E+04  0.11914539719E+04  0.25500000920E-02 0. -1.
</event>
<event>
 5   0  0.1475396E-04  0.1300373E+04  0.7818609E-02  0.9029269E-01
       -1   -1    0    0    0  501  0.00000000000E+00  0.00000000000E+00  0.62479740079E+03  0.62479740081E+03  0.50400001928E-02 0.  1.
        1   -1    0    0  501    0  0.00000000000E+00  0.00000000000E+00 -0.67660725410E+03  0.67660725412E+03  0.50400001928E-02 0. -1.
    10030    2    1    2    0    0  0.00000000000E+00  0.00000000000E+00 -0.51809853309E+02  0.13014046549E+04  0.13003729523E+04 0.  0.
        3    1    3    3  502    0  0.28186934643E+03  0.16489853138E+03 -0.58857922889E+03  0.67310279526E+03  0.10100000352E+00 0. -1.
       -3    1    3    3    0  502 -0.28186934643E+03 -0.16489853138E+03  0.53676937558E+03  0.62830185967E+03  0.10100000352E+00 0.  1.
</event>
<event>
 5   0  0.1479690E-04  0.1303778E+04  0.7818609E-02  0.9026575E-01
        1   -1    0    0  501    0  0.00000000000E+00  0.00000000000E+00  0.57160397949E+03  0.57160397951E+03  0.50400001928E-02 0.  1.
       -1   -1    0    0    0  501  0.00000000000E+00  0.00000000000E+00 -0.74345053133E+03  0.74345053135E+03  0.50400001928E-02 0. -1.
    10030    2    1    2    0    0  0.00000000000E+00  0.00000000000E+00 -0.17184655184E+03  0.13150545109E+04  0.13037780214E+04 0.  0.
        1    1    3    3  502    0 -0.54886527859E+03  0.91568876936E+02 -0.42845036128E+03  0.70228745209E+03  0.50400001928E-02 0.  1.
       -1    1    3    3    0  502  0.54886527859E+03 -0.91568876936E+02  0.25660380944E+03  0.61276705876E+03  0.50400001928E-02 0. -1.
</event>
<event>
 5   0  0.2794825E-04  0.1304450E+04  0.7818609E-02  0.9026044E-01
        2   -1    0    0  501    0  0.00000000000E+00  0.00000000000E+00  0.82698582268E+03  0.82698582269E+03  0.25500000920E-02 0.  1.
       -2   -1    0    0    0  501  0.00000000000E+00  0.00000000000E+00 -0.51439471550E+03  0.51439471551E+03  0.25500000920E-02 0. -1.
    10030    2    1    2    0    0  0.00000000000E+00  0.00000000000E+00  0.31259110718E+03  0.13413805382E+04  0.13044495191E+04 0.  0.
        1    1    3    3  502    0 -0.24582182025E+03 -0.34066686649E+03 -0.35674315348E+03  0.55113334032E+03  0.50400001928E-02 0. -1.
       -1    1    3    3    0  502  0.24582182025E+03  0.34066686649E+03  0.66933426066E+03  0.79024719787E+03  0.50400001928E-02 0.  1.
</event>
<event>
 5   0  0.1002887E-04  0.1298886E+04  0.7818609E-02  0.9030449E-01
        3   -1    0    0  501    0  0.00000000000E+00  0.00000000000E+00  0.74658439621E+03  0.74658440304E+03  0.10100000352E+00 0. -1.
       -3   -1    0    0    0  501  0.00000000000E+00  0.00000000000E+00 -0.56494086428E+03  0.56494087331E+03  0.10100000352E+00 0.  1.
    10030    2    1    2    0    0  0.00000000000E+00  0.00000000000E+00  0.18164353193E+03  0.13115252763E+04  0.12988857447E+04 0.  0.
        3    1    3    3  502    0  0.59925879873E+03  0.20849629096E+03  0.23071315521E+03  0.67513730558E+03  0.10100000352E+00 0. -1.
       -3    1    3    3    0  502 -0.59925879873E+03 -0.20849629096E+03 -0.49069623274E+02  0.63638797076E+03  0.10100000352E+00 0.  1.
</event>
<event>
 5   0  0.2756984E-04  0.1334550E+04  0.7818609E-02  0.9002607E-01
       -2   -1    0    0    0  501  0.00000000000E+00  0.00000000000E+00  0.43555325419E+03  0.43555325419E+03  0.25500000920E-02 0.  1.
        2   -1    0    0  501    0  0.00000000000E+00  0.00000000000E+00 -0.10222764751E+04  0.10222764751E+04  0.25500000920E-02 0. -1.
    10030    2    1    2    0    0  0.00000000000E+00  0.00000000000E+00 -0.58672322093E+03  0.14578297293E+04  0.13345498798E+04 0.  0.
        3    1    3    3  502    0  0.12162653243E+03  0.64458843663E+03 -0.42700950968E+03  0.78270326280E+03  0.10100000352E+00 0. -1.
       -3    1    3    3    0  502 -0.12162653243E+03 -0.64458843663E+03 -0.15971371125E+03  0.67512646652E+03  0.10100000352E+00 0.  1.
</event>
<event>
 5   0  0.2661377E-04  0.1295240E+04  0.7818609E-02  0.9033348E-01
       -2   -1    0    0    0  501  0.00000000000E+00  0.00000000000E+00  0.53399529761E+03  0.53399529761E+03  0.25500000920E-02 0.  1.
        2   -1    0    0  501    0  0.00000000000E+00  0.00000000000E+00 -0.78542225419E+03  0.78542225420E+03  0.25500000920E-02 0. -1.
    10030    2    1    2    0    0  0.00000000000E+00  0.00000000000E+00 -0.25142695658E+03  0.13194175518E+04  0.12952401945E+04 0.  0.
        5    1    3    3  502    0 -0.18686155290E+03 -0.20709923401E+03  0.46964654018E+03  0.54625753576E+03  0.46999998093E+01 0.  1.
       -5    1    3    3    0  502  0.18686155290E+03  0.20709923401E+03 -0.72107349676E+03  0.77316001604E+03  0.46999998093E+01 0. -1.
</event>
<event>
 5   0  0.2573071E-04  0.1296687E+04  0.7818609E-02  0.9032196E-01
        2   -1    0    0  501    0  0.00000000000E+00  0.00000000000E+00  0.34034427188E+03  0.34034427189E+03  0.25500000920E-02 0. -1.
       -2   -1    0    0    0  501  0.00000000000E+00  0.00000000000E+00 -0.12350717463E+04  0.12350717463E+04  0.25500000920E-02 0.  1.
    10030    2    1    2    0    0  0.00000000000E+00  0.00000000000E+00 -0.89472747445E+03  0.15754160182E+04  0.12966874631E+04 0.  0.
        4    1    3    3  502    0 -0.26653675546E+02  0.44321631036E+02 -0.12325600055E+04  0.12336452510E+04  0.12699999809E+01 0.  1.
       -4    1    3    3    0  502  0.26653675546E+02 -0.44321631036E+02  0.33783253101E+03  0.34177076720E+03  0.12699999809E+01 0. -1.
</event>
<event>
 5   0  0.2794825E-04  0.1299426E+04  0.7818609E-02  0.9030020E-01
        2   -1    0    0  501    0  0.00000000000E+00  0.00000000000E+00  0.14081394124E+04  0.14081394124E+04  0.25500000920E-02 0.  1.
       -2   -1    0    0    0  501  0.00000000000E+00  0.00000000000E+00 -0.29977642262E+03  0.29977642263E+03  0.25500000920E-02 0. -1.
    10030    2    1    2    0    0  0.00000000000E+00  0.00000000000E+00  0.11083629898E+04  0.17079158350E+04  0.12994260204E+04 0.  0.
        1    1    3    3  502    0 -0.54098726336E+03  0.13657836577E+03  0.11666262089E+03  0.57002722414E+03  0.50400001928E-02 0. -1.
       -1    1    3    3    0  502  0.54098726336E+03 -0.13657836577E+03  0.99170036891E+03  0.11378886109E+04  0.50400001928E-02 0.  1.
</event>
<event>
 5   0  0.1476511E-04  0.1304722E+04  0.7818609E-02  0.9025829E-01
        1   -1    0    0  501    0  0.00000000000E+00  0.00000000000E+00  0.25205020740E+04  0.25205020740E+04  0.50400001928E-02 0. -1.
       -1   -1    0    0    0  501  0.00000000000E+00  0.00000000000E+00 -0.16884529792E+03  0.16884529799E+03  0.50400001928E-02 0.  1.
    10030    2    1    2    0    0  0.00000000000E+00  0.00000000000E+00  0.23516567761E+04  0.26893473720E+04  0.13047220757E+04 0.  0.
        2    1    3    3  502    0  0.12748113625E+03  0.14955813304E+03  0.24580396844E+04  0.24658828369E+04  0.25500000920E-02 0. -1.
       -2    1    3    3    0  502 -0.12748113625E+03 -0.14955813304E+03 -0.10638290832E+03  0.22346453509E+03  0.25500000920E-02 0.  1.
</event>
<event>
 5   0  0.1475396E-04  0.1292817E+04  0.7818609E-02  0.9035281E-01
       -1   -1    0    0    0  501  0.00000000000E+00  0.00000000000E+00  0.13418288972E+04  0.13418288972E+04  0.50400001928E-02 0.  1.
        1   -1    0    0  501    0  0.00000000000E+00  0.00000000000E+00 -0.31139887730E+03  0.31139887734E+03  0.50400001928E-02 0. -1.
    10030    2    1    2    0    0  0.00000000000E+00  0.00000000000E+00  0.10304300199E+04  0.16532277746E+04  0.12928170979E+04 0.  0.
        3    1    3    3  502    0 -0.30026748129E+03  0.14487437614E+03  0.12234034808E+04  0.12680162586E+04  0.10100000352E+00 0.  1.
       -3    1    3    3    0  502  0.30026748129E+03 -0.14487437614E+03 -0.19297346089E+03  0.38521151591E+03  0.10100000352E+00 0. -1.
</event>
<event>
 5   0  0.2661377E-04  0.1299522E+04  0.7818609E-02  0.9029944E-01
       -2   -1    0    0    0  501  0.00000000000E+00  0.00000000000E+00  0.24512338417E+03  0.24512338418E+03  0.25500000920E-02 0. -1.
        2   -1    0    0  501    0  0.00000000000E+00  0.00000000000E+00 -0.17223539384E+04  0.17223539384E+04  0.25500000920E-02 0.  1.
    10030    2    1    2    0    0  0.00000000000E+00  0.00000000000E+00 -0.14772305542E+04  0.19674773226E+04  0.12995217984E+04 0.  0.
        5    1    3    3  502    0 -0.61551144751E+03  0.17734278570E+03 -0.57371887651E+03  0.85993037214E+03  0.46999998093E+01 0. -1.
       -5    1    3    3    0  502  0.61551144751E+03 -0.17734278570E+03 -0.90351167773E+03  0.11075469504E+04  0.46999998093E+01 0.  1.
</event>
<event>
 5   0  0.2756984E-04  0.1298167E+04  0.7818609E-02  0.9031020E-01
        2   -1    0    0  501    0  0.00000000000E+00  0.00000000000E+00  0.55150246850E+03  0.55150246850E+03  0.25500000920E-02 0.  1.
       -2   -1    0    0    0  501  0.00000000000E+00  0.00000000000E+00 -0.76392982492E+03  0.76392982492E+03  0.25500000920E-02 0. -1.
    10030    2    1    2    0    0  0.00000000000E+00  0.00000000000E+00 -0.21242735642E+03  0.13154322934E+04  0.12981666830E+04 0.  0.
        3    1    3    3  502    0 -0.22090542286E+03  0.91206568952E+02 -0.71772266216E+03  0.75646789360E+03  0.10100000352E+00 0. -1.
       -3    1    3    3    0  502  0.22090542286E+03 -0.91206568952E+02  0.50529530574E+03  0.55896439983E+03  0.10100000352E+00 0.  1.
</event>
<event>
 5   0  0.1430636E-04  0.1300716E+04  0.7818609E-02  0.9028998E-01
       -1   -1    0    0    0  501  0.00000000000E+00  0.00000000000E+00  0.10159289382E+04  0.10159289382E+04  0.50400001928E-02 0. -1.
        1   -1    0    0  501    0  0.00000000000E+00  0.00000000000E+00 -0.41633371089E+03  0.41633371092E+03  0.50400001928E-02 0.  1.
    10030    2    1    2    0    0  0.00000000000E+00  0.00000000000E+00  0.59959522727E+03  0.14322626491E+04  0.13007159027E+04 0.  0.
        4    1    3    3  502    0 -0.41420687508E+03  0.36648075816E+03  0.67658564364E+03  0.87386796917E+03  0.12699999809E+01 0. -1.
       -4    1    3    3    0  502  0.41420687508E+03 -0.36648075816E+03 -0.76990416367E+02  0.55839467993E+03  0.12699999809E+01 0.  1.
</event>
<event>
 5   0  0.1479690E-04  0.1301868E+04  0.7818609E-02  0.9028085E-01
       -1   -1    0    0    0  501  0.00000000000E+00  0.00000000000E+00  0.71472865938E+03  0.71472865939E+03  0.50400001928E-02 0.  1.
        1   -1    0    0  501    0  0.00000000000E+00  0.00000000000E+00 -0.59283319662E+03  0.59283319664E+03  0.50400001928E-02 0. -1.
    10030    2    1    2    0    0  0.00000000000E+00  0.00000000000E+00  0.12189546276E+03  0.13075618560E+04  0.13018676982E+04 0.  0.
        1    1    3    3  502    0  0.56767207604E+03 -0.29809642759E+03 -0.51801048721E+02  0.64327009469E+03  0.50400001928E-02 0. -1.
       -1    1    3    3    0  502 -0.56767207604E+03  0.29809642759E+03  0.17369651148E+03  0.66429176134E+03  0.50400001928E-02 0.  1.
</event>
<event>
 5   0  0.2661377E-04  0.1300036E+04  0.7818609E-02  0.9029536E-01
        2   -1    0    0  501    0  0.00000000000E+00  0.00000000000E+00  0.62436035224E+03  0.62436035224E+03  0.25500000920E-02 0.  1.
       -2   -1    0    0    0  501  0.00000000000E+00  0.00000000000E+00 -0.67673046393E+03  0.67673046394E+03  0.25500000920E-02 0. -1.
    10030    2    1    2    0    0  0.00000000000E+00  0.00000000000E+00 -0.52370111693E+02  0.13010908162E+04  0.13000364162E+04 0.  0.
        5    1    3    3  502    0  0.19483397392E+03 -0.26557999966E+03 -0.58700421540E+03  0.67311889924E+03  0.46999998093E+01 0. -1.
       -5    1    3    3    0  502 -0.19483397392E+03  0.26557999966E+03  0.53463410371E+03  0.62797191694E+03  0.46999998093E+01 0.  1.
</event>
<event>
 5   0  0.1430636E-04  0.1300749E+04  0.7818609E-02  0.9028971E-01
        1   -1    0    0  501    0  0.00000000000E+00  0.00000000000E+00  0.51751143026E+03  0.51751143028E+03  0.50400001928E-02 0. -1.
       -1   -1    0    0    0  501  0.00000000000E+00  0.00000000000E+00 -0.81734855619E+03  0.81734855620E+03  0.50400001928E-02 0.  1.
    10030    2    1    2    0    0  0.00000000000E+00  0.00000000000E+00 -0.29983712593E+03  0.13348599865E+04  0.13007493538E+04 0.  0.
        4    1    3    3  502    0 -0.10820239908E+03  0.17664354349E+03  0.48275064081E+03  0.52531942161E+03  0.12699999809E+01 0. -1.
       -4    1    3    3    0  502  0.10820239908E+03 -0.17664354349E+03 -0.78258776674E+03  0.80954056487E+03  0.12699999809E+01 0.  1.
</event>
<event>
 5   0  0.1479690E-04  0.1300303E+04  0.7818609E-02  0.9029325E-01
       -1   -1    0    0    0  501  0.00000000000E+00  0.00000000000E+00  0.12371373481E+04  0.12371373481E+04  0.50400001928E-02 0. -1.
        1   -1    0    0  501    0  0.00000000000E+00  0.00000000000E+00 -0.34167339175E+03  0.34167339178E+03  0.50400001928E-02 0.  1.
    10030    2    1    2    0    0  0.00000000000E+00  0.00000000000E+00  0.89546395632E+03  0.15788107399E+04  0.13003029090E+04 0.  0.
        1    1    3    3  502    0 -0.12031463435E+02  0.18992058287E+03 -0.30710011918E+03  0.36128253090E+03  0.50400001928E-02 0.  1.
       -1    1    3    3    0  502  0.12031463435E+02 -0.18992058287E+03  0.12025640755E+04  0.12175282090E+04  0.50400001928E-02 0. -1.
</event>
<event>
 5   0  0.2573071E-04  0.1297287E+04  0.7818609E-02  0.9031720E-01
        2   -1    0    0  501    0  0.00000000000E+00  0.00000000000E+00  0.56671576663E+03  0.56671576664E+03  0.25500000920E-02 0.  1.
       -2   -1    0    0    0  501  0.00000000000E+00  0.00000000000E+00 -0.74241495010E+03  0.74241495011E+03  0.25500000920E-02 0. -1.
    10030    2    1    2    0    0  0.00000000000E+00  0.00000000000E+00 -0.17569918347E+03  0.13091307167E+04  0.12972867958E+04 0.  0.
        4    1    3    3  502    0  0.20187558589E+03 -0.57536648082E+03 -0.31108475472E+03  0.68452587749E+03  0.12699999809E+01 0. -1.
       -4    1    3    3    0  502 -0.20187558589E+03  0.57536648082E+03  0.13538557125E+03  0.62460483926E+03  0.12699999809E+01 0.  1.
</event>
<event>
 5   0  0.1475396E-04  0.1295067E+04  0.7818609E-02  0.9033486E-01
        1   -1    0    0  501    0  0.00000000000E+00  0.00000000000E+00  0.54713875492E+03  0.54713875495E+03  0.50400001928E-02 0.  1.
       -1   -1    0    0    0  501  0.00000000000E+00  0.00000000000E+00 -0.76635012430E+03  0.76635012432E+03  0.50400001928E-02 0. -1.
    10030    2    1    2    0    0  0.00000000000E+00  0.00000000000E+00 -0.21921136938E+03  0.13134888793E+04  0.12950673386E+04 0.  0.
        3    1    3    3  502    0 -0.36289473572E+03  0.44642985326E+03 -0.41099870294E+03  0.70704465709E+03  0.10100000352E+00 0. -1.
       -3    1    3    3    0  502  0.36289473572E+03 -0.44642985326E+03  0.19178733356E+03  0.60644422218E+03  0.10100000352E+00 0.  1.
</event>
<event>
 5   0  0.1479690E-04  0.1299866E+04  0.7818609E-02  0.9029671E-01
        1   -1    0    0  501    0  0.00000000000E+00  0.00000000000E+00  0.12433799719E+04  0.12433799719E+04  0.50400001928E-02 0. -1.
       -1   -1    0    0    0  501  0.00000000000E+00  0.00000000000E+00 -0.33972950044E+03  0.33972950048E+03  0.50400001928E-02 0.  1.
    10030    2    1    2    0    0  0.00000000000E+00  0.00000000000E+00  0.90365047144E+03  0.15831094724E+04  0.12998659265E+04 0.  0.
        1    1    3    3  502    0 -0.22026710177E+03  0.25943142251E+03 -0.22253476698E+03  0.40662511193E+03  0.50400001928E-02 0.  1.
       -1    1    3    3    0  502  0.22026710177E+03 -0.25943142251E+03  0.11261852384E+04  0.11764843604E+04  0.50400001928E-02 0. -1.
</event>
<event>
 5   0  0.1479690E-04  0.1303163E+04  0.7818609E-02  0.9027061E-01
        1   -1    0    0  501    0  0.00000000000E+00  0.00000000000E+00  0.47590822723E+03  0.47590822726E+03  0.50400001928E-02 0. -1.
       -1   -1    0    0    0  501  0.00000000000E+00  0.00000000000E+00 -0.89210148682E+03  0.89210148683E+03  0.50400001928E-02 0.  1.
    10030    2    1    2    0    0  0.00000000000E+00  0.00000000000E+00 -0.41619325958E+03  0.13680097141E+04  0.13031629785E+04 0.  0.
        1    1    3    3  502    0  0.16735313646E+03 -0.14088003871E+03 -0.85240039160E+03  0.88002311629E+03  0.50400001928E-02 0.  1.
       -1    1    3    3    0  502 -0.16735313646E+03  0.14088003871E+03  0.43620713201E+03  0.48798659780E+03  0.50400001928E-02 0. -1.
</event>
<event>
 5   0  0.1408341E-04  0.1306764E+04  0.7818609E-02  0.9024218E-01
       -1   -1    0    0    0  501  0.00000000000E+00  0.00000000000E+00  0.18476214759E+03  0.18476214765E+03  0.50400001928E-02 0. -1.
        1   -1    0    0  501    0  0.00000000000E+00  0.00000000000E+00 -0.23105834108E+04  0.23105834108E+04  0.50400001928E-02 0.  1.
    10030    2    1    2    0    0  0.00000000000E+00  0.00000000000E+00 -0.21258212632E+04  0.24953455584E+04  0.13067644826E+04 0.  0.
        5    1    3    3  502    0 -0.51020493028E+03  0.40770872081E+03 -0.10986755969E+04  0.12781414746E+04  0.46999998093E+01 0. -1.
       -5    1    3    3    0  502  0.51020493028E+03 -0.40770872081E+03 -0.10271456663E+04  0.12172040839E+04  0.46999998093E+01 0.  1.
</event>
<event>
 5   0  0.1408341E-04  0.1308453E+04  0.7818609E-02  0.9022889E-01
        1   -1    0    0  501    0  0.00000000000E+00  0.00000000000E+00  0.11206571228E+04  0.11206571228E+04  0.50400001928E-02 0.  1.
       -1   -1    0    0    0  501  0.00000000000E+00  0.00000000000E+00 -0.38192953582E+03  0.38192953585E+03  0.50400001928E-02 0. -1.
    10030    2    1    2    0    0  0.00000000000E+00  0.00000000000E+00  0.73872758694E+03  0.15025866586E+04  0.13084526048E+04 0.  0.
        5    1    3    3  502    0 -0.47286468673E+03 -0.10992815963E+02 -0.14965348787E+03  0.49612509551E+03  0.46999998093E+01 0. -1.
       -5    1    3    3    0  502  0.47286468673E+03  0.10992815963E+02  0.88838107481E+03  0.10064615631E+04  0.46999998093E+01 0.  1.
</event>
<event>
 5   0  0.1476511E-04  0.1299331E+04  0.7818609E-02  0.9030095E-01
       -1   -1    0    0    0  501  0.00000000000E+00  0.00000000000E+00  0.12572852931E+04  0.12572852931E+04  0.50400001928E-02 0. -1.
        1   -1    0    0  501    0  0.00000000000E+00  0.00000000000E+00 -0.33569594658E+03  0.33569594662E+03  0.50400001928E-02 0.  1.
    10030    2    1    2    0    0  0.00000000000E+00  0.00000000000E+00  0.92158934650E+03  0.15929812397E+04  0.12993314845E+04 0.  0.
        2    1    3    3  502    0  0.89097804038E+02  0.58372275105E+03  0.12865277465E+03  0.60433616904E+03  0.25500000920E-02 0.  1.
       -2    1    3    3    0  502 -0.89097804038E+02 -0.58372275105E+03  0.79293657185E+03  0.98864507067E+03  0.25500000920E-02 0. -1.
</event>
<event>
 5   0  0.1476511E-04  0.1300434E+04  0.7818609E-02  0.9029221E-01
        1   -1    0    0  501    0  0.00000000000E+00  0.00000000000E+00  0.38473026275E+03  0.38473026278E+03  0.50400001928E-02 0. -1.
       -1   -1    0    0    0  501  0.00000000000E+00  0.00000000000E+00 -0.10989056482E+04  0.10989056482E+04  0.50400001928E-02 0.  1.
    10030    2    1    2    0    0  0.00000000000E+00  0.00000000000E+00 -0.71417538547E+03  0.14836359110E+04  0.13004341718E+04 0.  0.
        2    1    3    3  502    0  0.28842463332E+02 -0.18738881259E+03 -0.10666692115E+04  0.10833880476E+04  0.25500000920E-02 0.  1.
       -2    1    3    3    0  502 -0.28842463332E+02  0.18738881259E+03  0.35249382606E+03  0.40024786345E+03  0.25500000920E-02 0. -1.
</event>
<event>
 5   0  0.1476511E-04  0.1311554E+04  0.7818609E-02  0.9020453E-01
        1   -1    0    0  501    0  0.00000000000E+00  0.00000000000E+00  0.16094428155E+04  0.16094428155E+04  0.50400001928E-02 0. -1.
       -1   -1    0    0    0  501  0.00000000000E+00  0.00000000000E+00 -0.26720020317E+03  0.26720020321E+03  0.50400001928E-02 0.  1.
    10030    2    1    2    0    0  0.00000000000E+00  0.00000000000E+00  0.13422426124E+04  0.18766430187E+04  0.13115539598E+04 0.  0.
        2    1    3    3  502    0 -0.56014270600E+03 -0.17599166433E+03  0.25319777434E+03  0.63940756168E+03  0.25500000920E-02 0.  1.
       -2    1    3    3    0  502  0.56014270600E+03  0.17599166433E+03  0.10890448380E+04  0.12372354571E+04  0.25500000920E-02 0. -1.
</event>
<event>
 5   0  0.2661377E-04  0.1300317E+04  0.7818609E-02  0.9029314E-01
        2   -1    0    0  501    0  0.00000000000E+00  0.00000000000E+00  0.16293234933E+04  0.16293234933E+04  0.25500000920E-02 0.  1.
       -2   -1    0    0    0  501  0.00000000000E+00  0.00000000000E+00 -0.25943641362E+03  0.25943641364E+03  0.25500000920E-02 0. -1.
    10030    2    1    2    0    0  0.00000000000E+00  0.00000000000E+00  0.13698870796E+04  0.18887599069E+04  0.13003166441E+04 0.  0.
        5    1    3    3  502    0  0.52614425511E+03  0.35906294107E+03  0.87393984010E+03  0.10814559200E+04  0.46999998093E+01 0.  1.
       -5    1    3    3    0  502 -0.52614425511E+03 -0.35906294107E+03  0.49594723955E+03  0.80730398689E+03  0.46999998093E+01 0. -1.
</event>
<event>
 5   0  0.1479690E-04  0.1309977E+04  0.7818609E-02  0.9021690E-01
       -1   -1    0    0    0  501  0.00000000000E+00  0.00000000000E+00  0.59820012998E+03  0.59820013001E+03  0.50400001928E-02 0.  1.
        1   -1    0    0  501    0  0.00000000000E+00  0.00000000000E+00 -0.71716814718E+03  0.71716814720E+03  0.50400001928E-02 0. -1.
    10030    2    1    2    0    0  0.00000000000E+00  0.00000000000E+00 -0.11896801720E+03  0.13153682772E+04  0.13099772195E+04 0.  0.
        1    1    3    3  502    0 -0.12891947202E+03  0.56952049476E+03 -0.35741412027E+03  0.68463032186E+03  0.50400001928E-02 0. -1.
       -1    1    3    3    0  502  0.12891947202E+03 -0.56952049476E+03  0.23844610307E+03  0.63073795534E+03  0.50400001928E-02 0.  1.
</event>
<event>
 5   0  0.1002887E-04  0.1301022E+04  0.7818609E-02  0.9028755E-01
       -3   -1    0    0    0  501  0.00000000000E+00  0.00000000000E+00  0.85454222641E+03  0.85454223238E+03  0.10100000352E+00 0. -1.
        3   -1    0    0  501    0  0.00000000000E+00  0.00000000000E+00 -0.49519462643E+03  0.49519463673E+03  0.10100000352E+00 0.  1.
    10030    2    1    2    0    0  0.00000000000E+00  0.00000000000E+00  0.35934759998E+03  0.13497368691E+04  0.13010222589E+04 0.  0.
        4    1    3    3  502    0  0.21232950318E+03  0.59409368594E+03  0.15207155268E+02  0.63108160809E+03  0.12699999809E+01 0.  1.
       -4    1    3    3    0  502 -0.21232950318E+03 -0.59409368594E+03  0.34414044471E+03  0.71865526102E+03  0.12699999809E+01 0. -1.
</event>
<event>
 5   0  0.2661377E-04  0.1299981E+04  0.7818609E-02  0.9029580E-01
       -2   -1    0    0    0  501  0.00000000000E+00  0.00000000000E+00  0.14205364433E+04  0.14205364433E+04  0.25500000920E-02 0. -1.
        2   -1    0    0  501    0  0.00000000000E+00  0.00000000000E+00 -0.29741424301E+03  0.29741424302E+03  0.25500000920E-02 0.  1.
    10030    2    1    2    0    0  0.00000000000E+00  0.00000000000E+00  0.11231222003E+04  0.17179506863E+04  0.12999811860E+04 0.  0.
        5    1    3    3  502    0  0.63123205045E+03  0.13889920609E+03  0.47078135670E+03  0.79962745499E+03  0.46999998093E+01 0.  1.
       -5    1    3    3    0  502 -0.63123205045E+03 -0.13889920609E+03  0.65234084359E+03  0.91832323132E+03  0.46999998093E+01 0. -1.
</event>
<event>
 5   0  0.1430636E-04  0.1301131E+04  0.7818609E-02  0.9028669E-01
       -1   -1    0    0    0  501  0.00000000000E+00  0.00000000000E+00  0.29768254782E+03  0.29768254786E+03  0.50400001928E-02 0.  1.
        1   -1    0    0  501    0  0.00000000000E+00  0.00000000000E+00 -0.14217674069E+04  0.14217674069E+04  0.50400001928E-02 0. -1.
    10030    2    1    2    0    0  0.00000000000E+00  0.00000000000E+00 -0.11240848591E+04  0.17194499548E+04  0.13011308069E+04 0.  0.
        4    1    3    3  502    0  0.53378375964E+03 -0.15647127667E+02 -0.10530729491E+04  0.11807345950E+04  0.12699999809E+01 0.  1.
       -4    1    3    3    0  502 -0.53378375964E+03  0.15647127667E+02 -0.71011909973E+02  0.53871535983E+03  0.12699999809E+01 0. -1.
</event>
<event>
 5   0  0.2573071E-04  0.1299276E+04  0.7818609E-02  0.9030139E-01
        2   -1    0    0  501    0  0.00000000000E+00  0.00000000000E+00  0.10392067090E+04  0.10392067090E+04  0.25500000920E-02 0.  1.
       -2   -1    0    0    0  501  0.00000000000E+00  0.00000000000E+00 -0.40610750365E+03  0.40610750366E+03  0.25500000920E-02 0. -1.
    10030    2    1    2    0    0  0.00000000000E+00  0.00000000000E+00  0.63309920533E+03  0.14453142126E+04  0.12992761714E+04 0.  0.
        4    1    3    3  502    0 -0.30883017292E+03  0.24007611503E+03 -0.26041528114E+03  0.46992589656E+03  0.12699999809E+01 0. -1.
       -4    1    3    3    0  502  0.30883017292E+03 -0.24007611503E+03  0.89351448646E+03  0.97538831607E+03  0.12699999809E+01 0.  1.
</event>
<event>
 5   0  0.2794825E-04  0.1300839E+04  0.7818609E-02  0.9028900E-01
        2   -1    0    0  501    0  0.00000000000E+00  0.00000000000E+00  0.40610590135E+03  0.40610590136E+03  0.25500000920E-02 0.  1.
       -2   -1    0    0    0  501  0.00000000000E+00  0.00000000000E+00 -0.10417123274E+04  0.10417123274E+04  0.25500000920E-02 0. -1.
    10030    2    1    2    0    0  0.00000000000E+00  0.00000000000E+00 -0.63560642610E+03  0.14478182288E+04  0.13008389965E+04 0.  0.
        1    1    3    3  502    0  0.19789019242E+03 -0.43141809879E+03  0.17714923197E+03  0.50662012853E+03  0.50400001928E-02 0.  1.
       -1    1    3    3    0  502 -0.19789019242E+03  0.43141809879E+03 -0.81275565806E+03  0.94119810027E+03  0.50400001928E-02 0. -1.
</event>
<event>
 5   0  0.1475396E-04  0.1299408E+04  0.7818609E-02  0.9030035E-01
       -1   -1    0    0    0  501  0.00000000000E+00  0.00000000000E+00  0.58451754126E+03  0.58451754128E+03  0.50400001928E-02 0. -1.
        1   -1    0    0  501    0  0.00000000000E+00  0.00000000000E+00 -0.72216042313E+03  0.72216042315E+03  0.50400001928E-02 0.  1.
    10030    2    1    2    0    0  0.00000000000E+00  0.00000000000E+00 -0.13764288187E+03  0.13066779644E+04  0.12994082268E+04 0.  0.
        3    1    3    3  502    0  0.17904822279E+03 -0.18328410193E+03 -0.66920784952E+03  0.71658250339E+03  0.10100000352E+00 0.  1.
       -3    1    3    3    0  502 -0.17904822279E+03  0.18328410193E+03  0.53156496765E+03  0.59009546104E+03  0.10100000352E+00 0. -1.
</event>
<event>
 5   0  0.2756984E-04  0.1299985E+04  0.7818609E-02  0.9029577E-01
       -2   -1    0    0    0  501  0.00000000000E+00  0.00000000000E+00  0.17994173440E+03  0.17994173442E+03  0.25500000920E-02 0.  1.
        2   -1    0    0  501    0  0.00000000000E+00  0.00000000000E+00 -0.23479278141E+04  0.23479278141E+04  0.25500000920E-02 0. -1.
    10030    2    1    2    0    0  0.00000000000E+00  0.00000000000E+00 -0.21679860797E+04  0.25278695485E+04  0.12999849278E+04 0.  0.
        3    1    3    3  502    0  0.20359500244E+03  0.46080504660E+03 -0.18826702246E+04  0.19489072325E+04  0.10100000352E+00 0. -1.
       -3    1    3    3    0  502 -0.20359500244E+03 -0.46080504660E+03 -0.28531585503E+03  0.57896231598E+03  0.10100000352E+00 0.  1.
</event>
<event>
 5   0  0.1430636E-04  0.1293443E+04  0.7818609E-02  0.9034781E-01
       -1   -1    0    0    0  501  0.00000000000E+00  0.00000000000E+00  0.27583999269E+03  0.27583999274E+03  0.50400001928E-02 0. -1.
        1   -1    0    0  501    0  0.00000000000E+00  0.00000000000E+00 -0.15162737104E+04  0.15162737104E+04  0.50400001928E-02 0.  1.
    10030    2    1    2    0    0  0.00000000000E+00  0.00000000000E+00 -0.12404337177E+04  0.17921137032E+04  0.12934433567E+04 0.  0.
        4    1    3    3  502    0 -0.36930793947E+03  0.26943781517E+03 -0.12540333961E+04  0.13347608257E+04  0.12699999809E+01 0.  1.
       -4    1    3    3    0  502  0.36930793947E+03 -0.26943781517E+03  0.13599678344E+02  0.45735287749E+03  0.12699999809E+01 0. -1.
</event>
<event>
 5   0  0.2723209E-04  0.1298465E+04  0.7818609E-02  0.9030783E-01
        2   -1    0    0  501    0  0.00000000000E+00  0.00000000000E+00  0.11322835815E+04  0.11322835815E+04  0.25500000920E-02 0. -1.
       -2   -1    0    0    0  501  0.00000000000E+00  0.00000000000E+00 -0.37225935377E+03  0.37225935378E+03  0.25500000920E-02 0.  1.
    10030    2    1    2    0    0  0.00000000000E+00  0.00000000000E+00  0.76002422772E+03  0.15045429353E+04  0.12984654856E+04 0.  0.
        2    1    3    3  502    0 -0.34980308238E+03  0.23864403111E+02 -0.25312578824E+03  0.43244001995E+03  0.25500000920E-02 0.  1.
       -2    1    3    3    0  502  0.34980308238E+03 -0.23864403111E+02  0.10131500160E+04  0.10721029153E+04  0.25500000920E-02 0. -1.
</event>
<event>
 5   0  0.1430636E-04  0.1297503E+04  0.7818609E-02  0.9031547E-01
        1   -1    0    0  501    0  0.00000000000E+00  0.00000000000E+00  0.82403669997E+03  0.82403669998E+03  0.50400001928E-02 0.  1.
       -1   -1    0    0    0  501  0.00000000000E+00  0.00000000000E+00 -0.51075230369E+03  0.51075230372E+03  0.50400001928E-02 0. -1.
    10030    2    1    2    0    0  0.00000000000E+00  0.00000000000E+00  0.31328439627E+03  0.13347890037E+04  0.12975032067E+04 0.  0.
        4    1    3    3  502    0  0.52728639576E+03 -0.27913405488E+03 -0.10549446818E+03  0.60586917686E+03  0.12699999809E+01 0. -1.
       -4    1    3    3    0  502 -0.52728639576E+03  0.27913405488E+03  0.41877886445E+03  0.72891982684E+03  0.12699999809E+01 0.  1.
</event>
<event>
 5   0  0.1430636E-04  0.1305792E+04  0.7818609E-02  0.9024985E-01
        1   -1    0    0  501    0  0.00000000000E+00  0.00000000000E+00  0.11436003765E+04  0.11436003765E+04  0.50400001928E-02 0.  1.
       -1   -1    0    0    0  501  0.00000000000E+00  0.00000000000E+00 -0.37274636685E+03  0.37274636689E+03  0.50400001928E-02 0. -1.
    10030    2    1    2    0    0  0.00000000000E+00  0.00000000000E+00  0.77085400962E+03  0.15163467434E+04  0.13057915385E+04 0.  0.
        4    1    3    3  502    0  0.33190355100E+03  0.47361105611E+03  0.73727507591E+03  0.93703978042E+03  0.12699999809E+01 0.  1.
       -4    1    3    3    0  502 -0.33190355100E+03 -0.47361105611E+03  0.33578933715E+02  0.57930696295E+03  0.12699999809E+01 0. -1.
</event>
<event>
 5   0  0.1476511E-04  0.1301393E+04  0.7818609E-02  0.9028461E-01
       -1   -1    0    0    0  501  0.00000000000E+00  0.00000000000E+00  0.56500176111E+03  0.56500176114E+03  0.50400001928E-02 0.  1.
        1   -1    0    0  501    0  0.00000000000E+00  0.00000000000E+00 -0.74938895647E+03  0.74938895648E+03  0.50400001928E-02 0. -1.
    10030    2    1    2    0    0  0.00000000000E+00  0.00000000000E+00 -0.18438719535E+03  0.13143907176E+04  0.13013932230E+04 0.  0.
        2    1    3    3  502    0  0.51396593362E+03 -0.35086389108E+02  0.30928628387E+03  0.60087439705E+03  0.25500000920E-02 0.  1.
       -2    1    3    3    0  502 -0.51396593362E+03  0.35086389108E+02 -0.49367347923E+03  0.71351632057E+03  0.25500000920E-02 0. -1.
</event>
<event>
 5   0  0.2723209E-04  0.1308014E+04  0.7818609E-02  0.9023234E-01
       -2   -1    0    0    0  501  0.00000000000E+00  0.00000000000E+00  0.33321558402E+03  0.33321558403E+03  0.25500000920E-02 0.  1.
        2   -1    0    0  501    0  0.00000000000E+00  0.00000000000E+00 -0.12836288258E+04  0.12836288258E+04  0.25500000920E-02 0. -1.
    10030    2    1    2    0    0  0.00000000000E+00  0.00000000000E+00 -0.95041324182E+03  0.16168444099E+04  0.13080139585E+04 0.  0.
        2    1    3    3  502    0 -0.39077260059E+03  0.31685386979E+03  0.41340229543E+02  0.50478571172E+03  0.25500000920E-02 0.  1.
       -2    1    3    3    0  502  0.39077260059E+03 -0.31685386979E+03 -0.99175347137E+03  0.11120586982E+04  0.25500000920E-02 0. -1.
</event>
<event>
 5   0  0.2794825E-04  0.1294363E+04  0.7818609E-02  0.9034047E-01
       -2   -1    0    0    0  501  0.00000000000E+00  0.00000000000E+00  0.95677254716E+03  0.95677254716E+03  0.25500000920E-02 0. -1.
        2   -1    0    0  501    0  0.00000000000E+00  0.00000000000E+00 -0.43776737159E+03  0.43776737159E+03  0.25500000920E-02 0.  1.
    10030    2    1    2    0    0  0.00000000000E+00  0.00000000000E+00  0.51900517557E+03  0.13945399188E+04  0.12943628598E+04 0.  0.
        1    1    3    3  502    0  0.36789669593E+03 -0.50638426716E+03  0.43676858527E+03  0.76324295084E+03  0.50400001928E-02 0. -1.
       -1    1    3    3    0  502 -0.36789669593E+03  0.50638426716E+03  0.82236590299E+02  0.63129696792E+03  0.50400001928E-02 0.  1.
</event>
<event>
 5   0  0.1002887E-04  0.1300549E+04  0.7818609E-02  0.9029130E-01
       -4   -1    0    0    0  501  0.00000000000E+00  0.00000000000E+00  0.16891235870E+04  0.16891240644E+04  0.12699999809E+01 0.  1.
        4   -1    0    0  501    0  0.00000000000E+00  0.00000000000E+00 -0.25033898935E+03  0.25034221076E+03  0.12699999809E+01 0. -1.
    10030    2    1    2    0    0  0.00000000000E+00  0.00000000000E+00  0.14387845976E+04  0.19394662752E+04  0.13005492356E+04 0.  0.
        3    1    3    3  502    0 -0.54992386897E+03 -0.65902045731E+02  0.21127112507E+03  0.59278566092E+03  0.10100000352E+00 0. -1.
       -3    1    3    3    0  502  0.54992386897E+03  0.65902045731E+02  0.12275134725E+04  0.13466806142E+04  0.10100000352E+00 0.  1.
</event>
<event>
 5   0  0.2794825E-04  0.1300516E+04  0.7818609E-02  0.9029156E-01
       -2   -1    0    0    0  501  0.00000000000E+00  0.00000000000E+00  0.34819567546E+03  0.34819567547E+03  0.25500000920E-02 0.  1.
        2   -1    0    0  501    0  0.00000000000E+00  0.00000000000E+00 -0.12143618486E+04  0.12143618486E+04  0.25500000920E-02 0. -1.
    10030    2    1    2    0    0  0.00000000000E+00  0.00000000000E+00 -0.86616617315E+03  0.15625575241E+04  0.13005161193E+04 0.  0.
        1    1    3    3  502    0 -0.15104124548E+03 -0.23199633269E+03  0.27385873359E+03  0.38940257088E+03  0.50400001928E-02 0.  1.
       -1    1    3    3    0  502  0.15104124548E+03  0.23199633269E+03 -0.11400249067E+04  0.11731549532E+04  0.50400001928E-02 0. -1.
</event>
<event>
 5   0  0.1479690E-04  0.1299773E+04  0.7818609E-02  0.9029745E-01
       -1   -1    0    0    0  501  0.00000000000E+00  0.00000000000E+00  0.12227625066E+04  0.12227625066E+04  0.50400001928E-02 0. -1.
        1   -1    0    0  501    0  0.00000000000E+00  0.00000000000E+00 -0.34540841844E+03  0.34540841847E+03  0.50400001928E-02 0.  1.
    10030    2    1    2    0    0  0.00000000000E+00  0.00000000000E+00  0.87735408817E+03  0.15681709251E+04  0.12997730011E+04 0.  0.
        1    1    3    3  502    0  0.49257022126E+03 -0.33507227509E+02 -0.71207501648E+02  0.49881726663E+03  0.50400001928E-02 0.  1.
       -1    1    3    3    0  502 -0.49257022126E+03  0.33507227509E+02  0.94856158981E+03  0.10693536585E+04  0.50400001928E-02 0. -1.
</event>
<event>
 5   0  0.2661377E-04  0.1298365E+04  0.7818609E-02  0.9030863E-01
       -2   -1    0    0    0  501  0.00000000000E+00  0.00000000000E+00  0.36307575977E+03  0.36307575978E+03  0.25500000920E-02 0. -1.
        2   -1    0    0  501    0  0.00000000000E+00  0.00000000000E+00 -0.11607437251E+04  0.11607437251E+04  0.25500000920E-02 0.  1.
    10030    2    1    2    0    0  0.00000000000E+00  0.00000000000E+00 -0.79766796528E+03  0.15238194848E+04  0.12983649870E+04 0.  0.
        5    1    3    3  502    0  0.77960669614E+01  0.64908527922E+03 -0.40656058972E+03  0.76595435991E+03  0.46999998093E+01 0. -1.
       -5    1    3    3    0  502 -0.77960669614E+01 -0.64908527922E+03 -0.39110737556E+03  0.75786512492E+03  0.46999998093E+01 0.  1.
</event>
<event>
 5   0  0.1002887E-04  0.1299337E+04  0.7818609E-02  0.9030091E-01
        3   -1    0    0  501    0  0.00000000000E+00  0.00000000000E+00  0.26714906799E+04  0.26714906818E+04  0.10100000352E+00 0. -1.
       -3   -1    0    0    0  501  0.00000000000E+00  0.00000000000E+00 -0.15799007417E+03  0.15799010645E+03  0.10100000352E+00 0.  1.
    10030    2    1    2    0    0  0.00000000000E+00  0.00000000000E+00  0.25135006057E+04  0.28294807882E+04  0.12993368447E+04 0.  0.
        1    1    3    3  502    0  0.59396864630E+03  0.20255571897E+03  0.16227062212E+04  0.17398284549E+04  0.50400001928E-02 0.  1.
       -1    1    3    3    0  502 -0.59396864630E+03 -0.20255571897E+03  0.89079438445E+03  0.10896523333E+04  0.50400001928E-02 0. -1.
</event>
<event>
 5   0  0.2573071E-04  0.1299739E+04  0.7818609E-02  0.9029772E-01
       -2   -1    0    0    0  501  0.00000000000E+00  0.00000000000E+00  0.28410924647E+03  0.28410924648E+03  0.25500000920E-02 0. -1.
        2   -1    0    0  501    0  0.00000000000E+00  0.00000000000E+00 -0.14865070354E+04  0.14865070354E+04  0.25500000920E-02 0.  1.
    10030    2    1    2    0    0  0.00000000000E+00  0.00000000000E+00 -0.12023977889E+04  0.17706162818E+04  0.12997390410E+04 0.  0.
        4    1    3    3  502    0  0.36043369569E+03  0.35727260668E+03 -0.11541806565E+04  0.12608293958E+04  0.12699999809E+01 0.  1.
       -4    1    3    3    0  502 -0.36043369569E+03 -0.35727260668E+03 -0.48217132390E+02  0.50978688609E+03  0.12699999809E+01 0. -1.
</event>
<event>
 5   0  0.2573071E-04  0.1300458E+04  0.7818609E-02  0.9029202E-01
       -2   -1    0    0    0  501  0.00000000000E+00  0.00000000000E+00  0.17311318234E+03  0.17311318236E+03  0.25500000920E-02 0. -1.
        2   -1    0    0  501    0  0.00000000000E+00  0.00000000000E+00 -0.24423204086E+04  0.24423204086E+04  0.25500000920E-02 0.  1.
    10030    2    1    2    0    0  0.00000000000E+00  0.00000000000E+00 -0.22692072262E+04  0.26154335909E+04  0.13004581627E+04 0.  0.
        4    1    3    3  502    0  0.16968697210E+03 -0.45693255866E+03 -0.26906660730E+03  0.55675801182E+03  0.12699999809E+01 0. -1.
       -4    1    3    3    0  502 -0.16968697210E+03  0.45693255866E+03 -0.20001406189E+04  0.20586755791E+04  0.12699999809E+01 0.  1.
</event>
<event>
 5   0  0.1476511E-04  0.1310850E+04  0.7818609E-02  0.9021005E-01
        1   -1    0    0  501    0  0.00000000000E+00  0.00000000000E+00  0.11909762082E+04  0.11909762082E+04  0.50400001928E-02 0.  1.
       -1   -1    0    0    0  501  0.00000000000E+00  0.00000000000E+00 -0.36069706687E+03  0.36069706690E+03  0.50400001928E-02 0. -1.
    10030    2    1    2    0    0  0.00000000000E+00  0.00000000000E+00  0.83027914130E+03  0.15516732751E+04  0.13108495337E+04 0.  0.
        2    1    3    3  502    0 -0.36807520919E+02  0.57512782557E+03  0.78466904862E+03  0.97356680573E+03  0.25500000920E-02 0.  1.
       -2    1    3    3    0  502  0.36807520919E+02 -0.57512782557E+03  0.45610092681E+02  0.57810646935E+03  0.25500000920E-02 0. -1.
</event>
<event>
 5   0  0.1475396E-04  0.1299885E+04  0.7818609E-02  0.9029657E-01
       -1   -1    0    0    0  501  0.00000000000E+00  0.00000000000E+00  0.47512821899E+03  0.47512821902E+03  0.50400001928E-02 0.  1.
        1   -1    0    0  501    0  0.00000000000E+00  0.00000000000E+00 -0.88907593237E+03  0.88907593238E+03  0.50400001928E-02 0. -1.
    10030    2    1    2    0    0  0.00000000000E+00  0.00000000000E+00 -0.41394771337E+03  0.13642041514E+04  0.12998847092E+04 0.  0.
        3    1    3    3  502    0 -0.24011702363E+03  0.52480710952E+03 -0.52067274552E+03  0.77728939615E+03  0.10100000352E+00 0. -1.
       -3    1    3    3    0  502  0.24011702363E+03 -0.52480710952E+03  0.10672503215E+03  0.58691475525E+03  0.10100000352E+00 0.  1.
</event>
<event>
 5   0  0.1408341E-04  0.1303262E+04  0.7818609E-02  0.9026983E-01
       -1   -1    0    0    0  501  0.00000000000E+00  0.00000000000E+00  0.11316145799E+04  0.11316145799E+04  0.50400001928E-02 0. -1.
        1   -1    0    0  501    0  0.00000000000E+00  0.00000000000E+00 -0.37523614557E+03  0.37523614561E+03  0.50400001928E-02 0.  1.
    10030    2    1    2    0    0  0.00000000000E+00  0.00000000000E+00  0.75637843431E+03  0.15068507255E+04  0.13032615904E+04 0.  0.
        5    1    3    3  502    0 -0.50070945424E+03  0.35131129639E+03  0.63794167819E+03  0.88381064675E+03  0.46999998093E+01 0.  1.
       -5    1    3    3    0  502  0.50070945424E+03 -0.35131129639E+03  0.11843675613E+03  0.62304007875E+03  0.46999998093E+01 0. -1.
</event>
<event>
 5   0  0.2573071E-04  0.1308879E+04  0.7818609E-02  0.9022553E-01
       -2   -1    0    0    0  501  0.00000000000E+00  0.00000000000E+00  0.97511415431E+03  0.97511415431E+03  0.25500000920E-02 0.  1.
        2   -1    0    0  501    0  0.00000000000E+00  0.00000000000E+00 -0.43922153236E+03  0.43922153237E+03  0.25500000920E-02 0. -1.
    10030    2    1    2    0    0  0.00000000000E+00  0.00000000000E+00  0.53589262195E+03  0.14143356867E+04  0.13088791130E+04 0.  0.
        4    1    3    3  502    0  0.10296916069E+03 -0.45114440881E+03  0.76800119628E+03  0.89663893293E+03  0.12699999809E+01 0.  1.
       -4    1    3    3    0  502 -0.10296916069E+03  0.45114440881E+03 -0.23210857434E+03  0.51769675375E+03  0.12699999809E+01 0. -1.
</event>
<event>
 5   0  0.2661377E-04  0.1301893E+04  0.7818609E-02  0.9028065E-01
       -2   -1    0    0    0  501  0.00000000000E+00  0.00000000000E+00  0.70366921780E+03  0.70366921781E+03  0.25500000920E-02 0.  1.
        2   -1    0    0  501    0  0.00000000000E+00  0.00000000000E+00 -0.60217403676E+03  0.60217403677E+03  0.25500000920E-02 0. -1.
    10030    2    1    2    0    0  0.00000000000E+00  0.00000000000E+00  0.10149518104E+03  0.13058432546E+04  0.13018929809E+04 0.  0.
        5    1    3    3  502    0  0.63930189149E+03  0.80677876372E+02 -0.41691772256E+02  0.64573688300E+03  0.46999998093E+01 0. -1.
       -5    1    3    3    0  502 -0.63930189149E+03 -0.80677876372E+02  0.14318695329E+03  0.66010637157E+03  0.46999998093E+01 0.  1.
</event>
<event>
 5   0  0.2794825E-04  0.1300944E+04  0.7818609E-02  0.9028817E-01
        2   -1    0    0  501    0  0.00000000000E+00  0.00000000000E+00  0.81527935999E+03  0.81527935999E+03  0.25500000920E-02 0. -1.
       -2   -1    0    0    0  501  0.00000000000E+00  0.00000000000E+00 -0.51898024220E+03  0.51898024221E+03  0.25500000920E-02 0.  1.
    10030    2    1    2    0    0  0.00000000000E+00  0.00000000000E+00  0.29629911779E+03  0.13342596022E+04  0.13009440875E+04 0.  0.
        1    1    3    3  502    0  0.17956386587E+03  0.10113250189E+03  0.78091183627E+03  0.80764736174E+03  0.50400001928E-02 0. -1.
       -1    1    3    3    0  502 -0.17956386587E+03 -0.10113250189E+03 -0.48461271848E+03  0.52661224046E+03  0.50400001928E-02 0.  1.
</event>
<event>
 5   0  0.2794825E-04  0.1303162E+04  0.7818609E-02  0.9027061E-01
       -2   -1    0    0    0  501  0.00000000000E+00  0.00000000000E+00  0.32051470115E+03  0.32051470116E+03  0.25500000920E-02 0.  1.
        2   -1    0    0  501    0  0.00000000000E+00  0.00000000000E+00 -0.13246124565E+04  0.13246124565E+04  0.25500000920E-02 0. -1.
    10030    2    1    2    0    0  0.00000000000E+00  0.00000000000E+00 -0.10040977554E+04  0.16451271577E+04  0.13031619480E+04 0.  0.
        1    1    3    3  502    0 -0.28503989349E+03  0.32472686205E+03  0.11364390373E+03  0.44677758751E+03  0.50400001928E-02 0.  1.
       -1    1    3    3    0  502  0.28503989349E+03 -0.32472686205E+03 -0.11177416591E+04  0.11983495702E+04  0.50400001928E-02 0. -1.
</event>
<event>
 5   0  0.1408341E-04  0.1293210E+04  0.7818609E-02  0.9034967E-01
       -1   -1    0    0    0  501  0.00000000000E+00  0.00000000000E+00  0.10813360017E+04  0.10813360017E+04  0.50400001928E-02 0. -1.
        1   -1    0    0  501    0  0.00000000000E+00  0.00000000000E+00 -0.38664949076E+03  0.38664949079E+03  0.50400001928E-02 0.  1.
    10030    2    1    2    0    0  0.00000000000E+00  0.00000000000E+00  0.69468651090E+03  0.14679854925E+04  0.12932099821E+04 0.  0.
        5    1    3    3  502    0 -0.52801817773E+03  0.13967322838E+03  0.74018359261E+03  0.91989436758E+03  0.46999998093E+01 0. -1.
       -5    1    3    3    0  502  0.52801817773E+03 -0.13967322838E+03 -0.45497081708E+02  0.54809112489E+03  0.46999998093E+01 0.  1.
</event>
<event>
 5   0  0.1408341E-04  0.1299782E+04  0.7818609E-02  0.9029738E-01
       -1   -1    0    0    0  501  0.00000000000E+00  0.00000000000E+00  0.64539288880E+03  0.64539288882E+03  0.50400001928E-02 0.  1.
        1   -1    0    0  501    0  0.00000000000E+00  0.00000000000E+00 -0.65441999170E+03  0.65441999171E+03  0.50400001928E-02 0. -1.
    10030    2    1    2    0    0  0.00000000000E+00  0.00000000000E+00 -0.90271028942E+01  0.12998128805E+04  0.12997815339E+04 0.  0.
        5    1    3    3  502    0  0.25533294108E+03 -0.84627075947E+02 -0.59611827352E+03  0.65401509066E+03  0.46999998093E+01 0. -1.
       -5    1    3    3    0  502 -0.25533294108E+03  0.84627075947E+02  0.58709117063E+03  0.64579778988E+03  0.46999998093E+01 0.  1.
</event>
<event>
 5   0  0.2573071E-04  0.1300847E+04  0.7818609E-02  0.9028894E-01
       -2   -1    0    0    0  501  0.00000000000E+00  0.00000000000E+00  0.29845678992E+03  0.29845678994E+03  0.25500000920E-02 0.  1.
        2   -1    0    0  501    0  0.00000000000E+00  0.00000000000E+00 -0.14174597763E+04  0.14174597763E+04  0.25500000920E-02 0. -1.
    10030    2    1    2    0    0  0.00000000000E+00  0.00000000000E+00 -0.11190029864E+04  0.17159165663E+04  0.13008466392E+04 0.  0.
        4    1    3    3  502    0 -0.17065484890E+03 -0.47763020295E+03 -0.10966025859E+04  0.12082187437E+04  0.12699999809E+01 0. -1.
       -4    1    3    3    0  502  0.17065484890E+03  0.47763020295E+03 -0.22400400481E+02  0.50769782259E+03  0.12699999809E+01 0.  1.
</event>
<event>
 5   0  0.1430636E-04  0.1302549E+04  0.7818609E-02  0.9027546E-01
       -1   -1    0    0    0  501  0.00000000000E+00  0.00000000000E+00  0.11118840815E+04  0.11118840815E+04  0.50400001928E-02 0. -1.
        1   -1    0    0  501    0  0.00000000000E+00  0.00000000000E+00 -0.38147721863E+03  0.38147721866E+03  0.50400001928E-02 0.  1.
    10030    2    1    2    0    0  0.00000000000E+00  0.00000000000E+00  0.73040686285E+03  0.14933613001E+04  0.13025489578E+04 0.  0.
        4    1    3    3  502    0  0.37838320604E+03 -0.47992131408E+03  0.10715746969E+03  0.62046970476E+03  0.12699999809E+01 0.  1.
       -4    1    3    3    0  502 -0.37838320604E+03  0.47992131408E+03  0.62324939315E+03  0.87289159538E+03  0.12699999809E+01 0. -1.
</event>
<event>
 5   0  0.2573071E-04  0.1299625E+04  0.7818609E-02  0.9029862E-01
        2   -1    0    0  501    0  0.00000000000E+00  0.00000000000E+00  0.13185875628E+04  0.13185875628E+04  0.25500000920E-02 0. -1.
       -2   -1    0    0    0  501  0.00000000000E+00  0.00000000000E+00 -0.32023402590E+03  0.32023402591E+03  0.25500000920E-02 0.  1.
    10030    2    1    2    0    0  0.00000000000E+00  0.00000000000E+00  0.99835353689E+03  0.16388215887E+04  0.12996254903E+04 0.  0.
        4    1    3    3  502    0  0.23591700124E+02  0.62305048978E+03  0.26835431602E+03  0.67879609086E+03  0.12699999809E+01 0. -1.
       -4    1    3    3    0  502 -0.23591700124E+02 -0.62305048978E+03  0.72999922086E+03  0.96002549784E+03  0.12699999809E+01 0.  1.
</event>
<event>
 5   0  0.1475396E-04  0.1300453E+04  0.7818609E-02  0.9029206E-01
        1   -1    0    0  501    0  0.00000000000E+00  0.00000000000E+00  0.20385996996E+04  0.20385996996E+04  0.50400001928E-02 0. -1.
       -1   -1    0    0    0  501  0.00000000000E+00  0.00000000000E+00 -0.20739467218E+03  0.20739467224E+03  0.50400001928E-02 0.  1.
    10030    2    1    2    0    0  0.00000000000E+00  0.00000000000E+00  0.18312050274E+04  0.22459943719E+04  0.13004533309E+04 0.  0.
        3    1    3    3  502    0  0.53214650215E+03 -0.32079027126E+03  0.58470258797E+03  0.85320772644E+03  0.10100000352E+00 0.  1.
       -3    1    3    3    0  502 -0.53214650215E+03  0.32079027126E+03  0.12465024395E+04  0.13927866454E+04  0.10100000352E+00 0. -1.
</event>
<event>
 5   0  0.1430636E-04  0.1299687E+04  0.7818609E-02  0.9029814E-01
        1   -1    0    0  501    0  0.00000000000E+00  0.00000000000E+00  0.73946101850E+03  0.73946101852E+03  0.50400001928E-02 0. -1.
       -1   -1    0    0    0  501  0.00000000000E+00  0.00000000000E+00 -0.57108677681E+03  0.57108677684E+03  0.50400001928E-02 0.  1.
    10030    2    1    2    0    0  0.00000000000E+00  0.00000000000E+00  0.16837424169E+03  0.13105477954E+04  0.12996867464E+04 0.  0.
        4    1    3    3  502    0 -0.52131043936E+03  0.12452453968E+03 -0.28633951741E+03  0.60767003160E+03  0.12699999809E+01 0.  1.
       -4    1    3    3    0  502  0.52131043936E+03 -0.12452453968E+03  0.45471375910E+03  0.70287776376E+03  0.12699999809E+01 0. -1.
</event>
<event>
 5   0  0.1476511E-04  0.1297825E+04  0.7818609E-02  0.9031292E-01
       -1   -1    0    0    0  501  0.00000000000E+00  0.00000000000E+00  0.35875153392E+03  0.35875153395E+03  0.50400001928E-02 0.  1.
        1   -1    0    0  501    0  0.00000000000E+00  0.00000000000E+00 -0.11737571328E+04  0.11737571328E+04  0.50400001928E-02 0. -1.
    10030    2    1    2    0    0  0.00000000000E+00  0.00000000000E+00 -0.81500559888E+03  0.15325086668E+04  0.12978245981E+04 0.  0.
        2    1    3    3  502    0 -0.10643816582E+03  0.61521560076E+03 -0.19870016638E+03  0.65521071014E+03  0.25500000920E-02 0.  1.
       -2    1    3    3    0  502  0.10643816582E+03 -0.61521560076E+03 -0.61630543250E+03  0.87729795662E+03  0.25500000920E-02 0. -1.
</event>
<event>
 5   0  0.2794825E-04  0.1300013E+04  0.7818609E-02  0.9029555E-01
        2   -1    0    0  501    0  0.00000000000E+00  0.00000000000E+00  0.17983327311E+04  0.17983327311E+04  0.25500000920E-02 0.  1.
       -2   -1    0    0    0  501  0.00000000000E+00  0.00000000000E+00 -0.23494445604E+03  0.23494445606E+03  0.25500000920E-02 0. -1.
    10030    2    1    2    0    0  0.00000000000E+00  0.00000000000E+00  0.15633882750E+04  0.20332771871E+04  0.13000127773E+04 0.  0.
        1    1    3    3  502    0  0.14714946888E+02 -0.41823599231E+03  0.37957711092E+01  0.41851198648E+03  0.50400001928E-02 0. -1.
       -1    1    3    3    0  502 -0.14714946888E+02  0.41823599231E+03  0.15595925039E+04  0.16147652006E+04  0.50400001928E-02 0.  1.
</event>
<event>
 5   0  0.1479690E-04  0.1299053E+04  0.7818609E-02  0.9030316E-01
        1   -1    0    0  501    0  0.00000000000E+00  0.00000000000E+00  0.64314693675E+03  0.64314693677E+03  0.50400001928E-02 0. -1.
       -1   -1    0    0    0  501  0.00000000000E+00  0.00000000000E+00 -0.65596946177E+03  0.65596946179E+03  0.50400001928E-02 0.  1.
    10030    2    1    2    0    0  0.00000000000E+00  0.00000000000E+00 -0.12822525020E+02  0.12991163986E+04  0.12990531166E+04 0.  0.
        1    1    3    3  502    0  0.12625417336E+03  0.53618241957E+03 -0.35059811219E+03  0.65295538870E+03  0.50400001928E-02 0.  1.
       -1    1    3    3    0  502 -0.12625417336E+03 -0.53618241957E+03  0.33777558717E+03  0.64616100985E+03  0.50400001928E-02 0. -1.
</event>
<event>
 5   0  0.2756984E-04  0.1305858E+04  0.7818609E-02  0.9024932E-01
        2   -1    0    0  501    0  0.00000000000E+00  0.00000000000E+00  0.19832642573E+04  0.19832642573E+04  0.25500000920E-02 0.  1.
       -2   -1    0    0    0  501  0.00000000000E+00  0.00000000000E+00 -0.21495696133E+03  0.21495696135E+03  0.25500000920E-02 0. -1.
    10030    2    1    2    0    0  0.00000000000E+00  0.00000000000E+00  0.17683072960E+04  0.21982212187E+04  0.13058582745E+04 0.  0.
        3    1    3    3  502    0 -0.63356010481E+03  0.83967564172E+01  0.11495023796E+04  0.13125641481E+04  0.10100000352E+00 0.  1.
       -3    1    3    3    0  502  0.63356010481E+03 -0.83967564172E+01  0.61880491639E+03  0.88565707059E+03  0.10100000352E+00 0. -1.
</event>
<event>
 5   0  0.2723209E-04  0.1301645E+04  0.7818609E-02  0.9028262E-01
       -2   -1    0    0    0  501  0.00000000000E+00  0.00000000000E+00  0.27512694533E+03  0.27512694535E+03  0.25500000920E-02 0. -1.
        2   -1    0    0  501    0  0.00000000000E+00  0.00000000000E+00 -0.15395435136E+04  0.15395435136E+04  0.25500000920E-02 0.  1.
    10030    2    1    2    0    0  0.00000000000E+00  0.00000000000E+00 -0.12644165682E+04  0.18146704589E+04  0.13016449656E+04 0.  0.
        2    1    3    3  502    0 -0.35777073497E+03  0.51550118581E+03 -0.87298870640E+03  0.10751049497E+04  0.25500000920E-02 0. -1.
       -2    1    3    3    0  502  0.35777073497E+03 -0.51550118581E+03 -0.39142786182E+03  0.73956550920E+03  0.25500000920E-02 0.  1.
</event>
<event>
 5   0  0.2573071E-04  0.1299149E+04  0.7818609E-02  0.9030240E-01
        2   -1    0    0  501    0  0.00000000000E+00  0.00000000000E+00  0.82604410390E+03  0.82604410390E+03  0.25500000920E-02 0.  1.
       -2   -1    0    0    0  501  0.00000000000E+00  0.00000000000E+00 -0.51080428146E+03  0.51080428147E+03  0.25500000920E-02 0. -1.
    10030    2    1    2    0    0  0.00000000000E+00  0.00000000000E+00  0.31523982244E+03  0.13368483854E+04  0.12991487443E+04 0.  0.
        4    1    3    3  502    0 -0.27917855669E+03 -0.43446835260E+03  0.56306091025E+03  0.76403050821E+03  0.12699999809E+01 0.  1.
       -4    1    3    3    0  502  0.27917855669E+03  0.43446835260E+03 -0.24782108782E+03  0.57281787716E+03  0.12699999809E+01 0. -1.
</event>
<event>
 5   0  0.1430636E-04  0.1298452E+04  0.7818609E-02  0.9030794E-01
        1   -1    0    0  501    0  0.00000000000E+00  0.00000000000E+00  0.16957641621E+04  0.16957641621E+04  0.50400001928E-02 0. -1.
       -1   -1    0    0    0  501  0.00000000000E+00  0.00000000000E+00 -0.24855710048E+03  0.24855710053E+03  0.50400001928E-02 0.  1.
    10030    2    1    2    0    0  0.00000000000E+00  0.00000000000E+00  0.14472070616E+04  0.19443212626E+04  0.12984517292E+04 0.  0.
        4    1    3    3  502    0 -0.22698221386E+03 -0.60801117647E+03  0.69792409420E+03  0.95304678285E+03  0.12699999809E+01 0.  1.
       -4    1    3    3    0  502  0.22698221386E+03  0.60801117647E+03  0.74928296737E+03  0.99127447975E+03  0.12699999809E+01 0. -1.
</event>
<event>
 5   0  0.1479690E-04  0.1298374E+04  0.7818609E-02  0.9030856E-01
       -1   -1    0    0    0  501  0.00000000000E+00  0.00000000000E+00  0.66281214550E+03  0.66281214552E+03  0.50400001928E-02 0.  1.
        1   -1    0    0  501    0  0.00000000000E+00  0.00000000000E+00 -0.63584153220E+03  0.63584153222E+03  0.50400001928E-02 0. -1.
    10030    2    1    2    0    0  0.00000000000E+00  0.00000000000E+00  0.26970613302E+02  0.12986536777E+04  0.12983735829E+04 0.  0.
        1    1    3    3  502    0  0.33767520924E+03  0.25542302199E+03 -0.47873671971E+03  0.63910430598E+03  0.50400001928E-02 0. -1.
       -1    1    3    3    0  502 -0.33767520924E+03 -0.25542302199E+03  0.50570733301E+03  0.65954937176E+03  0.50400001928E-02 0.  1.
</event>
<event>
 5   0  0.2573071E-04  0.1299159E+04  0.7818609E-02  0.9030232E-01
       -2   -1    0    0    0  501  0.00000000000E+00  0.00000000000E+00  0.25759057527E+03  0.25759057528E+03  0.25500000920E-02 0. -1.
        2   -1    0    0  501    0  0.00000000000E+00  0.00000000000E+00 -0.16380791546E+04  0.16380791546E+04  0.25500000920E-02 0.  1.
    10030    2    1    2    0    0  0.00000000000E+00  0.00000000000E+00 -0.13804885793E+04  0.18956697299E+04  0.12991593463E+04 0.  0.
        4    1    3    3  502    0  0.32376872747E+03 -0.19538834984E+03  0.80415899087E+02  0.38661495815E+03  0.12699999809E+01 0. -1.
       -4    1    3    3    0  502 -0.32376872747E+03  0.19538834984E+03 -0.14609044784E+04  0.15090547717E+04  0.12699999809E+01 0.  1.
</event>
<event>
 5   0  0.2661377E-04  0.1298918E+04  0.7818609E-02  0.9030424E-01
        2   -1    0    0  501    0  0.00000000000E+00  0.00000000000E+00  0.99381117132E+03  0.99381117132E+03  0.25500000920E-02 0. -1.
       -2   -1    0    0    0  501  0.00000000000E+00  0.00000000000E+00 -0.42442370956E+03  0.42442370957E+03  0.25500000920E-02 0.  1.
    10030    2    1    2    0    0  0.00000000000E+00  0.00000000000E+00  0.56938746176E+03  0.14182348809E+04  0.12989180481E+04 0.  0.
        5    1    3    3  502    0  0.61841820139E+03  0.80230116272E+02  0.86657570964E+02  0.62961064792E+03  0.46999998093E+01 0. -1.
       -5    1    3    3    0  502 -0.61841820139E+03 -0.80230116272E+02  0.48272989079E+03  0.78862423298E+03  0.46999998093E+01 0.  1.
</event>
<event>
 5   0  0.1476511E-04  0.1300940E+04  0.7818609E-02  0.9028820E-01
        1   -1    0    0  501    0  0.00000000000E+00  0.00000000000E+00  0.54847843969E+03  0.54847843971E+03  0.50400001928E-02 0. -1.
       -1   -1    0    0    0  501  0.00000000000E+00  0.00000000000E+00 -0.77142774880E+03  0.77142774881E+03  0.50400001928E-02 0.  1.
    10030    2    1    2    0    0  0.00000000000E+00  0.00000000000E+00 -0.22294930911E+03  0.13199061885E+04  0.13009404107E+04 0.  0.
        2    1    3    3  502    0  0.72379310792E+02  0.50176885737E+03  0.30202146739E+03  0.59010822536E+03  0.25500000920E-02 0.  1.
       -2    1    3    3    0  502 -0.72379310792E+02 -0.50176885737E+03 -0.52497077650E+03  0.72979796317E+03  0.25500000920E-02 0. -1.
</event>
<event>
 5   0  0.1002887E-04  0.1300345E+04  0.7818609E-02  0.9029292E-01
       -3   -1    0    0    0  501  0.00000000000E+00  0.00000000000E+00  0.44071330384E+03  0.44071331541E+03  0.10100000352E+00 0. -1.
        3   -1    0    0  501    0  0.00000000000E+00  0.00000000000E+00 -0.95918155127E+03  0.95918155659E+03  0.10100000352E+00 0.  1.
    10030    2    1    2    0    0  0.00000000000E+00  0.00000000000E+00 -0.51846824743E+03  0.13998948720E+04  0.13003446962E+04 0.  0.
        5    1    3    3  502    0  0.44202325879E+03 -0.20248708595E+02 -0.77204978696E+03  0.88987501092E+03  0.46999998093E+01 0.  1.
       -5    1    3    3    0  502 -0.44202325879E+03  0.20248708595E+02  0.25358153953E+03  0.51001986108E+03  0.46999998093E+01 0. -1.
</event>
<event>
 5   0  0.1475396E-04  0.1300117E+04  0.7818609E-02  0.9029473E-01
       -1   -1    0    0    0  501  0.00000000000E+00  0.00000000000E+00  0.13570827799E+04  0.13570827799E+04  0.50400001928E-02 0.  1.
        1   -1    0    0  501    0  0.00000000000E+00  0.00000000000E+00 -0.31138544136E+03  0.31138544140E+03  0.50400001928E-02 0. -1.
    10030    2    1    2    0    0  0.00000000000E+00  0.00000000000E+00  0.10456973385E+04  0.16684682213E+04  0.13001166416E+04 0.  0.
        3    1    3    3  502    0  0.22861582805E+03  0.55004581575E+03  0.85690753810E+03  0.10436024795E+04  0.10100000352E+00 0.  1.
       -3    1    3    3    0  502 -0.22861582805E+03 -0.55004581575E+03  0.18878980041E+03  0.62486574174E+03  0.10100000352E+00 0. -1.
</event>
<event>
 5   0  0.2723209E-04  0.1303793E+04  0.7818609E-02  0.9026563E-01
       -2   -1    0    0    0  501  0.00000000000E+00  0.00000000000E+00  0.51182171622E+03  0.51182171623E+03  0.25500000920E-02 0. -1.
        2   -1    0    0  501    0  0.00000000000E+00  0.00000000000E+00 -0.83030668492E+03  0.83030668493E+03  0.25500000920E-02 0.  1.
    10030    2    1    2    0    0  0.00000000000E+00  0.00000000000E+00 -0.31848496870E+03  0.13421284012E+04  0.13037929168E+04 0.  0.
        2    1    3    3  502    0  0.18815876511E+03 -0.27846571560E+03  0.41577114511E+03  0.53461436640E+03  0.25500000920E-02 0. -1.
       -2    1    3    3    0  502 -0.18815876511E+03  0.27846571560E+03 -0.73425611381E+03  0.80751403475E+03  0.25500000920E-02 0.  1.
</event>
<event>
 5   0  0.2573071E-04  0.1300576E+04  0.7818609E-02  0.9029108E-01
       -2   -1    0    0    0  501  0.00000000000E+00  0.00000000000E+00  0.29932718151E+03  0.29932718152E+03  0.25500000920E-02 0. -1.
        2   -1    0    0  501    0  0.00000000000E+00  0.00000000000E+00 -0.14127507622E+04  0.14127507623E+04  0.25500000920E-02 0.  1.
    10030    2    1    2    0    0  0.00000000000E+00  0.00000000000E+00 -0.11134235807E+04  0.17120779438E+04  0.13005763397E+04 0.  0.
        4    1    3    3  502    0  0.40185457804E+03 -0.51067059006E+03 -0.52442543399E+03  0.83504203616E+03  0.12699999809E+01 0. -1.
       -4    1    3    3    0  502 -0.40185457804E+03  0.51067059006E+03 -0.58899814675E+03  0.87703590760E+03  0.12699999809E+01 0.  1.
</event>
<event>
 5   0  0.1479690E-04  0.1297624E+04  0.7818609E-02  0.9031452E-01
        1   -1    0    0  501    0  0.00000000000E+00  0.00000000000E+00  0.88847148996E+03  0.88847148997E+03  0.50400001928E-02 0. -1.
       -1   -1    0    0    0  501  0.00000000000E+00  0.00000000000E+00 -0.47379897251E+03  0.47379897254E+03  0.50400001928E-02 0.  1.
    10030    2    1    2    0    0  0.00000000000E+00  0.00000000000E+00  0.41467251745E+03  0.13622704625E+04  0.12976237961E+04 0.  0.
        1    1    3    3  502    0  0.42054579291E+02  0.60617935591E+03 -0.31448312250E+02  0.60844966558E+03  0.50400001928E-02 0.  1.
       -1    1    3    3    0  502 -0.42054579291E+02 -0.60617935591E+03  0.44612082970E+03  0.75382079693E+03  0.50400001928E-02 0. -1.
</event>
<event>
 5   0  0.1479690E-04  0.1297356E+04  0.7818609E-02  0.9031664E-01
        1   -1    0    0  501    0  0.00000000000E+00  0.00000000000E+00  0.13716245281E+04  0.13716245281E+04  0.50400001928E-02 0.  1.
       -1   -1    0    0    0  501  0.00000000000E+00  0.00000000000E+00 -0.30677735538E+03  0.30677735542E+03  0.50400001928E-02 0. -1.
    10030    2    1    2    0    0  0.00000000000E+00  0.00000000000E+00  0.10648471727E+04  0.16784018835E+04  0.12973563047E+04 0.  0.
        1    1    3    3  502    0 -0.54460852349E+02  0.54963160822E+03  0.92329520285E+02  0.55998716908E+03  0.50400001928E-02 0. -1.
       -1    1    3    3    0  502  0.54460852349E+02 -0.54963160822E+03  0.97251765242E+03  0.11184147144E+04  0.50400001928E-02 0.  1.
</event>
<event>
 5   0  0.2756984E-04  0.1299397E+04  0.7818609E-02  0.9030043E-01
       -2   -1    0    0    0  501  0.00000000000E+00  0.00000000000E+00  0.42130919652E+03  0.42130919653E+03  0.25500000920E-02 0.  1.
        2   -1    0    0  501    0  0.00000000000E+00  0.00000000000E+00 -0.10018970295E+04  0.10018970295E+04  0.25500000920E-02 0. -1.
    10030    2    1    2    0    0  0.00000000000E+00  0.00000000000E+00 -0.58058783302E+03  0.14232062261E+04  0.12993974488E+04 0.  0.
        3    1    3    3  502    0  0.95581214808E+02  0.17267656691E+03  0.38768054187E+03  0.43502779006E+03  0.10100000352E+00 0.  1.
       -3    1    3    3    0  502 -0.95581214808E+02 -0.17267656691E+03 -0.96826837489E+03  0.98817843601E+03  0.10100000352E+00 0. -1.
</event>
<event>
 5   0  0.1430636E-04  0.1296289E+04  0.7818609E-02  0.9032514E-01
       -1   -1    0    0    0  501  0.00000000000E+00  0.00000000000E+00  0.43215144991E+03  0.43215144994E+03  0.50400001928E-02 0.  1.
        1   -1    0    0  501    0  0.00000000000E+00  0.00000000000E+00 -0.97209203676E+03  0.97209203677E+03  0.50400001928E-02 0. -1.
    10030    2    1    2    0    0  0.00000000000E+00  0.00000000000E+00 -0.53994058685E+03  0.14042434867E+04  0.12962885221E+04 0.  0.
        4    1    3    3  502    0 -0.14846465308E+03 -0.62141744204E+03 -0.15185809002E+03  0.65670684699E+03  0.12699999809E+01 0.  1.
       -4    1    3    3    0  502  0.14846465308E+03  0.62141744204E+03 -0.38808249682E+03  0.74753663972E+03  0.12699999809E+01 0. -1.
</event>
<event>
 5   0  0.1479690E-04  0.1300130E+04  0.7818609E-02  0.9029462E-01
        1   -1    0    0  501    0  0.00000000000E+00  0.00000000000E+00  0.14706610764E+04  0.14706610764E+04  0.50400001928E-02 0. -1.
       -1   -1    0    0    0  501  0.00000000000E+00  0.00000000000E+00 -0.28734334105E+03  0.28734334109E+03  0.50400001928E-02 0.  1.
    10030    2    1    2    0    0  0.00000000000E+00  0.00000000000E+00  0.11833177353E+04  0.17580044175E+04  0.13001302508E+04 0.  0.
        1    1    3    3  502    0  0.37027491846E+03  0.30505175879E+03  0.11848072746E+04  0.12782520756E+04  0.50400001928E-02 0. -1.
       -1    1    3    3    0  502 -0.37027491846E+03 -0.30505175879E+03 -0.14895392917E+01  0.47975234187E+03  0.50400001928E-02 0.  1.
</event>
<event>
 5   0  0.1479690E-04  0.1293042E+04  0.7818609E-02  0.9035101E-01
        1   -1    0    0  501    0  0.00000000000E+00  0.00000000000E+00  0.12689421351E+04  0.12689421351E+04  0.50400001928E-02 0.  1.
       -1   -1    0    0    0  501  0.00000000000E+00  0.00000000000E+00 -0.32939971949E+03  0.32939971953E+03  0.50400001928E-02 0. -1.
    10030    2    1    2    0    0  0.00000000000E+00  0.00000000000E+00  0.93954241562E+03  0.15983418547E+04  0.12930416597E+04 0.  0.
        1    1    3    3  502    0 -0.15414312616E+03 -0.57457752903E+03  0.78270424875E+03  0.98312022725E+03  0.50400001928E-02 0.  1.
       -1    1    3    3    0  502  0.15414312616E+03  0.57457752903E+03  0.15683816687E+03  0.61522162740E+03  0.50400001928E-02 0. -1.
</event>
<event>
 5   0  0.1475396E-04  0.1297208E+04  0.7818609E-02  0.9031782E-01
        1   -1    0    0  501    0  0.00000000000E+00  0.00000000000E+00  0.65163794925E+03  0.65163794927E+03  0.50400001928E-02 0.  1.
       -1   -1    0    0    0  501  0.00000000000E+00  0.00000000000E+00 -0.64558446501E+03  0.64558446503E+03  0.50400001928E-02 0. -1.
    10030    2    1    2    0    0  0.00000000000E+00  0.00000000000E+00  0.60534842396E+01  0.12972224143E+04  0.12972082899E+04 0.  0.
        3    1    3    3  502    0  0.27379631715E+03 -0.43371983515E+03 -0.39397885003E+03  0.64675858183E+03  0.10100000352E+00 0. -1.
       -3    1    3    3    0  502 -0.27379631715E+03  0.43371983515E+03  0.40003233427E+03  0.65046383247E+03  0.10100000352E+00 0.  1.
</event>
<event>
 5   0  0.1002887E-04  0.1299513E+04  0.7818609E-02  0.9029951E-01
       -4   -1    0    0    0  501  0.00000000000E+00  0.00000000000E+00  0.44207685741E+03  0.44207868164E+03  0.12699999809E+01 0. -1.
        4   -1    0    0  501    0  0.00000000000E+00  0.00000000000E+00 -0.95499637647E+03  0.95499722092E+03  0.12699999809E+01 0.  1.
    10030    2    1    2    0    0  0.00000000000E+00  0.00000000000E+00 -0.51291951905E+03  0.13970759026E+04  0.12995132337E+04 0.  0.
        4    1    3    3  502    0 -0.52795428219E+03  0.12907291392E+03  0.12634366464E+03  0.55799630436E+03  0.12699999809E+01 0. -1.
       -4    1    3    3    0  502  0.52795428219E+03 -0.12907291392E+03 -0.63926318369E+03  0.83907959820E+03  0.12699999809E+01 0.  1.
</event>
<event>
 5   0  0.1430636E-04  0.1303293E+04  0.7818609E-02  0.9026958E-01
       -1   -1    0    0    0  501  0.00000000000E+00  0.00000000000E+00  0.60255042239E+03  0.60255042242E+03  0.50400001928E-02 0.  1.
        1   -1    0    0  501    0  0.00000000000E+00  0.00000000000E+00 -0.70474321620E+03  0.70474321621E+03  0.50400001928E-02 0. -1.
    10030    2    1    2    0    0  0.00000000000E+00  0.00000000000E+00 -0.10219279380E+03  0.13072936386E+04  0.13032932481E+04 0.  0.
        4    1    3    3  502    0  0.28161636251E+03  0.23866660805E+02 -0.64006501823E+03  0.69968723984E+03  0.12699999809E+01 0. -1.
       -4    1    3    3    0  502 -0.28161636251E+03 -0.23866660805E+02  0.53787222443E+03  0.60760639879E+03  0.12699999809E+01 0.  1.
</event>
<event>
 5   0  0.1479690E-04  0.1294149E+04  0.7818609E-02  0.9034218E-01
       -1   -1    0    0    0  501  0.00000000000E+00  0.00000000000E+00  0.29100293557E+03  0.29100293561E+03  0.50400001928E-02 0.  1.
        1   -1    0    0  501    0  0.00000000000E+00  0.00000000000E+00 -0.14388356479E+04  0.14388356479E+04  0.50400001928E-02 0. -1.
    10030    2    1    2    0    0  0.00000000000E+00  0.00000000000E+00 -0.11478327123E+04  0.17298385835E+04  0.12941489827E+04 0.  0.
        1    1    3    3  502    0 -0.34969817669E+03 -0.20929120753E+02  0.15327955249E+03  0.38238915271E+03  0.50400001928E-02 0.  1.
       -1    1    3    3    0  502  0.34969817669E+03  0.20929120753E+02 -0.13011122648E+04  0.13474494308E+04  0.50400001928E-02 0. -1.
</event>
<event>
 5   0  0.1479690E-04  0.1299274E+04  0.7818609E-02  0.9030141E-01
        1   -1    0    0  501    0  0.00000000000E+00  0.00000000000E+00  0.94146983881E+03  0.94146983883E+03  0.50400001928E-02 0. -1.
       -1   -1    0    0    0  501  0.00000000000E+00  0.00000000000E+00 -0.44826512061E+03  0.44826512064E+03  0.50400001928E-02 0.  1.
    10030    2    1    2    0    0  0.00000000000E+00  0.00000000000E+00  0.49320471820E+03  0.13897349595E+04  0.12992737831E+04 0.  0.
        1    1    3    3  502    0 -0.22343681215E+03 -0.55034819920E+03 -0.34814465369E+02  0.59499512302E+03  0.50400001928E-02 0.  1.
       -1    1    3    3    0  502  0.22343681215E+03  0.55034819920E+03  0.52801918357E+03  0.79473983645E+03  0.50400001928E-02 0. -1.
</event>
<event>
 5   0  0.2661377E-04  0.1300371E+04  0.7818609E-02  0.9029271E-01
        2   -1    0    0  501    0  0.00000000000E+00  0.00000000000E+00  0.88431735331E+03  0.88431735332E+03  0.25500000920E-02 0. -1.
       -2   -1    0    0    0  501  0.00000000000E+00  0.00000000000E+00 -0.47804208192E+03  0.47804208192E+03  0.25500000920E-02 0.  1.
    10030    2    1    2    0    0  0.00000000000E+00  0.00000000000E+00  0.40627527140E+03  0.13623594352E+04  0.13003705759E+04 0.  0.
        5    1    3    3  502    0  0.40469213224E+03 -0.13567470588E+03  0.71696133863E+03  0.83440937124E+03  0.46999998093E+01 0. -1.
       -5    1    3    3    0  502 -0.40469213224E+03  0.13567470588E+03 -0.31068606723E+03  0.52795006401E+03  0.46999998093E+01 0.  1.
</event>
<event>
 5   0  0.2573071E-04  0.1298660E+04  0.7818609E-02  0.9030628E-01
        2   -1    0    0  501    0  0.00000000000E+00  0.00000000000E+00  0.60547593269E+03  0.60547593270E+03  0.25500000920E-02 0. -1.
       -2   -1    0    0    0  501  0.00000000000E+00  0.00000000000E+00 -0.69636060884E+03  0.69636060885E+03  0.25500000920E-02 0.  1.
    10030    2    1    2    0    0  0.00000000000E+00  0.00000000000E+00 -0.90884676149E+02  0.13018365415E+04  0.12986602160E+04 0.  0.
        4    1    3    3  502    0  0.48304413610E+03  0.27550271854E+03 -0.38151534121E+03  0.67438042218E+03  0.12699999809E+01 0.  1.
       -4    1    3    3    0  502 -0.48304413610E+03 -0.27550271854E+03  0.29063066507E+03  0.62745611936E+03  0.12699999809E+01 0. -1.
</event>
<event>
 5   0  0.1408341E-04  0.1298912E+04  0.7818609E-02  0.9030428E-01
        1   -1    0    0  501    0  0.00000000000E+00  0.00000000000E+00  0.12513056853E+04  0.12513056853E+04  0.50400001928E-02 0.  1.
       -1   -1    0    0    0  501  0.00000000000E+00  0.00000000000E+00 -0.33708237661E+03  0.33708237665E+03  0.50400001928E-02 0. -1.
    10030    2    1    2    0    0  0.00000000000E+00  0.00000000000E+00  0.91422330871E+03  0.15883880620E+04  0.12989119975E+04 0.  0.
        5    1    3    3  502    0 -0.14054103147E+03  0.62095687803E+03  0.61386584893E+03  0.88441652878E+03  0.46999998093E+01 0.  1.
       -5    1    3    3    0  502  0.14054103147E+03 -0.62095687803E+03  0.30035745978E+03  0.70397153319E+03  0.46999998093E+01 0. -1.
</event>
<event>
 5   0  0.2573071E-04  0.1300457E+04  0.7818609E-02  0.9029203E-01
        2   -1    0    0  501    0  0.00000000000E+00  0.00000000000E+00  0.40715256809E+03  0.40715256809E+03  0.25500000920E-02 0. -1.
       -2   -1    0    0    0  501  0.00000000000E+00  0.00000000000E+00 -0.10384242253E+04  0.10384242253E+04  0.25500000920E-02 0.  1.
    10030    2    1    2    0    0  0.00000000000E+00  0.00000000000E+00 -0.63127165723E+03  0.14455767934E+04  0.13004569814E+04 0.  0.
        4    1    3    3  502    0 -0.51424944278E+03 -0.22571786887E+03  0.48644784475E+02  0.56371000850E+03  0.12699999809E+01 0. -1.
       -4    1    3    3    0  502  0.51424944278E+03  0.22571786887E+03 -0.67991644170E+03  0.88186678491E+03  0.12699999809E+01 0.  1.
</event>
<event>
 5   0  0.1475396E-04  0.1302351E+04  0.7818609E-02  0.9027703E-01
       -1   -1    0    0    0  501  0.00000000000E+00  0.00000000000E+00  0.98143621453E+03  0.98143621454E+03  0.50400001928E-02 0.  1.
        1   -1    0    0  501    0  0.00000000000E+00  0.00000000000E+00 -0.43204999005E+03  0.43204999008E+03  0.50400001928E-02 0. -1.
    10030    2    1    2    0    0  0.00000000000E+00  0.00000000000E+00  0.54938622448E+03  0.14134862046E+04  0.13023509615E+04 0.  0.
        3    1    3    3  502    0 -0.27360116413E+03 -0.16889872986E+03 -0.33988325438E+03  0.46787286176E+03  0.10100000352E+00 0. -1.
       -3    1    3    3    0  502  0.27360116413E+03  0.16889872986E+03  0.88926947886E+03  0.94561334286E+03  0.10100000352E+00 0.  1.
</event>
<event>
 5   0  0.2723209E-04  0.1306196E+04  0.7818609E-02  0.9024666E-01
        2   -1    0    0  501    0  0.00000000000E+00  0.00000000000E+00  0.40489175497E+03  0.40489175498E+03  0.25500000920E-02 0.  1.
       -2   -1    0    0    0  501  0.00000000000E+00  0.00000000000E+00 -0.10534601282E+04  0.10534601282E+04  0.25500000920E-02 0. -1.
    10030    2    1    2    0    0  0.00000000000E+00  0.00000000000E+00 -0.64856837320E+03  0.14583518831E+04  0.13061964938E+04 0.  0.
        2    1    3    3  502    0 -0.34442423344E+03 -0.72314859428E+02 -0.93853473489E+03  0.10023497095E+04  0.25500000920E-02 0. -1.
       -2    1    3    3    0  502  0.34442423344E+03  0.72314859428E+02  0.28996636169E+03  0.45600217368E+03  0.25500000920E-02 0.  1.
</event>
<event>
 5   0  0.2794825E-04  0.1299803E+04  0.7818609E-02  0.9029721E-01
        2   -1    0    0  501    0  0.00000000000E+00  0.00000000000E+00  0.10067208167E+04  0.10067208167E+04  0.25500000920E-02 0.  1.
       -2   -1    0    0    0  501  0.00000000000E+00  0.00000000000E+00 -0.41955231333E+03  0.41955231334E+03  0.25500000920E-02 0. -1.
    10030    2    1    2    0    0  0.00000000000E+00  0.00000000000E+00  0.58716850339E+03  0.14262731301E+04  0.12998031352E+04 0.  0.
        1    1    3    3  502    0 -0.55131520237E+03 -0.18159226137E+03  0.61434090936E+03  0.84518575159E+03  0.50400001928E-02 0.  1.
       -1    1    3    3    0  502  0.55131520237E+03  0.18159226137E+03 -0.27172405963E+02  0.58108737847E+03  0.50400001928E-02 0. -1.
</event>
<event>
 5   0  0.1430636E-04  0.1301242E+04  0.7818609E-02  0.9028581E-01
       -1   -1    0    0    0  501  0.00000000000E+00  0.00000000000E+00  0.47779942712E+03  0.47779942714E+03  0.50400001928E-02 0. -1.
        1   -1    0    0  501    0  0.00000000000E+00  0.00000000000E+00 -0.88595212470E+03  0.88595212471E+03  0.50400001928E-02 0.  1.
    10030    2    1    2    0    0  0.00000000000E+00  0.00000000000E+00 -0.40815269758E+03  0.13637515519E+04  0.13012415881E+04 0.  0.
        4    1    3    3  502    0 -0.71065304897E+02 -0.39425171420E+03 -0.74136472846E+03  0.84267904045E+03  0.12699999809E+01 0.  1.
       -4    1    3    3    0  502  0.71065304897E+02  0.39425171420E+03  0.33321203088E+03  0.52107251140E+03  0.12699999809E+01 0. -1.
</event>
<event>
 5   0  0.2794825E-04  0.1301570E+04  0.7818609E-02  0.9028321E-01
        2   -1    0    0  501    0  0.00000000000E+00  0.00000000000E+00  0.38932486441E+03  0.38932486441E+03  0.25500000920E-02 0.  1.
       -2   -1    0    0    0  501  0.00000000000E+00  0.00000000000E+00 -0.10878349762E+04  0.10878349762E+04  0.25500000920E-02 0. -1.
    10030    2    1    2    0    0  0.00000000000E+00  0.00000000000E+00 -0.69851011177E+03  0.14771598406E+04  0.13015701358E+04 0.  0.
        1    1    3    3  502    0 -0.52299746308E+03 -0.25811562761E+03 -0.67694860604E+03  0.89353759790E+03  0.50400001928E-02 0. -1.
       -1    1    3    3    0  502  0.52299746308E+03  0.25811562761E+03 -0.21561505727E+02  0.58362224269E+03  0.50400001928E-02 0.  1.
</event>
<event>
 5   0  0.1476511E-04  0.1299621E+04  0.7818609E-02  0.9029866E-01
        1   -1    0    0  501    0  0.00000000000E+00  0.00000000000E+00  0.53244190604E+03  0.53244190606E+03  0.50400001928E-02 0.  1.
       -1   -1    0    0    0  501  0.00000000000E+00  0.00000000000E+00 -0.79305109794E+03  0.79305109796E+03  0.50400001928E-02 0. -1.
    10030    2    1    2    0    0  0.00000000000E+00  0.00000000000E+00 -0.26060919190E+03  0.13254930040E+04  0.12996209266E+04 0.  0.
        2    1    3    3  502    0 -0.29443144572E+03  0.51491952194E+03  0.14034902136E+03  0.60953247502E+03  0.25500000920E-02 0.  1.
       -2    1    3    3    0  502  0.29443144572E+03 -0.51491952194E+03 -0.40095821326E+03  0.71596052900E+03  0.25500000920E-02 0. -1.
</event>
<event>
 5   0  0.2573071E-04  0.1299978E+04  0.7818609E-02  0.9029583E-01
        2   -1    0    0  501    0  0.00000000000E+00  0.00000000000E+00  0.73359481788E+03  0.73359481788E+03  0.25500000920E-02 0. -1.
       -2   -1    0    0    0  501  0.00000000000E+00  0.00000000000E+00 -0.57591148218E+03  0.57591148218E+03  0.25500000920E-02 0.  1.
    10030    2    1    2    0    0  0.00000000000E+00  0.00000000000E+00  0.15768333570E+03  0.13095063001E+04  0.12999779673E+04 0.  0.
        4    1    3    3  502    0 -0.20354481464E+03  0.50622459138E+03 -0.27700418278E+03  0.61190420710E+03  0.12699999809E+01 0. -1.
       -4    1    3    3    0  502  0.20354481464E+03 -0.50622459138E+03  0.43468751849E+03  0.69760209297E+03  0.12699999809E+01 0.  1.
</event>
<event>
 5   0  0.2756984E-04  0.1298899E+04  0.7818609E-02  0.9030438E-01
        2   -1    0    0  501    0  0.00000000000E+00  0.00000000000E+00  0.96723995724E+03  0.96723995724E+03  0.25500000920E-02 0.  1.
       -2   -1    0    0    0  501  0.00000000000E+00  0.00000000000E+00 -0.43607065670E+03  0.43607065671E+03  0.25500000920E-02 0. -1.
    10030    2    1    2    0    0  0.00000000000E+00  0.00000000000E+00  0.53116930054E+03  0.14033106139E+04  0.12988994778E+04 0.  0.
        3    1    3    3  502    0  0.38916726759E+03  0.38140153531E+03 -0.11618510111E+03  0.55715103986E+03  0.10100000352E+00 0. -1.
       -3    1    3    3    0  502 -0.38916726759E+03 -0.38140153531E+03  0.64735440164E+03  0.84615957409E+03  0.10100000352E+00 0.  1.
</event>
<event>
 5   0  0.1476511E-04  0.1301649E+04  0.7818609E-02  0.9028259E-01
        1   -1    0    0  501    0  0.00000000000E+00  0.00000000000E+00  0.79877314578E+03  0.79877314580E+03  0.50400001928E-02 0. -1.
       -1   -1    0    0    0  501  0.00000000000E+00  0.00000000000E+00 -0.53027849705E+03  0.53027849707E+03  0.50400001928E-02 0.  1.
    10030    2    1    2    0    0  0.00000000000E+00  0.00000000000E+00  0.26849464873E+03  0.13290516429E+04  0.13016485290E+04 0.  0.
        2    1    3    3  502    0  0.41392069947E+03 -0.20405361537E+03  0.60282482582E+03  0.75918771989E+03  0.25500000920E-02 0. -1.
       -2    1    3    3    0  502 -0.41392069947E+03  0.20405361537E+03 -0.33433017709E+03  0.56986392298E+03  0.25500000920E-02 0.  1.
</event>
<event>
 5   0  0.1430636E-04  0.1298694E+04  0.7818609E-02  0.9030602E-01
        1   -1    0    0  501    0  0.00000000000E+00  0.00000000000E+00  0.18168176139E+04  0.18168176139E+04  0.50400001928E-02 0. -1.
       -1   -1    0    0    0  501  0.00000000000E+00  0.00000000000E+00 -0.23208242986E+03  0.23208242992E+03  0.50400001928E-02 0.  1.
    10030    2    1    2    0    0  0.00000000000E+00  0.00000000000E+00  0.15847351840E+04  0.20489000438E+04  0.12986938770E+04 0.  0.
        4    1    3    3  502    0 -0.43892762260E+03  0.42230925613E+03  0.11474196140E+04  0.12990673382E+04  0.12699999809E+01 0. -1.
       -4    1    3    3    0  502  0.43892762260E+03 -0.42230925613E+03  0.43731557000E+03  0.74983270558E+03  0.12699999809E+01 0.  1.
</event>
<event>
 5   0  0.1475396E-04  0.1301392E+04  0.7818609E-02  0.9028462E-01
       -1   -1    0    0    0  501  0.00000000000E+00  0.00000000000E+00  0.38276710499E+03  0.38276710502E+03  0.50400001928E-02 0. -1.
        1   -1    0    0  501    0  0.00000000000E+00  0.00000000000E+00 -0.11061694509E+04  0.11061694510E+04  0.50400001928E-02 0.  1.
    10030    2    1    2    0    0  0.00000000000E+00  0.00000000000E+00 -0.72340234596E+03  0.14889365560E+04  0.13013919907E+04 0.  0.
        3    1    3    3  502    0  0.44806927539E+02 -0.41303474864E+03 -0.93467099162E+03  0.10228466342E+04  0.10100000352E+00 0.  1.
       -3    1    3    3    0  502 -0.44806927539E+02  0.41303474864E+03  0.21126864566E+03  0.46608992177E+03  0.10100000352E+00 0. -1.
</event>
<event>
 5   0  0.1475396E-04  0.1297821E+04  0.7818609E-02  0.9031295E-01
       -1   -1    0    0    0  501  0.00000000000E+00  0.00000000000E+00  0.17556643817E+03  0.17556643825E+03  0.50400001928E-02 0. -1.
        1   -1    0    0  501    0  0.00000000000E+00  0.00000000000E+00 -0.23984374440E+04  0.23984374440E+04  0.50400001928E-02 0.  1.
    10030    2    1    2    0    0  0.00000000000E+00  0.00000000000E+00 -0.22228710058E+04  0.25740038822E+04  0.12978214351E+04 0.  0.
        3    1    3    3  502    0  0.35172876917E+02 -0.18976709971E+03  0.11732529724E+03  0.22586261084E+03  0.10100000352E+00 0. -1.
       -3    1    3    3    0  502 -0.35172876917E+02  0.18976709971E+03 -0.23401963031E+04  0.23481412714E+04  0.10100000352E+00 0.  1.
</event>
<event>
 5   0  0.2756984E-04  0.1299312E+04  0.7818609E-02  0.9030111E-01
       -2   -1    0    0    0  501  0.00000000000E+00  0.00000000000E+00  0.44554856160E+03  0.44554856161E+03  0.25500000920E-02 0.  1.
        2   -1    0    0  501    0  0.00000000000E+00  0.00000000000E+00 -0.94726564628E+03  0.94726564628E+03  0.25500000920E-02 0. -1.
    10030    2    1    2    0    0  0.00000000000E+00  0.00000000000E+00 -0.50171708468E+03  0.13928142079E+04  0.12993118889E+04 0.  0.
        3    1    3    3  502    0 -0.11869474944E+03 -0.10114657029E+03  0.42518708161E+03  0.45288313813E+03  0.10100000352E+00 0.  1.
       -3    1    3    3    0  502  0.11869474944E+03  0.10114657029E+03 -0.92690416629E+03  0.93993106977E+03  0.10100000352E+00 0. -1.
</event>
<event>
 5   0  0.2661377E-04  0.1301298E+04  0.7818609E-02  0.9028537E-01
        2   -1    0    0  501    0  0.00000000000E+00  0.00000000000E+00  0.17393635992E+04  0.17393635993E+04  0.25500000920E-02 0.  1.
       -2   -1    0    0    0  501  0.00000000000E+00  0.00000000000E+00 -0.24339007254E+03  0.24339007256E+03  0.25500000920E-02 0. -1.
    10030    2    1    2    0    0  0.00000000000E+00  0.00000000000E+00  0.14959735267E+04  0.19827536718E+04  0.13012975565E+04 0.  0.
        5    1    3    3  502    0 -0.46111368047E+03 -0.42098769720E+03  0.46925314773E+03  0.78107430771E+03  0.46999998093E+01 0. -1.
       -5    1    3    3    0  502  0.46111368047E+03  0.42098769720E+03  0.10267203790E+04  0.12016793641E+04  0.46999998093E+01 0.  1.
</event>
<event>
 5   0  0.2723209E-04  0.1301720E+04  0.7818609E-02  0.9028202E-01
        2   -1    0    0  501    0  0.00000000000E+00  0.00000000000E+00  0.54877153657E+03  0.54877153658E+03  0.25500000920E-02 0. -1.
       -2   -1    0    0    0  501  0.00000000000E+00  0.00000000000E+00 -0.77194053978E+03  0.77194053979E+03  0.25500000920E-02 0.  1.
    10030    2    1    2    0    0  0.00000000000E+00  0.00000000000E+00 -0.22316900321E+03  0.13207120764E+04  0.13017203942E+04 0.  0.
        2    1    3    3  502    0  0.59184644519E+02 -0.41245849621E+02 -0.76787185983E+03  0.77125302941E+03  0.25500000920E-02 0.  1.
       -2    1    3    3    0  502 -0.59184644519E+02  0.41245849621E+02  0.54470285662E+03  0.54945904695E+03  0.25500000920E-02 0. -1.
</event>
<event>
 5   0  0.1479690E-04  0.1300541E+04  0.7818609E-02  0.9029136E-01
       -1   -1    0    0    0  501  0.00000000000E+00  0.00000000000E+00  0.40528780503E+03  0.40528780506E+03  0.50400001928E-02 0.  1.
        1   -1    0    0  501    0  0.00000000000E+00  0.00000000000E+00 -0.10433373965E+04  0.10433373965E+04  0.50400001928E-02 0. -1.
    10030    2    1    2    0    0  0.00000000000E+00  0.00000000000E+00 -0.63804959143E+03  0.14486252015E+04  0.13005413078E+04 0.  0.
        1    1    3    3  502    0 -0.64843380399E+03  0.47992359416E+02 -0.30892244225E+03  0.71986300090E+03  0.50400001928E-02 0.  1.
       -1    1    3    3    0  502  0.64843380399E+03 -0.47992359416E+02 -0.32912714918E+03  0.72876220063E+03  0.50400001928E-02 0. -1.
</event>
<event>
 5   0  0.2723209E-04  0.1301541E+04  0.7818609E-02  0.9028344E-01
       -2   -1    0    0    0  501  0.00000000000E+00  0.00000000000E+00  0.82185956842E+03  0.82185956842E+03  0.25500000920E-02 0. -1.
        2   -1    0    0  501    0  0.00000000000E+00  0.00000000000E+00 -0.51529747756E+03  0.51529747757E+03  0.25500000920E-02 0.  1.
    10030    2    1    2    0    0  0.00000000000E+00  0.00000000000E+00  0.30656209085E+03  0.13371570460E+04  0.13015408753E+04 0.  0.
        2    1    3    3  502    0  0.34190513123E+03 -0.19865376590E+03  0.68428021592E+03  0.79031756362E+03  0.25500000920E-02 0. -1.
       -2    1    3    3    0  502 -0.34190513123E+03  0.19865376590E+03 -0.37771812507E+03  0.54683948237E+03  0.25500000920E-02 0.  1.
</event>
<event>
 5   0  0.1479690E-04  0.1303163E+04  0.7818609E-02  0.9027061E-01
       -1   -1    0    0    0  501  0.00000000000E+00  0.00000000000E+00  0.88334198919E+03  0.88334198921E+03  0.50400001928E-02 0. -1.
        1   -1    0    0  501    0  0.00000000000E+00  0.00000000000E+00 -0.48062745641E+03  0.48062745643E+03  0.50400001928E-02 0.  1.
    10030    2    1    2    0    0  0.00000000000E+00  0.00000000000E+00  0.40271453279E+03  0.13639694456E+04  0.13031629421E+04 0.  0.
        1    1    3    3  502    0  0.87906157155E+00  0.26954985278E+02 -0.48004302550E+03  0.48080001075E+03  0.50400001928E-02 0.  1.
       -1    1    3    3    0  502 -0.87906157155E+00 -0.26954985278E+02  0.88275755829E+03  0.88316943489E+03  0.50400001928E-02 0. -1.
</event>
<event>
 5   0  0.1408341E-04  0.1298867E+04  0.7818609E-02  0.9030464E-01
        1   -1    0    0  501    0  0.00000000000E+00  0.00000000000E+00  0.56182138526E+03  0.56182138528E+03  0.50400001928E-02 0.  1.
       -1   -1    0    0    0  501  0.00000000000E+00  0.00000000000E+00 -0.75070803752E+03  0.75070803754E+03  0.50400001928E-02 0. -1.
    10030    2    1    2    0    0  0.00000000000E+00  0.00000000000E+00 -0.18888665226E+03  0.13125294228E+04  0.12988669364E+04 0.  0.
        5    1    3    3  502    0 -0.23040017097E+03  0.51300097289E+03 -0.42264809823E+03  0.70349679595E+03  0.46999998093E+01 0. -1.
       -5    1    3    3    0  502  0.23040017097E+03 -0.51300097289E+03  0.23376144597E+03  0.60903262687E+03  0.46999998093E+01 0.  1.
</event>
<event>
 5   0  0.2573071E-04  0.1299914E+04  0.7818609E-02  0.9029633E-01
        2   -1    0    0  501    0  0.00000000000E+00  0.00000000000E+00  0.97302642576E+03  0.97302642576E+03  0.25500000920E-02 0.  1.
       -2   -1    0    0    0  501  0.00000000000E+00  0.00000000000E+00 -0.43415488393E+03  0.43415488394E+03  0.25500000920E-02 0. -1.
    10030    2    1    2    0    0  0.00000000000E+00  0.00000000000E+00  0.53887154183E+03  0.14071813097E+04  0.12999141125E+04 0.  0.
        4    1    3    3  502    0  0.50067725872E+03 -0.41035230284E+03  0.33233217623E+03  0.72767645152E+03  0.12699999809E+01 0. -1.
       -4    1    3    3    0  502 -0.50067725872E+03  0.41035230284E+03  0.20653936560E+03  0.67950485818E+03  0.12699999809E+01 0.  1.
</event>
<event>
 5   0  0.1475396E-04  0.1297728E+04  0.7818609E-02  0.9031369E-01
       -1   -1    0    0    0  501  0.00000000000E+00  0.00000000000E+00  0.98670954768E+03  0.98670954769E+03  0.50400001928E-02 0. -1.
        1   -1    0    0  501    0  0.00000000000E+00  0.00000000000E+00 -0.42669538804E+03  0.42669538807E+03  0.50400001928E-02 0.  1.
    10030    2    1    2    0    0  0.00000000000E+00  0.00000000000E+00  0.56001415964E+03  0.14134049358E+04  0.12977278811E+04 0.  0.
        3    1    3    3  502    0  0.55106993887E+03  0.18971741757E+03  0.59065713026E+03  0.82978710027E+03  0.10100000352E+00 0.  1.
       -3    1    3    3    0  502 -0.55106993887E+03 -0.18971741757E+03 -0.30642970612E+02  0.58361783549E+03  0.10100000352E+00 0. -1.
</event>
<event>
 5   0  0.1002887E-04  0.1302782E+04  0.7818609E-02  0.9027362E-01
       -3   -1    0    0    0  501  0.00000000000E+00  0.00000000000E+00  0.41697140943E+03  0.41697142166E+03  0.10100000352E+00 0.  1.
        3   -1    0    0  501    0  0.00000000000E+00  0.00000000000E+00 -0.10176001568E+04  0.10176001618E+04  0.10100000352E+00 0. -1.
    10030    2    1    2    0    0  0.00000000000E+00  0.00000000000E+00 -0.60062874738E+03  0.14345715835E+04  0.13027819219E+04 0.  0.
        4    1    3    3  502    0  0.98983198901E+02 -0.54836193145E+03 -0.67179903219E+03  0.87281958850E+03  0.12699999809E+01 0. -1.
       -4    1    3    3    0  502 -0.98983198901E+02  0.54836193145E+03  0.71170284806E+02  0.56175199498E+03  0.12699999809E+01 0.  1.
</event>
<event>
 5   0  0.1479690E-04  0.1298948E+04  0.7818609E-02  0.9030399E-01
       -1   -1    0    0    0  501  0.00000000000E+00  0.00000000000E+00  0.54377364248E+03  0.54377364251E+03  0.50400001928E-02 0. -1.
        1   -1    0    0  501    0  0.00000000000E+00  0.00000000000E+00 -0.77572129390E+03  0.77572129391E+03  0.50400001928E-02 0.  1.
    10030    2    1    2    0    0  0.00000000000E+00  0.00000000000E+00 -0.23194765141E+03  0.13194949364E+04  0.12989484879E+04 0.  0.
        1    1    3    3  502    0  0.57540757754E+03 -0.30116012450E+03 -0.11084493614E+03  0.65884588545E+03  0.50400001928E-02 0. -1.
       -1    1    3    3    0  502 -0.57540757754E+03  0.30116012450E+03 -0.12110271527E+03  0.66064905097E+03  0.50400001928E-02 0.  1.
</event>
<event>
 5   0  0.1476511E-04  0.1298896E+04  0.7818609E-02  0.9030441E-01
       -1   -1    0    0    0  501  0.00000000000E+00  0.00000000000E+00  0.32050165846E+03  0.32050165850E+03  0.50400001928E-02 0.  1.
        1   -1    0    0  501    0  0.00000000000E+00  0.00000000000E+00 -0.13160081639E+04  0.13160081639E+04  0.50400001928E-02 0. -1.
    10030    2    1    2    0    0  0.00000000000E+00  0.00000000000E+00 -0.99550650540E+03  0.16365098224E+04  0.12988961454E+04 0.  0.
        2    1    3    3  502    0 -0.14275422612E+03  0.43111338562E+03 -0.10826961146E+04  0.11740819379E+04  0.25500000920E-02 0. -1.
       -2    1    3    3    0  502  0.14275422612E+03 -0.43111338562E+03  0.87189609243E+02  0.46242788443E+03  0.25500000920E-02 0.  1.
</event>
<event>
 5   0  0.1430636E-04  0.1302410E+04  0.7818609E-02  0.9027656E-01
        1   -1    0    0  501    0  0.00000000000E+00  0.00000000000E+00  0.10918971796E+04  0.10918971797E+04  0.50400001928E-02 0. -1.
       -1   -1    0    0    0  501  0.00000000000E+00  0.00000000000E+00 -0.38837729463E+03  0.38837729466E+03  0.50400001928E-02 0.  1.
    10030    2    1    2    0    0  0.00000000000E+00  0.00000000000E+00  0.70351988501E+03  0.14802744743E+04  0.13024101853E+04 0.  0.
        4    1    3    3  502    0  0.23517893608E+03  0.23348351060E+03 -0.28536868484E+03  0.43733348932E+03  0.12699999809E+01 0.  1.
       -4    1    3    3    0  502 -0.23517893608E+03 -0.23348351060E+03  0.98888856985E+03  0.10429409850E+04  0.12699999809E+01 0. -1.
</event>
<event>
 5   0  0.1408341E-04  0.1300663E+04  0.7818609E-02  0.9029040E-01
        1   -1    0    0  501    0  0.00000000000E+00  0.00000000000E+00  0.33329588209E+03  0.33329588213E+03  0.50400001928E-02 0. -1.
       -1   -1    0    0    0  501  0.00000000000E+00  0.00000000000E+00 -0.12689358196E+04  0.12689358196E+04  0.50400001928E-02 0.  1.
    10030    2    1    2    0    0  0.00000000000E+00  0.00000000000E+00 -0.93563993753E+03  0.16022317018E+04  0.13006630361E+04 0.  0.
        5    1    3    3  502    0  0.37329380800E+03 -0.22793539661E+03 -0.10606573707E+04  0.11473094439E+04  0.46999998093E+01 0.  1.
       -5    1    3    3    0  502 -0.37329380800E+03  0.22793539661E+03  0.12501743313E+03  0.45492225787E+03  0.46999998093E+01 0. -1.
</event>
<event>
 5   0  0.2794825E-04  0.1299844E+04  0.7818609E-02  0.9029689E-01
        2   -1    0    0  501    0  0.00000000000E+00  0.00000000000E+00  0.19387372305E+04  0.19387372305E+04  0.25500000920E-02 0. -1.
       -2   -1    0    0    0  501  0.00000000000E+00  0.00000000000E+00 -0.21787316098E+03  0.21787316100E+03  0.25500000920E-02 0.  1.
    10030    2    1    2    0    0  0.00000000000E+00  0.00000000000E+00  0.17208640695E+04  0.21566103915E+04  0.12998443118E+04 0.  0.
        1    1    3    3  502    0  0.62478341101E+03  0.11314529961E+03  0.63028113658E+03  0.89465662724E+03  0.50400001928E-02 0.  1.
       -1    1    3    3    0  502 -0.62478341101E+03 -0.11314529961E+03  0.10905829330E+04  0.12619537643E+04  0.50400001928E-02 0. -1.
</event>
<event>
 5   0  0.1476511E-04  0.1301344E+04  0.7818609E-02  0.9028500E-01
        1   -1    0    0  501    0  0.00000000000E+00  0.00000000000E+00  0.42543386808E+03  0.42543386811E+03  0.50400001928E-02 0.  1.
       -1   -1    0    0    0  501  0.00000000000E+00  0.00000000000E+00 -0.99515833591E+03  0.99515833592E+03  0.50400001928E-02 0. -1.
    10030    2    1    2    0    0  0.00000000000E+00  0.00000000000E+00 -0.56972446783E+03  0.14205922040E+04  0.13013440133E+04 0.  0.
        2    1    3    3  502    0 -0.37315891347E+02  0.56529376726E+03 -0.63422717571E+03  0.85040791945E+03  0.25500000920E-02 0. -1.
       -2    1    3    3    0  502  0.37315891347E+02 -0.56529376726E+03  0.64502707889E+02  0.57018428458E+03  0.25500000920E-02 0.  1.
</event>
<event>
 5   0  0.2756984E-04  0.1299529E+04  0.7818609E-02  0.9029939E-01
       -2   -1    0    0    0  501  0.00000000000E+00  0.00000000000E+00  0.14078046103E+03  0.14078046106E+03  0.25500000920E-02 0.  1.
        2   -1    0    0  501    0  0.00000000000E+00  0.00000000000E+00 -0.29989532038E+04  0.29989532038E+04  0.25500000920E-02 0. -1.
    10030    2    1    2    0    0  0.00000000000E+00  0.00000000000E+00 -0.28581727427E+04  0.31397336648E+04  0.12995291681E+04 0.  0.
        3    1    3    3  502    0 -0.41503047275E+03 -0.43065800095E+02 -0.22568480019E+03  0.47438233071E+03  0.10100000352E+00 0.  1.
       -3    1    3    3    0  502  0.41503047275E+03  0.43065800095E+02 -0.26324879426E+04  0.26653513341E+04  0.10100000352E+00 0. -1.
</event>
<event>
 5   0  0.1430636E-04  0.1298828E+04  0.7818609E-02  0.9030495E-01
        1   -1    0    0  501    0  0.00000000000E+00  0.00000000000E+00  0.74315374886E+03  0.74315374887E+03  0.50400001928E-02 0. -1.
       -1   -1    0    0    0  501  0.00000000000E+00  0.00000000000E+00 -0.56749868655E+03  0.56749868657E+03  0.50400001928E-02 0.  1.
    10030    2    1    2    0    0  0.00000000000E+00  0.00000000000E+00  0.17565506231E+03  0.13106524354E+04  0.12988283588E+04 0.  0.
        4    1    3    3  502    0 -0.87698452591E+02 -0.26399426554E+03 -0.50433076848E+03  0.57596451953E+03  0.12699999809E+01 0.  1.
       -4    1    3    3    0  502  0.87698452591E+02  0.26399426554E+03  0.67998583078E+03  0.73468791591E+03  0.12699999809E+01 0. -1.
</event>
<event>
 5   0  0.2794825E-04  0.1299484E+04  0.7818609E-02  0.9029975E-01
       -2   -1    0    0    0  501  0.00000000000E+00  0.00000000000E+00  0.43114615079E+03  0.43114615080E+03  0.25500000920E-02 0.  1.
        2   -1    0    0  501    0  0.00000000000E+00  0.00000000000E+00 -0.97916783219E+03  0.97916783220E+03  0.25500000920E-02 0. -1.
    10030    2    1    2    0    0  0.00000000000E+00  0.00000000000E+00 -0.54802168140E+03  0.14103139830E+04  0.12994836541E+04 0.  0.
        1    1    3    3  502    0 -0.54891250850E+03  0.48282237529E+02  0.99631483692E+02  0.55996656063E+03  0.50400001928E-02 0.  1.
       -1    1    3    3    0  502  0.54891250850E+03 -0.48282237529E+02 -0.64765316510E+03  0.85034742237E+03  0.50400001928E-02 0. -1.
</event>
<event>
 5   0  0.1475396E-04  0.1306708E+04  0.7818609E-02  0.9024263E-01
       -1   -1    0    0    0  501  0.00000000000E+00  0.00000000000E+00  0.59952443177E+03  0.59952443179E+03  0.50400001928E-02 0.  1.
        1   -1    0    0  501    0  0.00000000000E+00  0.00000000000E+00 -0.71201673829E+03  0.71201673831E+03  0.50400001928E-02 0. -1.
    10030    2    1    2    0    0  0.00000000000E+00  0.00000000000E+00 -0.11249230652E+03  0.13115411701E+04  0.13067079711E+04 0.  0.
        3    1    3    3  502    0 -0.16186117619E+03 -0.44322483970E+03  0.39733698938E+03  0.61686626769E+03  0.10100000352E+00 0.  1.
       -3    1    3    3    0  502  0.16186117619E+03  0.44322483970E+03 -0.50982929590E+03  0.69467490241E+03  0.10100000352E+00 0. -1.
</event>
<event>
 5   0  0.2573071E-04  0.1301950E+04  0.7818609E-02  0.9028020E-01
       -2   -1    0    0    0  501  0.00000000000E+00  0.00000000000E+00  0.39021152612E+03  0.39021152613E+03  0.25500000920E-02 0. -1.
        2   -1    0    0  501    0  0.00000000000E+00  0.00000000000E+00 -0.10859971535E+04  0.10859971535E+04  0.25500000920E-02 0.  1.
    10030    2    1    2    0    0  0.00000000000E+00  0.00000000000E+00 -0.69578562741E+03  0.14762086797E+04  0.13019502397E+04 0.  0.
        4    1    3    3  502    0  0.18743824172E+03 -0.62326936756E+03 -0.36264127809E+03  0.74505577541E+03  0.12699999809E+01 0.  1.
       -4    1    3    3    0  502 -0.18743824172E+03  0.62326936756E+03 -0.33314434931E+03  0.73115290424E+03  0.12699999809E+01 0. -1.
</event>
<event>
 5   0  0.1002887E-04  0.1301319E+04  0.7818609E-02  0.9028520E-01
        3   -1    0    0  501    0  0.00000000000E+00  0.00000000000E+00  0.50447941589E+03  0.50447942600E+03  0.10100000352E+00 0. -1.
       -3   -1    0    0    0  501  0.00000000000E+00  0.00000000000E+00 -0.83919679528E+03  0.83919680136E+03  0.10100000352E+00 0.  1.
    10030    2    1    2    0    0  0.00000000000E+00  0.00000000000E+00 -0.33471737939E+03  0.13436762274E+04  0.13013185928E+04 0.  0.
        3    1    3    3  502    0  0.17589380278E+03  0.46342719672E+03  0.26785107638E+03  0.56342488926E+03  0.10100000352E+00 0. -1.
       -3    1    3    3    0  502 -0.17589380278E+03 -0.46342719672E+03 -0.60256845577E+03  0.78025133810E+03  0.10100000352E+00 0.  1.
</event>
<event>
 5   0  0.2573071E-04  0.1298322E+04  0.7818609E-02  0.9030897E-01
        2   -1    0    0  501    0  0.00000000000E+00  0.00000000000E+00  0.77026459063E+03  0.77026459063E+03  0.25500000920E-02 0. -1.
       -2   -1    0    0    0  501  0.00000000000E+00  0.00000000000E+00 -0.54709793089E+03  0.54709793090E+03  0.25500000920E-02 0.  1.
    10030    2    1    2    0    0  0.00000000000E+00  0.00000000000E+00  0.22316665974E+03  0.13173625215E+04  0.12983222463E+04 0.  0.
        4    1    3    3  502    0  0.27451317556E+03  0.40308772230E+03  0.54631898687E+03  0.73232727912E+03  0.12699999809E+01 0. -1.
       -4    1    3    3    0  502 -0.27451317556E+03 -0.40308772230E+03 -0.32315232713E+03  0.58503524241E+03  0.12699999809E+01 0.  1.
</event>
<event>
 5   0  0.2661377E-04  0.1299129E+04  0.7818609E-02  0.9030256E-01
       -2   -1    0    0    0  501  0.00000000000E+00  0.00000000000E+00  0.76683979617E+03  0.76683979617E+03  0.25500000920E-02 0. -1.
        2   -1    0    0  501    0  0.00000000000E+00  0.00000000000E+00 -0.55022484520E+03  0.55022484520E+03  0.25500000920E-02 0.  1.
    10030    2    1    2    0    0  0.00000000000E+00  0.00000000000E+00  0.21661495097E+03  0.13170646414E+04  0.12991294133E+04 0.  0.
        5    1    3    3  502    0  0.49529454627E+03 -0.35722143871E+02 -0.31618474539E+03  0.58871694586E+03  0.46999998093E+01 0.  1.
       -5    1    3    3    0  502 -0.49529454627E+03  0.35722143871E+02  0.53279969636E+03  0.72834769552E+03  0.46999998093E+01 0. -1.
</event>
<event>
 5   0  0.2723209E-04  0.1300077E+04  0.7818609E-02  0.9029504E-01
       -2   -1    0    0    0  501  0.00000000000E+00  0.00000000000E+00  0.48455416787E+03  0.48455416788E+03  0.25500000920E-02 0. -1.
        2   -1    0    0  501    0  0.00000000000E+00  0.00000000000E+00 -0.87203893662E+03  0.87203893663E+03  0.25500000920E-02 0.  1.
    10030    2    1    2    0    0  0.00000000000E+00  0.00000000000E+00 -0.38748476876E+03  0.13565931045E+04  0.13000770766E+04 0.  0.
        2    1    3    3  502    0 -0.59803620822E+03  0.16484573168E+03 -0.39642491039E+03  0.73618892356E+03  0.25500000920E-02 0. -1.
       -2    1    3    3    0  502  0.59803620822E+03 -0.16484573168E+03  0.89401416320E+01  0.62040418094E+03  0.25500000920E-02 0.  1.
</event>
<event>
 5   0  0.2756984E-04  0.1305231E+04  0.7818609E-02  0.9025427E-01
       -2   -1    0    0    0  501  0.00000000000E+00  0.00000000000E+00  0.30993619396E+03  0.30993619397E+03  0.25500000920E-02 0. -1.
        2   -1    0    0  501    0  0.00000000000E+00  0.00000000000E+00 -0.13741756425E+04  0.13741756425E+04  0.25500000920E-02 0.  1.
    10030    2    1    2    0    0  0.00000000000E+00  0.00000000000E+00 -0.10642394486E+04  0.16841118365E+04  0.13052306593E+04 0.  0.
        3    1    3    3  502    0  0.43699501345E+03  0.34852601570E+03 -0.96675753576E+03  0.11167162435E+04  0.10100000352E+00 0.  1.
       -3    1    3    3    0  502 -0.43699501345E+03 -0.34852601570E+03 -0.97481912796E+02  0.56739559297E+03  0.10100000352E+00 0. -1.
</event>
<event>
 5   0  0.2756984E-04  0.1300272E+04  0.7818609E-02  0.9029350E-01
        2   -1    0    0  501    0  0.00000000000E+00  0.00000000000E+00  0.40257219158E+03  0.40257219159E+03  0.25500000920E-02 0.  1.
       -2   -1    0    0    0  501  0.00000000000E+00  0.00000000000E+00 -0.10499398417E+04  0.10499398417E+04  0.25500000920E-02 0. -1.
    10030    2    1    2    0    0  0.00000000000E+00  0.00000000000E+00 -0.64736765012E+03  0.14525120333E+04  0.13002716379E+04 0.  0.
        3    1    3    3  502    0  0.21198327274E+02  0.50707731989E+03  0.13021485204E+03  0.52395867711E+03  0.10100000352E+00 0.  1.
       -3    1    3    3    0  502 -0.21198327274E+02 -0.50707731989E+03 -0.77758250216E+03  0.92855335619E+03  0.10100000352E+00 0. -1.
</event>
<event>
 5   0  0.2723209E-04  0.1298308E+04  0.7818609E-02  0.9030908E-01
       -2   -1    0    0    0  501  0.00000000000E+00  0.00000000000E+00  0.36560184711E+03  0.36560184712E+03  0.25500000920E-02 0.  1.
        2   -1    0    0  501    0  0.00000000000E+00  0.00000000000E+00 -0.11526226029E+04  0.11526226029E+04  0.25500000920E-02 0. -1.
    10030    2    1    2    0    0  0.00000000000E+00  0.00000000000E+00 -0.78702075576E+03  0.15182244500E+04  0.12983080569E+04 0.  0.
        2    1    3    3  502    0  0.41731141253E+03 -0.79217489990E+02 -0.96755516775E+03  0.10566869112E+04  0.25500000920E-02 0. -1.
       -2    1    3    3    0  502 -0.41731141253E+03  0.79217489990E+02  0.18053441199E+03  0.46153753874E+03  0.25500000920E-02 0.  1.
</event>
<event>
 5   0  0.1002887E-04  0.1298545E+04  0.7818609E-02  0.9030720E-01
       -3   -1    0    0    0  501  0.00000000000E+00  0.00000000000E+00  0.68662447703E+03  0.68662448446E+03  0.10100000352E+00 0. -1.
        3   -1    0    0  501    0  0.00000000000E+00  0.00000000000E+00 -0.61395244943E+03  0.61395245774E+03  0.10100000352E+00 0.  1.
    10030    2    1    2    0    0  0.00000000000E+00  0.00000000000E+00  0.72672027602E+02  0.13005769422E+04  0.12985450162E+04 0.  0.
        1    1    3    3  502    0 -0.59058102937E+03 -0.66110076868E+02 -0.22560389929E+03  0.63565211705E+03  0.50400001928E-02 0.  1.
       -1    1    3    3    0  502  0.59058102937E+03  0.66110076868E+02  0.29827592689E+03  0.66492482515E+03  0.50400001928E-02 0. -1.
</event>
<event>
 5   0  0.1002887E-04  0.1297071E+04  0.7818609E-02  0.9031891E-01
       -4   -1    0    0    0  501  0.00000000000E+00  0.00000000000E+00  0.76657412638E+03  0.76657517839E+03  0.12699999809E+01 0. -1.
        4   -1    0    0  501    0  0.00000000000E+00  0.00000000000E+00 -0.54867057358E+03  0.54867204340E+03  0.12699999809E+01 0.  1.
    10030    2    1    2    0    0  0.00000000000E+00  0.00000000000E+00  0.21790355280E+03  0.13152472218E+04  0.12970710451E+04 0.  0.
        3    1    3    3  502    0  0.49580730145E+03  0.36581814959E+03  0.31414986589E+03  0.69161979959E+03  0.10100000352E+00 0. -1.
       -3    1    3    3    0  502 -0.49580730145E+03 -0.36581814959E+03 -0.96246313093E+02  0.62362742221E+03  0.10100000352E+00 0.  1.
</event>
<event>
 5   0  0.2756984E-04  0.1298058E+04  0.7818609E-02  0.9031107E-01
        2   -1    0    0  501    0  0.00000000000E+00  0.00000000000E+00  0.11914021814E+04  0.11914021814E+04  0.25500000920E-02 0. -1.
       -2   -1    0    0    0  501  0.00000000000E+00  0.00000000000E+00 -0.35356528084E+03  0.35356528085E+03  0.25500000920E-02 0.  1.
    10030    2    1    2    0    0  0.00000000000E+00  0.00000000000E+00  0.83783690052E+03  0.15449674622E+04  0.12980576980E+04 0.  0.
        3    1    3    3  502    0  0.36446022879E+03  0.36171453312E+03 -0.53538016193E+02  0.51627026955E+03  0.10100000352E+00 0.  1.
       -3    1    3    3    0  502 -0.36446022879E+03 -0.36171453312E+03  0.89137491671E+03  0.10286971927E+04  0.10100000352E+00 0. -1.
</event>
<event>
 5   0  0.1430636E-04  0.1304351E+04  0.7818609E-02  0.9026122E-01
        1   -1    0    0  501    0  0.00000000000E+00  0.00000000000E+00  0.44680683884E+03  0.44680683886E+03  0.50400001928E-02 0. -1.
       -1   -1    0    0    0  501  0.00000000000E+00  0.00000000000E+00 -0.95193883147E+03  0.95193883148E+03  0.50400001928E-02 0.  1.
    10030    2    1    2    0    0  0.00000000000E+00  0.00000000000E+00 -0.50513199263E+03  0.13987456703E+04  0.13043508425E+04 0.  0.
        4    1    3    3  502    0  0.38621549373E+03 -0.58661770901E+02 -0.81259283769E+03  0.90161651700E+03  0.12699999809E+01 0.  1.
       -4    1    3    3    0  502 -0.38621549373E+03  0.58661770901E+02  0.30746084506E+03  0.49712915334E+03  0.12699999809E+01 0. -1.
</event>
<event>
 5   0  0.2794825E-04  0.1301119E+04  0.7818609E-02  0.9028678E-01
        2   -1    0    0  501    0  0.00000000000E+00  0.00000000000E+00  0.11551668916E+04  0.11551668917E+04  0.25500000920E-02 0. -1.
       -2   -1    0    0    0  501  0.00000000000E+00  0.00000000000E+00 -0.36637796563E+03  0.36637796564E+03  0.25500000920E-02 0.  1.
    10030    2    1    2    0    0  0.00000000000E+00  0.00000000000E+00  0.78878892602E+03  0.15215448573E+04  0.13011190503E+04 0.  0.
        1    1    3    3  502    0  0.19746854351E+03 -0.94690487020E+01  0.11191889297E+04  0.11365154415E+04  0.50400001928E-02 0. -1.
       -1    1    3    3    0  502 -0.19746854351E+03  0.94690487020E+01 -0.33040000365E+03  0.38502941575E+03  0.50400001928E-02 0.  1.
</event>
<event>
 5   0  0.2723209E-04  0.1298219E+04  0.7818609E-02  0.9030978E-01
       -2   -1    0    0    0  501  0.00000000000E+00  0.00000000000E+00  0.38063621156E+03  0.38063621157E+03  0.25500000920E-02 0. -1.
        2   -1    0    0  501    0  0.00000000000E+00  0.00000000000E+00 -0.11069452851E+04  0.11069452851E+04  0.25500000920E-02 0.  1.
    10030    2    1    2    0    0  0.00000000000E+00  0.00000000000E+00 -0.72630907353E+03  0.14875814967E+04  0.12982194880E+04 0.  0.
        2    1    3    3  502    0  0.11207870388E+03 -0.13791264074E+03  0.35221814357E+03  0.39451128375E+03  0.25500000920E-02 0. -1.
       -2    1    3    3    0  502 -0.11207870388E+03  0.13791264074E+03 -0.10785272171E+04  0.10930702129E+04  0.25500000920E-02 0.  1.
</event>
<event>
 5   0  0.1476511E-04  0.1299776E+04  0.7818609E-02  0.9029742E-01
       -1   -1    0    0    0  501  0.00000000000E+00  0.00000000000E+00  0.93441935809E+03  0.93441935811E+03  0.50400001928E-02 0.  1.
        1   -1    0    0  501    0  0.00000000000E+00  0.00000000000E+00 -0.45199695258E+03  0.45199695261E+03  0.50400001928E-02 0. -1.
    10030    2    1    2    0    0  0.00000000000E+00  0.00000000000E+00  0.48242240551E+03  0.13864163107E+04  0.12997764459E+04 0.  0.
        2    1    3    3  502    0 -0.39484074216E+03 -0.45551639427E+03  0.50021424059E+03  0.78333178387E+03  0.25500000920E-02 0.  1.
       -2    1    3    3    0  502  0.39484074216E+03  0.45551639427E+03 -0.17791835081E+02  0.60308452685E+03  0.25500000920E-02 0. -1.
</event>
<event>
 5   0  0.2661377E-04  0.1298187E+04  0.7818609E-02  0.9031004E-01
       -2   -1    0    0    0  501  0.00000000000E+00  0.00000000000E+00  0.68425282345E+03  0.68425282346E+03  0.25500000920E-02 0. -1.
        2   -1    0    0  501    0  0.00000000000E+00  0.00000000000E+00 -0.61574052090E+03  0.61574052091E+03  0.25500000920E-02 0.  1.
    10030    2    1    2    0    0  0.00000000000E+00  0.00000000000E+00  0.68512302550E+02  0.12999933444E+04  0.12981867199E+04 0.  0.
        5    1    3    3  502    0  0.12669251399E+03  0.31845998081E+03  0.58623313796E+03  0.67908698597E+03  0.46999998093E+01 0. -1.
       -5    1    3    3    0  502 -0.12669251399E+03 -0.31845998081E+03 -0.51772083541E+03  0.62090635839E+03  0.46999998093E+01 0.  1.
</event>
<event>
 5   0  0.1475396E-04  0.1300186E+04  0.7818609E-02  0.9029417E-01
        1   -1    0    0  501    0  0.00000000000E+00  0.00000000000E+00  0.75960192018E+03  0.75960192020E+03  0.50400001928E-02 0. -1.
       -1   -1    0    0    0  501  0.00000000000E+00  0.00000000000E+00 -0.55637188749E+03  0.55637188751E+03  0.50400001928E-02 0.  1.
    10030    2    1    2    0    0  0.00000000000E+00  0.00000000000E+00  0.20323003269E+03  0.13159738077E+04  0.13001863776E+04 0.  0.
        3    1    3    3  502    0  0.28541483467E+03  0.58291811380E+03  0.64206956858E+02  0.65220985791E+03  0.10100000352E+00 0.  1.
       -3    1    3    3    0  502 -0.28541483467E+03 -0.58291811380E+03  0.13902307583E+03  0.66376394980E+03  0.10100000352E+00 0. -1.
</event>
<event>
 5   0  0.1475396E-04  0.1298769E+04  0.7818609E-02  0.9030542E-01
       -1   -1    0    0    0  501  0.00000000000E+00  0.00000000000E+00  0.36991834671E+03  0.36991834674E+03  0.50400001928E-02 0.  1.
        1   -1    0    0  501    0  0.00000000000E+00  0.00000000000E+00 -0.11399826757E+04  0.11399826758E+04  0.50400001928E-02 0. -1.
    10030    2    1    2    0    0  0.00000000000E+00  0.00000000000E+00 -0.77006432904E+03  0.15099010225E+04  0.12987694279E+04 0.  0.
        3    1    3    3  502    0 -0.97028319020E+02  0.13112042860E+03  0.34571363702E+03  0.38226298606E+03  0.10100000352E+00 0.  1.
       -3    1    3    3    0  502  0.97028319020E+02 -0.13112042860E+03 -0.11157779661E+04  0.11276380364E+04  0.10100000352E+00 0. -1.
</event>
<event>
 5   0  0.1430636E-04  0.1299659E+04  0.7818609E-02  0.9029836E-01
       -1   -1    0    0    0  501  0.00000000000E+00  0.00000000000E+00  0.94407838701E+03  0.94407838702E+03  0.50400001928E-02 0. -1.
        1   -1    0    0  501    0  0.00000000000E+00  0.00000000000E+00 -0.44729146640E+03  0.44729146643E+03  0.50400001928E-02 0.  1.
    10030    2    1    2    0    0  0.00000000000E+00  0.00000000000E+00  0.49678692061E+03  0.13913698535E+04  0.12996587339E+04 0.  0.
        4    1    3    3  502    0  0.13631127308E+00 -0.48058434825E+03  0.71665454260E+03  0.86287697889E+03  0.12699999809E+01 0. -1.
       -4    1    3    3    0  502 -0.13631127308E+00  0.48058434825E+03 -0.21986762199E+03  0.52849287456E+03  0.12699999809E+01 0.  1.
</event>
<event>
 5   0  0.2573071E-04  0.1308778E+04  0.7818609E-02  0.9022633E-01
       -2   -1    0    0    0  501  0.00000000000E+00  0.00000000000E+00  0.33858552260E+03  0.33858552261E+03  0.25500000920E-02 0.  1.
        2   -1    0    0  501    0  0.00000000000E+00  0.00000000000E+00 -0.12647469575E+04  0.12647469575E+04  0.25500000920E-02 0. -1.
    10030    2    1    2    0    0  0.00000000000E+00  0.00000000000E+00 -0.92616143487E+03  0.16033324801E+04  0.13087780707E+04 0.  0.
        4    1    3    3  502    0  0.61387018222E+03 -0.72090000327E+02 -0.19979290686E+03  0.64957862287E+03  0.12699999809E+01 0.  1.
       -4    1    3    3    0  502 -0.61387018222E+03  0.72090000327E+02 -0.72636852800E+03  0.95375385721E+03  0.12699999809E+01 0. -1.
</event>
<event>
 5   0  0.2723209E-04  0.1300575E+04  0.7818609E-02  0.9029109E-01
        2   -1    0    0  501    0  0.00000000000E+00  0.00000000000E+00  0.41191554096E+03  0.41191554097E+03  0.25500000920E-02 0. -1.
       -2   -1    0    0    0  501  0.00000000000E+00  0.00000000000E+00 -0.10266032295E+04  0.10266032295E+04  0.25500000920E-02 0.  1.
    10030    2    1    2    0    0  0.00000000000E+00  0.00000000000E+00 -0.61468768858E+03  0.14385187705E+04  0.13005749877E+04 0.  0.
        2    1    3    3  502    0 -0.45943994145E+03  0.22333830254E+03  0.13771283070E+03  0.52908400177E+03  0.25500000920E-02 0. -1.
       -2    1    3    3    0  502  0.45943994145E+03 -0.22333830254E+03 -0.75240051928E+03  0.90943476874E+03  0.25500000920E-02 0.  1.
</event>
<event>
 5   0  0.2573071E-04  0.1299075E+04  0.7818609E-02  0.9030299E-01
        2   -1    0    0  501    0  0.00000000000E+00  0.00000000000E+00  0.57349571688E+03  0.57349571689E+03  0.25500000920E-02 0.  1.
       -2   -1    0    0    0  501  0.00000000000E+00  0.00000000000E+00 -0.73566168667E+03  0.73566168668E+03  0.25500000920E-02 0. -1.
    10030    2    1    2    0    0  0.00000000000E+00  0.00000000000E+00 -0.16216596979E+03  0.13091574036E+04  0.12990747883E+04 0.  0.
        4    1    3    3  502    0  0.19467346638E+03  0.47816499858E+03 -0.47829656518E+03  0.70378174283E+03  0.12699999809E+01 0. -1.
       -4    1    3    3    0  502 -0.19467346638E+03 -0.47816499858E+03  0.31613059539E+03  0.60537566074E+03  0.12699999809E+01 0.  1.
</event>
<event>
 5   0  0.2794825E-04  0.1304372E+04  0.7818609E-02  0.9026105E-01
        2   -1    0    0  501    0  0.00000000000E+00  0.00000000000E+00  0.72352985545E+03  0.72352985546E+03  0.25500000920E-02 0. -1.
       -2   -1    0    0    0  501  0.00000000000E+00  0.00000000000E+00 -0.58787692573E+03  0.58787692574E+03  0.25500000920E-02 0.  1.
    10030    2    1    2    0    0  0.00000000000E+00  0.00000000000E+00  0.13565292972E+03  0.13114067812E+04  0.13043718904E+04 0.  0.
        1    1    3    3  502    0  0.96975747523E+02 -0.52994452630E+03  0.43736973081E+03  0.69392923128E+03  0.50400001928E-02 0. -1.
       -1    1    3    3    0  502 -0.96975747523E+02  0.52994452630E+03 -0.30171680109E+03  0.61747754992E+03  0.50400001928E-02 0.  1.
</event>
<event>
 5   0  0.2756984E-04  0.1300133E+04  0.7818609E-02  0.9029460E-01
        2   -1    0    0  501    0  0.00000000000E+00  0.00000000000E+00  0.10849037943E+04  0.10849037943E+04  0.25500000920E-02 0.  1.
       -2   -1    0    0    0  501  0.00000000000E+00  0.00000000000E+00 -0.38951517353E+03  0.38951517354E+03  0.25500000920E-02 0. -1.
    10030    2    1    2    0    0  0.00000000000E+00  0.00000000000E+00  0.69538862079E+03  0.14744189679E+04  0.13001330543E+04 0.  0.
        3    1    3    3  502    0  0.88500912268E+02 -0.31920180878E+03 -0.28662962011E+03  0.43803967346E+03  0.10100000352E+00 0. -1.
       -3    1    3    3    0  502 -0.88500912268E+02  0.31920180878E+03  0.98201824090E+03  0.10363792944E+04  0.10100000352E+00 0.  1.
</event>
<event>
 5   0  0.1479690E-04  0.1294509E+04  0.7818609E-02  0.9033931E-01
       -1   -1    0    0    0  501  0.00000000000E+00  0.00000000000E+00  0.91114886875E+03  0.91114886877E+03  0.50400001928E-02 0. -1.
        1   -1    0    0  501    0  0.00000000000E+00  0.00000000000E+00 -0.45979122950E+03  0.45979122953E+03  0.50400001928E-02 0.  1.
    10030    2    1    2    0    0  0.00000000000E+00  0.00000000000E+00  0.45135763925E+03  0.13709400983E+04  0.12945088005E+04 0.  0.
        1    1    3    3  502    0  0.64070963153E+03  0.90212167096E+02  0.20760695813E+03  0.67952021024E+03  0.50400001928E-02 0. -1.
       -1    1    3    3    0  502 -0.64070963153E+03 -0.90212167096E+02  0.24375068113E+03  0.69141988806E+03  0.50400001928E-02 0.  1.
</event>
<event>
 5   0  0.2723209E-04  0.1303159E+04  0.7818609E-02  0.9027064E-01
        2   -1    0    0  501    0  0.00000000000E+00  0.00000000000E+00  0.12619659727E+04  0.12619659727E+04  0.25500000920E-02 0.  1.
       -2   -1    0    0    0  501  0.00000000000E+00  0.00000000000E+00 -0.33642419141E+03  0.33642419142E+03  0.25500000920E-02 0. -1.
    10030    2    1    2    0    0  0.00000000000E+00  0.00000000000E+00  0.92554178124E+03  0.15983901641E+04  0.13031590570E+04 0.  0.
        2    1    3    3  502    0 -0.28166740143E+03  0.58704982303E+03  0.49261067444E+03  0.81647369604E+03  0.25500000920E-02 0.  1.
       -2    1    3    3    0  502  0.28166740143E+03 -0.58704982303E+03  0.43293110681E+03  0.78191646804E+03  0.25500000920E-02 0. -1.
</event>
<event>
 5   0  0.1476511E-04  0.1298169E+04  0.7818609E-02  0.9031018E-01
        1   -1    0    0  501    0  0.00000000000E+00  0.00000000000E+00  0.52906128098E+03  0.52906128100E+03  0.50400001928E-02 0. -1.
       -1   -1    0    0    0  501  0.00000000000E+00  0.00000000000E+00 -0.79633672103E+03  0.79633672104E+03  0.50400001928E-02 0.  1.
    10030    2    1    2    0    0  0.00000000000E+00  0.00000000000E+00 -0.26727544005E+03  0.13253980020E+04  0.12981693661E+04 0.  0.
        2    1    3    3  502    0 -0.44548712420E+03 -0.17870338160E+03  0.31246774060E+03  0.57273882822E+03  0.25500000920E-02 0. -1.
       -2    1    3    3    0  502  0.44548712420E+03  0.17870338160E+03 -0.57974318065E+03  0.75265917382E+03  0.25500000920E-02 0.  1.
</event>
<event>
 5   0  0.2573071E-04  0.1300024E+04  0.7818609E-02  0.9029546E-01
        2   -1    0    0  501    0  0.00000000000E+00  0.00000000000E+00  0.23171250473E+04  0.23171250473E+04  0.25500000920E-02 0. -1.
       -2   -1    0    0    0  501  0.00000000000E+00  0.00000000000E+00 -0.18234463203E+03  0.18234463205E+03  0.25500000920E-02 0.  1.
    10030    2    1    2    0    0  0.00000000000E+00  0.00000000000E+00  0.21347804152E+04  0.24994696793E+04  0.13000235600E+04 0.  0.
        4    1    3    3  502    0 -0.61154018575E+03 -0.74953917599E+02  0.66910220517E+03  0.90955970800E+03  0.12699999809E+01 0.  1.
       -4    1    3    3    0  502  0.61154018575E+03  0.74953917599E+02  0.14656782101E+04  0.15899099713E+04  0.12699999809E+01 0. -1.
</event>
<event>
 5   0  0.2573071E-04  0.1294929E+04  0.7818609E-02  0.9033596E-01
        2   -1    0    0  501    0  0.00000000000E+00  0.00000000000E+00  0.11735585874E+04  0.11735585874E+04  0.25500000920E-02 0.  1.
       -2   -1    0    0    0  501  0.00000000000E+00  0.00000000000E+00 -0.35721307597E+03  0.35721307598E+03  0.25500000920E-02 0. -1.
    10030    2    1    2    0    0  0.00000000000E+00  0.00000000000E+00  0.81634551139E+03  0.15307716633E+04  0.12949292997E+04 0.  0.
        4    1    3    3  502    0  0.27902985311E+03  0.21837693785E+03 -0.23242993842E+03  0.42375869913E+03  0.12699999809E+01 0. -1.
       -4    1    3    3    0  502 -0.27902985311E+03 -0.21837693785E+03  0.10487754498E+04  0.11070129642E+04  0.12699999809E+01 0.  1.
</event>
<event>
 5   0  0.1479690E-04  0.1299827E+04  0.7818609E-02  0.9029703E-01
        1   -1    0    0  501    0  0.00000000000E+00  0.00000000000E+00  0.10791593660E+04  0.10791593660E+04  0.50400001928E-02 0. -1.
       -1   -1    0    0    0  501  0.00000000000E+00  0.00000000000E+00 -0.39140396023E+03  0.39140396027E+03  0.50400001928E-02 0.  1.
    10030    2    1    2    0    0  0.00000000000E+00  0.00000000000E+00  0.68775540574E+03  0.14705633263E+04  0.12998265263E+04 0.  0.
        1    1    3    3  502    0  0.41107771274E+03  0.36298968408E+03  0.73846042430E+03  0.91982074066E+03  0.50400001928E-02 0. -1.
       -1    1    3    3    0  502 -0.41107771274E+03 -0.36298968408E+03 -0.50705018557E+02  0.55074258560E+03  0.50400001928E-02 0.  1.
</event>
<event>
 5   0  0.1475396E-04  0.1299739E+04  0.7818609E-02  0.9029772E-01
        1   -1    0    0  501    0  0.00000000000E+00  0.00000000000E+00  0.15194359046E+04  0.15194359046E+04  0.50400001928E-02 0. -1.
       -1   -1    0    0    0  501  0.00000000000E+00  0.00000000000E+00 -0.27795211182E+03  0.27795211186E+03  0.50400001928E-02 0.  1.
    10030    2    1    2    0    0  0.00000000000E+00  0.00000000000E+00  0.12414837928E+04  0.17973880165E+04  0.12997390792E+04 0.  0.
        3    1    3    3  502    0 -0.18257009444E+03  0.35255799658E+03  0.13322237156E+04  0.13901255407E+04  0.10100000352E+00 0. -1.
       -3    1    3    3    0  502  0.18257009444E+03 -0.35255799658E+03 -0.90739922853E+02  0.40726247573E+03  0.10100000352E+00 0.  1.
</event>
<event>
 5   0  0.2756984E-04  0.1324864E+04  0.7818609E-02  0.9010077E-01
       -2   -1    0    0    0  501  0.00000000000E+00  0.00000000000E+00  0.21086744640E+03  0.21086744642E+03  0.25500000920E-02 0. -1.
        2   -1    0    0  501    0  0.00000000000E+00  0.00000000000E+00 -0.20810049340E+04  0.20810049340E+04  0.25500000920E-02 0.  1.
    10030    2    1    2    0    0  0.00000000000E+00  0.00000000000E+00 -0.18701374876E+04  0.22918723804E+04  0.13248640631E+04 0.  0.
        3    1    3    3  502    0  0.90980601676E+02  0.22767697210E+03 -0.19996231460E+04  0.20145984735E+04  0.10100000352E+00 0.  1.
       -3    1    3    3    0  502 -0.90980601676E+02 -0.22767697210E+03  0.12948565838E+03  0.27727390687E+03  0.10100000352E+00 0. -1.
</event>
<event>
 5   0  0.1408341E-04  0.1297911E+04  0.7818609E-02  0.9031223E-01
        1   -1    0    0  501    0  0.00000000000E+00  0.00000000000E+00  0.56272189596E+03  0.56272189598E+03  0.50400001928E-02 0.  1.
       -1   -1    0    0    0  501  0.00000000000E+00  0.00000000000E+00 -0.74840378658E+03  0.74840378660E+03  0.50400001928E-02 0. -1.
    10030    2    1    2    0    0  0.00000000000E+00  0.00000000000E+00 -0.18568189062E+03  0.13111256826E+04  0.12979109334E+04 0.  0.
        5    1    3    3  502    0  0.62819062935E+03 -0.42877161375E+02 -0.25147222835E+03  0.67802823643E+03  0.46999998093E+01 0.  1.
       -5    1    3    3    0  502 -0.62819062935E+03  0.42877161375E+02  0.65790337729E+02  0.63309744614E+03  0.46999998093E+01 0. -1.
</event>
<event>
 5   0  0.1430636E-04  0.1298029E+04  0.7818609E-02  0.9031130E-01
        1   -1    0    0  501    0  0.00000000000E+00  0.00000000000E+00  0.11590297482E+04  0.11590297482E+04  0.50400001928E-02 0. -1.
       -1   -1    0    0    0  501  0.00000000000E+00  0.00000000000E+00 -0.36342443072E+03  0.36342443076E+03  0.50400001928E-02 0.  1.
    10030    2    1    2    0    0  0.00000000000E+00  0.00000000000E+00  0.79560531747E+03  0.15224541790E+04  0.12980288540E+04 0.  0.
        4    1    3    3  502    0 -0.51740567048E+03  0.11366220138E+03  0.83758491336E+03  0.99104885039E+03  0.12699999809E+01 0. -1.
       -4    1    3    3    0  502  0.51740567048E+03 -0.11366220138E+03 -0.41979595885E+02  0.53140532858E+03  0.12699999809E+01 0.  1.
</event>
<event>
 5   0  0.2573071E-04  0.1299531E+04  0.7818609E-02  0.9029937E-01
        2   -1    0    0  501    0  0.00000000000E+00  0.00000000000E+00  0.44002778807E+03  0.44002778808E+03  0.25500000920E-02 0.  1.
       -2   -1    0    0    0  501  0.00000000000E+00  0.00000000000E+00 -0.95947435416E+03  0.95947435416E+03  0.25500000920E-02 0. -1.
    10030    2    1    2    0    0  0.00000000000E+00  0.00000000000E+00 -0.51944656609E+03  0.13995021422E+04  0.12995312659E+04 0.  0.
        4    1    3    3  502    0  0.24368252610E+03  0.53468424425E+03  0.38967331272E+02  0.58888749382E+03  0.12699999809E+01 0.  1.
       -4    1    3    3    0  502 -0.24368252610E+03 -0.53468424425E+03 -0.55841389736E+03  0.81061464842E+03  0.12699999809E+01 0. -1.
</event>
<event>
 5   0  0.2794825E-04  0.1295227E+04  0.7818609E-02  0.9033359E-01
        2   -1    0    0  501    0  0.00000000000E+00  0.00000000000E+00  0.11974305575E+04  0.11974305575E+04  0.25500000920E-02 0.  1.
       -2   -1    0    0    0  501  0.00000000000E+00  0.00000000000E+00 -0.35025262275E+03  0.35025262276E+03  0.25500000920E-02 0. -1.
    10030    2    1    2    0    0  0.00000000000E+00  0.00000000000E+00  0.84717793475E+03  0.15476831803E+04  0.12952269196E+04 0.  0.
        1    1    3    3  502    0  0.13803244087E+03 -0.20225226457E+03 -0.29280509412E+03  0.38169851509E+03  0.50400001928E-02 0. -1.
       -1    1    3    3    0  502 -0.13803244087E+03  0.20225226457E+03  0.11399830289E+04  0.11659846652E+04  0.50400001928E-02 0.  1.
</event>
<event>
 5   0  0.1476511E-04  0.1299968E+04  0.7818609E-02  0.9029591E-01
        1   -1    0    0  501    0  0.00000000000E+00  0.00000000000E+00  0.16378114602E+04  0.16378114602E+04  0.50400001928E-02 0. -1.
       -1   -1    0    0    0  501  0.00000000000E+00  0.00000000000E+00 -0.25795331294E+03  0.25795331299E+03  0.50400001928E-02 0.  1.
    10030    2    1    2    0    0  0.00000000000E+00  0.00000000000E+00  0.13798581472E+04  0.18957647732E+04  0.12999675260E+04 0.  0.
        2    1    3    3  502    0  0.11837226038E+03 -0.99121909274E+02 -0.23082433302E+03  0.27769950962E+03  0.25500000920E-02 0.  1.
       -2    1    3    3    0  502 -0.11837226038E+03  0.99121909274E+02  0.16106824802E+04  0.16180652635E+04  0.25500000920E-02 0. -1.
</event>
<event>
 5   0  0.2723209E-04  0.1300063E+04  0.7818609E-02  0.9029515E-01
       -2   -1    0    0    0  501  0.00000000000E+00  0.00000000000E+00  0.35585751738E+03  0.35585751739E+03  0.25500000920E-02 0. -1.
        2   -1    0    0  501    0  0.00000000000E+00  0.00000000000E+00 -0.11873885720E+04  0.11873885720E+04  0.25500000920E-02 0.  1.
    10030    2    1    2    0    0  0.00000000000E+00  0.00000000000E+00 -0.83153105464E+03  0.15432460894E+04  0.13000633053E+04 0.  0.
        2    1    3    3  502    0 -0.58665912936E+03  0.29449240427E+02 -0.85292950919E+02  0.59355798310E+03  0.25500000920E-02 0. -1.
       -2    1    3    3    0  502  0.58665912936E+03 -0.29449240427E+02 -0.74623810372E+03  0.94968810631E+03  0.25500000920E-02 0.  1.
</event>
<event>
 5   0  0.2794825E-04  0.1295927E+04  0.7818609E-02  0.9032802E-01
       -2   -1    0    0    0  501  0.00000000000E+00  0.00000000000E+00  0.45458033182E+03  0.45458033182E+03  0.25500000920E-02 0.  1.
        2   -1    0    0  501    0  0.00000000000E+00  0.00000000000E+00 -0.92361352318E+03  0.92361352318E+03  0.25500000920E-02 0. -1.
    10030    2    1    2    0    0  0.00000000000E+00  0.00000000000E+00 -0.46903319136E+03  0.13781938550E+04  0.12959267600E+04 0.  0.
        1    1    3    3  502    0  0.74262388578E+01 -0.44222955786E+03 -0.73811109922E+03  0.86048249586E+03  0.50400001928E-02 0. -1.
       -1    1    3    3    0  502 -0.74262388578E+01  0.44222955786E+03  0.26907790785E+03  0.51771135915E+03  0.50400001928E-02 0.  1.
</event>
<event>
 5   0  0.2756984E-04  0.1299320E+04  0.7818609E-02  0.9030105E-01
       -2   -1    0    0    0  501  0.00000000000E+00  0.00000000000E+00  0.29711289819E+03  0.29711289820E+03  0.25500000920E-02 0. -1.
        2   -1    0    0  501    0  0.00000000000E+00  0.00000000000E+00 -0.14205305496E+04  0.14205305496E+04  0.25500000920E-02 0.  1.
    10030    2    1    2    0    0  0.00000000000E+00  0.00000000000E+00 -0.11234176514E+04  0.17176434478E+04  0.12993197429E+04 0.  0.
        3    1    3    3  502    0 -0.78153102579E+02  0.57892905212E+03 -0.93745880441E+03  0.11045794562E+04  0.10100000352E+00 0.  1.
       -3    1    3    3    0  502  0.78153102579E+02 -0.57892905212E+03 -0.18595884699E+03  0.61306399161E+03  0.10100000352E+00 0. -1.
</event>
<event>
 5   0  0.2723209E-04  0.1301083E+04  0.7818609E-02  0.9028707E-01
        2   -1    0    0  501    0  0.00000000000E+00  0.00000000000E+00  0.51924328185E+03  0.51924328185E+03  0.25500000920E-02 0. -1.
       -2   -1    0    0    0  501  0.00000000000E+00  0.00000000000E+00 -0.81504040183E+03  0.81504040183E+03  0.25500000920E-02 0.  1.
    10030    2    1    2    0    0  0.00000000000E+00  0.00000000000E+00 -0.29579711998E+03  0.13342836837E+04  0.13010830152E+04 0.  0.
        2    1    3    3  502    0  0.45271043758E+03  0.45050208942E+03 -0.21026722666E+02  0.63901564608E+03  0.25500000920E-02 0. -1.
       -2    1    3    3    0  502 -0.45271043758E+03 -0.45050208942E+03 -0.27477039732E+03  0.69526803760E+03  0.25500000920E-02 0.  1.
</event>
<event>
 5   0  0.1408341E-04  0.1303753E+04  0.7818609E-02  0.9026594E-01
       -1   -1    0    0    0  501  0.00000000000E+00  0.00000000000E+00  0.55585902611E+03  0.55585902613E+03  0.50400001928E-02 0. -1.
        1   -1    0    0  501    0  0.00000000000E+00  0.00000000000E+00 -0.76448030798E+03  0.76448030800E+03  0.50400001928E-02 0.  1.
    10030    2    1    2    0    0  0.00000000000E+00  0.00000000000E+00 -0.20862128188E+03  0.13203393341E+04  0.13037534729E+04 0.  0.
        5    1    3    3  502    0 -0.28705500375E+03  0.44784702212E+03  0.27724983258E+03  0.59988089656E+03  0.46999998093E+01 0. -1.
       -5    1    3    3    0  502  0.28705500375E+03 -0.44784702212E+03 -0.48587111446E+03  0.72045843757E+03  0.46999998093E+01 0.  1.
</event>
<event>
 5   0  0.2573071E-04  0.1305528E+04  0.7818609E-02  0.9025193E-01
       -2   -1    0    0    0  501  0.00000000000E+00  0.00000000000E+00  0.49922810948E+03  0.49922810949E+03  0.25500000920E-02 0.  1.
        2   -1    0    0  501    0  0.00000000000E+00  0.00000000000E+00 -0.85351917757E+03  0.85351917758E+03  0.25500000920E-02 0. -1.
    10030    2    1    2    0    0  0.00000000000E+00  0.00000000000E+00 -0.35429106809E+03  0.13527472871E+04  0.13055278862E+04 0.  0.
        4    1    3    3  502    0 -0.33307411836E+03  0.13407365474E+03  0.38771858696E+03  0.52843299366E+03  0.12699999809E+01 0.  1.
       -4    1    3    3    0  502  0.33307411836E+03 -0.13407365474E+03 -0.74200965506E+03  0.82431429340E+03  0.12699999809E+01 0. -1.
</event>
<event>
 5   0  0.1475396E-04  0.1299843E+04  0.7818609E-02  0.9029690E-01
        1   -1    0    0  501    0  0.00000000000E+00  0.00000000000E+00  0.59392334847E+03  0.59392334849E+03  0.50400001928E-02 0. -1.
       -1   -1    0    0    0  501  0.00000000000E+00  0.00000000000E+00 -0.71119960331E+03  0.71119960333E+03  0.50400001928E-02 0.  1.
    10030    2    1    2    0    0  0.00000000000E+00  0.00000000000E+00 -0.11727625484E+03  0.13051229518E+04  0.12998431442E+04 0.  0.
        3    1    3    3  502    0  0.19690730241E+03  0.51524683158E+03  0.28648213815E+03  0.62154952247E+03  0.10100000352E+00 0. -1.
       -3    1    3    3    0  502 -0.19690730241E+03 -0.51524683158E+03 -0.40375839300E+03  0.68357342935E+03  0.10100000352E+00 0.  1.
</event>
<event>
 5   0  0.1479690E-04  0.1299197E+04  0.7818609E-02  0.9030202E-01
       -1   -1    0    0    0  501  0.00000000000E+00  0.00000000000E+00  0.44648813739E+03  0.44648813742E+03  0.50400001928E-02 0. -1.
        1   -1    0    0  501    0  0.00000000000E+00  0.00000000000E+00 -0.94510575248E+03  0.94510575249E+03  0.50400001928E-02 0.  1.
    10030    2    1    2    0    0  0.00000000000E+00  0.00000000000E+00 -0.49861761509E+03  0.13915938899E+04  0.12991974555E+04 0.  0.
        1    1    3    3  502    0  0.20607116401E+03  0.27218961016E+03  0.34264845493E+03  0.48369460634E+03  0.50400001928E-02 0. -1.
       -1    1    3    3    0  502 -0.20607116401E+03 -0.27218961016E+03 -0.84126607002E+03  0.90789928357E+03  0.50400001928E-02 0.  1.
</event>
<event>
 5   0  0.2756984E-04  0.1299413E+04  0.7818609E-02  0.9030030E-01
        2   -1    0    0  501    0  0.00000000000E+00  0.00000000000E+00  0.28226611057E+04  0.28226611057E+04  0.25500000920E-02 0.  1.
       -2   -1    0    0    0  501  0.00000000000E+00  0.00000000000E+00 -0.14954641144E+03  0.14954641146E+03  0.25500000920E-02 0. -1.
    10030    2    1    2    0    0  0.00000000000E+00  0.00000000000E+00  0.26731146943E+04  0.29722075172E+04  0.12994134663E+04 0.  0.
        3    1    3    3  502    0 -0.20304898176E+03 -0.28144504827E+03  0.25928882276E+04  0.26160102399E+04  0.10100000352E+00 0.  1.
       -3    1    3    3    0  502  0.20304898176E+03  0.28144504827E+03  0.80226466674E+02  0.35619727729E+03  0.10100000352E+00 0. -1.
</event>
<event>
 5   0  0.1002887E-04  0.1300477E+04  0.7818609E-02  0.9029187E-01
       -3   -1    0    0    0  501  0.00000000000E+00  0.00000000000E+00  0.65393018389E+03  0.65393019169E+03  0.10100000352E+00 0.  1.
        3   -1    0    0  501    0  0.00000000000E+00  0.00000000000E+00 -0.64656728178E+03  0.64656728967E+03  0.10100000352E+00 0. -1.
    10030    2    1    2    0    0  0.00000000000E+00  0.00000000000E+00  0.73629021096E+01  0.13004974814E+04  0.13004766383E+04 0.  0.
        4    1    3    3  502    0  0.46884636943E+03 -0.44390770628E+03  0.80736491593E+02  0.65068499583E+03  0.12699999809E+01 0.  1.
       -4    1    3    3    0  502 -0.46884636943E+03  0.44390770628E+03 -0.73373589483E+02  0.64981248553E+03  0.12699999809E+01 0. -1.
</event>
<event>
 5   0  0.1475396E-04  0.1297771E+04  0.7818609E-02  0.9031335E-01
        1   -1    0    0  501    0  0.00000000000E+00  0.00000000000E+00  0.11692179074E+04  0.11692179075E+04  0.50400001928E-02 0. -1.
       -1   -1    0    0    0  501  0.00000000000E+00  0.00000000000E+00 -0.36011437957E+03  0.36011437960E+03  0.50400001928E-02 0.  1.
    10030    2    1    2    0    0  0.00000000000E+00  0.00000000000E+00  0.80910352788E+03  0.15293322871E+04  0.12977706752E+04 0.  0.
        3    1    3    3  502    0  0.50834428972E+03 -0.13776382571E+03 -0.42101897756E+02  0.52836102104E+03  0.10100000352E+00 0.  1.
       -3    1    3    3    0  502 -0.50834428972E+03  0.13776382571E+03  0.85120542563E+03  0.10009712660E+04  0.10100000352E+00 0. -1.
</event>
<event>
 5   0  0.1430636E-04  0.1300492E+04  0.7818609E-02  0.9029175E-01
       -1   -1    0    0    0  501  0.00000000000E+00  0.00000000000E+00  0.29734797255E+03  0.29734797259E+03  0.50400001928E-02 0.  1.
        1   -1    0    0  501    0  0.00000000000E+00  0.00000000000E+00 -0.14219697006E+04  0.14219697006E+04  0.50400001928E-02 0. -1.
    10030    2    1    2    0    0  0.00000000000E+00  0.00000000000E+00 -0.11246217281E+04  0.17193176732E+04  0.13004919185E+04 0.  0.
        4    1    3    3  502    0 -0.34108532791E+03  0.42476017547E+03 -0.92921430353E+02  0.55262682951E+03  0.12699999809E+01 0.  1.
       -4    1    3    3    0  502  0.34108532791E+03 -0.42476017547E+03 -0.10317002977E+04  0.11666908437E+04  0.12699999809E+01 0. -1.
</event>
<event>
 5   0  0.1408341E-04  0.1301000E+04  0.7818609E-02  0.9028773E-01
        1   -1    0    0  501    0  0.00000000000E+00  0.00000000000E+00  0.70626307056E+03  0.70626307058E+03  0.50400001928E-02 0. -1.
       -1   -1    0    0    0  501  0.00000000000E+00  0.00000000000E+00 -0.59913933145E+03  0.59913933147E+03  0.50400001928E-02 0.  1.
    10030    2    1    2    0    0  0.00000000000E+00  0.00000000000E+00  0.10712373912E+03  0.13054024020E+04  0.13009995910E+04 0.  0.
        5    1    3    3  502    0 -0.17307944097E+03  0.55371856368E+03  0.34878053702E+03  0.67692739171E+03  0.46999998093E+01 0. -1.
       -5    1    3    3    0  502  0.17307944097E+03 -0.55371856368E+03 -0.24165679790E+03  0.62847501034E+03  0.46999998093E+01 0.  1.
</event>
<event>
 5   0  0.1430636E-04  0.1301964E+04  0.7818609E-02  0.9028009E-01
        1   -1    0    0  501    0  0.00000000000E+00  0.00000000000E+00  0.81579817859E+03  0.81579817861E+03  0.50400001928E-02 0. -1.
       -1   -1    0    0    0  501  0.00000000000E+00  0.00000000000E+00 -0.51946370114E+03  0.51946370116E+03  0.50400001928E-02 0.  1.
    10030    2    1    2    0    0  0.00000000000E+00  0.00000000000E+00  0.29633447745E+03  0.13352618798E+04  0.13019639646E+04 0.  0.
        4    1    3    3  502    0 -0.53283174314E+03  0.29849976476E+03 -0.82904086800E+02  0.61634931375E+03  0.12699999809E+01 0.  1.
       -4    1    3    3    0  502  0.53283174314E+03 -0.29849976476E+03  0.37923856425E+03  0.71891256601E+03  0.12699999809E+01 0. -1.
</event>
<event>
 5   0  0.2756984E-04  0.1295979E+04  0.7818609E-02  0.9032760E-01
        2   -1    0    0  501    0  0.00000000000E+00  0.00000000000E+00  0.11136982359E+04  0.11136982359E+04  0.25500000920E-02 0. -1.
       -2   -1    0    0    0  501  0.00000000000E+00  0.00000000000E+00 -0.37702340464E+03  0.37702340465E+03  0.25500000920E-02 0.  1.
    10030    2    1    2    0    0  0.00000000000E+00  0.00000000000E+00  0.73667483122E+03  0.14907216405E+04  0.12959788588E+04 0.  0.
        3    1    3    3  502    0  0.46992085576E+03 -0.97455358459E+02  0.86915568121E+03  0.99285183485E+03  0.10100000352E+00 0. -1.
       -3    1    3    3    0  502 -0.46992085576E+03  0.97455358459E+02 -0.13248084999E+03  0.49786980566E+03  0.10100000352E+00 0.  1.
</event>
<event>
 5   0  0.1479690E-04  0.1302030E+04  0.7818609E-02  0.9027957E-01
       -1   -1    0    0    0  501  0.00000000000E+00  0.00000000000E+00  0.41364761652E+03  0.41364761655E+03  0.50400001928E-02 0. -1.
        1   -1    0    0  501    0  0.00000000000E+00  0.00000000000E+00 -0.10245937226E+04  0.10245937226E+04  0.50400001928E-02 0.  1.
    10030    2    1    2    0    0  0.00000000000E+00  0.00000000000E+00 -0.61094610608E+03  0.14382413392E+04  0.13020303396E+04 0.  0.
        1    1    3    3  502    0  0.54857129385E+02  0.63326310893E+02 -0.10186136441E+04  0.10220534635E+04  0.50400001928E-02 0.  1.
       -1    1    3    3    0  502 -0.54857129385E+02 -0.63326310893E+02  0.40766753800E+03  0.41618787567E+03  0.50400001928E-02 0. -1.
</event>
<event>
 5   0  0.2756984E-04  0.1299551E+04  0.7818609E-02  0.9029921E-01
       -2   -1    0    0    0  501  0.00000000000E+00  0.00000000000E+00  0.37956109339E+03  0.37956109340E+03  0.25500000920E-02 0. -1.
        2   -1    0    0  501    0  0.00000000000E+00  0.00000000000E+00 -0.11123587076E+04  0.11123587076E+04  0.25500000920E-02 0.  1.
    10030    2    1    2    0    0  0.00000000000E+00  0.00000000000E+00 -0.73279761423E+03  0.14919198010E+04  0.12995508260E+04 0.  0.
        3    1    3    3  502    0 -0.41314156197E+03 -0.17211367460E+03  0.17439273493E+03  0.48033519901E+03  0.10100000352E+00 0. -1.
       -3    1    3    3    0  502  0.41314156197E+03  0.17211367460E+03 -0.90719034916E+03  0.10115846020E+04  0.10100000352E+00 0.  1.
</event>
<event>
 5   0  0.2573071E-04  0.1295098E+04  0.7818609E-02  0.9033462E-01
        2   -1    0    0  501    0  0.00000000000E+00  0.00000000000E+00  0.63098108216E+03  0.63098108217E+03  0.25500000920E-02 0.  1.
       -2   -1    0    0    0  501  0.00000000000E+00  0.00000000000E+00 -0.66455166555E+03  0.66455166556E+03  0.25500000920E-02 0. -1.
    10030    2    1    2    0    0  0.00000000000E+00  0.00000000000E+00 -0.33570583389E+02  0.12955327477E+04  0.12950977246E+04 0.  0.
        4    1    3    3  502    0 -0.15241934831E+03 -0.52999150395E+03  0.32273299254E+03  0.63896858246E+03  0.12699999809E+01 0.  1.
       -4    1    3    3    0  502  0.15241934831E+03  0.52999150395E+03 -0.35630357593E+03  0.65656416527E+03  0.12699999809E+01 0. -1.
</event>
<event>
 5   0  0.1430636E-04  0.1299459E+04  0.7818609E-02  0.9029994E-01
       -1   -1    0    0    0  501  0.00000000000E+00  0.00000000000E+00  0.30127812959E+03  0.30127812964E+03  0.50400001928E-02 0.  1.
        1   -1    0    0  501    0  0.00000000000E+00  0.00000000000E+00 -0.14011917718E+04  0.14011917718E+04  0.50400001928E-02 0. -1.
    10030    2    1    2    0    0  0.00000000000E+00  0.00000000000E+00 -0.10999136422E+04  0.17024699015E+04  0.12994590202E+04 0.  0.
        4    1    3    3  502    0 -0.62008322686E+03  0.19116674283E+03 -0.50652637649E+03  0.82317587110E+03  0.12699999809E+01 0. -1.
       -4    1    3    3    0  502  0.62008322686E+03 -0.19116674283E+03 -0.59338726576E+03  0.87929403038E+03  0.12699999809E+01 0.  1.
</event>
<event>
 5   0  0.1479690E-04  0.1300465E+04  0.7818609E-02  0.9029196E-01
       -1   -1    0    0    0  501  0.00000000000E+00  0.00000000000E+00  0.84633642042E+03  0.84633642043E+03  0.50400001928E-02 0.  1.
        1   -1    0    0  501    0  0.00000000000E+00  0.00000000000E+00 -0.49956787245E+03  0.49956787248E+03  0.50400001928E-02 0. -1.
    10030    2    1    2    0    0  0.00000000000E+00  0.00000000000E+00  0.34676854797E+03  0.13459042929E+04  0.13004652782E+04 0.  0.
        1    1    3    3  502    0  0.30847443568E+03  0.33396944600E+03 -0.30773556720E+03  0.54899293955E+03  0.50400001928E-02 0. -1.
       -1    1    3    3    0  502 -0.30847443568E+03 -0.33396944600E+03  0.65450411517E+03  0.79691135337E+03  0.50400001928E-02 0.  1.
</event>
<event>
 5   0  0.2723209E-04  0.1319721E+04  0.7818609E-02  0.9014071E-01
       -2   -1    0    0    0  501  0.00000000000E+00  0.00000000000E+00  0.60358365284E+03  0.60358365285E+03  0.25500000920E-02 0.  1.
        2   -1    0    0  501    0  0.00000000000E+00  0.00000000000E+00 -0.72138447278E+03  0.72138447279E+03  0.25500000920E-02 0. -1.
    10030    2    1    2    0    0  0.00000000000E+00  0.00000000000E+00 -0.11780081994E+03  0.13249681256E+04  0.13197209935E+04 0.  0.
        2    1    3    3  502    0  0.55313844836E+03  0.15679584561E+03 -0.38402247455E+03  0.69139015124E+03  0.25500000920E-02 0. -1.
       -2    1    3    3    0  502 -0.55313844836E+03 -0.15679584561E+03  0.26622165461E+03  0.63357797440E+03  0.25500000920E-02 0.  1.
</event>
<event>
 5   0  0.2756984E-04  0.1299312E+04  0.7818609E-02  0.9030111E-01
       -2   -1    0    0    0  501  0.00000000000E+00  0.00000000000E+00  0.44119266296E+03  0.44119266297E+03  0.25500000920E-02 0. -1.
        2   -1    0    0  501    0  0.00000000000E+00  0.00000000000E+00 -0.95661871271E+03  0.95661871271E+03  0.25500000920E-02 0.  1.
    10030    2    1    2    0    0  0.00000000000E+00  0.00000000000E+00 -0.51542604975E+03  0.13978113757E+04  0.12993123678E+04 0.  0.
        3    1    3    3  502    0  0.47616861914E+03  0.20976142469E+03 -0.67619666364E+03  0.85321647151E+03  0.10100000352E+00 0.  1.
       -3    1    3    3    0  502 -0.47616861914E+03 -0.20976142469E+03  0.16077061389E+03  0.54459490416E+03  0.10100000352E+00 0. -1.
</event>
<event>
 5   0  0.1430636E-04  0.1300564E+04  0.7818609E-02  0.9029118E-01
       -1   -1    0    0    0  501  0.00000000000E+00  0.00000000000E+00  0.72758515064E+03  0.72758515066E+03  0.50400001928E-02 0. -1.
        1   -1    0    0  501    0  0.00000000000E+00  0.00000000000E+00 -0.58119241058E+03  0.58119241060E+03  0.50400001928E-02 0.  1.
    10030    2    1    2    0    0  0.00000000000E+00  0.00000000000E+00  0.14639274006E+03  0.13087775613E+04  0.13005644430E+04 0.  0.
        4    1    3    3  502    0  0.23889455430E+03 -0.46599452117E+03  0.46117467474E+03  0.69778592373E+03  0.12699999809E+01 0. -1.
       -4    1    3    3    0  502 -0.23889455430E+03  0.46599452117E+03 -0.31478193468E+03  0.61099163753E+03  0.12699999809E+01 0.  1.
</event>
<event>
 5   0  0.1476511E-04  0.1302380E+04  0.7818609E-02  0.9027680E-01
        1   -1    0    0  501    0  0.00000000000E+00  0.00000000000E+00  0.36396111669E+03  0.36396111672E+03  0.50400001928E-02 0. -1.
       -1   -1    0    0    0  501  0.00000000000E+00  0.00000000000E+00 -0.11650922474E+04  0.11650922475E+04  0.50400001928E-02 0.  1.
    10030    2    1    2    0    0  0.00000000000E+00  0.00000000000E+00 -0.80113113076E+03  0.15290533642E+04  0.13023797840E+04 0.  0.
        2    1    3    3  502    0  0.23135110239E+03  0.25020430434E+03 -0.10520527601E+04  0.11058664190E+04  0.25500000920E-02 0.  1.
       -2    1    3    3    0  502 -0.23135110239E+03 -0.25020430434E+03  0.25092162939E+03  0.42318694520E+03  0.25500000920E-02 0. -1.
</event>
<event>
 5   0  0.1479690E-04  0.1299548E+04  0.7818609E-02  0.9029924E-01
       -1   -1    0    0    0  501  0.00000000000E+00  0.00000000000E+00  0.58667284125E+03  0.58667284127E+03  0.50400001928E-02 0.  1.
        1   -1    0    0  501    0  0.00000000000E+00  0.00000000000E+00 -0.71966237164E+03  0.71966237166E+03  0.50400001928E-02 0. -1.
    10030    2    1    2    0    0  0.00000000000E+00  0.00000000000E+00 -0.13298953040E+03  0.13063352129E+04  0.12995481805E+04 0.  0.
        1    1    3    3  502    0  0.19491910782E+03  0.81795590690E+02 -0.68413219295E+03  0.71604527420E+03  0.50400001928E-02 0. -1.
       -1    1    3    3    0  502 -0.19491910782E+03 -0.81795590690E+02  0.55114266255E+03  0.59028993873E+03  0.50400001928E-02 0.  1.
</event>
<event>
 5   0  0.2723209E-04  0.1313235E+04  0.7818609E-02  0.9019135E-01
        2   -1    0    0  501    0  0.00000000000E+00  0.00000000000E+00  0.63679013074E+03  0.63679013075E+03  0.25500000920E-02 0. -1.
       -2   -1    0    0    0  501  0.00000000000E+00  0.00000000000E+00 -0.67706210947E+03  0.67706210947E+03  0.25500000920E-02 0.  1.
    10030    2    1    2    0    0  0.00000000000E+00  0.00000000000E+00 -0.40271978725E+02  0.13138522402E+04  0.13132348902E+04 0.  0.
        2    1    3    3  502    0  0.29978011104E+03  0.10585279474E+03 -0.59492634011E+03  0.67454449763E+03  0.25500000920E-02 0.  1.
       -2    1    3    3    0  502 -0.29978011104E+03 -0.10585279474E+03  0.55465436138E+03  0.63930774259E+03  0.25500000920E-02 0. -1.
</event>
<event>
 5   0  0.1408341E-04  0.1299720E+04  0.7818609E-02  0.9029788E-01
        1   -1    0    0  501    0  0.00000000000E+00  0.00000000000E+00  0.65012854990E+03  0.65012854992E+03  0.50400001928E-02 0.  1.
       -1   -1    0    0    0  501  0.00000000000E+00  0.00000000000E+00 -0.64959111260E+03  0.64959111262E+03  0.50400001928E-02 0. -1.
    10030    2    1    2    0    0  0.00000000000E+00  0.00000000000E+00  0.53743729795E+00  0.12997196625E+04  0.12997195514E+04 0.  0.
        5    1    3    3  502    0 -0.19687493387E+02  0.37734534987E+03  0.52896388169E+03  0.65007844803E+03  0.46999998093E+01 0.  1.
       -5    1    3    3    0  502  0.19687493387E+02 -0.37734534987E+03 -0.52842644439E+03  0.64964121451E+03  0.46999998093E+01 0. -1.
</event>
<event>
 5   0  0.1475396E-04  0.1306449E+04  0.7818609E-02  0.9024467E-01
       -1   -1    0    0    0  501  0.00000000000E+00  0.00000000000E+00  0.62369495377E+03  0.62369495379E+03  0.50400001928E-02 0. -1.
        1   -1    0    0  501    0  0.00000000000E+00  0.00000000000E+00 -0.68415224052E+03  0.68415224054E+03  0.50400001928E-02 0.  1.
    10030    2    1    2    0    0  0.00000000000E+00  0.00000000000E+00 -0.60457286750E+02  0.13078471943E+04  0.13064490806E+04 0.  0.
        3    1    3    3  502    0 -0.61809551478E+03  0.17032548152E+03  0.95003012616E+02  0.64813456755E+03  0.10100000352E+00 0. -1.
       -3    1    3    3    0  502  0.61809551478E+03 -0.17032548152E+03 -0.15546029937E+03  0.65971262677E+03  0.10100000352E+00 0.  1.
</event>
<event>
 5   0  0.2756984E-04  0.1299726E+04  0.7818609E-02  0.9029783E-01
        2   -1    0    0  501    0  0.00000000000E+00  0.00000000000E+00  0.87576803270E+03  0.87576803270E+03  0.25500000920E-02 0. -1.
       -2   -1    0    0    0  501  0.00000000000E+00  0.00000000000E+00 -0.48223030973E+03  0.48223030974E+03  0.25500000920E-02 0.  1.
    10030    2    1    2    0    0  0.00000000000E+00  0.00000000000E+00  0.39353772297E+03  0.13579983424E+04  0.12997259552E+04 0.  0.
        3    1    3    3  502    0 -0.57651145423E+03 -0.28079812446E+03  0.30689279712E+03  0.71091226089E+03  0.10100000352E+00 0. -1.
       -3    1    3    3    0  502  0.57651145423E+03  0.28079812446E+03  0.86644925843E+02  0.64708608155E+03  0.10100000352E+00 0.  1.
</event>
<event>
 5   0  0.2756984E-04  0.1301585E+04  0.7818609E-02  0.9028309E-01
        2   -1    0    0  501    0  0.00000000000E+00  0.00000000000E+00  0.12572162129E+04  0.12572162129E+04  0.25500000920E-02 0. -1.
       -2   -1    0    0    0  501  0.00000000000E+00  0.00000000000E+00 -0.33687970528E+03  0.33687970529E+03  0.25500000920E-02 0.  1.
    10030    2    1    2    0    0  0.00000000000E+00  0.00000000000E+00  0.92033650760E+03  0.15940959182E+04  0.13015846146E+04 0.  0.
        3    1    3    3  502    0  0.59787577677E+03  0.24163017766E+03  0.56756869278E+03  0.85905460736E+03  0.10100000352E+00 0. -1.
       -3    1    3    3    0  502 -0.59787577677E+03 -0.24163017766E+03  0.35276781482E+03  0.73504131080E+03  0.10100000352E+00 0.  1.
</event>
<event>
 5   0  0.1479690E-04  0.1288799E+04  0.7818609E-02  0.9038495E-01
       -1   -1    0    0    0  501  0.00000000000E+00  0.00000000000E+00  0.32486298806E+03  0.32486298810E+03  0.50400001928E-02 0.  1.
        1   -1    0    0  501    0  0.00000000000E+00  0.00000000000E+00 -0.12782333959E+04  0.12782333959E+04  0.50400001928E-02 0. -1.
    10030    2    1    2    0    0  0.00000000000E+00  0.00000000000E+00 -0.95337040786E+03  0.16030963840E+04  0.12887990076E+04 0.  0.
        1    1    3    3  502    0  0.60451666049E+03  0.66456428065E+02 -0.21166862087E+03  0.64394134416E+03  0.50400001928E-02 0.  1.
       -1    1    3    3    0  502 -0.60451666049E+03 -0.66456428065E+02 -0.74170178699E+03  0.95915503986E+03  0.50400001928E-02 0. -1.
</event>
<event>
 5   0  0.2794825E-04  0.1300033E+04  0.7818609E-02  0.9029539E-01
       -2   -1    0    0    0  501  0.00000000000E+00  0.00000000000E+00  0.29288796526E+03  0.29288796527E+03  0.25500000920E-02 0. -1.
        2   -1    0    0  501    0  0.00000000000E+00  0.00000000000E+00 -0.14426037452E+04  0.14426037452E+04  0.25500000920E-02 0.  1.
    10030    2    1    2    0    0  0.00000000000E+00  0.00000000000E+00 -0.11497157799E+04  0.17354917104E+04  0.13000327313E+04 0.  0.
        1    1    3    3  502    0 -0.11439513202E+02 -0.64278092752E+03 -0.70306335404E+03  0.95267846783E+03  0.50400001928E-02 0.  1.
       -1    1    3    3    0  502  0.11439513202E+02  0.64278092752E+03 -0.44665242586E+03  0.78281324260E+03  0.50400001928E-02 0. -1.
</event>
<event>
 5   0  0.1476511E-04  0.1302016E+04  0.7818609E-02  0.9027968E-01
       -1   -1    0    0    0  501  0.00000000000E+00  0.00000000000E+00  0.49152865068E+03  0.49152865070E+03  0.50400001928E-02 0. -1.
        1   -1    0    0  501    0  0.00000000000E+00  0.00000000000E+00 -0.86223196390E+03  0.86223196392E+03  0.50400001928E-02 0.  1.
    10030    2    1    2    0    0  0.00000000000E+00  0.00000000000E+00 -0.37070331322E+03  0.13537606146E+04  0.13020164574E+04 0.  0.
        2    1    3    3  502    0 -0.46935902668E+03 -0.15162417776E+03 -0.62711816419E+03  0.79785022345E+03  0.25500000920E-02 0.  1.
       -2    1    3    3    0  502  0.46935902668E+03  0.15162417776E+03  0.25641485096E+03  0.55591039117E+03  0.25500000920E-02 0. -1.
</event>
<event>
 5   0  0.1479690E-04  0.1302809E+04  0.7818609E-02  0.9027341E-01
        1   -1    0    0  501    0  0.00000000000E+00  0.00000000000E+00  0.10859953648E+04  0.10859953648E+04  0.50400001928E-02 0. -1.
       -1   -1    0    0    0  501  0.00000000000E+00  0.00000000000E+00 -0.39072687672E+03  0.39072687676E+03  0.50400001928E-02 0.  1.
    10030    2    1    2    0    0  0.00000000000E+00  0.00000000000E+00  0.69526848805E+03  0.14767222415E+04  0.13028086230E+04 0.  0.
        1    1    3    3  502    0 -0.24478459660E+03 -0.61273013268E+02 -0.33307772249E+03  0.41786917825E+03  0.50400001928E-02 0.  1.
       -1    1    3    3    0  502  0.24478459660E+03  0.61273013268E+02  0.10283462105E+04  0.10588530633E+04  0.50400001928E-02 0. -1.
</event>
<event>
 5   0  0.1002887E-04  0.1300710E+04  0.7818609E-02  0.9029002E-01
       -4   -1    0    0    0  501  0.00000000000E+00  0.00000000000E+00  0.49623078966E+03  0.49623241481E+03  0.12699999809E+01 0.  1.
        4   -1    0    0  501    0  0.00000000000E+00  0.00000000000E+00 -0.85234575920E+03  0.85234670535E+03  0.12699999809E+01 0. -1.
    10030    2    1    2    0    0  0.00000000000E+00  0.00000000000E+00 -0.35611496954E+03  0.13485791202E+04  0.13007104873E+04 0.  0.
        5    1    3    3  502    0 -0.39988257628E+03 -0.51279707292E+03 -0.16920267754E+03  0.67195129949E+03  0.46999998093E+01 0.  1.
       -5    1    3    3    0  502  0.39988257628E+03  0.51279707292E+03 -0.18691229200E+03  0.67662782067E+03  0.46999998093E+01 0. -1.
</event>
<event>
 5   0  0.2756984E-04  0.1299250E+04  0.7818609E-02  0.9030160E-01
       -2   -1    0    0    0  501  0.00000000000E+00  0.00000000000E+00  0.38570350011E+03  0.38570350012E+03  0.25500000920E-02 0. -1.
        2   -1    0    0  501    0  0.00000000000E+00  0.00000000000E+00 -0.10941378415E+04  0.10941378415E+04  0.25500000920E-02 0.  1.
    10030    2    1    2    0    0  0.00000000000E+00  0.00000000000E+00 -0.70843434134E+03  0.14798413416E+04  0.12992502377E+04 0.  0.
        3    1    3    3  502    0  0.51493249804E+02 -0.58119615324E+03 -0.28910025502E+02  0.58418860233E+03  0.10100000352E+00 0. -1.
       -3    1    3    3    0  502 -0.51493249804E+02  0.58119615324E+03 -0.67952431584E+03  0.89565273925E+03  0.10100000352E+00 0.  1.
</event>
<event>
 5   0  0.1430636E-04  0.1310625E+04  0.7818609E-02  0.9021181E-01
       -1   -1    0    0    0  501  0.00000000000E+00  0.00000000000E+00  0.33082714809E+03  0.33082714812E+03  0.50400001928E-02 0. -1.
        1   -1    0    0  501    0  0.00000000000E+00  0.00000000000E+00 -0.12980636916E+04  0.12980636916E+04  0.50400001928E-02 0.  1.
    10030    2    1    2    0    0  0.00000000000E+00  0.00000000000E+00 -0.96723654349E+03  0.16288908397E+04  0.13106253609E+04 0.  0.
        4    1    3    3  502    0 -0.21653522076E+03 -0.18217498788E+03 -0.12182144727E+04  0.12506491684E+04  0.12699999809E+01 0.  1.
       -4    1    3    3    0  502  0.21653522076E+03  0.18217498788E+03  0.25097792923E+03  0.37824167129E+03  0.12699999809E+01 0. -1.
</event>
<event>
 5   0  0.1476511E-04  0.1300667E+04  0.7818609E-02  0.9029036E-01
       -1   -1    0    0    0  501  0.00000000000E+00  0.00000000000E+00  0.32845537990E+03  0.32845537994E+03  0.50400001928E-02 0. -1.
        1   -1    0    0  501    0  0.00000000000E+00  0.00000000000E+00 -0.12876441241E+04  0.12876441241E+04  0.50400001928E-02 0.  1.
    10030    2    1    2    0    0  0.00000000000E+00  0.00000000000E+00 -0.95918874419E+03  0.16160995040E+04  0.13006669674E+04 0.  0.
        2    1    3    3  502    0  0.99911893481E+02  0.76597643117E+02 -0.12723585760E+04  0.12785718327E+04  0.25500000920E-02 0.  1.
       -2    1    3    3    0  502 -0.99911893481E+02 -0.76597643117E+02  0.31316983180E+03  0.33752767138E+03  0.25500000920E-02 0. -1.
</event>
<event>
 5   0  0.2723209E-04  0.1283022E+04  0.7818609E-02  0.9043138E-01
        2   -1    0    0  501    0  0.00000000000E+00  0.00000000000E+00  0.12826350163E+04  0.12826350163E+04  0.25500000920E-02 0.  1.
       -2   -1    0    0    0  501  0.00000000000E+00  0.00000000000E+00 -0.32085231354E+03  0.32085231355E+03  0.25500000920E-02 0. -1.
    10030    2    1    2    0    0  0.00000000000E+00  0.00000000000E+00  0.96178270273E+03  0.16034873298E+04  0.12830220768E+04 0.  0.
        2    1    3    3  502    0  0.21811191230E+03  0.59396166824E+03  0.34878640543E+03  0.72250621191E+03  0.25500000920E-02 0.  1.
       -2    1    3    3    0  502 -0.21811191230E+03 -0.59396166824E+03  0.61299629730E+03  0.88098111792E+03  0.25500000920E-02 0. -1.
</event>
<event>
 5   0  0.1002887E-04  0.1303294E+04  0.7818609E-02  0.9026957E-01
        3   -1    0    0  501    0  0.00000000000E+00  0.00000000000E+00  0.12935458193E+04  0.12935458232E+04  0.10100000352E+00 0. -1.
       -3   -1    0    0    0  501  0.00000000000E+00  0.00000000000E+00 -0.32827904876E+03  0.32827906430E+03  0.10100000352E+00 0.  1.
    10030    2    1    2    0    0  0.00000000000E+00  0.00000000000E+00  0.96526677050E+03  0.16218248875E+04  0.13032942981E+04 0.  0.
        5    1    3    3  502    0  0.38170248454E+02 -0.29425500479E+02  0.12913037680E+04  0.12922114143E+04  0.46999998093E+01 0. -1.
       -5    1    3    3    0  502 -0.38170248454E+02  0.29425500479E+02 -0.32603699753E+03  0.32961347318E+03  0.46999998093E+01 0.  1.
</event>
<event>
 5   0  0.1475396E-04  0.1298180E+04  0.7818609E-02  0.9031009E-01
        1   -1    0    0  501    0  0.00000000000E+00  0.00000000000E+00  0.96231915010E+03  0.96231915011E+03  0.50400001928E-02 0.  1.
       -1   -1    0    0    0  501  0.00000000000E+00  0.00000000000E+00 -0.43781525285E+03  0.43781525288E+03  0.50400001928E-02 0. -1.
    10030    2    1    2    0    0  0.00000000000E+00  0.00000000000E+00  0.52450389725E+03  0.14001344030E+04  0.12981802680E+04 0.  0.
        3    1    3    3  502    0 -0.43961705632E+03 -0.49938514339E+02  0.77448395325E+03  0.89195426759E+03  0.10100000352E+00 0.  1.
       -3    1    3    3    0  502  0.43961705632E+03  0.49938514339E+02 -0.24998005600E+03  0.50818013540E+03  0.10100000352E+00 0. -1.
</event>
<event>
 5   0  0.2661377E-04  0.1292942E+04  0.7818609E-02  0.9035181E-01
       -2   -1    0    0    0  501  0.00000000000E+00  0.00000000000E+00  0.26506190006E+03  0.26506190007E+03  0.25500000920E-02 0. -1.
        2   -1    0    0  501    0  0.00000000000E+00  0.00000000000E+00 -0.15767057629E+04  0.15767057629E+04  0.25500000920E-02 0.  1.
    10030    2    1    2    0    0  0.00000000000E+00  0.00000000000E+00 -0.13116438628E+04  0.18417676629E+04  0.12929418012E+04 0.  0.
        5    1    3    3  502    0 -0.13612677315E+03  0.26817082357E+03 -0.14709627462E+04  0.15013992073E+04  0.46999998093E+01 0.  1.
       -5    1    3    3    0  502  0.13612677315E+03 -0.26817082357E+03  0.15931888340E+03  0.34036845563E+03  0.46999998093E+01 0. -1.
</event>
<event>
 5   0  0.1475396E-04  0.1298337E+04  0.7818609E-02  0.9030885E-01
        1   -1    0    0  501    0  0.00000000000E+00  0.00000000000E+00  0.72410272815E+03  0.72410272816E+03  0.50400001928E-02 0. -1.
       -1   -1    0    0    0  501  0.00000000000E+00  0.00000000000E+00 -0.58198931300E+03  0.58198931302E+03  0.50400001928E-02 0.  1.
    10030    2    1    2    0    0  0.00000000000E+00  0.00000000000E+00  0.14211341515E+03  0.13060920412E+04  0.12983374743E+04 0.  0.
        3    1    3    3  502    0  0.22464053536E+03  0.21273319018E+03  0.64516776184E+03  0.71551396314E+03  0.10100000352E+00 0. -1.
       -3    1    3    3    0  502 -0.22464053536E+03 -0.21273319018E+03 -0.50305434669E+03  0.59057807804E+03  0.10100000352E+00 0.  1.
</event>
<event>
 5   0  0.2723209E-04  0.1300925E+04  0.7818609E-02  0.9028832E-01
       -2   -1    0    0    0  501  0.00000000000E+00  0.00000000000E+00  0.19975928368E+03  0.19975928370E+03  0.25500000920E-02 0. -1.
        2   -1    0    0  501    0  0.00000000000E+00  0.00000000000E+00 -0.21180556373E+04  0.21180556373E+04  0.25500000920E-02 0.  1.
    10030    2    1    2    0    0  0.00000000000E+00  0.00000000000E+00 -0.19182963536E+04  0.23178149210E+04  0.13009247125E+04 0.  0.
        2    1    3    3  502    0 -0.45061796322E+03 -0.46768005396E+03 -0.89441465617E+03  0.11053319677E+04  0.25500000920E-02 0. -1.
       -2    1    3    3    0  502  0.45061796322E+03  0.46768005396E+03 -0.10238816974E+04  0.12124829533E+04  0.25500000920E-02 0.  1.
</event>
<event>
 5   0  0.2723209E-04  0.1299090E+04  0.7818609E-02  0.9030287E-01
        2   -1    0    0  501    0  0.00000000000E+00  0.00000000000E+00  0.89441272379E+03  0.89441272379E+03  0.25500000920E-02 0.  1.
       -2   -1    0    0    0  501  0.00000000000E+00  0.00000000000E+00 -0.47171604332E+03  0.47171604333E+03  0.25500000920E-02 0. -1.
    10030    2    1    2    0    0  0.00000000000E+00  0.00000000000E+00  0.42269668046E+03  0.13661287671E+04  0.12990901911E+04 0.  0.
        2    1    3    3  502    0 -0.19000642067E+02  0.61348391022E+03 -0.12189428446E+02  0.61389910789E+03  0.25500000920E-02 0. -1.
       -2    1    3    3    0  502  0.19000642067E+02 -0.61348391022E+03  0.43488610891E+03  0.75222965923E+03  0.25500000920E-02 0.  1.
</event>
<event>
 5   0  0.1479690E-04  0.1298093E+04  0.7818609E-02  0.9031078E-01
       -1   -1    0    0    0  501  0.00000000000E+00  0.00000000000E+00  0.16905632339E+03  0.16905632347E+03  0.50400001928E-02 0.  1.
        1   -1    0    0  501    0  0.00000000000E+00  0.00000000000E+00 -0.24918421609E+04  0.24918421609E+04  0.50400001928E-02 0. -1.
    10030    2    1    2    0    0  0.00000000000E+00  0.00000000000E+00 -0.23227858375E+04  0.26608984844E+04  0.12980934856E+04 0.  0.
        1    1    3    3  502    0 -0.35589192633E+02 -0.37945669337E+03 -0.84474174918E+02  0.39037143726E+03  0.50400001928E-02 0.  1.
       -1    1    3    3    0  502  0.35589192633E+02  0.37945669337E+03 -0.22383116626E+04  0.22705270471E+04  0.50400001928E-02 0. -1.
</event>
<event>
 5   0  0.2756984E-04  0.1300452E+04  0.7818609E-02  0.9029207E-01
       -2   -1    0    0    0  501  0.00000000000E+00  0.00000000000E+00  0.13746343777E+03  0.13746343779E+03  0.25500000920E-02 0. -1.
        2   -1    0    0  501    0  0.00000000000E+00  0.00000000000E+00 -0.30756808228E+04  0.30756808228E+04  0.25500000920E-02 0.  1.
    10030    2    1    2    0    0  0.00000000000E+00  0.00000000000E+00 -0.29382173850E+04  0.32131442606E+04  0.13004517052E+04 0.  0.
        3    1    3    3  502    0 -0.61595930383E+03 -0.31436727824E+01 -0.95450811349E+03  0.11360024188E+04  0.10100000352E+00 0. -1.
       -3    1    3    3    0  502  0.61595930383E+03  0.31436727824E+01 -0.19837092715E+04  0.20771418417E+04  0.10100000352E+00 0.  1.
</event>
<event>
 5   0  0.2723209E-04  0.1294902E+04  0.7818609E-02  0.9033618E-01
       -2   -1    0    0    0  501  0.00000000000E+00  0.00000000000E+00  0.27897862140E+03  0.27897862141E+03  0.25500000920E-02 0.  1.
        2   -1    0    0  501    0  0.00000000000E+00  0.00000000000E+00 -0.15025975611E+04  0.15025975611E+04  0.25500000920E-02 0. -1.
    10030    2    1    2    0    0  0.00000000000E+00  0.00000000000E+00 -0.12236189397E+04  0.17815761825E+04  0.12949016891E+04 0.  0.
        2    1    3    3  502    0  0.10180998210E+03  0.30004023206E+03 -0.13886447215E+04  0.14243326774E+04  0.25500000920E-02 0. -1.
       -2    1    3    3    0  502 -0.10180998210E+03 -0.30004023206E+03  0.16502578178E+03  0.35724350515E+03  0.25500000920E-02 0.  1.
</event>
<event>
 5   0  0.1475396E-04  0.1307581E+04  0.7818609E-02  0.9023575E-01
        1   -1    0    0  501    0  0.00000000000E+00  0.00000000000E+00  0.15903328983E+04  0.15903328983E+04  0.50400001928E-02 0. -1.
       -1   -1    0    0    0  501  0.00000000000E+00  0.00000000000E+00 -0.26877524603E+03  0.26877524607E+03  0.50400001928E-02 0.  1.
    10030    2    1    2    0    0  0.00000000000E+00  0.00000000000E+00  0.13215576522E+04  0.18591081443E+04  0.13075811501E+04 0.  0.
        3    1    3    3  502    0 -0.31713553676E+02 -0.61735422407E+03  0.35813375832E+03  0.71441709562E+03  0.10100000352E+00 0.  1.
       -3    1    3    3    0  502  0.31713553676E+02  0.61735422407E+03  0.96342389392E+03  0.11446910487E+04  0.10100000352E+00 0. -1.
</event>
<event>
 5   0  0.1475396E-04  0.1297006E+04  0.7818609E-02  0.9031943E-01
        1   -1    0    0  501    0  0.00000000000E+00  0.00000000000E+00  0.51442613650E+03  0.51442613653E+03  0.50400001928E-02 0. -1.
       -1   -1    0    0    0  501  0.00000000000E+00  0.00000000000E+00 -0.81752452261E+03  0.81752452262E+03  0.50400001928E-02 0.  1.
    10030    2    1    2    0    0  0.00000000000E+00  0.00000000000E+00 -0.30309838610E+03  0.13319506592E+04  0.12970057543E+04 0.  0.
        3    1    3    3  502    0 -0.91342746634E+02  0.27588889007E+03  0.44381000200E+03  0.53049552788E+03  0.10100000352E+00 0. -1.
       -3    1    3    3    0  502  0.91342746634E+02 -0.27588889007E+03 -0.74690838810E+03  0.80145513127E+03  0.10100000352E+00 0.  1.
</event>
<event>
 5   0  0.1430636E-04  0.1314169E+04  0.7818609E-02  0.9018404E-01
       -1   -1    0    0    0  501  0.00000000000E+00  0.00000000000E+00  0.50301377634E+03  0.50301377636E+03  0.50400001928E-02 0. -1.
        1   -1    0    0  501    0  0.00000000000E+00  0.00000000000E+00 -0.85834668618E+03  0.85834668619E+03  0.50400001928E-02 0.  1.
    10030    2    1    2    0    0  0.00000000000E+00  0.00000000000E+00 -0.35533290984E+03  0.13613604626E+04  0.13141692555E+04 0.  0.
        4    1    3    3  502    0 -0.38577483326E+03 -0.50971288538E+03 -0.20122535835E+02  0.63955920511E+03  0.12699999809E+01 0.  1.
       -4    1    3    3    0  502  0.38577483326E+03  0.50971288538E+03 -0.33521037401E+03  0.72180125744E+03  0.12699999809E+01 0. -1.
</event>
<event>
 5   0  0.2756984E-04  0.1300701E+04  0.7818609E-02  0.9029009E-01
        2   -1    0    0  501    0  0.00000000000E+00  0.00000000000E+00  0.41647732144E+03  0.41647732145E+03  0.25500000920E-02 0.  1.
       -2   -1    0    0    0  501  0.00000000000E+00  0.00000000000E+00 -0.10155555508E+04  0.10155555508E+04  0.25500000920E-02 0. -1.
    10030    2    1    2    0    0  0.00000000000E+00  0.00000000000E+00 -0.59907822938E+03  0.14320328723E+04  0.13007011272E+04 0.  0.
        3    1    3    3  502    0 -0.27396503335E+03 -0.58404844652E+03 -0.39023671026E+03  0.75395896945E+03  0.10100000352E+00 0.  1.
       -3    1    3    3    0  502  0.27396503335E+03  0.58404844652E+03 -0.20884151912E+03  0.67807390282E+03  0.10100000352E+00 0. -1.
</event>
<event>
 5   0  0.2723209E-04  0.1299387E+04  0.7818609E-02  0.9030051E-01
       -2   -1    0    0    0  501  0.00000000000E+00  0.00000000000E+00  0.58146384021E+03  0.58146384021E+03  0.25500000920E-02 0. -1.
        2   -1    0    0  501    0  0.00000000000E+00  0.00000000000E+00 -0.72592986789E+03  0.72592986789E+03  0.25500000920E-02 0.  1.
    10030    2    1    2    0    0  0.00000000000E+00  0.00000000000E+00 -0.14446602768E+03  0.13073937081E+04  0.12993874999E+04 0.  0.
        2    1    3    3  502    0  0.17999442916E+03  0.45091209173E+03  0.36214715767E+03  0.60569816973E+03  0.25500000920E-02 0. -1.
       -2    1    3    3    0  502 -0.17999442916E+03 -0.45091209173E+03 -0.50661318535E+03  0.70169553837E+03  0.25500000920E-02 0.  1.
</event>
<event>
 5   0  0.2573071E-04  0.1299082E+04  0.7818609E-02  0.9030294E-01
        2   -1    0    0  501    0  0.00000000000E+00  0.00000000000E+00  0.80673619466E+03  0.80673619467E+03  0.25500000920E-02 0. -1.
       -2   -1    0    0    0  501  0.00000000000E+00  0.00000000000E+00 -0.52297560252E+03  0.52297560253E+03  0.25500000920E-02 0.  1.
    10030    2    1    2    0    0  0.00000000000E+00  0.00000000000E+00  0.28376059214E+03  0.13297117972E+04  0.12990817487E+04 0.  0.
        4    1    3    3  502    0  0.43182709680E+02 -0.26624492987E+03  0.74670211894E+03  0.79392491864E+03  0.12699999809E+01 0. -1.
       -4    1    3    3    0  502 -0.43182709680E+02  0.26624492987E+03 -0.46294152680E+03  0.53578687856E+03  0.12699999809E+01 0.  1.
</event>
<event>
 5   0  0.1476511E-04  0.1322239E+04  0.7818609E-02  0.9012113E-01
       -1   -1    0    0    0  501  0.00000000000E+00  0.00000000000E+00  0.24486823579E+03  0.24486823584E+03  0.50400001928E-02 0. -1.
        1   -1    0    0  501    0  0.00000000000E+00  0.00000000000E+00 -0.17849571186E+04  0.17849571186E+04  0.50400001928E-02 0.  1.
    10030    2    1    2    0    0  0.00000000000E+00  0.00000000000E+00 -0.15400888828E+04  0.20298253544E+04  0.13222394649E+04 0.  0.
        2    1    3    3  502    0 -0.55270724365E+03  0.27966794374E+03 -0.41536402427E+03  0.74580609317E+03  0.25500000920E-02 0. -1.
       -2    1    3    3    0  502  0.55270724365E+03 -0.27966794374E+03 -0.11247248585E+04  0.12840192613E+04  0.25500000920E-02 0.  1.
</event>
<event>
 5   0  0.1002887E-04  0.1299411E+04  0.7818609E-02  0.9030032E-01
       -3   -1    0    0    0  501  0.00000000000E+00  0.00000000000E+00  0.87740989103E+03  0.87740989684E+03  0.10100000352E+00 0.  1.
        3   -1    0    0  501    0  0.00000000000E+00  0.00000000000E+00 -0.48109503310E+03  0.48109504370E+03  0.10100000352E+00 0. -1.
    10030    2    1    2    0    0  0.00000000000E+00  0.00000000000E+00  0.39631485793E+03  0.13585049405E+04  0.12994114848E+04 0.  0.
        1    1    3    3  502    0 -0.62562437473E+03  0.15677269745E+03  0.11627571408E+03  0.65536522538E+03  0.50400001928E-02 0.  1.
       -1    1    3    3    0  502  0.62562437473E+03 -0.15677269745E+03  0.28003914385E+03  0.70313971516E+03  0.50400001928E-02 0. -1.
</event>
<event>
 5   0  0.2756984E-04  0.1298386E+04  0.7818609E-02  0.9030846E-01
       -2   -1    0    0    0  501  0.00000000000E+00  0.00000000000E+00  0.38880109714E+03  0.38880109715E+03  0.25500000920E-02 0.  1.
        2   -1    0    0  501    0  0.00000000000E+00  0.00000000000E+00 -0.10839768228E+04  0.10839768228E+04  0.25500000920E-02 0. -1.
    10030    2    1    2    0    0  0.00000000000E+00  0.00000000000E+00 -0.69517572567E+03  0.14727779200E+04  0.12983857331E+04 0.  0.
        3    1    3    3  502    0  0.42118876768E+03  0.27754637136E+03  0.11598391826E+03  0.51757535275E+03  0.10100000352E+00 0.  1.
       -3    1    3    3    0  502 -0.42118876768E+03 -0.27754637136E+03 -0.81115964393E+03  0.95520256722E+03  0.10100000352E+00 0. -1.
</event>
<event>
 5   0  0.2723209E-04  0.1300544E+04  0.7818609E-02  0.9029133E-01
       -2   -1    0    0    0  501  0.00000000000E+00  0.00000000000E+00  0.59840564986E+03  0.59840564987E+03  0.25500000920E-02 0. -1.
        2   -1    0    0  501    0  0.00000000000E+00  0.00000000000E+00 -0.70663435867E+03  0.70663435868E+03  0.25500000920E-02 0.  1.
    10030    2    1    2    0    0  0.00000000000E+00  0.00000000000E+00 -0.10822870881E+03  0.13050400085E+04  0.13005444900E+04 0.  0.
        2    1    3    3  502    0 -0.53855316733E+03 -0.24899226137E+02 -0.41895676583E+03  0.68277687214E+03  0.25500000920E-02 0.  1.
       -2    1    3    3    0  502  0.53855316733E+03  0.24899226137E+02  0.31072805701E+03  0.62226313640E+03  0.25500000920E-02 0. -1.
</event>
<event>
 5   0  0.1479690E-04  0.1291083E+04  0.7818609E-02  0.9036667E-01
       -1   -1    0    0    0  501  0.00000000000E+00  0.00000000000E+00  0.47676745686E+03  0.47676745689E+03  0.50400001928E-02 0.  1.
        1   -1    0    0  501    0  0.00000000000E+00  0.00000000000E+00 -0.87406049000E+03  0.87406049002E+03  0.50400001928E-02 0. -1.
    10030    2    1    2    0    0  0.00000000000E+00  0.00000000000E+00 -0.39729303314E+03  0.13508279469E+04  0.12910826418E+04 0.  0.
        1    1    3    3  502    0 -0.36132404600E+03  0.41894078853E+03 -0.54669178032E+03  0.77777783024E+03  0.50400001928E-02 0. -1.
       -1    1    3    3    0  502  0.36132404600E+03 -0.41894078853E+03  0.14939874719E+03  0.57305011666E+03  0.50400001928E-02 0.  1.
</event>
<event>
 5   0  0.1475396E-04  0.1300956E+04  0.7818609E-02  0.9028807E-01
       -1   -1    0    0    0  501  0.00000000000E+00  0.00000000000E+00  0.39598920921E+03  0.39598920924E+03  0.50400001928E-02 0.  1.
        1   -1    0    0  501    0  0.00000000000E+00  0.00000000000E+00 -0.10685188909E+04  0.10685188909E+04  0.50400001928E-02 0. -1.
    10030    2    1    2    0    0  0.00000000000E+00  0.00000000000E+00 -0.67252968170E+03  0.14645081002E+04  0.13009564953E+04 0.  0.
        3    1    3    3  502    0 -0.11352063589E+03  0.22674195808E+03  0.33806005708E+03  0.42259136613E+03  0.10100000352E+00 0.  1.
       -3    1    3    3    0  502  0.11352063589E+03 -0.22674195808E+03 -0.10105897388E+04  0.10419167340E+04  0.10100000352E+00 0. -1.
</event>
<event>
 5   0  0.1430636E-04  0.1304760E+04  0.7818609E-02  0.9025799E-01
       -1   -1    0    0    0  501  0.00000000000E+00  0.00000000000E+00  0.62468329398E+03  0.62468329400E+03  0.50400001928E-02 0. -1.
        1   -1    0    0  501    0  0.00000000000E+00  0.00000000000E+00 -0.68130476438E+03  0.68130476440E+03  0.50400001928E-02 0.  1.
    10030    2    1    2    0    0  0.00000000000E+00  0.00000000000E+00 -0.56621470399E+02  0.13059880584E+04  0.13047600614E+04 0.  0.
        4    1    3    3  502    0 -0.53340182165E+03 -0.25262311857E+03  0.24991156758E+03  0.64093162497E+03  0.12699999809E+01 0. -1.
       -4    1    3    3    0  502  0.53340182165E+03  0.25262311857E+03 -0.30653303798E+03  0.66505643343E+03  0.12699999809E+01 0.  1.
</event>
<event>
 5   0  0.1002887E-04  0.1301528E+04  0.7818609E-02  0.9028354E-01
        3   -1    0    0  501    0  0.00000000000E+00  0.00000000000E+00  0.12295435932E+04  0.12295435974E+04  0.10100000352E+00 0.  1.
       -3   -1    0    0    0  501  0.00000000000E+00  0.00000000000E+00 -0.34443175716E+03  0.34443177197E+03  0.10100000352E+00 0. -1.
    10030    2    1    2    0    0  0.00000000000E+00  0.00000000000E+00  0.88511183605E+03  0.15739753693E+04  0.13015281407E+04 0.  0.
        5    1    3    3  502    0  0.28537380635E+03  0.14585108732E+03  0.11274685456E+04  0.11721425512E+04  0.46999998093E+01 0.  1.
       -5    1    3    3    0  502 -0.28537380635E+03 -0.14585108732E+03 -0.24235670957E+03  0.40183281810E+03  0.46999998093E+01 0. -1.
</event>
<event>
 5   0  0.1475396E-04  0.1297099E+04  0.7818609E-02  0.9031869E-01
        1   -1    0    0  501    0  0.00000000000E+00  0.00000000000E+00  0.48117073288E+03  0.48117073291E+03  0.50400001928E-02 0.  1.
       -1   -1    0    0    0  501  0.00000000000E+00  0.00000000000E+00 -0.87415262110E+03  0.87415262111E+03  0.50400001928E-02 0. -1.
    10030    2    1    2    0    0  0.00000000000E+00  0.00000000000E+00 -0.39298188821E+03  0.13553233540E+04  0.12970993137E+04 0.  0.
        3    1    3    3  502    0 -0.21238130374E+03  0.45406771715E+03  0.23348179952E+03  0.55298921404E+03  0.10100000352E+00 0.  1.
       -3    1    3    3    0  502  0.21238130374E+03 -0.45406771715E+03 -0.62646368773E+03  0.80233413998E+03  0.10100000352E+00 0. -1.
</event>
<event>
 5   0  0.2661377E-04  0.1299861E+04  0.7818609E-02  0.9029675E-01
        2   -1    0    0  501    0  0.00000000000E+00  0.00000000000E+00  0.45685034780E+03  0.45685034781E+03  0.25500000920E-02 0.  1.
       -2   -1    0    0    0  501  0.00000000000E+00  0.00000000000E+00 -0.92461328888E+03  0.92461328888E+03  0.25500000920E-02 0. -1.
    10030    2    1    2    0    0  0.00000000000E+00  0.00000000000E+00 -0.46776294108E+03  0.13814636367E+04  0.12998613813E+04 0.  0.
        5    1    3    3  502    0 -0.26437263918E+02  0.50593860137E+03 -0.66651816064E+03  0.83722239921E+03  0.46999998093E+01 0. -1.
       -5    1    3    3    0  502  0.26437263918E+02 -0.50593860137E+03  0.19875521956E+03  0.54424123748E+03  0.46999998093E+01 0.  1.
</event>
<event>
 5   0  0.1476511E-04  0.1300256E+04  0.7818609E-02  0.9029362E-01
       -1   -1    0    0    0  501  0.00000000000E+00  0.00000000000E+00  0.29831621994E+03  0.29831621998E+03  0.50400001928E-02 0. -1.
        1   -1    0    0  501    0  0.00000000000E+00  0.00000000000E+00 -0.14168411567E+04  0.14168411567E+04  0.50400001928E-02 0.  1.
    10030    2    1    2    0    0  0.00000000000E+00  0.00000000000E+00 -0.11185249368E+04  0.17151573767E+04  0.13002564334E+04 0.  0.
        2    1    3    3  502    0 -0.17672011965E+03  0.17243233369E+03 -0.13525881118E+04  0.13749390934E+04  0.25500000920E-02 0.  1.
       -2    1    3    3    0  502  0.17672011965E+03 -0.17243233369E+03  0.23406317501E+03  0.34021828330E+03  0.25500000920E-02 0. -1.
</event>
<event>
 5   0  0.2794825E-04  0.1293984E+04  0.7818609E-02  0.9034350E-01
       -2   -1    0    0    0  501  0.00000000000E+00  0.00000000000E+00  0.76182293283E+03  0.76182293283E+03  0.25500000920E-02 0.  1.
        2   -1    0    0  501    0  0.00000000000E+00  0.00000000000E+00 -0.54946970659E+03  0.54946970659E+03  0.25500000920E-02 0. -1.
    10030    2    1    2    0    0  0.00000000000E+00  0.00000000000E+00  0.21235322624E+03  0.13112926394E+04  0.12939839618E+04 0.  0.
        1    1    3    3  502    0 -0.12221881148E+03  0.49993638531E+03 -0.29114545991E+03  0.59130322685E+03  0.50400001928E-02 0. -1.
       -1    1    3    3    0  502  0.12221881148E+03 -0.49993638531E+03  0.50349868615E+03  0.71998941257E+03  0.50400001928E-02 0.  1.
</event>
<event>
 5   0  0.1476511E-04  0.1300317E+04  0.7818609E-02  0.9029314E-01
       -1   -1    0    0    0  501  0.00000000000E+00  0.00000000000E+00  0.55285206602E+03  0.55285206604E+03  0.50400001928E-02 0.  1.
        1   -1    0    0  501    0  0.00000000000E+00  0.00000000000E+00 -0.76459204368E+03  0.76459204369E+03  0.50400001928E-02 0. -1.
    10030    2    1    2    0    0  0.00000000000E+00  0.00000000000E+00 -0.21173997766E+03  0.13174441097E+04  0.13003173321E+04 0.  0.
        2    1    3    3  502    0  0.29988375641E+02 -0.76170644849E+02  0.54760976241E+03  0.55369461051E+03  0.25500000920E-02 0.  1.
       -2    1    3    3    0  502 -0.29988375641E+02  0.76170644849E+02 -0.75934974007E+03  0.76374949922E+03  0.25500000920E-02 0. -1.
</event>
<event>
 5   0  0.1475396E-04  0.1300948E+04  0.7818609E-02  0.9028814E-01
        1   -1    0    0  501    0  0.00000000000E+00  0.00000000000E+00  0.78398475178E+03  0.78398475179E+03  0.50400001928E-02 0.  1.
       -1   -1    0    0    0  501  0.00000000000E+00  0.00000000000E+00 -0.53969985948E+03  0.53969985950E+03  0.50400001928E-02 0. -1.
    10030    2    1    2    0    0  0.00000000000E+00  0.00000000000E+00  0.24428489230E+03  0.13236846113E+04  0.13009480549E+04 0.  0.
        3    1    3    3  502    0  0.24103952534E+03  0.37899572809E+03 -0.35658950849E+03  0.57349272223E+03  0.10100000352E+00 0. -1.
       -3    1    3    3    0  502 -0.24103952534E+03 -0.37899572809E+03  0.60087440079E+03  0.75019188906E+03  0.10100000352E+00 0.  1.
</event>
<event>
 5   0  0.2794825E-04  0.1284071E+04  0.7818609E-02  0.9042293E-01
       -2   -1    0    0    0  501  0.00000000000E+00  0.00000000000E+00  0.41389532544E+03  0.41389532545E+03  0.25500000920E-02 0. -1.
        2   -1    0    0  501    0  0.00000000000E+00  0.00000000000E+00 -0.99592718938E+03  0.99592718938E+03  0.25500000920E-02 0.  1.
    10030    2    1    2    0    0  0.00000000000E+00  0.00000000000E+00 -0.58203186394E+03  0.14098225148E+04  0.12840710388E+04 0.  0.
        1    1    3    3  502    0 -0.10454236263E+02  0.62861733483E+03 -0.43391826410E+03  0.76390713091E+03  0.50400001928E-02 0.  1.
       -1    1    3    3    0  502  0.10454236263E+02 -0.62861733483E+03 -0.14811359984E+03  0.64591538393E+03  0.50400001928E-02 0. -1.
</event>
<event>
 5   0  0.1430636E-04  0.1300408E+04  0.7818609E-02  0.9029242E-01
       -1   -1    0    0    0  501  0.00000000000E+00  0.00000000000E+00  0.34094297130E+03  0.34094297133E+03  0.50400001928E-02 0.  1.
        1   -1    0    0  501    0  0.00000000000E+00  0.00000000000E+00 -0.12399884322E+04  0.12399884322E+04  0.50400001928E-02 0. -1.
    10030    2    1    2    0    0  0.00000000000E+00  0.00000000000E+00 -0.89904546093E+03  0.15809314036E+04  0.13004081521E+04 0.  0.
        4    1    3    3  502    0  0.10282022791E+03  0.63700677626E+03 -0.35215813857E+03  0.73509632004E+03  0.12699999809E+01 0. -1.
       -4    1    3    3    0  502 -0.10282022791E+03 -0.63700677626E+03 -0.54688732236E+03  0.84583508353E+03  0.12699999809E+01 0.  1.
</event>
<event>
 5   0  0.2723209E-04  0.1296457E+04  0.7818609E-02  0.9032380E-01
       -2   -1    0    0    0  501  0.00000000000E+00  0.00000000000E+00  0.92982350572E+03  0.92982350572E+03  0.25500000920E-02 0.  1.
        2   -1    0    0  501    0  0.00000000000E+00  0.00000000000E+00 -0.45191382635E+03  0.45191382635E+03  0.25500000920E-02 0. -1.
    10030    2    1    2    0    0  0.00000000000E+00  0.00000000000E+00  0.47790967937E+03  0.13817373321E+04  0.12964568613E+04 0.  0.
        2    1    3    3  502    0 -0.62797405622E+02  0.11518748804E+03 -0.43761667365E+03  0.45685886728E+03  0.25500000920E-02 0. -1.
       -2    1    3    3    0  502  0.62797405622E+02 -0.11518748804E+03  0.91552635302E+03  0.92487846479E+03  0.25500000920E-02 0.  1.
</event>
<event>
 5   0  0.1408341E-04  0.1301990E+04  0.7818609E-02  0.9027989E-01
        1   -1    0    0  501    0  0.00000000000E+00  0.00000000000E+00  0.11891848899E+04  0.11891848899E+04  0.50400001928E-02 0. -1.
       -1   -1    0    0    0  501  0.00000000000E+00  0.00000000000E+00 -0.35637378421E+03  0.35637378425E+03  0.50400001928E-02 0.  1.
    10030    2    1    2    0    0  0.00000000000E+00  0.00000000000E+00  0.83281110564E+03  0.15455586741E+04  0.13019897378E+04 0.  0.
        5    1    3    3  502    0 -0.42287838054E+03  0.38789484544E+02 -0.16929444980E+03  0.45717988754E+03  0.46999998093E+01 0.  1.
       -5    1    3    3    0  502  0.42287838054E+03 -0.38789484544E+02  0.10021055554E+04  0.10883787866E+04  0.46999998093E+01 0. -1.
</event>
<event>
 5   0  0.2756984E-04  0.1298811E+04  0.7818609E-02  0.9030508E-01
        2   -1    0    0  501    0  0.00000000000E+00  0.00000000000E+00  0.11426647318E+04  0.11426647318E+04  0.25500000920E-02 0. -1.
       -2   -1    0    0    0  501  0.00000000000E+00  0.00000000000E+00 -0.36907394785E+03  0.36907394786E+03  0.25500000920E-02 0.  1.
    10030    2    1    2    0    0  0.00000000000E+00  0.00000000000E+00  0.77359078399E+03  0.15117386797E+04  0.12988114315E+04 0.  0.
        3    1    3    3  502    0  0.18722066690E+03  0.62043603309E+03  0.43528190279E+03  0.78068098118E+03  0.10100000352E+00 0.  1.
       -3    1    3    3    0  502 -0.18722066690E+03 -0.62043603309E+03  0.33830888120E+03  0.73105769853E+03  0.10100000352E+00 0. -1.
</event>
<event>
 5   0  0.1476511E-04  0.1298528E+04  0.7818609E-02  0.9030733E-01
       -1   -1    0    0    0  501  0.00000000000E+00  0.00000000000E+00  0.29812926450E+03  0.29812926454E+03  0.50400001928E-02 0.  1.
        1   -1    0    0  501    0  0.00000000000E+00  0.00000000000E+00 -0.14139627739E+04  0.14139627739E+04  0.50400001928E-02 0. -1.
    10030    2    1    2    0    0  0.00000000000E+00  0.00000000000E+00 -0.11158335094E+04  0.17120920384E+04  0.12985279078E+04 0.  0.
        2    1    3    3  502    0  0.43585175475E+03 -0.48097953164E+03 -0.57815541507E+03  0.86923630041E+03  0.25500000920E-02 0.  1.
       -2    1    3    3    0  502 -0.43585175475E+03  0.48097953164E+03 -0.53767809429E+03  0.84285573800E+03  0.25500000920E-02 0. -1.
</event>
<event>
 5   0  0.2723209E-04  0.1295352E+04  0.7818609E-02  0.9033260E-01
        2   -1    0    0  501    0  0.00000000000E+00  0.00000000000E+00  0.12365880774E+04  0.12365880774E+04  0.25500000920E-02 0.  1.
       -2   -1    0    0    0  501  0.00000000000E+00  0.00000000000E+00 -0.33922687041E+03  0.33922687042E+03  0.25500000920E-02 0. -1.
    10030    2    1    2    0    0  0.00000000000E+00  0.00000000000E+00  0.89736120699E+03  0.15758149478E+04  0.12953515407E+04 0.  0.
        2    1    3    3  502    0 -0.88338968805E+02  0.60812837420E+03  0.69757621351E+03  0.92964319315E+03  0.25500000920E-02 0.  1.
       -2    1    3    3    0  502  0.88338968805E+02 -0.60812837420E+03  0.19978499348E+03  0.64617175467E+03  0.25500000920E-02 0. -1.
</event>
<event>
 5   0  0.2794825E-04  0.1300175E+04  0.7818609E-02  0.9029426E-01
        2   -1    0    0  501    0  0.00000000000E+00  0.00000000000E+00  0.93290105566E+03  0.93290105566E+03  0.25500000920E-02 0. -1.
       -2   -1    0    0    0  501  0.00000000000E+00  0.00000000000E+00 -0.45301036210E+03  0.45301036211E+03  0.25500000920E-02 0.  1.
    10030    2    1    2    0    0  0.00000000000E+00  0.00000000000E+00  0.47989069356E+03  0.13859114178E+04  0.13001751344E+04 0.  0.
        1    1    3    3  502    0 -0.18354104923E+03 -0.24241345076E+03  0.85243297766E+03  0.90503788831E+03  0.50400001928E-02 0. -1.
       -1    1    3    3    0  502  0.18354104923E+03  0.24241345076E+03 -0.37254228410E+03  0.48087352945E+03  0.50400001928E-02 0.  1.
</event>
<event>
 5   0  0.1475396E-04  0.1300731E+04  0.7818609E-02  0.9028986E-01
       -1   -1    0    0    0  501  0.00000000000E+00  0.00000000000E+00  0.40577053166E+03  0.40577053169E+03  0.50400001928E-02 0. -1.
        1   -1    0    0  501    0  0.00000000000E+00  0.00000000000E+00 -0.10423998878E+04  0.10423998878E+04  0.50400001928E-02 0.  1.
    10030    2    1    2    0    0  0.00000000000E+00  0.00000000000E+00 -0.63662935610E+03  0.14481704195E+04  0.13007308049E+04 0.  0.
        3    1    3    3  502    0  0.64715217409E+03  0.27835097499E+02 -0.38318034235E+03  0.75260076670E+03  0.10100000352E+00 0. -1.
       -3    1    3    3    0  502 -0.64715217409E+03 -0.27835097499E+02 -0.25344901375E+03  0.69556965277E+03  0.10100000352E+00 0.  1.
</event>
<event>
 5   0  0.1430636E-04  0.1299366E+04  0.7818609E-02  0.9030068E-01
       -1   -1    0    0    0  501  0.00000000000E+00  0.00000000000E+00  0.58304099188E+03  0.58304099191E+03  0.50400001928E-02 0. -1.
        1   -1    0    0  501    0  0.00000000000E+00  0.00000000000E+00 -0.72394198988E+03  0.72394198989E+03  0.50400001928E-02 0.  1.
    10030    2    1    2    0    0  0.00000000000E+00  0.00000000000E+00 -0.14090099799E+03  0.13069829818E+04  0.12993657774E+04 0.  0.
        4    1    3    3  502    0  0.60888885075E+03 -0.19103477678E+02  0.15665098356E+03  0.62900852059E+03  0.12699999809E+01 0. -1.
       -4    1    3    3    0  502 -0.60888885075E+03  0.19103477678E+02 -0.29755198156E+03  0.67797446121E+03  0.12699999809E+01 0.  1.
</event>
<event>
 5   0  0.2723209E-04  0.1299321E+04  0.7818609E-02  0.9030104E-01
       -2   -1    0    0    0  501  0.00000000000E+00  0.00000000000E+00  0.53867485469E+03  0.53867485469E+03  0.25500000920E-02 0.  1.
        2   -1    0    0  501    0  0.00000000000E+00  0.00000000000E+00 -0.78351325903E+03  0.78351325903E+03  0.25500000920E-02 0. -1.
    10030    2    1    2    0    0  0.00000000000E+00  0.00000000000E+00 -0.24483840434E+03  0.13221881137E+04  0.12993211935E+04 0.  0.
        2    1    3    3  502    0  0.47859526480E+03 -0.43728910017E+03 -0.16539643049E+03  0.66905243729E+03  0.25500000920E-02 0.  1.
       -2    1    3    3    0  502 -0.47859526480E+03  0.43728910017E+03 -0.79441973853E+02  0.65313567644E+03  0.25500000920E-02 0. -1.
</event>
<event>
 5   0  0.2573071E-04  0.1300712E+04  0.7818609E-02  0.9029001E-01
        2   -1    0    0  501    0  0.00000000000E+00  0.00000000000E+00  0.18737886187E+04  0.18737886187E+04  0.25500000920E-02 0. -1.
       -2   -1    0    0    0  501  0.00000000000E+00  0.00000000000E+00 -0.22572602252E+03  0.22572602253E+03  0.25500000920E-02 0.  1.
    10030    2    1    2    0    0  0.00000000000E+00  0.00000000000E+00  0.16480625961E+04  0.20995146412E+04  0.13007118850E+04 0.  0.
        4    1    3    3  502    0 -0.59169985138E+03  0.89333940752E+02  0.41291343348E+03  0.72704084035E+03  0.12699999809E+01 0.  1.
       -4    1    3    3    0  502  0.59169985138E+03 -0.89333940752E+02  0.12351491627E+04  0.13724738008E+04  0.12699999809E+01 0. -1.
</event>
<event>
 5   0  0.2756984E-04  0.1311396E+04  0.7818609E-02  0.9020576E-01
       -2   -1    0    0    0  501  0.00000000000E+00  0.00000000000E+00  0.31363574788E+03  0.31363574789E+03  0.25500000920E-02 0. -1.
        2   -1    0    0  501    0  0.00000000000E+00  0.00000000000E+00 -0.13708260425E+04  0.13708260425E+04  0.25500000920E-02 0.  1.
    10030    2    1    2    0    0  0.00000000000E+00  0.00000000000E+00 -0.10571902946E+04  0.16844617904E+04  0.13113962804E+04 0.  0.
        3    1    3    3  502    0 -0.50789213822E+03 -0.35222309502E+03 -0.80978914662E+03  0.10187119342E+04  0.10100000352E+00 0.  1.
       -3    1    3    3    0  502  0.50789213822E+03  0.35222309502E+03 -0.24740114798E+03  0.66574985615E+03  0.10100000352E+00 0. -1.
</event>
<event>
 5   0  0.2661377E-04  0.1300143E+04  0.7818609E-02  0.9029452E-01
       -2   -1    0    0    0  501  0.00000000000E+00  0.00000000000E+00  0.36051394199E+03  0.36051394200E+03  0.25500000920E-02 0.  1.
        2   -1    0    0  501    0  0.00000000000E+00  0.00000000000E+00 -0.11721950657E+04  0.11721950657E+04  0.25500000920E-02 0. -1.
    10030    2    1    2    0    0  0.00000000000E+00  0.00000000000E+00 -0.81168112368E+03  0.15327090077E+04  0.13001425521E+04 0.  0.
        5    1    3    3  502    0 -0.30830843245E+03  0.39907622871E+03  0.77721557789E+02  0.51027311940E+03  0.46999998093E+01 0.  1.
       -5    1    3    3    0  502  0.30830843245E+03 -0.39907622871E+03 -0.88940268147E+03  0.10224358883E+04  0.46999998093E+01 0. -1.
</event>
<event>
 5   0  0.1430636E-04  0.1299167E+04  0.7818609E-02  0.9030226E-01
       -1   -1    0    0    0  501  0.00000000000E+00  0.00000000000E+00  0.43880764175E+03  0.43880764178E+03  0.50400001928E-02 0.  1.
        1   -1    0    0  501    0  0.00000000000E+00  0.00000000000E+00 -0.96160294106E+03  0.96160294107E+03  0.50400001928E-02 0. -1.
    10030    2    1    2    0    0  0.00000000000E+00  0.00000000000E+00 -0.52279529931E+03  0.14004105828E+04  0.12991669930E+04 0.  0.
        4    1    3    3  502    0  0.28157439013E+03 -0.17976035443E+03 -0.86191105458E+03  0.92438639168E+03  0.12699999809E+01 0. -1.
       -4    1    3    3    0  502 -0.28157439013E+03  0.17976035443E+03  0.33911575528E+03  0.47602419117E+03  0.12699999809E+01 0.  1.
</event>
<event>
 5   0  0.1408341E-04  0.1301440E+04  0.7818609E-02  0.9028424E-01
        1   -1    0    0  501    0  0.00000000000E+00  0.00000000000E+00  0.56783040360E+03  0.56783040362E+03  0.50400001928E-02 0.  1.
       -1   -1    0    0    0  501  0.00000000000E+00  0.00000000000E+00 -0.74570923672E+03  0.74570923673E+03  0.50400001928E-02 0. -1.
    10030    2    1    2    0    0  0.00000000000E+00  0.00000000000E+00 -0.17787883312E+03  0.13135396404E+04  0.13014397825E+04 0.  0.
        5    1    3    3  502    0 -0.51623831402E+03 -0.26551864556E+03 -0.38563185839E+03  0.69694775141E+03  0.46999998093E+01 0. -1.
       -5    1    3    3    0  502  0.51623831402E+03  0.26551864556E+03  0.20775302527E+03  0.61659188894E+03  0.46999998093E+01 0.  1.
</event>
<event>
 5   0  0.1479690E-04  0.1298125E+04  0.7818609E-02  0.9031053E-01
        1   -1    0    0  501    0  0.00000000000E+00  0.00000000000E+00  0.40983415594E+03  0.40983415597E+03  0.50400001928E-02 0. -1.
       -1   -1    0    0    0  501  0.00000000000E+00  0.00000000000E+00 -0.10279329478E+04  0.10279329478E+04  0.50400001928E-02 0.  1.
    10030    2    1    2    0    0  0.00000000000E+00  0.00000000000E+00 -0.61809879188E+03  0.14377671038E+04  0.12981248508E+04 0.  0.
        1    1    3    3  502    0  0.19297262176E+03  0.26127871292E+03 -0.93143902734E+03  0.98645002928E+03  0.50400001928E-02 0.  1.
       -1    1    3    3    0  502 -0.19297262176E+03 -0.26127871292E+03  0.31334023546E+03  0.45131707452E+03  0.50400001928E-02 0. -1.
</event>
<event>
 5   0  0.2573071E-04  0.1294359E+04  0.7818609E-02  0.9034051E-01
       -2   -1    0    0    0  501  0.00000000000E+00  0.00000000000E+00  0.38207408150E+03  0.38207408151E+03  0.25500000920E-02 0. -1.
        2   -1    0    0  501    0  0.00000000000E+00  0.00000000000E+00 -0.10962298787E+04  0.10962298787E+04  0.25500000920E-02 0.  1.
    10030    2    1    2    0    0  0.00000000000E+00  0.00000000000E+00 -0.71415579723E+03  0.14783039602E+04  0.12943585655E+04 0.  0.
        4    1    3    3  502    0 -0.59366990445E+03 -0.13876028693E+02 -0.65094277642E+03  0.88111554900E+03  0.12699999809E+01 0.  1.
       -4    1    3    3    0  502  0.59366990445E+03  0.13876028693E+02 -0.63213020805E+02  0.59718841124E+03  0.12699999809E+01 0. -1.
</event>
<event>
 5   0  0.2573071E-04  0.1300488E+04  0.7818609E-02  0.9029178E-01
        2   -1    0    0  501    0  0.00000000000E+00  0.00000000000E+00  0.13399548768E+04  0.13399548768E+04  0.25500000920E-02 0. -1.
       -2   -1    0    0    0  501  0.00000000000E+00  0.00000000000E+00 -0.31554589290E+03  0.31554589292E+03  0.25500000920E-02 0.  1.
    10030    2    1    2    0    0  0.00000000000E+00  0.00000000000E+00  0.10244089839E+04  0.16555007697E+04  0.13004879977E+04 0.  0.
        4    1    3    3  502    0  0.44184145920E+03  0.12694103047E+03  0.10976080718E+04  0.11899928540E+04  0.12699999809E+01 0. -1.
       -4    1    3    3    0  502 -0.44184145920E+03 -0.12694103047E+03 -0.73199087885E+02  0.46550791578E+03  0.12699999809E+01 0.  1.
</event>
<event>
 5   0  0.1002887E-04  0.1301919E+04  0.7818609E-02  0.9028045E-01
        3   -1    0    0  501    0  0.00000000000E+00  0.00000000000E+00  0.41746478465E+03  0.41746479687E+03  0.10100000352E+00 0.  1.
       -3   -1    0    0    0  501  0.00000000000E+00  0.00000000000E+00 -0.10150519450E+04  0.10150519500E+04  0.10100000352E+00 0. -1.
    10030    2    1    2    0    0  0.00000000000E+00  0.00000000000E+00 -0.59758716033E+03  0.14325167469E+04  0.13019192816E+04 0.  0.
        2    1    3    3  502    0  0.64547774786E+03 -0.66042924317E+02 -0.35644468545E+03  0.74030804711E+03  0.25500000920E-02 0.  1.
       -2    1    3    3    0  502 -0.64547774786E+03  0.66042924317E+02 -0.24114247488E+03  0.69220869976E+03  0.25500000920E-02 0. -1.
</event>
<event>
 5   0  0.2723209E-04  0.1297934E+04  0.7818609E-02  0.9031205E-01
       -2   -1    0    0    0  501  0.00000000000E+00  0.00000000000E+00  0.10671350999E+04  0.10671350999E+04  0.25500000920E-02 0.  1.
        2   -1    0    0  501    0  0.00000000000E+00  0.00000000000E+00 -0.39466242648E+03  0.39466242649E+03  0.25500000920E-02 0. -1.
    10030    2    1    2    0    0  0.00000000000E+00  0.00000000000E+00  0.67247267338E+03  0.14617975264E+04  0.12979339396E+04 0.  0.
        2    1    3    3  502    0 -0.90698431823E+02 -0.58810559444E+03  0.62789742569E+03  0.86507200448E+03  0.25500000920E-02 0.  1.
       -2    1    3    3    0  502  0.90698431823E+02  0.58810559444E+03  0.44575247687E+02  0.59672552187E+03  0.25500000920E-02 0. -1.
</event>
<event>
 5   0  0.1476511E-04  0.1307335E+04  0.7818609E-02  0.9023769E-01
        1   -1    0    0  501    0  0.00000000000E+00  0.00000000000E+00  0.13840496633E+04  0.13840496633E+04  0.50400001928E-02 0.  1.
       -1   -1    0    0    0  501  0.00000000000E+00  0.00000000000E+00 -0.30871813621E+03  0.30871813625E+03  0.50400001928E-02 0. -1.
    10030    2    1    2    0    0  0.00000000000E+00  0.00000000000E+00  0.10753315271E+04  0.16927677995E+04  0.13073350489E+04 0.  0.
        2    1    3    3  502    0  0.11182983378E+03  0.38535209439E+03  0.12058235161E+04  0.12708314209E+04  0.25500000920E-02 0.  1.
       -2    1    3    3    0  502 -0.11182983378E+03 -0.38535209439E+03 -0.13049198907E+03  0.42193637860E+03  0.25500000920E-02 0. -1.
</event>
<event>
 5   0  0.1475396E-04  0.1299134E+04  0.7818609E-02  0.9030252E-01
        1   -1    0    0  501    0  0.00000000000E+00  0.00000000000E+00  0.11537170817E+04  0.11537170817E+04  0.50400001928E-02 0. -1.
       -1   -1    0    0    0  501  0.00000000000E+00  0.00000000000E+00 -0.36571968434E+03  0.36571968438E+03  0.50400001928E-02 0.  1.
    10030    2    1    2    0    0  0.00000000000E+00  0.00000000000E+00  0.78799739731E+03  0.15194367660E+04  0.12991336297E+04 0.  0.
        3    1    3    3  502    0  0.60573571211E+03 -0.18152030875E+03  0.22024009510E+03  0.66960517106E+03  0.10100000352E+00 0.  1.
       -3    1    3    3    0  502 -0.60573571211E+03  0.18152030875E+03  0.56775730221E+03  0.84983159498E+03  0.10100000352E+00 0. -1.
</event>
<event>
 5   0  0.2661377E-04  0.1300782E+04  0.7818609E-02  0.9028945E-01
        2   -1    0    0  501    0  0.00000000000E+00  0.00000000000E+00  0.12728638759E+04  0.12728638759E+04  0.25500000920E-02 0. -1.
       -2   -1    0    0    0  501  0.00000000000E+00  0.00000000000E+00 -0.33232818984E+03  0.33232818985E+03  0.25500000920E-02 0.  1.
    10030    2    1    2    0    0  0.00000000000E+00  0.00000000000E+00  0.94053568604E+03  0.16051920657E+04  0.13007821459E+04 0.  0.
        5    1    3    3  502    0  0.29700816170E+03  0.46003381249E+03  0.37231188739E+02  0.54886538256E+03  0.46999998093E+01 0.  1.
       -5    1    3    3    0  502 -0.29700816170E+03 -0.46003381249E+03  0.90330449730E+03  0.10563266832E+04  0.46999998093E+01 0. -1.
</event>
<event>
 5   0  0.2794825E-04  0.1300821E+04  0.7818609E-02  0.9028915E-01
        2   -1    0    0  501    0  0.00000000000E+00  0.00000000000E+00  0.46819982208E+03  0.46819982208E+03  0.25500000920E-02 0. -1.
       -2   -1    0    0    0  501  0.00000000000E+00  0.00000000000E+00 -0.90353211625E+03  0.90353211625E+03  0.25500000920E-02 0.  1.
    10030    2    1    2    0    0  0.00000000000E+00  0.00000000000E+00 -0.43533229417E+03  0.13717319383E+04  0.13008206273E+04 0.  0.
        1    1    3    3  502    0  0.25426004882E+03 -0.28015739302E+03  0.34022714882E+03  0.50881317801E+03  0.50400001928E-02 0. -1.
       -1    1    3    3    0  502 -0.25426004882E+03  0.28015739302E+03 -0.77555944299E+03  0.86291876033E+03  0.50400001928E-02 0.  1.
</event>
<event>
 5   0  0.1430636E-04  0.1300152E+04  0.7818609E-02  0.9029444E-01
       -1   -1    0    0    0  501  0.00000000000E+00  0.00000000000E+00  0.60574460088E+03  0.60574460090E+03  0.50400001928E-02 0.  1.
        1   -1    0    0  501    0  0.00000000000E+00  0.00000000000E+00 -0.69765203092E+03  0.69765203094E+03  0.50400001928E-02 0. -1.
    10030    2    1    2    0    0  0.00000000000E+00  0.00000000000E+00 -0.91907430039E+02  0.13033966318E+04  0.13001522235E+04 0.  0.
        4    1    3    3  502    0  0.18701937848E+03 -0.62130347173E+03 -0.58152431494E+01  0.64886800034E+03  0.12699999809E+01 0.  1.
       -4    1    3    3    0  502 -0.18701937848E+03  0.62130347173E+03 -0.86092186890E+02  0.65452863150E+03  0.12699999809E+01 0. -1.
</event>
<event>
 5   0  0.1430636E-04  0.1300860E+04  0.7818609E-02  0.9028883E-01
       -1   -1    0    0    0  501  0.00000000000E+00  0.00000000000E+00  0.12179148410E+04  0.12179148410E+04  0.50400001928E-02 0.  1.
        1   -1    0    0  501    0  0.00000000000E+00  0.00000000000E+00 -0.34736373549E+03  0.34736373553E+03  0.50400001928E-02 0. -1.
    10030    2    1    2    0    0  0.00000000000E+00  0.00000000000E+00  0.87055110551E+03  0.15652785765E+04  0.13008604056E+04 0.  0.
        4    1    3    3  502    0 -0.16697917273E+03  0.21393956533E+03 -0.27598039352E+03  0.38706455824E+03  0.12699999809E+01 0. -1.
       -4    1    3    3    0  502  0.16697917273E+03 -0.21393956533E+03  0.11465314990E+04  0.11782140183E+04  0.12699999809E+01 0.  1.
</event>
<event>
 5   0  0.1408341E-04  0.1293805E+04  0.7818609E-02  0.9034492E-01
        1   -1    0    0  501    0  0.00000000000E+00  0.00000000000E+00  0.50591699004E+03  0.50591699007E+03  0.50400001928E-02 0.  1.
       -1   -1    0    0    0  501  0.00000000000E+00  0.00000000000E+00 -0.82717748288E+03  0.82717748289E+03  0.50400001928E-02 0. -1.
    10030    2    1    2    0    0  0.00000000000E+00  0.00000000000E+00 -0.32126049284E+03  0.13330944730E+04  0.12938054605E+04 0.  0.
        5    1    3    3  502    0 -0.16747212521E+03  0.39893986341E+03 -0.65612979725E+03  0.78595695059E+03  0.46999998093E+01 0. -1.
       -5    1    3    3    0  502  0.16747212521E+03 -0.39893986341E+03  0.33486930442E+03  0.54713752237E+03  0.46999998093E+01 0.  1.
</event>
<event>
 5   0  0.2573071E-04  0.1301599E+04  0.7818609E-02  0.9028298E-01
        2   -1    0    0  501    0  0.00000000000E+00  0.00000000000E+00  0.10617435583E+04  0.10617435584E+04  0.25500000920E-02 0.  1.
       -2   -1    0    0    0  501  0.00000000000E+00  0.00000000000E+00 -0.39890998932E+03  0.39890998933E+03  0.25500000920E-02 0. -1.
    10030    2    1    2    0    0  0.00000000000E+00  0.00000000000E+00  0.66283356903E+03  0.14606535477E+04  0.13015991880E+04 0.  0.
        4    1    3    3  502    0 -0.31330597693E+03 -0.37106627363E+03  0.81758642647E+03  0.95094689244E+03  0.12699999809E+01 0.  1.
       -4    1    3    3    0  502  0.31330597693E+03  0.37106627363E+03 -0.15475285744E+03  0.50970665523E+03  0.12699999809E+01 0. -1.
</event>
<event>
 5   0  0.1408341E-04  0.1299688E+04  0.7818609E-02  0.9029813E-01
       -1   -1    0    0    0  501  0.00000000000E+00  0.00000000000E+00  0.73507411374E+03  0.73507411376E+03  0.50400001928E-02 0. -1.
        1   -1    0    0  501    0  0.00000000000E+00  0.00000000000E+00 -0.57449595544E+03  0.57449595547E+03  0.50400001928E-02 0.  1.
    10030    2    1    2    0    0  0.00000000000E+00  0.00000000000E+00  0.16057815830E+03  0.13095700692E+04  0.12996878169E+04 0.  0.
        5    1    3    3  502    0  0.15070059774E+03 -0.14498396645E+01  0.71720471976E+03  0.73288298673E+03  0.46999998093E+01 0. -1.
       -5    1    3    3    0  502 -0.15070059774E+03  0.14498396645E+01 -0.55662656146E+03  0.57668708250E+03  0.46999998093E+01 0.  1.
</event>
<event>
 5   0  0.2756984E-04  0.1306045E+04  0.7818609E-02  0.9024785E-01
        2   -1    0    0  501    0  0.00000000000E+00  0.00000000000E+00  0.19782312817E+04  0.19782312817E+04  0.25500000920E-02 0.  1.
       -2   -1    0    0    0  501  0.00000000000E+00  0.00000000000E+00 -0.21556556031E+03  0.21556556033E+03  0.25500000920E-02 0. -1.
    10030    2    1    2    0    0  0.00000000000E+00  0.00000000000E+00  0.17626657214E+04  0.21937968420E+04  0.13060452285E+04 0.  0.
        3    1    3    3  502    0  0.44868164789E+03  0.46515335659E+03  0.72415817900E+03  0.97061214948E+03  0.10100000352E+00 0. -1.
       -3    1    3    3    0  502 -0.44868164789E+03 -0.46515335659E+03  0.10385075424E+04  0.12231846926E+04  0.10100000352E+00 0.  1.
</event>
<event>
 5   0  0.2756984E-04  0.1299406E+04  0.7818609E-02  0.9030037E-01
       -2   -1    0    0    0  501  0.00000000000E+00  0.00000000000E+00  0.13128140106E+04  0.13128140106E+04  0.25500000920E-02 0.  1.
        2   -1    0    0  501    0  0.00000000000E+00  0.00000000000E+00 -0.32153348950E+03  0.32153348951E+03  0.25500000920E-02 0. -1.
    10030    2    1    2    0    0  0.00000000000E+00  0.00000000000E+00  0.99128052111E+03  0.16343475001E+04  0.12994055101E+04 0.  0.
        3    1    3    3  502    0  0.44161211293E+03  0.21239279788E+03  0.10321944113E+04  0.11426098511E+04  0.10100000352E+00 0.  1.
       -3    1    3    3    0  502 -0.44161211293E+03 -0.21239279788E+03 -0.40913890188E+02  0.49173764905E+03  0.10100000352E+00 0. -1.
</event>
<event>
 5   0  0.1002887E-04  0.1299366E+04  0.7818609E-02  0.9030068E-01
        3   -1    0    0  501    0  0.00000000000E+00  0.00000000000E+00  0.32095333116E+03  0.32095334706E+03  0.10100000352E+00 0. -1.
       -3   -1    0    0    0  501  0.00000000000E+00  0.00000000000E+00 -0.13151071834E+04  0.13151071873E+04  0.10100000352E+00 0.  1.
    10030    2    1    2    0    0  0.00000000000E+00  0.00000000000E+00 -0.99415385224E+03  0.16360605343E+04  0.12993660724E+04 0.  0.
        4    1    3    3  502    0  0.28765150020E+03  0.60317213665E+02  0.23245898515E+03  0.37472702666E+03  0.12699999809E+01 0. -1.
       -4    1    3    3    0  502 -0.28765150020E+03 -0.60317213665E+02 -0.12266128374E+04  0.12613335077E+04  0.12699999809E+01 0.  1.
</event>
<event>
 5   0  0.1408341E-04  0.1301958E+04  0.7818609E-02  0.9028014E-01
        1   -1    0    0  501    0  0.00000000000E+00  0.00000000000E+00  0.11683312732E+04  0.11683312732E+04  0.50400001928E-02 0.  1.
       -1   -1    0    0    0  501  0.00000000000E+00  0.00000000000E+00 -0.36271677004E+03  0.36271677007E+03  0.50400001928E-02 0. -1.
    10030    2    1    2    0    0  0.00000000000E+00  0.00000000000E+00  0.80561450320E+03  0.15310480433E+04  0.13019575197E+04 0.  0.
        5    1    3    3  502    0 -0.49400560553E+03  0.17992128049E+03 -0.48580181453E+02  0.52801072858E+03  0.46999998093E+01 0. -1.
       -5    1    3    3    0  502  0.49400560553E+03 -0.17992128049E+03  0.85419468465E+03  0.10030373147E+04  0.46999998093E+01 0.  1.
</event>
<event>
 5   0  0.2756984E-04  0.1302358E+04  0.7818609E-02  0.9027697E-01
        2   -1    0    0  501    0  0.00000000000E+00  0.00000000000E+00  0.10706754859E+04  0.10706754859E+04  0.25500000920E-02 0.  1.
       -2   -1    0    0    0  501  0.00000000000E+00  0.00000000000E+00 -0.39604357205E+03  0.39604357206E+03  0.25500000920E-02 0. -1.
    10030    2    1    2    0    0  0.00000000000E+00  0.00000000000E+00  0.67463191382E+03  0.14667190579E+04  0.13023580828E+04 0.  0.
        3    1    3    3  502    0 -0.50746162383E+03  0.61308583879E+02  0.79166311911E+03  0.94234099267E+03  0.10100000352E+00 0.  1.
       -3    1    3    3    0  502  0.50746162383E+03 -0.61308583879E+02 -0.11703120529E+03  0.52437806526E+03  0.10100000352E+00 0. -1.
</event>
<event>
 5   0  0.1002887E-04  0.1300684E+04  0.7818609E-02  0.9029023E-01
        3   -1    0    0  501    0  0.00000000000E+00  0.00000000000E+00  0.59545265856E+03  0.59545266712E+03  0.10100000352E+00 0.  1.
       -3   -1    0    0    0  501  0.00000000000E+00  0.00000000000E+00 -0.71029120805E+03  0.71029121523E+03  0.10100000352E+00 0. -1.
    10030    2    1    2    0    0  0.00000000000E+00  0.00000000000E+00 -0.11483854949E+03  0.13057438823E+04  0.13006841253E+04 0.  0.
        1    1    3    3  502    0 -0.25959226201E+02 -0.10864231405E+03  0.58575059065E+03  0.59630595192E+03  0.50400001928E-02 0.  1.
       -1    1    3    3    0  502  0.25959226201E+02  0.10864231405E+03 -0.70058914014E+03  0.70943793043E+03  0.50400001928E-02 0. -1.
</event>
<event>
 5   0  0.2723209E-04  0.1300311E+04  0.7818609E-02  0.9029318E-01
        2   -1    0    0  501    0  0.00000000000E+00  0.00000000000E+00  0.89687225016E+03  0.89687225016E+03  0.25500000920E-02 0. -1.
       -2   -1    0    0    0  501  0.00000000000E+00  0.00000000000E+00 -0.47130721168E+03  0.47130721169E+03  0.25500000920E-02 0.  1.
    10030    2    1    2    0    0  0.00000000000E+00  0.00000000000E+00  0.42556503848E+03  0.13681794618E+04  0.13003112850E+04 0.  0.
        2    1    3    3  502    0  0.17293542190E+03  0.47879138427E+03  0.63830939698E+03  0.81644763217E+03  0.25500000920E-02 0. -1.
       -2    1    3    3    0  502 -0.17293542190E+03 -0.47879138427E+03 -0.21274435850E+03  0.55173182968E+03  0.25500000920E-02 0.  1.
</event>
<event>
 5   0  0.2794825E-04  0.1298500E+04  0.7818609E-02  0.9030756E-01
       -2   -1    0    0    0  501  0.00000000000E+00  0.00000000000E+00  0.20814421732E+03  0.20814421734E+03  0.25500000920E-02 0.  1.
        2   -1    0    0  501    0  0.00000000000E+00  0.00000000000E+00 -0.20251607769E+04  0.20251607769E+04  0.25500000920E-02 0. -1.
    10030    2    1    2    0    0  0.00000000000E+00  0.00000000000E+00 -0.18170165596E+04  0.22333049943E+04  0.12984999113E+04 0.  0.
        1    1    3    3  502    0  0.10247019647E+03  0.38679376066E+03 -0.17878793100E+04  0.18321086162E+04  0.50400001928E-02 0. -1.
       -1    1    3    3    0  502 -0.10247019647E+03 -0.38679376066E+03 -0.29137249644E+02  0.40119637809E+03  0.50400001928E-02 0.  1.
</event>
<event>
 5   0  0.1479690E-04  0.1302464E+04  0.7818609E-02  0.9027613E-01
       -1   -1    0    0    0  501  0.00000000000E+00  0.00000000000E+00  0.31143363806E+03  0.31143363810E+03  0.50400001928E-02 0. -1.
        1   -1    0    0  501    0  0.00000000000E+00  0.00000000000E+00 -0.13617771708E+04  0.13617771708E+04  0.50400001928E-02 0.  1.
    10030    2    1    2    0    0  0.00000000000E+00  0.00000000000E+00 -0.10503435328E+04  0.16732108089E+04  0.13024641547E+04 0.  0.
        1    1    3    3  502    0 -0.51576243611E+03 -0.13732713598E+03 -0.45817181553E+02  0.53569473296E+03  0.50400001928E-02 0. -1.
       -1    1    3    3    0  502  0.51576243611E+03  0.13732713598E+03 -0.10045263512E+04  0.11375160760E+04  0.50400001928E-02 0.  1.
</event>
<event>
 5   0  0.2573071E-04  0.1299769E+04  0.7818609E-02  0.9029748E-01
        2   -1    0    0  501    0  0.00000000000E+00  0.00000000000E+00  0.16461994497E+04  0.16461994497E+04  0.25500000920E-02 0. -1.
       -2   -1    0    0    0  501  0.00000000000E+00  0.00000000000E+00 -0.25656051908E+03  0.25656051909E+03  0.25500000920E-02 0.  1.
    10030    2    1    2    0    0  0.00000000000E+00  0.00000000000E+00  0.13896389306E+04  0.19027599688E+04  0.12997688800E+04 0.  0.
        4    1    3    3  502    0  0.22749660030E+02  0.39744248098E+03 -0.57172087195E+02  0.40217947881E+03  0.12699999809E+01 0.  1.
       -4    1    3    3    0  502 -0.22749660030E+02 -0.39744248098E+03  0.14468110178E+04  0.15005804900E+04  0.12699999809E+01 0. -1.
</event>
<event>
 5   0  0.2573071E-04  0.1301945E+04  0.7818609E-02  0.9028024E-01
        2   -1    0    0  501    0  0.00000000000E+00  0.00000000000E+00  0.76441657699E+03  0.76441657700E+03  0.25500000920E-02 0.  1.
       -2   -1    0    0    0  501  0.00000000000E+00  0.00000000000E+00 -0.55436429302E+03  0.55436429302E+03  0.25500000920E-02 0. -1.
    10030    2    1    2    0    0  0.00000000000E+00  0.00000000000E+00  0.21005228398E+03  0.13187808700E+04  0.13019450914E+04 0.  0.
        4    1    3    3  502    0  0.53349328207E+03 -0.28473828923E+03 -0.13907277693E+03  0.62051093910E+03  0.12699999809E+01 0. -1.
       -4    1    3    3    0  502 -0.53349328207E+03  0.28473828923E+03  0.34912506091E+03  0.69826993091E+03  0.12699999809E+01 0.  1.
</event>
<event>
 5   0  0.2661377E-04  0.1299316E+04  0.7818609E-02  0.9030107E-01
        2   -1    0    0  501    0  0.00000000000E+00  0.00000000000E+00  0.74601414329E+03  0.74601414329E+03  0.25500000920E-02 0.  1.
       -2   -1    0    0    0  501  0.00000000000E+00  0.00000000000E+00 -0.56574777163E+03  0.56574777163E+03  0.25500000920E-02 0. -1.
    10030    2    1    2    0    0  0.00000000000E+00  0.00000000000E+00  0.18026637166E+03  0.13117619149E+04  0.12993164960E+04 0.  0.
        5    1    3    3  502    0 -0.59088819023E+03  0.19650389381E+03 -0.96764612759E+02  0.63019688504E+03  0.46999998093E+01 0. -1.
       -5    1    3    3    0  502  0.59088819023E+03 -0.19650389381E+03  0.27703098442E+03  0.68156502989E+03  0.46999998093E+01 0.  1.
</event>
<event>
 5   0  0.1430636E-04  0.1300288E+04  0.7818609E-02  0.9029337E-01
        1   -1    0    0  501    0  0.00000000000E+00  0.00000000000E+00  0.13091703457E+04  0.13091703458E+04  0.50400001928E-02 0.  1.
       -1   -1    0    0    0  501  0.00000000000E+00  0.00000000000E+00 -0.32286652566E+03  0.32286652570E+03  0.50400001928E-02 0. -1.
    10030    2    1    2    0    0  0.00000000000E+00  0.00000000000E+00  0.98630382008E+03  0.16320368715E+04  0.13002880928E+04 0.  0.
        4    1    3    3  502    0 -0.15697809829E+03  0.26233967126E+03  0.12133209330E+04  0.12512447905E+04  0.12699999809E+01 0.  1.
       -4    1    3    3    0  502  0.15697809829E+03 -0.26233967126E+03 -0.22701711291E+03  0.38079208095E+03  0.12699999809E+01 0. -1.
</event>
<event>
 5   0  0.1476511E-04  0.1271001E+04  0.7818609E-02  0.9052883E-01
       -1   -1    0    0    0  501  0.00000000000E+00  0.00000000000E+00  0.41691957573E+03  0.41691957576E+03  0.50400001928E-02 0.  1.
        1   -1    0    0  501    0  0.00000000000E+00  0.00000000000E+00 -0.96867879911E+03  0.96867879913E+03  0.50400001928E-02 0. -1.
    10030    2    1    2    0    0  0.00000000000E+00  0.00000000000E+00 -0.55175922338E+03  0.13855983749E+04  0.12710014225E+04 0.  0.
        2    1    3    3  502    0  0.26891825071E+03 -0.28730143592E+03  0.26811269526E+03  0.47617597379E+03  0.25500000920E-02 0.  1.
       -2    1    3    3    0  502 -0.26891825071E+03  0.28730143592E+03 -0.81987191864E+03  0.90942240110E+03  0.25500000920E-02 0. -1.
</event>
<event>
 5   0  0.2756984E-04  0.1299409E+04  0.7818609E-02  0.9030034E-01
       -2   -1    0    0    0  501  0.00000000000E+00  0.00000000000E+00  0.82227981860E+03  0.82227981861E+03  0.25500000920E-02 0.  1.
        2   -1    0    0  501    0  0.00000000000E+00  0.00000000000E+00 -0.51334815288E+03  0.51334815288E+03  0.25500000920E-02 0. -1.
    10030    2    1    2    0    0  0.00000000000E+00  0.00000000000E+00  0.30893166573E+03  0.13356279715E+04  0.12994088287E+04 0.  0.
        3    1    3    3  502    0 -0.57042376857E+02  0.64712371604E+03  0.16437184708E+03  0.67010525363E+03  0.10100000352E+00 0.  1.
       -3    1    3    3    0  502  0.57042376857E+02 -0.64712371604E+03  0.14455981865E+03  0.66552271786E+03  0.10100000352E+00 0. -1.
</event>
<event>
 5   0  0.2573071E-04  0.1292798E+04  0.7818609E-02  0.9035296E-01
        2   -1    0    0  501    0  0.00000000000E+00  0.00000000000E+00  0.15184681252E+04  0.15184681252E+04  0.25500000920E-02 0.  1.
       -2   -1    0    0    0  501  0.00000000000E+00  0.00000000000E+00 -0.27516647310E+03  0.27516647311E+03  0.25500000920E-02 0. -1.
    10030    2    1    2    0    0  0.00000000000E+00  0.00000000000E+00  0.12433016521E+04  0.17936345983E+04  0.12927977700E+04 0.  0.
        4    1    3    3  502    0 -0.78592290387E+02  0.11735308690E+03  0.14967962028E+04  0.15034457026E+04  0.12699999809E+01 0.  1.
       -4    1    3    3    0  502  0.78592290387E+02 -0.11735308690E+03 -0.25349455064E+03  0.29018889575E+03  0.12699999809E+01 0. -1.
</event>
<event>
 5   0  0.2573071E-04  0.1313829E+04  0.7818609E-02  0.9018670E-01
       -2   -1    0    0    0  501  0.00000000000E+00  0.00000000000E+00  0.86071780270E+03  0.86071780271E+03  0.25500000920E-02 0.  1.
        2   -1    0    0  501    0  0.00000000000E+00  0.00000000000E+00 -0.50136858735E+03  0.50136858736E+03  0.25500000920E-02 0. -1.
    10030    2    1    2    0    0  0.00000000000E+00  0.00000000000E+00  0.35934921535E+03  0.13620863901E+04  0.13138293175E+04 0.  0.
        4    1    3    3  502    0 -0.70922128006E+02  0.11783053940E+03 -0.48627522080E+03  0.50535055904E+03  0.12699999809E+01 0. -1.
       -4    1    3    3    0  502  0.70922128006E+02 -0.11783053940E+03  0.84562443615E+03  0.85673583103E+03  0.12699999809E+01 0.  1.
</event>
<event>
 5   0  0.1475396E-04  0.1301681E+04  0.7818609E-02  0.9028233E-01
        1   -1    0    0  501    0  0.00000000000E+00  0.00000000000E+00  0.89731557313E+03  0.89731557314E+03  0.50400001928E-02 0.  1.
       -1   -1    0    0    0  501  0.00000000000E+00  0.00000000000E+00 -0.47206729048E+03  0.47206729051E+03  0.50400001928E-02 0. -1.
    10030    2    1    2    0    0  0.00000000000E+00  0.00000000000E+00  0.42524828265E+03  0.13693828636E+04  0.13016809614E+04 0.  0.
        3    1    3    3  502    0  0.29102634281E+02  0.64399349748E+03  0.30682898058E+03  0.71394581142E+03  0.10100000352E+00 0.  1.
       -3    1    3    3    0  502 -0.29102634281E+02 -0.64399349748E+03  0.11841930207E+03  0.65543705222E+03  0.10100000352E+00 0. -1.
</event>
<event>
 5   0  0.1479690E-04  0.1298267E+04  0.7818609E-02  0.9030940E-01
        1   -1    0    0  501    0  0.00000000000E+00  0.00000000000E+00  0.56683110947E+03  0.56683110949E+03  0.50400001928E-02 0. -1.
       -1   -1    0    0    0  501  0.00000000000E+00  0.00000000000E+00 -0.74338642314E+03  0.74338642315E+03  0.50400001928E-02 0.  1.
    10030    2    1    2    0    0  0.00000000000E+00  0.00000000000E+00 -0.17655531367E+03  0.13102175326E+04  0.12982673854E+04 0.  0.
        1    1    3    3  502    0 -0.56154735839E+02  0.26849649383E+03 -0.68202188538E+03  0.73511738771E+03  0.50400001928E-02 0.  1.
       -1    1    3    3    0  502  0.56154735839E+02 -0.26849649383E+03  0.50546657171E+03  0.57510014493E+03  0.50400001928E-02 0. -1.
</event>
<event>
 5   0  0.1430636E-04  0.1299618E+04  0.7818609E-02  0.9029868E-01
        1   -1    0    0  501    0  0.00000000000E+00  0.00000000000E+00  0.20840968045E+04  0.20840968045E+04  0.50400001928E-02 0. -1.
       -1   -1    0    0    0  501  0.00000000000E+00  0.00000000000E+00 -0.20260652793E+03  0.20260652799E+03  0.50400001928E-02 0.  1.
    10030    2    1    2    0    0  0.00000000000E+00  0.00000000000E+00  0.18814902766E+04  0.22867033325E+04  0.12996178169E+04 0.  0.
        4    1    3    3  502    0 -0.26399889810E+03 -0.57899625559E+03  0.70919658971E+03  0.95283445464E+03  0.12699999809E+01 0.  1.
       -4    1    3    3    0  502  0.26399889810E+03  0.57899625559E+03  0.11722936869E+04  0.13338688779E+04  0.12699999809E+01 0. -1.
</event>
<event>
 5   0  0.2794825E-04  0.1299611E+04  0.7818609E-02  0.9029874E-01
        2   -1    0    0  501    0  0.00000000000E+00  0.00000000000E+00  0.55769365154E+03  0.55769365155E+03  0.25500000920E-02 0.  1.
       -2   -1    0    0    0  501  0.00000000000E+00  0.00000000000E+00 -0.75713060560E+03  0.75713060560E+03  0.25500000920E-02 0. -1.
    10030    2    1    2    0    0  0.00000000000E+00  0.00000000000E+00 -0.19943695406E+03  0.13148242572E+04  0.12996106065E+04 0.  0.
        1    1    3    3  502    0  0.11331067528E+03 -0.49424131029E+03 -0.51084130647E+03  0.71977261851E+03  0.50400001928E-02 0. -1.
       -1    1    3    3    0  502 -0.11331067528E+03  0.49424131029E+03  0.31140435242E+03  0.59505163865E+03  0.50400001928E-02 0.  1.
</event>
<event>
 5   0  0.2573071E-04  0.1300760E+04  0.7818609E-02  0.9028963E-01
        2   -1    0    0  501    0  0.00000000000E+00  0.00000000000E+00  0.59173064583E+03  0.59173064584E+03  0.25500000920E-02 0.  1.
       -2   -1    0    0    0  501  0.00000000000E+00  0.00000000000E+00 -0.71484187275E+03  0.71484187275E+03  0.25500000920E-02 0. -1.
    10030    2    1    2    0    0  0.00000000000E+00  0.00000000000E+00 -0.12311122691E+03  0.13065725186E+04  0.13007595366E+04 0.  0.
        4    1    3    3  502    0  0.27241945154E+03  0.48027118099E+03 -0.40677663776E+03  0.68581456006E+03  0.12699999809E+01 0. -1.
       -4    1    3    3    0  502 -0.27241945154E+03 -0.48027118099E+03  0.28366541085E+03  0.62075795853E+03  0.12699999809E+01 0.  1.
</event>
<event>
 5   0  0.1408341E-04  0.1297836E+04  0.7818609E-02  0.9031283E-01
        1   -1    0    0  501    0  0.00000000000E+00  0.00000000000E+00  0.15510173104E+04  0.15510173104E+04  0.50400001928E-02 0. -1.
       -1   -1    0    0    0  501  0.00000000000E+00  0.00000000000E+00 -0.27149569099E+03  0.27149569104E+03  0.50400001928E-02 0.  1.
    10030    2    1    2    0    0  0.00000000000E+00  0.00000000000E+00  0.12795216194E+04  0.18225130014E+04  0.12978359164E+04 0.  0.
        5    1    3    3  502    0 -0.35087249890E+03 -0.15361319331E+03 -0.95792802402E+02  0.39485044591E+03  0.46999998093E+01 0.  1.
       -5    1    3    3    0  502  0.35087249890E+03  0.15361319331E+03  0.13753144218E+04  0.14276625555E+04  0.46999998093E+01 0. -1.
</event>
<event>
 5   0  0.2794825E-04  0.1298783E+04  0.7818609E-02  0.9030531E-01
       -2   -1    0    0    0  501  0.00000000000E+00  0.00000000000E+00  0.31493276482E+03  0.31493276483E+03  0.25500000920E-02 0.  1.
        2   -1    0    0  501    0  0.00000000000E+00  0.00000000000E+00 -0.13390452513E+04  0.13390452513E+04  0.25500000920E-02 0. -1.
    10030    2    1    2    0    0  0.00000000000E+00  0.00000000000E+00 -0.10241124865E+04  0.16539780162E+04  0.12987828506E+04 0.  0.
        1    1    3    3  502    0  0.98288161185E+02  0.10629627045E+02  0.30529342003E+03  0.32090126821E+03  0.50400001928E-02 0.  1.
       -1    1    3    3    0  502 -0.98288161185E+02 -0.10629627045E+02 -0.13294059065E+04  0.13330767480E+04  0.50400001928E-02 0. -1.
</event>
<event>
 5   0  0.1475396E-04  0.1292364E+04  0.7818609E-02  0.9035643E-01
       -1   -1    0    0    0  501  0.00000000000E+00  0.00000000000E+00  0.19797606936E+03  0.19797606942E+03  0.50400001928E-02 0.  1.
        1   -1    0    0  501    0  0.00000000000E+00  0.00000000000E+00 -0.21090994534E+04  0.21090994534E+04  0.50400001928E-02 0. -1.
    10030    2    1    2    0    0  0.00000000000E+00  0.00000000000E+00 -0.19111233840E+04  0.23070755228E+04  0.12923640660E+04 0.  0.
        3    1    3    3  502    0 -0.60773510816E+03 -0.11919043946E+02 -0.56417930416E+03  0.82932642713E+03  0.10100000352E+00 0.  1.
       -3    1    3    3    0  502  0.60773510816E+03  0.11919043946E+02 -0.13469440799E+04  0.14777490957E+04  0.10100000352E+00 0. -1.
</event>
<event>
 5   0  0.1408341E-04  0.1300374E+04  0.7818609E-02  0.9029269E-01
       -1   -1    0    0    0  501  0.00000000000E+00  0.00000000000E+00  0.39352498711E+03  0.39352498714E+03  0.50400001928E-02 0. -1.
        1   -1    0    0  501    0  0.00000000000E+00  0.00000000000E+00 -0.10742466091E+04  0.10742466091E+04  0.50400001928E-02 0.  1.
    10030    2    1    2    0    0  0.00000000000E+00  0.00000000000E+00 -0.68072162196E+03  0.14677715962E+04  0.13003736125E+04 0.  0.
        5    1    3    3  502    0 -0.54402402650E+03  0.13161924447E+03 -0.71375581594E+03  0.90705855474E+03  0.46999998093E+01 0. -1.
       -5    1    3    3    0  502  0.54402402650E+03 -0.13161924447E+03  0.33034193983E+02  0.56071304149E+03  0.46999998093E+01 0.  1.
</event>
<event>
 5   0  0.1408341E-04  0.1299417E+04  0.7818609E-02  0.9030028E-01
       -1   -1    0    0    0  501  0.00000000000E+00  0.00000000000E+00  0.61875254324E+03  0.61875254326E+03  0.50400001928E-02 0. -1.
        1   -1    0    0  501    0  0.00000000000E+00  0.00000000000E+00 -0.68221325540E+03  0.68221325542E+03  0.50400001928E-02 0.  1.
    10030    2    1    2    0    0  0.00000000000E+00  0.00000000000E+00 -0.63460712169E+02  0.13009657987E+04  0.12994170798E+04 0.  0.
        5    1    3    3  502    0  0.40950569986E+03 -0.43317392804E+03 -0.29042664329E+03  0.66310202479E+03  0.46999998093E+01 0.  1.
       -5    1    3    3    0  502 -0.40950569986E+03  0.43317392804E+03  0.22696593112E+03  0.63786377389E+03  0.46999998093E+01 0. -1.
</event>
<event>
 5   0  0.1002887E-04  0.1300029E+04  0.7818609E-02  0.9029542E-01
       -4   -1    0    0    0  501  0.00000000000E+00  0.00000000000E+00  0.15365920215E+04  0.15365925463E+04  0.12699999809E+01 0. -1.
        4   -1    0    0  501    0  0.00000000000E+00  0.00000000000E+00 -0.27496947308E+03  0.27497240593E+03  0.12699999809E+01 0.  1.
    10030    2    1    2    0    0  0.00000000000E+00  0.00000000000E+00  0.12616225484E+04  0.18115649523E+04  0.13000292772E+04 0.  0.
        3    1    3    3  502    0 -0.30907609664E+03  0.37084694336E+03  0.12373570616E+04  0.13281972734E+04  0.10100000352E+00 0. -1.
       -3    1    3    3    0  502  0.30907609664E+03 -0.37084694336E+03  0.24265486788E+02  0.48336767886E+03  0.10100000352E+00 0.  1.
</event>
<event>
 5   0  0.2661377E-04  0.1297969E+04  0.7818609E-02  0.9031177E-01
        2   -1    0    0  501    0  0.00000000000E+00  0.00000000000E+00  0.12403680166E+04  0.12403680166E+04  0.25500000920E-02 0.  1.
       -2   -1    0    0    0  501  0.00000000000E+00  0.00000000000E+00 -0.33956119755E+03  0.33956119756E+03  0.25500000920E-02 0. -1.
    10030    2    1    2    0    0  0.00000000000E+00  0.00000000000E+00  0.90080681902E+03  0.15799292141E+04  0.12979689505E+04 0.  0.
        5    1    3    3  502    0  0.21968549088E+03  0.58905403747E+03  0.64634517695E+03  0.90168206799E+03  0.46999998093E+01 0.  1.
       -5    1    3    3    0  502 -0.21968549088E+03 -0.58905403747E+03  0.25446164207E+03  0.67824714614E+03  0.46999998093E+01 0. -1.
</event>
<event>
 5   0  0.2573071E-04  0.1300259E+04  0.7818609E-02  0.9029360E-01
        2   -1    0    0  501    0  0.00000000000E+00  0.00000000000E+00  0.12608095516E+04  0.12608095516E+04  0.25500000920E-02 0.  1.
       -2   -1    0    0    0  501  0.00000000000E+00  0.00000000000E+00 -0.33523545216E+03  0.33523545217E+03  0.25500000920E-02 0. -1.
    10030    2    1    2    0    0  0.00000000000E+00  0.00000000000E+00  0.92557409945E+03  0.15960450038E+04  0.13002585284E+04 0.  0.
        4    1    3    3  502    0 -0.10046001911E+03  0.59803758130E+03  0.75046168706E+03  0.96484999908E+03  0.12699999809E+01 0.  1.
       -4    1    3    3    0  502  0.10046001911E+03 -0.59803758130E+03  0.17511241240E+03  0.63119500471E+03  0.12699999809E+01 0. -1.
</event>
<event>
 5   0  0.1479690E-04  0.1297022E+04  0.7818609E-02  0.9031930E-01
       -1   -1    0    0    0  501  0.00000000000E+00  0.00000000000E+00  0.81110655107E+03  0.81110655109E+03  0.50400001928E-02 0. -1.
        1   -1    0    0  501    0  0.00000000000E+00  0.00000000000E+00 -0.51850947190E+03  0.51850947193E+03  0.50400001928E-02 0.  1.
    10030    2    1    2    0    0  0.00000000000E+00  0.00000000000E+00  0.29259707917E+03  0.13296160230E+04  0.12970218649E+04 0.  0.
        1    1    3    3  502    0 -0.35310686396E+02 -0.24027317638E+03  0.76273196363E+03  0.80046117472E+03  0.50400001928E-02 0. -1.
       -1    1    3    3    0  502  0.35310686396E+02  0.24027317638E+03 -0.47013488446E+03  0.52915484829E+03  0.50400001928E-02 0.  1.
</event>
<event>
 5   0  0.2661377E-04  0.1298424E+04  0.7818609E-02  0.9030816E-01
       -2   -1    0    0    0  501  0.00000000000E+00  0.00000000000E+00  0.32079043624E+03  0.32079043625E+03  0.25500000920E-02 0. -1.
        2   -1    0    0  501    0  0.00000000000E+00  0.00000000000E+00 -0.13138677109E+04  0.13138677109E+04  0.25500000920E-02 0.  1.
    10030    2    1    2    0    0  0.00000000000E+00  0.00000000000E+00 -0.99307727468E+03  0.16346581472E+04  0.12984239618E+04 0.  0.
        5    1    3    3  502    0  0.45462897163E+03 -0.46025693459E+03 -0.42839018823E+03  0.77592795481E+03  0.46999998093E+01 0.  1.
       -5    1    3    3    0  502 -0.45462897163E+03  0.46025693459E+03 -0.56468708645E+03  0.85873019237E+03  0.46999998093E+01 0. -1.
</event>
<event>
 5   0  0.1408341E-04  0.1299440E+04  0.7818609E-02  0.9030010E-01
        1   -1    0    0  501    0  0.00000000000E+00  0.00000000000E+00  0.84742633339E+03  0.84742633341E+03  0.50400001928E-02 0. -1.
       -1   -1    0    0    0  501  0.00000000000E+00  0.00000000000E+00 -0.49813874448E+03  0.49813874451E+03  0.50400001928E-02 0.  1.
    10030    2    1    2    0    0  0.00000000000E+00  0.00000000000E+00  0.34928758891E+03  0.13455650779E+04  0.12994397097E+04 0.  0.
        5    1    3    3  502    0  0.10859105979E+03 -0.17251156758E+03 -0.46415048919E+03  0.50696156248E+03  0.46999998093E+01 0.  1.
       -5    1    3    3    0  502 -0.10859105979E+03  0.17251156758E+03  0.81343807810E+03  0.83860351544E+03  0.46999998093E+01 0. -1.
</event>
<event>
 5   0  0.2756984E-04  0.1300553E+04  0.7818609E-02  0.9029127E-01
       -2   -1    0    0    0  501  0.00000000000E+00  0.00000000000E+00  0.47174492895E+03  0.47174492895E+03  0.25500000920E-02 0.  1.
        2   -1    0    0  501    0  0.00000000000E+00  0.00000000000E+00 -0.89637364941E+03  0.89637364942E+03  0.25500000920E-02 0. -1.
    10030    2    1    2    0    0  0.00000000000E+00  0.00000000000E+00 -0.42462872047E+03  0.13681185784E+04  0.13005533031E+04 0.  0.
        3    1    3    3  502    0 -0.13451229775E+03  0.17979805564E+03  0.42966793580E+03  0.48480454238E+03  0.10100000352E+00 0.  1.
       -3    1    3    3    0  502  0.13451229775E+03 -0.17979805564E+03 -0.85429665627E+03  0.88331403599E+03  0.10100000352E+00 0. -1.
</event>
<event>
 5   0  0.2661377E-04  0.1300084E+04  0.7818609E-02  0.9029499E-01
        2   -1    0    0  501    0  0.00000000000E+00  0.00000000000E+00  0.27169330098E+04  0.27169330098E+04  0.25500000920E-02 0.  1.
       -2   -1    0    0    0  501  0.00000000000E+00  0.00000000000E+00 -0.15552629672E+03  0.15552629674E+03  0.25500000920E-02 0. -1.
    10030    2    1    2    0    0  0.00000000000E+00  0.00000000000E+00  0.25614067131E+04  0.28724593065E+04  0.13000838888E+04 0.  0.
        5    1    3    3  502    0  0.54891313099E+03  0.32242915375E+03  0.99038026303E+03  0.11773450386E+04  0.46999998093E+01 0.  1.
       -5    1    3    3    0  502 -0.54891313099E+03 -0.32242915375E+03  0.15710264501E+04  0.16951142679E+04  0.46999998093E+01 0. -1.
</event>
<event>
 5   0  0.1430636E-04  0.1297401E+04  0.7818609E-02  0.9031629E-01
       -1   -1    0    0    0  501  0.00000000000E+00  0.00000000000E+00  0.21379741934E+03  0.21379741940E+03  0.50400001928E-02 0.  1.
        1   -1    0    0  501    0  0.00000000000E+00  0.00000000000E+00 -0.19682755289E+04  0.19682755289E+04  0.50400001928E-02 0. -1.
    10030    2    1    2    0    0  0.00000000000E+00  0.00000000000E+00 -0.17544781096E+04  0.21820729483E+04  0.12974008304E+04 0.  0.
        4    1    3    3  502    0 -0.74298683512E+02  0.43902947547E+03 -0.16706578665E+04  0.17289784540E+04  0.12699999809E+01 0. -1.
       -4    1    3    3    0  502  0.74298683512E+02 -0.43902947547E+03 -0.83820243052E+02  0.45309449428E+03  0.12699999809E+01 0.  1.
</event>
<event>
 5   0  0.2756984E-04  0.1302584E+04  0.7818609E-02  0.9027519E-01
        2   -1    0    0  501    0  0.00000000000E+00  0.00000000000E+00  0.16091163442E+04  0.16091163442E+04  0.25500000920E-02 0. -1.
       -2   -1    0    0    0  501  0.00000000000E+00  0.00000000000E+00 -0.26361126668E+03  0.26361126669E+03  0.25500000920E-02 0.  1.
    10030    2    1    2    0    0  0.00000000000E+00  0.00000000000E+00  0.13455050775E+04  0.18727276109E+04  0.13025838902E+04 0.  0.
        3    1    3    3  502    0  0.21454924781E+03 -0.46159643708E+02  0.15543571659E+04  0.15697733281E+04  0.10100000352E+00 0. -1.
       -3    1    3    3    0  502 -0.21454924781E+03  0.46159643708E+02 -0.20885208833E+03  0.30295428277E+03  0.10100000352E+00 0.  1.
</event>
<event>
 5   0  0.2723209E-04  0.1302920E+04  0.7818609E-02  0.9027253E-01
       -2   -1    0    0    0  501  0.00000000000E+00  0.00000000000E+00  0.65271344227E+03  0.65271344227E+03  0.25500000920E-02 0. -1.
        2   -1    0    0  501    0  0.00000000000E+00  0.00000000000E+00 -0.65020871699E+03  0.65020871700E+03  0.25500000920E-02 0.  1.
    10030    2    1    2    0    0  0.00000000000E+00  0.00000000000E+00  0.25047252747E+01  0.13029221593E+04  0.13029197517E+04 0.  0.
        2    1    3    3  502    0 -0.20996874453E+03 -0.48585834287E+03 -0.37855719484E+03  0.65073093732E+03  0.25500000920E-02 0.  1.
       -2    1    3    3    0  502  0.20996874453E+03  0.48585834287E+03  0.38106192012E+03  0.65219122195E+03  0.25500000920E-02 0. -1.
</event>
<event>
 5   0  0.2573071E-04  0.1298341E+04  0.7818609E-02  0.9030882E-01
        2   -1    0    0  501    0  0.00000000000E+00  0.00000000000E+00  0.12890035112E+04  0.12890035112E+04  0.25500000920E-02 0. -1.
       -2   -1    0    0    0  501  0.00000000000E+00  0.00000000000E+00 -0.32693642189E+03  0.32693642190E+03  0.25500000920E-02 0.  1.
    10030    2    1    2    0    0  0.00000000000E+00  0.00000000000E+00  0.96206708932E+03  0.16159399331E+04  0.12983407808E+04 0.  0.
        4    1    3    3  502    0  0.87287566860E+01  0.14988273666E+03 -0.30502954542E+03  0.33997891467E+03  0.12699999809E+01 0.  1.
       -4    1    3    3    0  502 -0.87287566860E+01 -0.14988273666E+03  0.12670966347E+04  0.12759610185E+04  0.12699999809E+01 0. -1.
</event>
<event>
 5   0  0.2661377E-04  0.1299820E+04  0.7818609E-02  0.9029708E-01
        2   -1    0    0  501    0  0.00000000000E+00  0.00000000000E+00  0.12486622070E+04  0.12486622070E+04  0.25500000920E-02 0.  1.
       -2   -1    0    0    0  501  0.00000000000E+00  0.00000000000E+00 -0.33826850797E+03  0.33826850798E+03  0.25500000920E-02 0. -1.
    10030    2    1    2    0    0  0.00000000000E+00  0.00000000000E+00  0.91039369900E+03  0.15869307149E+04  0.12998201440E+04 0.  0.
        5    1    3    3  502    0 -0.15027582500E+03  0.22648655131E+01 -0.31673945095E+03  0.35061934199E+03  0.46999998093E+01 0. -1.
       -5    1    3    3    0  502  0.15027582500E+03 -0.22648655131E+01  0.12271331499E+04  0.12363113730E+04  0.46999998093E+01 0.  1.
</event>
<event>
 5   0  0.2794825E-04  0.1301143E+04  0.7818609E-02  0.9028659E-01
       -2   -1    0    0    0  501  0.00000000000E+00  0.00000000000E+00  0.40744746402E+03  0.40744746403E+03  0.25500000920E-02 0.  1.
        2   -1    0    0  501    0  0.00000000000E+00  0.00000000000E+00 -0.10387676610E+04  0.10387676611E+04  0.25500000920E-02 0. -1.
    10030    2    1    2    0    0  0.00000000000E+00  0.00000000000E+00 -0.63132019703E+03  0.14462151251E+04  0.13011429579E+04 0.  0.
        1    1    3    3  502    0 -0.28293605783E+03 -0.15595736594E+03 -0.94330379726E+03  0.99709456259E+03  0.50400001928E-02 0. -1.
       -1    1    3    3    0  502  0.28293605783E+03  0.15595736594E+03  0.31198360023E+03  0.44912056248E+03  0.50400001928E-02 0.  1.
</event>
<event>
 5   0  0.2794825E-04  0.1301757E+04  0.7818609E-02  0.9028173E-01
        2   -1    0    0  501    0  0.00000000000E+00  0.00000000000E+00  0.41616358352E+03  0.41616358353E+03  0.25500000920E-02 0.  1.
       -2   -1    0    0    0  501  0.00000000000E+00  0.00000000000E+00 -0.10179723039E+04  0.10179723039E+04  0.25500000920E-02 0. -1.
    10030    2    1    2    0    0  0.00000000000E+00  0.00000000000E+00 -0.60180872038E+03  0.14341358874E+04  0.13017572768E+04 0.  0.
        1    1    3    3  502    0 -0.75843292519E+02  0.45239158943E+03 -0.80963411352E+03  0.93054701816E+03  0.50400001928E-02 0. -1.
       -1    1    3    3    0  502  0.75843292519E+02 -0.45239158943E+03  0.20782539314E+03  0.50358886928E+03  0.50400001928E-02 0.  1.
</event>
<event>
 5   0  0.1479690E-04  0.1294460E+04  0.7818609E-02  0.9033970E-01
        1   -1    0    0  501    0  0.00000000000E+00  0.00000000000E+00  0.10037081464E+04  0.10037081465E+04  0.50400001928E-02 0. -1.
       -1   -1    0    0    0  501  0.00000000000E+00  0.00000000000E+00 -0.41735921603E+03  0.41735921606E+03  0.50400001928E-02 0.  1.
    10030    2    1    2    0    0  0.00000000000E+00  0.00000000000E+00  0.58634893042E+03  0.14210673625E+04  0.12944602661E+04 0.  0.
        1    1    3    3  502    0 -0.59183543675E+03 -0.17669541080E+03  0.50552673071E+03  0.79815269710E+03  0.50400001928E-02 0. -1.
       -1    1    3    3    0  502  0.59183543675E+03  0.17669541080E+03  0.80822199702E+02  0.62291466541E+03  0.50400001928E-02 0.  1.
</event>
<event>
 5   0  0.1476511E-04  0.1298547E+04  0.7818609E-02  0.9030718E-01
        1   -1    0    0  501    0  0.00000000000E+00  0.00000000000E+00  0.88284307606E+03  0.88284307607E+03  0.50400001928E-02 0.  1.
       -1   -1    0    0    0  501  0.00000000000E+00  0.00000000000E+00 -0.47749863034E+03  0.47749863036E+03  0.50400001928E-02 0. -1.
    10030    2    1    2    0    0  0.00000000000E+00  0.00000000000E+00  0.40534444572E+03  0.13603417064E+04  0.12985474341E+04 0.  0.
        2    1    3    3  502    0 -0.63267517775E+03 -0.54472137166E+02  0.34443080903E+03  0.72241101631E+03  0.25500000920E-02 0.  1.
       -2    1    3    3    0  502  0.63267517775E+03  0.54472137166E+02  0.60913636690E+02  0.63793069013E+03  0.25500000920E-02 0. -1.
</event>
<event>
 5   0  0.2794825E-04  0.1298982E+04  0.7818609E-02  0.9030373E-01
        2   -1    0    0  501    0  0.00000000000E+00  0.00000000000E+00  0.25374993302E+04  0.25374993302E+04  0.25500000920E-02 0.  1.
       -2   -1    0    0    0  501  0.00000000000E+00  0.00000000000E+00 -0.16624183624E+03  0.16624183626E+03  0.25500000920E-02 0. -1.
    10030    2    1    2    0    0  0.00000000000E+00  0.00000000000E+00  0.23712574940E+04  0.27037411665E+04  0.12989819832E+04 0.  0.
        1    1    3    3  502    0 -0.20196971382E+03 -0.49330765722E+03  0.19579891981E+04  0.20292525495E+04  0.50400001928E-02 0.  1.
       -1    1    3    3    0  502  0.20196971382E+03  0.49330765722E+03  0.41326829589E+03  0.67448861694E+03  0.50400001928E-02 0. -1.
</event>
<event>
 5   0  0.1408341E-04  0.1300798E+04  0.7818609E-02  0.9028933E-01
        1   -1    0    0  501    0  0.00000000000E+00  0.00000000000E+00  0.73616676034E+03  0.73616676035E+03  0.50400001928E-02 0. -1.
       -1   -1    0    0    0  501  0.00000000000E+00  0.00000000000E+00 -0.57462360424E+03  0.57462360426E+03  0.50400001928E-02 0.  1.
    10030    2    1    2    0    0  0.00000000000E+00  0.00000000000E+00  0.16154315609E+03  0.13107903646E+04  0.13007979046E+04 0.  0.
        5    1    3    3  502    0 -0.71832710471E+02  0.47064611404E+03  0.52726559485E+03  0.71042156532E+03  0.46999998093E+01 0. -1.
       -5    1    3    3    0  502  0.71832710471E+02 -0.47064611404E+03 -0.36572243876E+03  0.60036879930E+03  0.46999998093E+01 0.  1.
</event>
<event>
 5   0  0.2661377E-04  0.1301305E+04  0.7818609E-02  0.9028531E-01
       -2   -1    0    0    0  501  0.00000000000E+00  0.00000000000E+00  0.36951842752E+03  0.36951842753E+03  0.25500000920E-02 0.  1.
        2   -1    0    0  501    0  0.00000000000E+00  0.00000000000E+00 -0.11456768004E+04  0.11456768004E+04  0.25500000920E-02 0. -1.
    10030    2    1    2    0    0  0.00000000000E+00  0.00000000000E+00 -0.77615837283E+03  0.15151952279E+04  0.13013050215E+04 0.  0.
        5    1    3    3  502    0  0.28548691971E+03  0.23127269416E+03  0.23715036212E+03  0.43732393559E+03  0.46999998093E+01 0.  1.
       -5    1    3    3    0  502 -0.28548691971E+03 -0.23127269416E+03 -0.10133087350E+04  0.10778712923E+04  0.46999998093E+01 0. -1.
</event>
<event>
 5   0  0.1475396E-04  0.1299128E+04  0.7818609E-02  0.9030257E-01
       -1   -1    0    0    0  501  0.00000000000E+00  0.00000000000E+00  0.57923206883E+03  0.57923206885E+03  0.50400001928E-02 0. -1.
        1   -1    0    0  501    0  0.00000000000E+00  0.00000000000E+00 -0.72843568190E+03  0.72843568192E+03  0.50400001928E-02 0.  1.
    10030    2    1    2    0    0  0.00000000000E+00  0.00000000000E+00 -0.14920361307E+03  0.13076677508E+04  0.12991278722E+04 0.  0.
        3    1    3    3  502    0  0.45654799336E+03 -0.45921336517E+03 -0.12612728169E+03  0.65971288177E+03  0.10100000352E+00 0. -1.
       -3    1    3    3    0  502 -0.45654799336E+03  0.45921336517E+03 -0.23076331380E+02  0.64795486900E+03  0.10100000352E+00 0.  1.
</event>
<event>
 5   0  0.2723209E-04  0.1297423E+04  0.7818609E-02  0.9031611E-01
       -2   -1    0    0    0  501  0.00000000000E+00  0.00000000000E+00  0.68586801150E+03  0.68586801150E+03  0.25500000920E-02 0.  1.
        2   -1    0    0  501    0  0.00000000000E+00  0.00000000000E+00 -0.61356799665E+03  0.61356799666E+03  0.25500000920E-02 0. -1.
    10030    2    1    2    0    0  0.00000000000E+00  0.00000000000E+00  0.72300014843E+02  0.12994360082E+04  0.12974230795E+04 0.  0.
        2    1    3    3  502    0 -0.14806841061E+03  0.46249691342E+03  0.46693243889E+03  0.67368653812E+03  0.25500000920E-02 0.  1.
       -2    1    3    3    0  502  0.14806841061E+03 -0.46249691342E+03 -0.39463242405E+03  0.62574947004E+03  0.25500000920E-02 0. -1.
</event>
<event>
 5   0  0.1430636E-04  0.1298570E+04  0.7818609E-02  0.9030700E-01
        1   -1    0    0  501    0  0.00000000000E+00  0.00000000000E+00  0.17177787776E+04  0.17177787776E+04  0.50400001928E-02 0. -1.
       -1   -1    0    0    0  501  0.00000000000E+00  0.00000000000E+00 -0.24541651450E+03  0.24541651455E+03  0.50400001928E-02 0.  1.
    10030    2    1    2    0    0  0.00000000000E+00  0.00000000000E+00  0.14723622631E+04  0.19631952922E+04  0.12985704145E+04 0.  0.
        4    1    3    3  502    0  0.14870784142E+03  0.81534627858E+02  0.16837003416E+04  0.16922205444E+04  0.12699999809E+01 0. -1.
       -4    1    3    3    0  502 -0.14870784142E+03 -0.81534627858E+02 -0.21133807846E+03  0.27097474780E+03  0.12699999809E+01 0.  1.
</event>
<event>
 5   0  0.1408341E-04  0.1294724E+04  0.7818609E-02  0.9033760E-01
       -1   -1    0    0    0  501  0.00000000000E+00  0.00000000000E+00  0.75596051410E+03  0.75596051412E+03  0.50400001928E-02 0. -1.
        1   -1    0    0  501    0  0.00000000000E+00  0.00000000000E+00 -0.55436402576E+03  0.55436402578E+03  0.50400001928E-02 0.  1.
    10030    2    1    2    0    0  0.00000000000E+00  0.00000000000E+00  0.20159648835E+03  0.13103245399E+04  0.12947236214E+04 0.  0.
        5    1    3    3  502    0 -0.63814242906E+03 -0.10796285156E+03  0.87468092659E+02  0.65311139503E+03  0.46999998093E+01 0. -1.
       -5    1    3    3    0  502  0.63814242906E+03  0.10796285156E+03  0.11412839569E+03  0.65721314487E+03  0.46999998093E+01 0.  1.
</event>
<event>
 5   0  0.1479690E-04  0.1299092E+04  0.7818609E-02  0.9030285E-01
       -1   -1    0    0    0  501  0.00000000000E+00  0.00000000000E+00  0.55628990333E+03  0.55628990335E+03  0.50400001928E-02 0.  1.
        1   -1    0    0  501    0  0.00000000000E+00  0.00000000000E+00 -0.75843588371E+03  0.75843588373E+03  0.50400001928E-02 0. -1.
    10030    2    1    2    0    0  0.00000000000E+00  0.00000000000E+00 -0.20214598038E+03  0.13147257871E+04  0.12990923361E+04 0.  0.
        1    1    3    3  502    0 -0.13043545064E+03  0.16345068344E+03  0.52129154451E+03  0.56167108445E+03  0.50400001928E-02 0.  1.
       -1    1    3    3    0  502  0.13043545064E+03 -0.16345068344E+03 -0.72343752490E+03  0.75305470263E+03  0.50400001928E-02 0. -1.
</event>
<event>
 5   0  0.1476511E-04  0.1301315E+04  0.7818609E-02  0.9028523E-01
       -1   -1    0    0    0  501  0.00000000000E+00  0.00000000000E+00  0.45944068599E+03  0.45944068602E+03  0.50400001928E-02 0. -1.
        1   -1    0    0  501    0  0.00000000000E+00  0.00000000000E+00 -0.92145741944E+03  0.92145741945E+03  0.50400001928E-02 0.  1.
    10030    2    1    2    0    0  0.00000000000E+00  0.00000000000E+00 -0.46201673344E+03  0.13808981055E+04  0.13013147643E+04 0.  0.
        2    1    3    3  502    0 -0.49954188924E+03 -0.22583708984E+03  0.14086672889E+03  0.56602820210E+03  0.25500000920E-02 0. -1.
       -2    1    3    3    0  502  0.49954188924E+03  0.22583708984E+03 -0.60288346234E+03  0.81486990337E+03  0.25500000920E-02 0.  1.
</event>
<event>
 5   0  0.2756984E-04  0.1268437E+04  0.7818609E-02  0.9054977E-01
       -2   -1    0    0    0  501  0.00000000000E+00  0.00000000000E+00  0.31808215165E+03  0.31808215166E+03  0.25500000920E-02 0. -1.
        2   -1    0    0  501    0  0.00000000000E+00  0.00000000000E+00 -0.12645563626E+04  0.12645563626E+04  0.25500000920E-02 0.  1.
    10030    2    1    2    0    0  0.00000000000E+00  0.00000000000E+00 -0.94647421096E+03  0.15826385143E+04  0.12684365317E+04 0.  0.
        3    1    3    3  502    0 -0.47616686270E+03  0.39348909257E+03 -0.65259596232E+03  0.89858224295E+03  0.10100000352E+00 0. -1.
       -3    1    3    3    0  502  0.47616686270E+03 -0.39348909257E+03 -0.29387824864E+03  0.68405627132E+03  0.10100000352E+00 0.  1.
</event>
<event>
 5   0  0.2794825E-04  0.1301683E+04  0.7818609E-02  0.9028231E-01
        2   -1    0    0  501    0  0.00000000000E+00  0.00000000000E+00  0.81132147580E+03  0.81132147581E+03  0.25500000920E-02 0.  1.
       -2   -1    0    0    0  501  0.00000000000E+00  0.00000000000E+00 -0.52210470645E+03  0.52210470646E+03  0.25500000920E-02 0. -1.
    10030    2    1    2    0    0  0.00000000000E+00  0.00000000000E+00  0.28921676935E+03  0.13334261823E+04  0.13016831580E+04 0.  0.
        1    1    3    3  502    0  0.75723703466E+02 -0.13595513793E+03 -0.50276546717E+03  0.52629933859E+03  0.50400001928E-02 0. -1.
       -1    1    3    3    0  502 -0.75723703466E+02  0.13595513793E+03  0.79198223652E+03  0.80712684368E+03  0.50400001928E-02 0.  1.
</event>
<event>
 5   0  0.1476511E-04  0.1291951E+04  0.7818609E-02  0.9035972E-01
        1   -1    0    0  501    0  0.00000000000E+00  0.00000000000E+00  0.16388917352E+04  0.16388917352E+04  0.50400001928E-02 0.  1.
       -1   -1    0    0    0  501  0.00000000000E+00  0.00000000000E+00 -0.25461389198E+03  0.25461389203E+03  0.50400001928E-02 0. -1.
    10030    2    1    2    0    0  0.00000000000E+00  0.00000000000E+00  0.13842778432E+04  0.18935056273E+04  0.12919513974E+04 0.  0.
        2    1    3    3  502    0 -0.59769066114E+03  0.20627434305E+03  0.49824844624E+03  0.80500605290E+03  0.25500000920E-02 0. -1.
       -2    1    3    3    0  502  0.59769066114E+03 -0.20627434305E+03  0.88602939701E+03  0.10884995744E+04  0.25500000920E-02 0.  1.
</event>
<event>
 5   0  0.1430636E-04  0.1298740E+04  0.7818609E-02  0.9030565E-01
       -1   -1    0    0    0  501  0.00000000000E+00  0.00000000000E+00  0.49383781633E+03  0.49383781636E+03  0.50400001928E-02 0.  1.
        1   -1    0    0  501    0  0.00000000000E+00  0.00000000000E+00 -0.85388672489E+03  0.85388672490E+03  0.50400001928E-02 0. -1.
    10030    2    1    2    0    0  0.00000000000E+00  0.00000000000E+00 -0.36004890855E+03  0.13477245413E+04  0.12987402445E+04 0.  0.
        4    1    3    3  502    0  0.22112039285E+02  0.16159827718E+03  0.47223399032E+03  0.49960934737E+03  0.12699999809E+01 0.  1.
       -4    1    3    3    0  502 -0.22112039285E+02 -0.16159827718E+03 -0.83228289887E+03  0.84811519389E+03  0.12699999809E+01 0. -1.
</event>
<event>
 5   0  0.1475396E-04  0.1301116E+04  0.7818609E-02  0.9028681E-01
        1   -1    0    0  501    0  0.00000000000E+00  0.00000000000E+00  0.86877261634E+03  0.86877261635E+03  0.50400001928E-02 0. -1.
       -1   -1    0    0    0  501  0.00000000000E+00  0.00000000000E+00 -0.48715355423E+03  0.48715355426E+03  0.50400001928E-02 0.  1.
    10030    2    1    2    0    0  0.00000000000E+00  0.00000000000E+00  0.38161906211E+03  0.13559261706E+04  0.13011159332E+04 0.  0.
        3    1    3    3  502    0  0.12017926141E+03  0.20555708088E+03 -0.44011026366E+03  0.50039366778E+03  0.10100000352E+00 0.  1.
       -3    1    3    3    0  502 -0.12017926141E+03 -0.20555708088E+03  0.82172932577E+03  0.85553250283E+03  0.10100000352E+00 0. -1.
</event>
<event>
 5   0  0.1430636E-04  0.1300619E+04  0.7818609E-02  0.9029074E-01
       -1   -1    0    0    0  501  0.00000000000E+00  0.00000000000E+00  0.38820521846E+03  0.38820521850E+03  0.50400001928E-02 0. -1.
        1   -1    0    0  501    0  0.00000000000E+00  0.00000000000E+00 -0.10893787259E+04  0.10893787259E+04  0.50400001928E-02 0.  1.
    10030    2    1    2    0    0  0.00000000000E+00  0.00000000000E+00 -0.70117350742E+03  0.14775839444E+04  0.13006190931E+04 0.  0.
        4    1    3    3  502    0 -0.35124739688E+03  0.22653174745E+03 -0.91658001653E+03  0.10073787302E+04  0.12699999809E+01 0.  1.
       -4    1    3    3    0  502  0.35124739688E+03 -0.22653174745E+03  0.21540650910E+03  0.47020521422E+03  0.12699999809E+01 0. -1.
</event>
<event>
 5   0  0.2723209E-04  0.1302730E+04  0.7818609E-02  0.9027403E-01
        2   -1    0    0  501    0  0.00000000000E+00  0.00000000000E+00  0.11832500755E+04  0.11832500755E+04  0.25500000920E-02 0.  1.
       -2   -1    0    0    0  501  0.00000000000E+00  0.00000000000E+00 -0.35856855485E+03  0.35856855486E+03  0.25500000920E-02 0. -1.
    10030    2    1    2    0    0  0.00000000000E+00  0.00000000000E+00  0.82468152066E+03  0.15418186304E+04  0.13027298563E+04 0.  0.
        2    1    3    3  502    0  0.19186699460E+03  0.41989540118E+03 -0.13150491202E+03  0.48001940944E+03  0.25500000920E-02 0. -1.
       -2    1    3    3    0  502 -0.19186699460E+03 -0.41989540118E+03  0.95618643268E+03  0.10617992209E+04  0.25500000920E-02 0.  1.
</event>
<event>
 5   0  0.2794825E-04  0.1297047E+04  0.7818609E-02  0.9031911E-01
       -2   -1    0    0    0  501  0.00000000000E+00  0.00000000000E+00  0.67458969855E+03  0.67458969855E+03  0.25500000920E-02 0. -1.
        2   -1    0    0  501    0  0.00000000000E+00  0.00000000000E+00 -0.62346405992E+03  0.62346405992E+03  0.25500000920E-02 0.  1.
    10030    2    1    2    0    0  0.00000000000E+00  0.00000000000E+00  0.51125638633E+02  0.12980537585E+04  0.12970465408E+04 0.  0.
        1    1    3    3  502    0  0.25136953353E+03 -0.50055225147E+03 -0.30155984179E+03  0.63614270179E+03  0.50400001928E-02 0.  1.
       -1    1    3    3    0  502 -0.25136953353E+03  0.50055225147E+03  0.35268548042E+03  0.66191105669E+03  0.50400001928E-02 0. -1.
</event>
<event>
 5   0  0.1479690E-04  0.1301215E+04  0.7818609E-02  0.9028602E-01
       -1   -1    0    0    0  501  0.00000000000E+00  0.00000000000E+00  0.62755670355E+03  0.62755670357E+03  0.50400001928E-02 0. -1.
        1   -1    0    0  501    0  0.00000000000E+00  0.00000000000E+00 -0.67450489080E+03  0.67450489082E+03  0.50400001928E-02 0.  1.
    10030    2    1    2    0    0  0.00000000000E+00  0.00000000000E+00 -0.46948187254E+02  0.13020615944E+04  0.13012149182E+04 0.  0.
        1    1    3    3  502    0  0.27552431894E+03  0.45375067142E+03  0.35291789502E+03  0.63745930285E+03  0.50400001928E-02 0.  1.
       -1    1    3    3    0  502 -0.27552431894E+03 -0.45375067142E+03 -0.39986608227E+03  0.66460229154E+03  0.50400001928E-02 0. -1.
</event>
<event>
 5   0  0.2723209E-04  0.1298766E+04  0.7818609E-02  0.9030544E-01
        2   -1    0    0  501    0  0.00000000000E+00  0.00000000000E+00  0.11399747617E+04  0.11399747617E+04  0.25500000920E-02 0.  1.
       -2   -1    0    0    0  501  0.00000000000E+00  0.00000000000E+00 -0.36991886188E+03  0.36991886189E+03  0.25500000920E-02 0. -1.
    10030    2    1    2    0    0  0.00000000000E+00  0.00000000000E+00  0.77005589981E+03  0.15098936236E+04  0.12987658240E+04 0.  0.
        2    1    3    3  502    0  0.59310944460E+03  0.12640373120E+02  0.77972076295E+02  0.59834625176E+03  0.25500000920E-02 0. -1.
       -2    1    3    3    0  502 -0.59310944460E+03 -0.12640373120E+02  0.69208382351E+03  0.91154737182E+03  0.25500000920E-02 0.  1.
</event>
<event>
 5   0  0.1475396E-04  0.1300710E+04  0.7818609E-02  0.9029002E-01
        1   -1    0    0  501    0  0.00000000000E+00  0.00000000000E+00  0.71467063144E+03  0.71467063146E+03  0.50400001928E-02 0.  1.
       -1   -1    0    0    0  501  0.00000000000E+00  0.00000000000E+00 -0.59182750310E+03  0.59182750312E+03  0.50400001928E-02 0. -1.
    10030    2    1    2    0    0  0.00000000000E+00  0.00000000000E+00  0.12284312834E+03  0.13064981346E+04  0.13007101681E+04 0.  0.
        3    1    3    3  502    0 -0.39949998299E+03 -0.22195760919E+03  0.52618595737E+03  0.69694841174E+03  0.10100000352E+00 0.  1.
       -3    1    3    3    0  502  0.39949998299E+03  0.22195760919E+03 -0.40334282903E+03  0.60954972284E+03  0.10100000352E+00 0. -1.
</event>
<event>
 5   0  0.2794825E-04  0.1299189E+04  0.7818609E-02  0.9030208E-01
        2   -1    0    0  501    0  0.00000000000E+00  0.00000000000E+00  0.20140637514E+04  0.20140637514E+04  0.25500000920E-02 0. -1.
       -2   -1    0    0    0  501  0.00000000000E+00  0.00000000000E+00 -0.20951328684E+03  0.20951328686E+03  0.25500000920E-02 0.  1.
    10030    2    1    2    0    0  0.00000000000E+00  0.00000000000E+00  0.18045504645E+04  0.22235770382E+04  0.12991891571E+04 0.  0.
        1    1    3    3  502    0 -0.32468178154E+02 -0.36873950195E+02 -0.20632876776E+03  0.21209769265E+03  0.50400001928E-02 0.  1.
       -1    1    3    3    0  502  0.32468178154E+02  0.36873950195E+02  0.20108792323E+04  0.20114793456E+04  0.50400001928E-02 0. -1.
</event>
<event>
 5   0  0.1475396E-04  0.1300725E+04  0.7818609E-02  0.9028990E-01
       -1   -1    0    0    0  501  0.00000000000E+00  0.00000000000E+00  0.47321335718E+03  0.47321335721E+03  0.50400001928E-02 0. -1.
        1   -1    0    0  501    0  0.00000000000E+00  0.00000000000E+00 -0.89382844017E+03  0.89382844018E+03  0.50400001928E-02 0.  1.
    10030    2    1    2    0    0  0.00000000000E+00  0.00000000000E+00 -0.42061508298E+03  0.13670417974E+04  0.13007252699E+04 0.  0.
        3    1    3    3  502    0  0.26352362149E+03 -0.48917886416E+03 -0.56551983628E+03  0.79281356929E+03  0.10100000352E+00 0.  1.
       -3    1    3    3    0  502 -0.26352362149E+03  0.48917886416E+03  0.14490475329E+03  0.57422822810E+03  0.10100000352E+00 0. -1.
</event>
<event>
 5   0  0.1002887E-04  0.1300349E+04  0.7818609E-02  0.9029289E-01
       -4   -1    0    0    0  501  0.00000000000E+00  0.00000000000E+00  0.10661842624E+04  0.10661850188E+04  0.12699999809E+01 0.  1.
        4   -1    0    0  501    0  0.00000000000E+00  0.00000000000E+00 -0.39648373607E+03  0.39648577007E+03  0.12699999809E+01 0. -1.
    10030    2    1    2    0    0  0.00000000000E+00  0.00000000000E+00  0.66970052638E+03  0.14626707889E+04  0.13003488154E+04 0.  0.
        2    1    3    3  502    0  0.63722145421E+03  0.14915802211E+02  0.47913173313E+03  0.79739631336E+03  0.25500000920E-02 0.  1.
       -2    1    3    3    0  502 -0.63722145421E+03 -0.14915802211E+02  0.19056879325E+03  0.66527447555E+03  0.25500000920E-02 0. -1.
</event>
<event>
 5   0  0.2794825E-04  0.1299771E+04  0.7818609E-02  0.9029747E-01
       -2   -1    0    0    0  501  0.00000000000E+00  0.00000000000E+00  0.28963781620E+03  0.28963781621E+03  0.25500000920E-02 0.  1.
        2   -1    0    0  501    0  0.00000000000E+00  0.00000000000E+00 -0.14582035815E+04  0.14582035815E+04  0.25500000920E-02 0. -1.
    10030    2    1    2    0    0  0.00000000000E+00  0.00000000000E+00 -0.11685657653E+04  0.17478413977E+04  0.12997705966E+04 0.  0.
        1    1    3    3  502    0  0.11933102181E+02  0.26363709050E+03 -0.13829034625E+04  0.14078596880E+04  0.50400001928E-02 0. -1.
       -1    1    3    3    0  502 -0.11933102181E+02 -0.26363709050E+03  0.21433769726E+03  0.33998170967E+03  0.50400001928E-02 0.  1.
</event>
<event>
 5   0  0.1476511E-04  0.1301372E+04  0.7818609E-02  0.9028478E-01
       -1   -1    0    0    0  501  0.00000000000E+00  0.00000000000E+00  0.12557434012E+04  0.12557434012E+04  0.50400001928E-02 0. -1.
        1   -1    0    0  501    0  0.00000000000E+00  0.00000000000E+00 -0.33716472965E+03  0.33716472969E+03  0.50400001928E-02 0.  1.
    10030    2    1    2    0    0  0.00000000000E+00  0.00000000000E+00  0.91857867157E+03  0.15929081309E+04  0.13013721749E+04 0.  0.
        2    1    3    3  502    0  0.39727917449E+03 -0.38640262616E+03  0.41945134711E+02  0.55578514403E+03  0.25500000920E-02 0. -1.
       -2    1    3    3    0  502 -0.39727917449E+03  0.38640262616E+03  0.87663353685E+03  0.10371229869E+04  0.25500000920E-02 0.  1.
</event>
<event>
 5   0  0.2723209E-04  0.1299492E+04  0.7818609E-02  0.9029968E-01
       -2   -1    0    0    0  501  0.00000000000E+00  0.00000000000E+00  0.15758274372E+04  0.15758274372E+04  0.25500000920E-02 0.  1.
        2   -1    0    0  501    0  0.00000000000E+00  0.00000000000E+00 -0.26790376080E+03  0.26790376082E+03  0.25500000920E-02 0. -1.
    10030    2    1    2    0    0  0.00000000000E+00  0.00000000000E+00  0.13079236764E+04  0.18437311980E+04  0.12994923575E+04 0.  0.
        2    1    3    3  502    0 -0.22105932728E+03 -0.59757008335E+03  0.47330526294E+03  0.79370970929E+03  0.25500000920E-02 0. -1.
       -2    1    3    3    0  502  0.22105932728E+03  0.59757008335E+03  0.83461841343E+03  0.10500214887E+04  0.25500000920E-02 0.  1.
</event>
<event>
 5   0  0.2794825E-04  0.1301231E+04  0.7818609E-02  0.9028589E-01
        2   -1    0    0  501    0  0.00000000000E+00  0.00000000000E+00  0.21328300464E+04  0.21328300464E+04  0.25500000920E-02 0.  1.
       -2   -1    0    0    0  501  0.00000000000E+00  0.00000000000E+00 -0.19846900127E+03  0.19846900128E+03  0.25500000920E-02 0. -1.
    10030    2    1    2    0    0  0.00000000000E+00  0.00000000000E+00  0.19343610451E+04  0.23312990477E+04  0.13012311850E+04 0.  0.
        1    1    3    3  502    0 -0.54391664160E+03  0.24675874592E+03  0.14294210115E+04  0.15491867608E+04  0.50400001928E-02 0.  1.
       -1    1    3    3    0  502  0.54391664160E+03 -0.24675874592E+03  0.50494003364E+03  0.78211228689E+03  0.50400001928E-02 0. -1.
</event>
<event>
 5   0  0.1476511E-04  0.1301965E+04  0.7818609E-02  0.9028008E-01
        1   -1    0    0  501    0  0.00000000000E+00  0.00000000000E+00  0.13451924330E+04  0.13451924331E+04  0.50400001928E-02 0.  1.
       -1   -1    0    0    0  501  0.00000000000E+00  0.00000000000E+00 -0.31503171138E+03  0.31503171142E+03  0.50400001928E-02 0. -1.
    10030    2    1    2    0    0  0.00000000000E+00  0.00000000000E+00  0.10301607217E+04  0.16602241445E+04  0.13019650907E+04 0.  0.
        2    1    3    3  502    0  0.58315787540E+02 -0.63185595837E+03  0.32969536342E+03  0.71508161484E+03  0.25500000920E-02 0. -1.
       -2    1    3    3    0  502 -0.58315787540E+02  0.63185595837E+03  0.70046535825E+03  0.94514252963E+03  0.25500000920E-02 0.  1.
</event>
<event>
 5   0  0.1430636E-04  0.1299931E+04  0.7818609E-02  0.9029620E-01
        1   -1    0    0  501    0  0.00000000000E+00  0.00000000000E+00  0.61136428721E+03  0.61136428723E+03  0.50400001928E-02 0. -1.
       -1   -1    0    0    0  501  0.00000000000E+00  0.00000000000E+00 -0.69100422824E+03  0.69100422826E+03  0.50400001928E-02 0.  1.
    10030    2    1    2    0    0  0.00000000000E+00  0.00000000000E+00 -0.79639941036E+02  0.13023685155E+04  0.12999312405E+04 0.  0.
        4    1    3    3  502    0  0.56224832636E+03  0.37103490267E+02  0.28475324998E+03  0.63133657882E+03  0.12699999809E+01 0. -1.
       -4    1    3    3    0  502 -0.56224832636E+03 -0.37103490267E+02 -0.36439319101E+03  0.67103193667E+03  0.12699999809E+01 0.  1.
</event>
<event>
 5   0  0.2661377E-04  0.1301371E+04  0.7818609E-02  0.9028479E-01
        2   -1    0    0  501    0  0.00000000000E+00  0.00000000000E+00  0.63661224180E+03  0.63661224181E+03  0.25500000920E-02 0. -1.
       -2   -1    0    0    0  501  0.00000000000E+00  0.00000000000E+00 -0.66506984027E+03  0.66506984028E+03  0.25500000920E-02 0.  1.
    10030    2    1    2    0    0  0.00000000000E+00  0.00000000000E+00 -0.28457598467E+02  0.13016820821E+04  0.13013709724E+04 0.  0.
        5    1    3    3  502    0  0.45694717939E+02  0.97713660164E+02 -0.65604686488E+03  0.66487257843E+03  0.46999998093E+01 0.  1.
       -5    1    3    3    0  502 -0.45694717939E+02 -0.97713660164E+02  0.62758926641E+03  0.63680950365E+03  0.46999998093E+01 0. -1.
</event>
<event>
 5   0  0.1475396E-04  0.1301695E+04  0.7818609E-02  0.9028222E-01
       -1   -1    0    0    0  501  0.00000000000E+00  0.00000000000E+00  0.37865508351E+03  0.37865508354E+03  0.50400001928E-02 0. -1.
        1   -1    0    0  501    0  0.00000000000E+00  0.00000000000E+00 -0.11187019614E+04  0.11187019614E+04  0.50400001928E-02 0.  1.
    10030    2    1    2    0    0  0.00000000000E+00  0.00000000000E+00 -0.74004687787E+03  0.14973570449E+04  0.13016945642E+04 0.  0.
        3    1    3    3  502    0  0.19321463465E+03  0.49168631207E+03 -0.80731643057E+03  0.96480420489E+03  0.10100000352E+00 0.  1.
       -3    1    3    3    0  502 -0.19321463465E+03 -0.49168631207E+03  0.67269552695E+02  0.53255284004E+03  0.10100000352E+00 0. -1.
</event>
<event>
 5   0  0.1475396E-04  0.1299548E+04  0.7818609E-02  0.9029923E-01
        1   -1    0    0  501    0  0.00000000000E+00  0.00000000000E+00  0.50057592688E+03  0.50057592690E+03  0.50400001928E-02 0.  1.
       -1   -1    0    0    0  501  0.00000000000E+00  0.00000000000E+00 -0.84344146117E+03  0.84344146119E+03  0.50400001928E-02 0. -1.
    10030    2    1    2    0    0  0.00000000000E+00  0.00000000000E+00 -0.34286553430E+03  0.13440173881E+04  0.12995483696E+04 0.  0.
        3    1    3    3  502    0  0.44618329696E+02 -0.63407576784E+03 -0.31081694535E+03  0.70756629260E+03  0.10100000352E+00 0. -1.
       -3    1    3    3    0  502 -0.44618329696E+02  0.63407576784E+03 -0.32048588947E+02  0.63645109549E+03  0.10100000352E+00 0.  1.
</event>
<event>
 5   0  0.2756984E-04  0.1304972E+04  0.7818609E-02  0.9025632E-01
       -2   -1    0    0    0  501  0.00000000000E+00  0.00000000000E+00  0.46083289517E+03  0.46083289517E+03  0.25500000920E-02 0.  1.
        2   -1    0    0  501    0  0.00000000000E+00  0.00000000000E+00 -0.92384458311E+03  0.92384458311E+03  0.25500000920E-02 0. -1.
    10030    2    1    2    0    0  0.00000000000E+00  0.00000000000E+00 -0.46301168794E+03  0.13846774783E+04  0.13049719904E+04 0.  0.
        3    1    3    3  502    0 -0.24028522135E+03  0.50664749158E+03  0.12250222013E+03  0.57396469618E+03  0.10100000352E+00 0.  1.
       -3    1    3    3    0  502  0.24028522135E+03 -0.50664749158E+03 -0.58551390807E+03  0.81071278211E+03  0.10100000352E+00 0. -1.
</event>
<event>
 5   0  0.2661377E-04  0.1298909E+04  0.7818609E-02  0.9030431E-01
       -2   -1    0    0    0  501  0.00000000000E+00  0.00000000000E+00  0.75612549577E+03  0.75612549578E+03  0.25500000920E-02 0. -1.
        2   -1    0    0  501    0  0.00000000000E+00  0.00000000000E+00 -0.55783223115E+03  0.55783223116E+03  0.25500000920E-02 0.  1.
    10030    2    1    2    0    0  0.00000000000E+00  0.00000000000E+00  0.19829326462E+03  0.13139577269E+04  0.12989090381E+04 0.  0.
        5    1    3    3  502    0  0.15763083148E+02  0.91415166515E+02  0.74937187489E+03  0.75510628678E+03  0.46999998093E+01 0. -1.
       -5    1    3    3    0  502 -0.15763083148E+02 -0.91415166515E+02 -0.55107861027E+03  0.55885144015E+03  0.46999998093E+01 0.  1.
</event>
<event>
 5   0  0.1408341E-04  0.1299887E+04  0.7818609E-02  0.9029655E-01
       -1   -1    0    0    0  501  0.00000000000E+00  0.00000000000E+00  0.14573460706E+04  0.14573460706E+04  0.50400001928E-02 0. -1.
        1   -1    0    0  501    0  0.00000000000E+00  0.00000000000E+00 -0.28986016183E+03  0.28986016188E+03  0.50400001928E-02 0.  1.
    10030    2    1    2    0    0  0.00000000000E+00  0.00000000000E+00  0.11674859088E+04  0.17472062325E+04  0.12998870227E+04 0.  0.
        5    1    3    3  502    0 -0.17653663498E+03 -0.20205125639E+03 -0.21192093571E+03  0.34193927340E+03  0.46999998093E+01 0.  1.
       -5    1    3    3    0  502  0.17653663498E+03  0.20205125639E+03  0.13794068445E+04  0.14052669591E+04  0.46999998093E+01 0. -1.
</event>
<event>
 5   0  0.1476511E-04  0.1300113E+04  0.7818609E-02  0.9029476E-01
       -1   -1    0    0    0  501  0.00000000000E+00  0.00000000000E+00  0.25035548243E+03  0.25035548248E+03  0.50400001928E-02 0. -1.
        1   -1    0    0  501    0  0.00000000000E+00  0.00000000000E+00 -0.16878936774E+04  0.16878936774E+04  0.50400001928E-02 0.  1.
    10030    2    1    2    0    0  0.00000000000E+00  0.00000000000E+00 -0.14375381949E+04  0.19382491599E+04  0.13001129735E+04 0.  0.
        2    1    3    3  502    0  0.21280555361E+03 -0.20796790069E+03  0.14287026284E+03  0.33007387563E+03  0.25500000920E-02 0. -1.
       -2    1    3    3    0  502 -0.21280555361E+03  0.20796790069E+03 -0.15804084578E+04  0.16081752842E+04  0.25500000920E-02 0.  1.
</event>
<event>
 5   0  0.2573071E-04  0.1301217E+04  0.7818609E-02  0.9028601E-01
       -2   -1    0    0    0  501  0.00000000000E+00  0.00000000000E+00  0.24401785825E+03  0.24401785827E+03  0.25500000920E-02 0.  1.
        2   -1    0    0  501    0  0.00000000000E+00  0.00000000000E+00 -0.17346727011E+04  0.17346727011E+04  0.25500000920E-02 0. -1.
    10030    2    1    2    0    0  0.00000000000E+00  0.00000000000E+00 -0.14906548428E+04  0.19786905593E+04  0.13012165343E+04 0.  0.
        4    1    3    3  502    0  0.26978331605E+03 -0.15783725761E+03 -0.16130210657E+04  0.16430259307E+04  0.12699999809E+01 0. -1.
       -4    1    3    3    0  502 -0.26978331605E+03  0.15783725761E+03  0.12236622293E+03  0.33566462864E+03  0.12699999809E+01 0.  1.
</event>
<event>
 5   0  0.1002887E-04  0.1300490E+04  0.7818609E-02  0.9029177E-01
        4   -1    0    0  501    0  0.00000000000E+00  0.00000000000E+00  0.10920960700E+04  0.10920968084E+04  0.12699999809E+01 0. -1.
       -4   -1    0    0    0  501  0.00000000000E+00  0.00000000000E+00 -0.38716032468E+03  0.38716240767E+03  0.12699999809E+01 0.  1.
    10030    2    1    2    0    0  0.00000000000E+00  0.00000000000E+00  0.70493574532E+03  0.14792592161E+04  0.13004896860E+04 0.  0.
        2    1    3    3  502    0  0.17758339420E+02  0.47399944086E+03  0.85838657326E+03  0.98072337472E+03  0.25500000920E-02 0. -1.
       -2    1    3    3    0  502 -0.17758339420E+02 -0.47399944086E+03 -0.15345082794E+03  0.49853584140E+03  0.25500000920E-02 0.  1.
</event>
<event>
 5   0  0.1479690E-04  0.1299739E+04  0.7818609E-02  0.9029772E-01
       -1   -1    0    0    0  501  0.00000000000E+00  0.00000000000E+00  0.51245180024E+03  0.51245180026E+03  0.50400001928E-02 0.  1.
        1   -1    0    0  501    0  0.00000000000E+00  0.00000000000E+00 -0.82413635976E+03  0.82413635977E+03  0.50400001928E-02 0. -1.
    10030    2    1    2    0    0  0.00000000000E+00  0.00000000000E+00 -0.31168455952E+03  0.13365881600E+04  0.12997386833E+04 0.  0.
        1    1    3    3  502    0 -0.88619098905E+02 -0.40407299459E+03 -0.67125242835E+03  0.78848471909E+03  0.50400001928E-02 0. -1.
       -1    1    3    3    0  502  0.88619098905E+02  0.40407299459E+03  0.35956786883E+03  0.54810344094E+03  0.50400001928E-02 0.  1.
</event>
<event>
 5   0  0.2723209E-04  0.1302106E+04  0.7818609E-02  0.9027897E-01
       -2   -1    0    0    0  501  0.00000000000E+00  0.00000000000E+00  0.55723412434E+03  0.55723412434E+03  0.25500000920E-02 0.  1.
        2   -1    0    0  501    0  0.00000000000E+00  0.00000000000E+00 -0.76066807831E+03  0.76066807831E+03  0.25500000920E-02 0. -1.
    10030    2    1    2    0    0  0.00000000000E+00  0.00000000000E+00 -0.20343395397E+03  0.13179022027E+04  0.13021063098E+04 0.  0.
        2    1    3    3  502    0 -0.56620589213E+03  0.14740783444E+03  0.18732047806E+03  0.61433471613E+03  0.25500000920E-02 0.  1.
       -2    1    3    3    0  502  0.56620589213E+03 -0.14740783444E+03 -0.39075443203E+03  0.70356748652E+03  0.25500000920E-02 0. -1.
</event>
<event>
 5   0  0.1476511E-04  0.1302181E+04  0.7818609E-02  0.9027837E-01
       -1   -1    0    0    0  501  0.00000000000E+00  0.00000000000E+00  0.62117013174E+03  0.62117013176E+03  0.50400001928E-02 0. -1.
        1   -1    0    0  501    0  0.00000000000E+00  0.00000000000E+00 -0.68245218636E+03  0.68245218638E+03  0.50400001928E-02 0.  1.
    10030    2    1    2    0    0  0.00000000000E+00  0.00000000000E+00 -0.61282054624E+02  0.13036223181E+04  0.13021811157E+04 0.  0.
        2    1    3    3  502    0 -0.12520594298E+03 -0.54028181923E+03  0.31081995307E+03  0.63575940070E+03  0.25500000920E-02 0. -1.
       -2    1    3    3    0  502  0.12520594298E+03  0.54028181923E+03 -0.37210200770E+03  0.66786291744E+03  0.25500000920E-02 0.  1.
</event>
<event>
 5   0  0.2794825E-04  0.1296852E+04  0.7818609E-02  0.9032065E-01
        2   -1    0    0  501    0  0.00000000000E+00  0.00000000000E+00  0.25005731865E+04  0.25005731865E+04  0.25500000920E-02 0. -1.
       -2   -1    0    0    0  501  0.00000000000E+00  0.00000000000E+00 -0.16814406445E+03  0.16814406446E+03  0.25500000920E-02 0.  1.
    10030    2    1    2    0    0  0.00000000000E+00  0.00000000000E+00  0.23324291221E+04  0.26687172510E+04  0.12968524034E+04 0.  0.
        1    1    3    3  502    0  0.28744800550E+03  0.13234099419E+02 -0.29558131023E+02  0.28926662509E+03  0.50400001928E-02 0.  1.
       -1    1    3    3    0  502 -0.28744800550E+03 -0.13234099419E+02  0.23619872531E+04  0.23794506259E+04  0.50400001928E-02 0. -1.
</event>
<event>
 5   0  0.1475396E-04  0.1293730E+04  0.7818609E-02  0.9034552E-01
       -1   -1    0    0    0  501  0.00000000000E+00  0.00000000000E+00  0.74310401410E+03  0.74310401412E+03  0.50400001928E-02 0.  1.
        1   -1    0    0  501    0  0.00000000000E+00  0.00000000000E+00 -0.56309013900E+03  0.56309013902E+03  0.50400001928E-02 0. -1.
    10030    2    1    2    0    0  0.00000000000E+00  0.00000000000E+00  0.18001387510E+03  0.13061941531E+04  0.12937303314E+04 0.  0.
        3    1    3    3  502    0  0.26132035928E+03 -0.35695396577E+03  0.56649650955E+03  0.71876475246E+03  0.10100000352E+00 0.  1.
       -3    1    3    3    0  502 -0.26132035928E+03  0.35695396577E+03 -0.38648263445E+03  0.58742940068E+03  0.10100000352E+00 0. -1.
</event>
<event>
 5   0  0.1475396E-04  0.1298753E+04  0.7818609E-02  0.9030555E-01
       -1   -1    0    0    0  501  0.00000000000E+00  0.00000000000E+00  0.57355439528E+03  0.57355439530E+03  0.50400001928E-02 0.  1.
        1   -1    0    0  501    0  0.00000000000E+00  0.00000000000E+00 -0.73522217420E+03  0.73522217422E+03  0.50400001928E-02 0. -1.
    10030    2    1    2    0    0  0.00000000000E+00  0.00000000000E+00 -0.16166777892E+03  0.13087765695E+04  0.12987531090E+04 0.  0.
        3    1    3    3  502    0  0.56338053489E+03 -0.32060743206E+03 -0.41764232077E+02  0.64956217090E+03  0.10100000352E+00 0. -1.
       -3    1    3    3    0  502 -0.56338053489E+03  0.32060743206E+03 -0.11990354685E+03  0.65921439861E+03  0.10100000352E+00 0.  1.
</event>
<event>
 5   0  0.2573071E-04  0.1298849E+04  0.7818609E-02  0.9030479E-01
       -2   -1    0    0    0  501  0.00000000000E+00  0.00000000000E+00  0.22680588722E+03  0.22680588723E+03  0.25500000920E-02 0.  1.
        2   -1    0    0  501    0  0.00000000000E+00  0.00000000000E+00 -0.18595282813E+04  0.18595282813E+04  0.25500000920E-02 0. -1.
    10030    2    1    2    0    0  0.00000000000E+00  0.00000000000E+00 -0.16327223941E+04  0.20863341686E+04  0.12988486620E+04 0.  0.
        4    1    3    3  502    0 -0.12714591540E+03  0.54839212879E+03 -0.13364892009E+04  0.14502086083E+04  0.12699999809E+01 0.  1.
       -4    1    3    3    0  502  0.12714591540E+03 -0.54839212879E+03 -0.29623319326E+03  0.63612556026E+03  0.12699999809E+01 0. -1.
</event>
<event>
 5   0  0.2794825E-04  0.1301606E+04  0.7818609E-02  0.9028292E-01
       -2   -1    0    0    0  501  0.00000000000E+00  0.00000000000E+00  0.79633767654E+03  0.79633767654E+03  0.25500000920E-02 0.  1.
        2   -1    0    0  501    0  0.00000000000E+00  0.00000000000E+00 -0.53186587852E+03  0.53186587852E+03  0.25500000920E-02 0. -1.
    10030    2    1    2    0    0  0.00000000000E+00  0.00000000000E+00  0.26447179802E+03  0.13282035551E+04  0.13016064504E+04 0.  0.
        1    1    3    3  502    0 -0.38144996773E+03  0.17897254568E+02  0.66999636936E+03  0.77118060439E+03  0.50400001928E-02 0.  1.
       -1    1    3    3    0  502  0.38144996773E+03 -0.17897254568E+02 -0.40552457134E+03  0.55702295068E+03  0.50400001928E-02 0. -1.
</event>
<event>
 5   0  0.1002887E-04  0.1296456E+04  0.7818609E-02  0.9032380E-01
       -4   -1    0    0    0  501  0.00000000000E+00  0.00000000000E+00  0.53302449947E+03  0.53302601244E+03  0.12699999809E+01 0.  1.
        4   -1    0    0  501    0  0.00000000000E+00  0.00000000000E+00 -0.78832797754E+03  0.78832900053E+03  0.12699999809E+01 0. -1.
    10030    2    1    2    0    0  0.00000000000E+00  0.00000000000E+00 -0.25530347807E+03  0.13213550130E+04  0.12964564028E+04 0.  0.
        5    1    3    3  502    0 -0.37012960070E+03 -0.52482871666E+03 -0.38004504953E+02  0.64335646071E+03  0.46999998093E+01 0.  1.
       -5    1    3    3    0  502  0.37012960070E+03  0.52482871666E+03 -0.21729897312E+03  0.67799855226E+03  0.46999998093E+01 0. -1.
</event>
<event>
 5   0  0.1430636E-04  0.1299838E+04  0.7818609E-02  0.9029694E-01
        1   -1    0    0  501    0  0.00000000000E+00  0.00000000000E+00  0.61142878040E+03  0.61142878042E+03  0.50400001928E-02 0. -1.
       -1   -1    0    0    0  501  0.00000000000E+00  0.00000000000E+00 -0.69083234787E+03  0.69083234789E+03  0.50400001928E-02 0.  1.
    10030    2    1    2    0    0  0.00000000000E+00  0.00000000000E+00 -0.79403567466E+02  0.13022611283E+04  0.12998381129E+04 0.  0.
        4    1    3    3  502    0 -0.42006433981E+03  0.21453745415E+03  0.40824777129E+03  0.62381746086E+03  0.12699999809E+01 0. -1.
       -4    1    3    3    0  502  0.42006433981E+03 -0.21453745415E+03 -0.48765133875E+03  0.67844366745E+03  0.12699999809E+01 0.  1.
</event>
<event>
 5   0  0.1408341E-04  0.1299008E+04  0.7818609E-02  0.9030352E-01
        1   -1    0    0  501    0  0.00000000000E+00  0.00000000000E+00  0.66042861168E+03  0.66042861170E+03  0.50400001928E-02 0.  1.
       -1   -1    0    0    0  501  0.00000000000E+00  0.00000000000E+00 -0.63875995063E+03  0.63875995065E+03  0.50400001928E-02 0. -1.
    10030    2    1    2    0    0  0.00000000000E+00  0.00000000000E+00  0.21668661044E+02  0.12991885624E+04  0.12990078482E+04 0.  0.
        5    1    3    3  502    0  0.20195935523E+03 -0.31362250522E+03  0.54259109729E+03  0.65846324560E+03  0.46999998093E+01 0.  1.
       -5    1    3    3    0  502 -0.20195935523E+03  0.31362250522E+03 -0.52092243625E+03  0.64072531675E+03  0.46999998093E+01 0. -1.
</event>
<event>
 5   0  0.2723209E-04  0.1302878E+04  0.7818609E-02  0.9027286E-01
        2   -1    0    0  501    0  0.00000000000E+00  0.00000000000E+00  0.33652289922E+03  0.33652289923E+03  0.25500000920E-02 0.  1.
       -2   -1    0    0    0  501  0.00000000000E+00  0.00000000000E+00 -0.12610525564E+04  0.12610525564E+04  0.25500000920E-02 0. -1.
    10030    2    1    2    0    0  0.00000000000E+00  0.00000000000E+00 -0.92452965716E+03  0.15975754556E+04  0.13028784477E+04 0.  0.
        2    1    3    3  502    0 -0.38107204014E+03 -0.52433207179E+03 -0.38248672283E+03  0.75261950176E+03  0.25500000920E-02 0.  1.
       -2    1    3    3    0  502  0.38107204014E+03  0.52433207179E+03 -0.54204293433E+03  0.84495595385E+03  0.25500000920E-02 0. -1.
</event>
<event>
 5   0  0.1430636E-04  0.1301468E+04  0.7818609E-02  0.9028402E-01
       -1   -1    0    0    0  501  0.00000000000E+00  0.00000000000E+00  0.13228211942E+04  0.13228211942E+04  0.50400001928E-02 0.  1.
        1   -1    0    0  501    0  0.00000000000E+00  0.00000000000E+00 -0.32011482173E+03  0.32011482177E+03  0.50400001928E-02 0. -1.
    10030    2    1    2    0    0  0.00000000000E+00  0.00000000000E+00  0.10027063725E+04  0.16429360160E+04  0.13014678956E+04 0.  0.
        4    1    3    3  502    0  0.77795252544E+02 -0.24896197250E+03  0.12539414572E+04  0.12807829465E+04  0.12699999809E+01 0.  1.
       -4    1    3    3    0  502 -0.77795252544E+02  0.24896197250E+03 -0.25123508470E+03  0.36215306951E+03  0.12699999809E+01 0. -1.
</event>
<event>
 5   0  0.2661377E-04  0.1303732E+04  0.7818609E-02  0.9026611E-01
       -2   -1    0    0    0  501  0.00000000000E+00  0.00000000000E+00  0.50615160128E+03  0.50615160129E+03  0.25500000920E-02 0. -1.
        2   -1    0    0  501    0  0.00000000000E+00  0.00000000000E+00 -0.83952958584E+03  0.83952958585E+03  0.25500000920E-02 0.  1.
    10030    2    1    2    0    0  0.00000000000E+00  0.00000000000E+00 -0.33337798456E+03  0.13456811871E+04  0.13037319421E+04 0.  0.
        5    1    3    3  502    0 -0.46016782298E+03  0.42726856654E+03 -0.34722928490E+03  0.71756750174E+03  0.46999998093E+01 0.  1.
       -5    1    3    3    0  502  0.46016782298E+03 -0.42726856654E+03  0.13851300339E+02  0.62811368539E+03  0.46999998093E+01 0. -1.
</event>
<event>
 5   0  0.1408341E-04  0.1300138E+04  0.7818609E-02  0.9029455E-01
        1   -1    0    0  501    0  0.00000000000E+00  0.00000000000E+00  0.18223136089E+04  0.18223136089E+04  0.50400001928E-02 0. -1.
       -1   -1    0    0    0  501  0.00000000000E+00  0.00000000000E+00 -0.23189748545E+03  0.23189748550E+03  0.50400001928E-02 0.  1.
    10030    2    1    2    0    0  0.00000000000E+00  0.00000000000E+00  0.15904161234E+04  0.20542110944E+04  0.13001383675E+04 0.  0.
        5    1    3    3  502    0  0.51752025425E+03  0.16128307190E+02  0.14162091397E+04  0.15078984558E+04  0.46999998093E+01 0. -1.
       -5    1    3    3    0  502 -0.51752025425E+03 -0.16128307190E+02  0.17420698377E+03  0.54631263856E+03  0.46999998093E+01 0.  1.
</event>
<event>
 5   0  0.1479690E-04  0.1296297E+04  0.7818609E-02  0.9032507E-01
       -1   -1    0    0    0  501  0.00000000000E+00  0.00000000000E+00  0.95852343934E+03  0.95852343936E+03  0.50400001928E-02 0. -1.
        1   -1    0    0  501    0  0.00000000000E+00  0.00000000000E+00 -0.43827436100E+03  0.43827436103E+03  0.50400001928E-02 0.  1.
    10030    2    1    2    0    0  0.00000000000E+00  0.00000000000E+00  0.52024907834E+03  0.13967978004E+04  0.12962966449E+04 0.  0.
        1    1    3    3  502    0 -0.16980741578E+03  0.37859620910E+03 -0.27640138054E+03  0.49856531286E+03  0.50400001928E-02 0. -1.
       -1    1    3    3    0  502  0.16980741578E+03 -0.37859620910E+03  0.79665045888E+03  0.89823248753E+03  0.50400001928E-02 0.  1.
</event>
<event>
 5   0  0.2723209E-04  0.1303413E+04  0.7818609E-02  0.9026863E-01
        2   -1    0    0  501    0  0.00000000000E+00  0.00000000000E+00  0.17942178170E+04  0.17942178170E+04  0.25500000920E-02 0.  1.
       -2   -1    0    0    0  501  0.00000000000E+00  0.00000000000E+00 -0.23671672599E+03  0.23671672600E+03  0.25500000920E-02 0. -1.
    10030    2    1    2    0    0  0.00000000000E+00  0.00000000000E+00  0.15575010911E+04  0.20309345430E+04  0.13034130080E+04 0.  0.
        2    1    3    3  502    0  0.48482499907E+03 -0.42251717293E+03  0.94324841135E+03  0.11416188535E+04  0.25500000920E-02 0. -1.
       -2    1    3    3    0  502 -0.48482499907E+03  0.42251717293E+03  0.61425267971E+03  0.88931568955E+03  0.25500000920E-02 0.  1.
</event>
<event>
 5   0  0.1408341E-04  0.1292073E+04  0.7818609E-02  0.9035875E-01
        1   -1    0    0  501    0  0.00000000000E+00  0.00000000000E+00  0.36279156459E+03  0.36279156462E+03  0.50400001928E-02 0. -1.
       -1   -1    0    0    0  501  0.00000000000E+00  0.00000000000E+00 -0.11504205583E+04  0.11504205583E+04  0.50400001928E-02 0.  1.
    10030    2    1    2    0    0  0.00000000000E+00  0.00000000000E+00 -0.78762899371E+03  0.15132121229E+04  0.12920725588E+04 0.  0.
        5    1    3    3  502    0  0.44073101741E+03  0.69807360342E+02 -0.94091114318E+03  0.10413706192E+04  0.46999998093E+01 0.  1.
       -5    1    3    3    0  502 -0.44073101741E+03 -0.69807360342E+02  0.15328214946E+03  0.47184150369E+03  0.46999998093E+01 0. -1.
</event>
<event>
 5   0  0.2794825E-04  0.1288110E+04  0.7818609E-02  0.9039047E-01
       -2   -1    0    0    0  501  0.00000000000E+00  0.00000000000E+00  0.54253890789E+03  0.54253890790E+03  0.25500000920E-02 0.  1.
        2   -1    0    0  501    0  0.00000000000E+00  0.00000000000E+00 -0.76456643008E+03  0.76456643008E+03  0.25500000920E-02 0. -1.
    10030    2    1    2    0    0  0.00000000000E+00  0.00000000000E+00 -0.22202752219E+03  0.13071053380E+04  0.12881102996E+04 0.  0.
        1    1    3    3  502    0 -0.24972941290E+03 -0.32747971380E+03  0.39146434389E+03  0.56820073494E+03  0.50400001928E-02 0.  1.
       -1    1    3    3    0  502  0.24972941290E+03  0.32747971380E+03 -0.61349186608E+03  0.73890460304E+03  0.50400001928E-02 0. -1.
</event>
<event>
 5   0  0.1479690E-04  0.1298949E+04  0.7818609E-02  0.9030399E-01
        1   -1    0    0  501    0  0.00000000000E+00  0.00000000000E+00  0.50917142375E+03  0.50917142377E+03  0.50400001928E-02 0.  1.
       -1   -1    0    0    0  501  0.00000000000E+00  0.00000000000E+00 -0.82843891577E+03  0.82843891579E+03  0.50400001928E-02 0. -1.
    10030    2    1    2    0    0  0.00000000000E+00  0.00000000000E+00 -0.31926749203E+03  0.13376103396E+04  0.12989494559E+04 0.  0.
        1    1    3    3  502    0  0.36778437759E+03 -0.23319902059E+03 -0.65581538269E+03  0.78723627191E+03  0.50400001928E-02 0. -1.
       -1    1    3    3    0  502 -0.36778437759E+03  0.23319902059E+03  0.33654789066E+03  0.55037406765E+03  0.50400001928E-02 0.  1.
</event>
<event>
 5   0  0.1476511E-04  0.1300437E+04  0.7818609E-02  0.9029219E-01
       -1   -1    0    0    0  501  0.00000000000E+00  0.00000000000E+00  0.55764994457E+03  0.55764994459E+03  0.50400001928E-02 0. -1.
        1   -1    0    0  501    0  0.00000000000E+00  0.00000000000E+00 -0.75815271301E+03  0.75815271302E+03  0.50400001928E-02 0.  1.
    10030    2    1    2    0    0  0.00000000000E+00  0.00000000000E+00 -0.20050276844E+03  0.13158026576E+04  0.13004365704E+04 0.  0.
        2    1    3    3  502    0  0.57890713626E+03  0.37056277074E+01  0.19928141192E+03  0.61225834844E+03  0.25500000920E-02 0.  1.
       -2    1    3    3    0  502 -0.57890713626E+03 -0.37056277074E+01 -0.39978418036E+03  0.70354430917E+03  0.25500000920E-02 0. -1.
</event>
<event>
 5   0  0.2573071E-04  0.1302367E+04  0.7818609E-02  0.9027690E-01
       -2   -1    0    0    0  501  0.00000000000E+00  0.00000000000E+00  0.10007651158E+04  0.10007651158E+04  0.25500000920E-02 0.  1.
        2   -1    0    0  501    0  0.00000000000E+00  0.00000000000E+00 -0.42371563645E+03  0.42371563646E+03  0.25500000920E-02 0. -1.
    10030    2    1    2    0    0  0.00000000000E+00  0.00000000000E+00  0.57704947939E+03  0.14244807523E+04  0.13023668116E+04 0.  0.
        4    1    3    3  502    0  0.12999194173E+03  0.63411264426E+03  0.36618549768E+03  0.74370033087E+03  0.12699999809E+01 0.  1.
       -4    1    3    3    0  502 -0.12999194173E+03 -0.63411264426E+03  0.21086398171E+03  0.68078042144E+03  0.12699999809E+01 0. -1.
</event>
<event>
 5   0  0.2723209E-04  0.1297434E+04  0.7818609E-02  0.9031602E-01
       -2   -1    0    0    0  501  0.00000000000E+00  0.00000000000E+00  0.17279853437E+03  0.17279853439E+03  0.25500000920E-02 0.  1.
        2   -1    0    0  501    0  0.00000000000E+00  0.00000000000E+00 -0.24354021082E+04  0.24354021082E+04  0.25500000920E-02 0. -1.
    10030    2    1    2    0    0  0.00000000000E+00  0.00000000000E+00 -0.22626035738E+04  0.26082006426E+04  0.12974342603E+04 0.  0.
        2    1    3    3  502    0  0.62424780018E+03  0.43454839704E+02 -0.14751722262E+04  0.16024065452E+04  0.25500000920E-02 0. -1.
       -2    1    3    3    0  502 -0.62424780018E+03 -0.43454839704E+02 -0.78743134757E+03  0.10057940974E+04  0.25500000920E-02 0.  1.
</event>
<event>
 5   0  0.2573071E-04  0.1298320E+04  0.7818609E-02  0.9030899E-01
       -2   -1    0    0    0  501  0.00000000000E+00  0.00000000000E+00  0.28744010053E+03  0.28744010054E+03  0.25500000920E-02 0. -1.
        2   -1    0    0  501    0  0.00000000000E+00  0.00000000000E+00 -0.14660743464E+04  0.14660743464E+04  0.25500000920E-02 0.  1.
    10030    2    1    2    0    0  0.00000000000E+00  0.00000000000E+00 -0.11786342458E+04  0.17535144469E+04  0.12983197719E+04 0.  0.
        4    1    3    3  502    0 -0.55030784086E+03 -0.34008230286E+03 -0.66220279575E+03  0.92574772375E+03  0.12699999809E+01 0.  1.
       -4    1    3    3    0  502  0.55030784086E+03  0.34008230286E+03 -0.51643145009E+03  0.82776672316E+03  0.12699999809E+01 0. -1.
</event>
<event>
 5   0  0.1476511E-04  0.1302862E+04  0.7818609E-02  0.9027299E-01
        1   -1    0    0  501    0  0.00000000000E+00  0.00000000000E+00  0.13453025687E+04  0.13453025688E+04  0.50400001928E-02 0.  1.
       -1   -1    0    0    0  501  0.00000000000E+00  0.00000000000E+00 -0.31544008344E+03  0.31544008348E+03  0.50400001928E-02 0. -1.
    10030    2    1    2    0    0  0.00000000000E+00  0.00000000000E+00  0.10298624853E+04  0.16607426522E+04  0.13028620105E+04 0.  0.
        2    1    3    3  502    0 -0.41348489203E+03 -0.83343064130E+02  0.11477295001E+04  0.12227832301E+04  0.25500000920E-02 0.  1.
       -2    1    3    3    0  502  0.41348489203E+03  0.83343064130E+02 -0.11786701482E+03  0.43795942217E+03  0.25500000920E-02 0. -1.
</event>
<event>
 5   0  0.2794825E-04  0.1309874E+04  0.7818609E-02  0.9021771E-01
        2   -1    0    0  501    0  0.00000000000E+00  0.00000000000E+00  0.69430179965E+03  0.69430179965E+03  0.25500000920E-02 0. -1.
       -2   -1    0    0    0  501  0.00000000000E+00  0.00000000000E+00 -0.61780418629E+03  0.61780418629E+03  0.25500000920E-02 0.  1.
    10030    2    1    2    0    0  0.00000000000E+00  0.00000000000E+00  0.76497613362E+02  0.13121059859E+04  0.13098741289E+04 0.  0.
        1    1    3    3  502    0 -0.39157600023E+03  0.19327274442E+03 -0.45069807084E+03  0.62754670645E+03  0.50400001928E-02 0.  1.
       -1    1    3    3    0  502  0.39157600023E+03 -0.19327274442E+03  0.52719568420E+03  0.68455927950E+03  0.50400001928E-02 0. -1.
</event>
<event>
 5   0  0.1430636E-04  0.1300404E+04  0.7818609E-02  0.9029245E-01
       -1   -1    0    0    0  501  0.00000000000E+00  0.00000000000E+00  0.12963987207E+04  0.12963987207E+04  0.50400001928E-02 0. -1.
        1   -1    0    0  501    0  0.00000000000E+00  0.00000000000E+00 -0.32610532949E+03  0.32610532953E+03  0.50400001928E-02 0.  1.
    10030    2    1    2    0    0  0.00000000000E+00  0.00000000000E+00  0.97029339124E+03  0.16225040503E+04  0.13004038327E+04 0.  0.
        4    1    3    3  502    0 -0.29976453102E+03 -0.29217771828E+03 -0.13561550590E+03  0.44002246699E+03  0.12699999809E+01 0.  1.
       -4    1    3    3    0  502  0.29976453102E+03  0.29217771828E+03  0.11059088971E+04  0.11824815833E+04  0.12699999809E+01 0. -1.
</event>
<event>
 5   0  0.1476511E-04  0.1301256E+04  0.7818609E-02  0.9028570E-01
        1   -1    0    0  501    0  0.00000000000E+00  0.00000000000E+00  0.64216641434E+03  0.64216641436E+03  0.50400001928E-02 0. -1.
       -1   -1    0    0    0  501  0.00000000000E+00  0.00000000000E+00 -0.65920068797E+03  0.65920068799E+03  0.50400001928E-02 0.  1.
    10030    2    1    2    0    0  0.00000000000E+00  0.00000000000E+00 -0.17034273629E+02  0.13013671023E+04  0.13012556123E+04 0.  0.
        2    1    3    3  502    0  0.52349952412E+02  0.57139768468E+02  0.63753439671E+03  0.64222704526E+03  0.25500000920E-02 0. -1.
       -2    1    3    3    0  502 -0.52349952412E+02 -0.57139768468E+02 -0.65456867034E+03  0.65914005709E+03  0.25500000920E-02 0.  1.
</event>
<event>
 5   0  0.1479690E-04  0.1300394E+04  0.7818609E-02  0.9029253E-01
       -1   -1    0    0    0  501  0.00000000000E+00  0.00000000000E+00  0.23896518476E+03  0.23896518481E+03  0.50400001928E-02 0.  1.
        1   -1    0    0  501    0  0.00000000000E+00  0.00000000000E+00 -0.17691119020E+04  0.17691119020E+04  0.50400001928E-02 0. -1.
    10030    2    1    2    0    0  0.00000000000E+00  0.00000000000E+00 -0.15301467173E+04  0.20080770868E+04  0.13003940212E+04 0.  0.
        1    1    3    3  502    0  0.64009805672E+03  0.50336999399E+02 -0.92328346633E+03  0.11245940134E+04  0.50400001928E-02 0. -1.
       -1    1    3    3    0  502 -0.64009805672E+03 -0.50336999399E+02 -0.60686325094E+03  0.88348307346E+03  0.50400001928E-02 0.  1.
</event>
<event>
 5   0  0.2794825E-04  0.1299032E+04  0.7818609E-02  0.9030333E-01
       -2   -1    0    0    0  501  0.00000000000E+00  0.00000000000E+00  0.78496372454E+03  0.78496372455E+03  0.25500000920E-02 0.  1.
        2   -1    0    0  501    0  0.00000000000E+00  0.00000000000E+00 -0.53744005930E+03  0.53744005931E+03  0.25500000920E-02 0. -1.
    10030    2    1    2    0    0  0.00000000000E+00  0.00000000000E+00  0.24752366524E+03  0.13224037839E+04  0.12990318713E+04 0.  0.
        1    1    3    3  502    0  0.58224840347E+03 -0.58369628395E+02 -0.16317958069E+03  0.60749303900E+03  0.50400001928E-02 0. -1.
       -1    1    3    3    0  502 -0.58224840347E+03  0.58369628395E+02  0.41070324593E+03  0.71491074485E+03  0.50400001928E-02 0.  1.
</event>
<event>
 5   0  0.1475396E-04  0.1299723E+04  0.7818609E-02  0.9029785E-01
        1   -1    0    0  501    0  0.00000000000E+00  0.00000000000E+00  0.59982420982E+03  0.59982420984E+03  0.50400001928E-02 0. -1.
       -1   -1    0    0    0  501  0.00000000000E+00  0.00000000000E+00 -0.70407298424E+03  0.70407298426E+03  0.50400001928E-02 0.  1.
    10030    2    1    2    0    0  0.00000000000E+00  0.00000000000E+00 -0.10424877442E+03  0.13038971941E+04  0.12997230804E+04 0.  0.
        3    1    3    3  502    0  0.30388844961E+03 -0.19316092544E+03 -0.59484298855E+03  0.69533986233E+03  0.10100000352E+00 0.  1.
       -3    1    3    3    0  502 -0.30388844961E+03  0.19316092544E+03  0.49059421412E+03  0.60855733177E+03  0.10100000352E+00 0. -1.
</event>
<event>
 5   0  0.1408341E-04  0.1307142E+04  0.7818609E-02  0.9023920E-01
       -1   -1    0    0    0  501  0.00000000000E+00  0.00000000000E+00  0.35915501331E+03  0.35915501335E+03  0.50400001928E-02 0.  1.
        1   -1    0    0  501    0  0.00000000000E+00  0.00000000000E+00 -0.11893341692E+04  0.11893341692E+04  0.50400001928E-02 0. -1.
    10030    2    1    2    0    0  0.00000000000E+00  0.00000000000E+00 -0.83017915592E+03  0.15484891826E+04  0.13071424244E+04 0.  0.
        5    1    3    3  502    0 -0.38373608840E+03  0.46739825396E+03 -0.12150335773E+03  0.61684655246E+03  0.46999998093E+01 0.  1.
       -5    1    3    3    0  502  0.38373608840E+03 -0.46739825396E+03 -0.70867579819E+03  0.93164263013E+03  0.46999998093E+01 0. -1.
</event>
<event>
 5   0  0.1475396E-04  0.1308237E+04  0.7818609E-02  0.9023058E-01
        1   -1    0    0  501    0  0.00000000000E+00  0.00000000000E+00  0.25390270509E+03  0.25390270514E+03  0.50400001928E-02 0. -1.
       -1   -1    0    0    0  501  0.00000000000E+00  0.00000000000E+00 -0.16851780069E+04  0.16851780069E+04  0.50400001928E-02 0.  1.
    10030    2    1    2    0    0  0.00000000000E+00  0.00000000000E+00 -0.14312753018E+04  0.19390807121E+04  0.13082373708E+04 0.  0.
        3    1    3    3  502    0 -0.21844849561E+03 -0.33678326994E+03  0.49860365816E+02  0.40451054674E+03  0.10100000352E+00 0. -1.
       -3    1    3    3    0  502  0.21844849561E+03  0.33678326994E+03 -0.14811356676E+04  0.15345701653E+04  0.10100000352E+00 0.  1.
</event>
<event>
 5   0  0.2723209E-04  0.1293189E+04  0.7818609E-02  0.9034984E-01
        2   -1    0    0  501    0  0.00000000000E+00  0.00000000000E+00  0.88274015223E+03  0.88274015224E+03  0.25500000920E-02 0.  1.
       -2   -1    0    0    0  501  0.00000000000E+00  0.00000000000E+00 -0.47362097318E+03  0.47362097318E+03  0.25500000920E-02 0. -1.
    10030    2    1    2    0    0  0.00000000000E+00  0.00000000000E+00  0.40911917906E+03  0.13563611254E+04  0.12931886946E+04 0.  0.
        2    1    3    3  502    0  0.46670557888E+03 -0.22536956794E+03 -0.20095184609E+03  0.55586615652E+03  0.25500000920E-02 0. -1.
       -2    1    3    3    0  502 -0.46670557888E+03  0.22536956794E+03  0.61007102515E+03  0.80049496890E+03  0.25500000920E-02 0.  1.
</event>
<event>
 5   0  0.2573071E-04  0.1301261E+04  0.7818609E-02  0.9028565E-01
       -2   -1    0    0    0  501  0.00000000000E+00  0.00000000000E+00  0.27906704607E+03  0.27906704608E+03  0.25500000920E-02 0. -1.
        2   -1    0    0  501    0  0.00000000000E+00  0.00000000000E+00 -0.15169126513E+04  0.15169126513E+04  0.25500000920E-02 0.  1.
    10030    2    1    2    0    0  0.00000000000E+00  0.00000000000E+00 -0.12378456052E+04  0.17959796974E+04  0.13012614384E+04 0.  0.
        4    1    3    3  502    0 -0.64415468035E+03  0.88355281155E+02 -0.65207054685E+03  0.92083631493E+03  0.12699999809E+01 0.  1.
       -4    1    3    3    0  502  0.64415468035E+03 -0.88355281155E+02 -0.58577505836E+03  0.87514338243E+03  0.12699999809E+01 0. -1.
</event>
<event>
 5   0  0.2573071E-04  0.1299849E+04  0.7818609E-02  0.9029685E-01
       -2   -1    0    0    0  501  0.00000000000E+00  0.00000000000E+00  0.26190962031E+03  0.26190962032E+03  0.25500000920E-02 0. -1.
        2   -1    0    0  501    0  0.00000000000E+00  0.00000000000E+00 -0.16127760568E+04  0.16127760568E+04  0.25500000920E-02 0.  1.
    10030    2    1    2    0    0  0.00000000000E+00  0.00000000000E+00 -0.13508664365E+04  0.18746856772E+04  0.12998485523E+04 0.  0.
        4    1    3    3  502    0 -0.22457008721E+03  0.44706039474E+02 -0.15526738222E+04  0.15694674145E+04  0.12699999809E+01 0.  1.
       -4    1    3    3    0  502  0.22457008721E+03 -0.44706039474E+02  0.20180738570E+03  0.30521826266E+03  0.12699999809E+01 0. -1.
</event>
<event>
 5   0  0.1002887E-04  0.1299153E+04  0.7818609E-02  0.9030237E-01
        3   -1    0    0  501    0  0.00000000000E+00  0.00000000000E+00  0.10221437289E+04  0.10221437339E+04  0.10100000352E+00 0.  1.
       -3   -1    0    0    0  501  0.00000000000E+00  0.00000000000E+00 -0.41280864970E+03  0.41280866205E+03  0.10100000352E+00 0. -1.
    10030    2    1    2    0    0  0.00000000000E+00  0.00000000000E+00  0.60933507924E+03  0.14349523960E+04  0.12991532396E+04 0.  0.
        4    1    3    3  502    0 -0.22965389231E+03  0.59293671703E+03  0.45133847172E+03  0.77975822510E+03  0.12699999809E+01 0.  1.
       -4    1    3    3    0  502  0.22965389231E+03 -0.59293671703E+03  0.15799660752E+03  0.65519417088E+03  0.12699999809E+01 0. -1.
</event>
<event>
 5   0  0.1475396E-04  0.1302579E+04  0.7818609E-02  0.9027523E-01
       -1   -1    0    0    0  501  0.00000000000E+00  0.00000000000E+00  0.98639819131E+03  0.98639819132E+03  0.50400001928E-02 0.  1.
        1   -1    0    0  501    0  0.00000000000E+00  0.00000000000E+00 -0.43002701815E+03  0.43002701818E+03  0.50400001928E-02 0. -1.
    10030    2    1    2    0    0  0.00000000000E+00  0.00000000000E+00  0.55637117316E+03  0.14164252095E+04  0.13025787852E+04 0.  0.
        3    1    3    3  502    0 -0.10959073615E+03  0.27763565518E+02  0.97564696509E+03  0.98217511459E+03  0.10100000352E+00 0.  1.
       -3    1    3    3    0  502  0.10959073615E+03 -0.27763565518E+02 -0.41927579194E+03  0.43425009491E+03  0.10100000352E+00 0. -1.
</event>
<event>
 5   0  0.1430636E-04  0.1304220E+04  0.7818609E-02  0.9026226E-01
       -1   -1    0    0    0  501  0.00000000000E+00  0.00000000000E+00  0.79958370258E+03  0.79958370260E+03  0.50400001928E-02 0.  1.
        1   -1    0    0  501    0  0.00000000000E+00  0.00000000000E+00 -0.53183587665E+03  0.53183587668E+03  0.50400001928E-02 0. -1.
    10030    2    1    2    0    0  0.00000000000E+00  0.00000000000E+00  0.26774782593E+03  0.13314195793E+04  0.13042197659E+04 0.  0.
        4    1    3    3  502    0 -0.34378354149E+03 -0.27925103149E+01 -0.43180404085E+03  0.55195222991E+03  0.12699999809E+01 0. -1.
       -4    1    3    3    0  502  0.34378354149E+03  0.27925103149E+01  0.69955186678E+03  0.77946734936E+03  0.12699999809E+01 0.  1.
</event>
<event>
 5   0  0.2661377E-04  0.1299821E+04  0.7818609E-02  0.9029707E-01
       -2   -1    0    0    0  501  0.00000000000E+00  0.00000000000E+00  0.91568008397E+03  0.91568008397E+03  0.25500000920E-02 0.  1.
        2   -1    0    0  501    0  0.00000000000E+00  0.00000000000E+00 -0.46127835655E+03  0.46127835656E+03  0.25500000920E-02 0. -1.
    10030    2    1    2    0    0  0.00000000000E+00  0.00000000000E+00  0.45440172741E+03  0.13769584405E+04  0.12998206096E+04 0.  0.
        5    1    3    3  502    0  0.55869582057E+03 -0.13974557212E+03  0.54622286351E+03  0.79375774104E+03  0.46999998093E+01 0.  1.
       -5    1    3    3    0  502 -0.55869582057E+03  0.13974557212E+03 -0.91821136095E+02  0.58320069948E+03  0.46999998093E+01 0. -1.
</event>
<event>
 5   0  0.1408341E-04  0.1298875E+04  0.7818609E-02  0.9030458E-01
       -1   -1    0    0    0  501  0.00000000000E+00  0.00000000000E+00  0.32546436947E+03  0.32546436951E+03  0.50400001928E-02 0. -1.
        1   -1    0    0  501    0  0.00000000000E+00  0.00000000000E+00 -0.12958989995E+04  0.12958989996E+04  0.50400001928E-02 0.  1.
    10030    2    1    2    0    0  0.00000000000E+00  0.00000000000E+00 -0.97043463008E+03  0.16213633691E+04  0.12988748220E+04 0.  0.
        5    1    3    3  502    0  0.16452245210E+03 -0.18610974142E+03  0.26379658133E+03  0.36237439123E+03  0.46999998093E+01 0. -1.
       -5    1    3    3    0  502 -0.16452245210E+03  0.18610974142E+03 -0.12342312114E+04  0.12589889778E+04  0.46999998093E+01 0.  1.
</event>
<event>
 5   0  0.1476511E-04  0.1299474E+04  0.7818609E-02  0.9029982E-01
       -1   -1    0    0    0  501  0.00000000000E+00  0.00000000000E+00  0.85406096769E+03  0.85406096770E+03  0.50400001928E-02 0.  1.
        1   -1    0    0  501    0  0.00000000000E+00  0.00000000000E+00 -0.49429519908E+03  0.49429519910E+03  0.50400001928E-02 0. -1.
    10030    2    1    2    0    0  0.00000000000E+00  0.00000000000E+00  0.35976576861E+03  0.13483561668E+04  0.12994741030E+04 0.  0.
        2    1    3    3  502    0  0.54895673624E+03  0.23993675350E+03 -0.81042345509E+02  0.60455852133E+03  0.25500000920E-02 0. -1.
       -2    1    3    3    0  502 -0.54895673624E+03 -0.23993675350E+03  0.44080811412E+03  0.74379764548E+03  0.25500000920E-02 0.  1.
</event>
<event>
 5   0  0.2661377E-04  0.1302374E+04  0.7818609E-02  0.9027684E-01
       -2   -1    0    0    0  501  0.00000000000E+00  0.00000000000E+00  0.74927908817E+03  0.74927908817E+03  0.25500000920E-02 0.  1.
        2   -1    0    0  501    0  0.00000000000E+00  0.00000000000E+00 -0.56593692541E+03  0.56593692542E+03  0.25500000920E-02 0. -1.
    10030    2    1    2    0    0  0.00000000000E+00  0.00000000000E+00  0.18334216275E+03  0.13152160136E+04  0.13023742986E+04 0.  0.
        5    1    3    3  502    0  0.38855567628E+03 -0.31390432817E+02  0.61840951388E+03  0.73103576499E+03  0.46999998093E+01 0.  1.
       -5    1    3    3    0  502 -0.38855567628E+03  0.31390432817E+02 -0.43506735112E+03  0.58418024860E+03  0.46999998093E+01 0. -1.
</event>
<event>
 5   0  0.1475396E-04  0.1299729E+04  0.7818609E-02  0.9029780E-01
        1   -1    0    0  501    0  0.00000000000E+00  0.00000000000E+00  0.10550587840E+04  0.10550587840E+04  0.50400001928E-02 0.  1.
       -1   -1    0    0    0  501  0.00000000000E+00  0.00000000000E+00 -0.40028439718E+03  0.40028439721E+03  0.50400001928E-02 0. -1.
    10030    2    1    2    0    0  0.00000000000E+00  0.00000000000E+00  0.65477438686E+03  0.14553431813E+04  0.12997285399E+04 0.  0.
        3    1    3    3  502    0 -0.62359232715E+02  0.95558662464E+02 -0.38897960708E+03  0.40537054260E+03  0.10100000352E+00 0. -1.
       -3    1    3    3    0  502  0.62359232715E+02 -0.95558662464E+02  0.10437539939E+04  0.10499726387E+04  0.10100000352E+00 0.  1.
</event>
<event>
 5   0  0.1475396E-04  0.1303482E+04  0.7818609E-02  0.9026808E-01
       -1   -1    0    0    0  501  0.00000000000E+00  0.00000000000E+00  0.68609452532E+03  0.68609452534E+03  0.50400001928E-02 0. -1.
        1   -1    0    0  501    0  0.00000000000E+00  0.00000000000E+00 -0.61910779037E+03  0.61910779039E+03  0.50400001928E-02 0.  1.
    10030    2    1    2    0    0  0.00000000000E+00  0.00000000000E+00  0.66986734953E+02  0.13052023157E+04  0.13034822064E+04 0.  0.
        3    1    3    3  502    0 -0.14710173735E+03 -0.19592419113E+03 -0.57124171915E+03  0.62156441476E+03  0.10100000352E+00 0.  1.
       -3    1    3    3    0  502  0.14710173735E+03  0.19592419113E+03  0.63822845410E+03  0.68363790096E+03  0.10100000352E+00 0. -1.
</event>
<event>
 5   0  0.1475396E-04  0.1304623E+04  0.7818609E-02  0.9025907E-01
       -1   -1    0    0    0  501  0.00000000000E+00  0.00000000000E+00  0.70042164938E+03  0.70042164940E+03  0.50400001928E-02 0.  1.
        1   -1    0    0  501    0  0.00000000000E+00  0.00000000000E+00 -0.60750620764E+03  0.60750620767E+03  0.50400001928E-02 0. -1.
    10030    2    1    2    0    0  0.00000000000E+00  0.00000000000E+00  0.92915441738E+02  0.13079278571E+04  0.13046233173E+04 0.  0.
        3    1    3    3  502    0  0.13420987045E+03 -0.52028394903E+03 -0.32434777895E+03  0.62762183586E+03  0.10100000352E+00 0. -1.
       -3    1    3    3    0  502 -0.13420987045E+03  0.52028394903E+03  0.41726322069E+03  0.68030602120E+03  0.10100000352E+00 0.  1.
</event>
<event>
 5   0  0.1476511E-04  0.1297580E+04  0.7818609E-02  0.9031486E-01
       -1   -1    0    0    0  501  0.00000000000E+00  0.00000000000E+00  0.83359795877E+03  0.83359795879E+03  0.50400001928E-02 0. -1.
        1   -1    0    0  501    0  0.00000000000E+00  0.00000000000E+00 -0.50495413146E+03  0.50495413148E+03  0.50400001928E-02 0.  1.
    10030    2    1    2    0    0  0.00000000000E+00  0.00000000000E+00  0.32864382731E+03  0.13385520903E+04  0.12975804149E+04 0.  0.
        2    1    3    3  502    0  0.28844757380E+02  0.31883407694E+03  0.74644638380E+03  0.81220034015E+03  0.25500000920E-02 0. -1.
       -2    1    3    3    0  502 -0.28844757380E+02 -0.31883407694E+03 -0.41780255648E+03  0.52635175012E+03  0.25500000920E-02 0.  1.
</event>
<event>
 5   0  0.1430636E-04  0.1297845E+04  0.7818609E-02  0.9031276E-01
       -1   -1    0    0    0  501  0.00000000000E+00  0.00000000000E+00  0.25555618112E+03  0.25555618117E+03  0.50400001928E-02 0. -1.
        1   -1    0    0  501    0  0.00000000000E+00  0.00000000000E+00 -0.16477806102E+04  0.16477806102E+04  0.50400001928E-02 0.  1.
    10030    2    1    2    0    0  0.00000000000E+00  0.00000000000E+00 -0.13922244291E+04  0.19033367914E+04  0.12978451682E+04 0.  0.
        4    1    3    3  502    0 -0.21095285546E+03 -0.30880601448E+02  0.20272510334E+03  0.29420027056E+03  0.12699999809E+01 0. -1.
       -4    1    3    3    0  502  0.21095285546E+03  0.30880601448E+02 -0.15949495325E+04  0.16091365209E+04  0.12699999809E+01 0.  1.
</event>
<event>
 5   0  0.1430636E-04  0.1297926E+04  0.7818609E-02  0.9031211E-01
        1   -1    0    0  501    0  0.00000000000E+00  0.00000000000E+00  0.13664659925E+04  0.13664659925E+04  0.50400001928E-02 0.  1.
       -1   -1    0    0    0  501  0.00000000000E+00  0.00000000000E+00 -0.30820611327E+03  0.30820611331E+03  0.50400001928E-02 0. -1.
    10030    2    1    2    0    0  0.00000000000E+00  0.00000000000E+00  0.10582598792E+04  0.16746721058E+04  0.12979263038E+04 0.  0.
        4    1    3    3  502    0  0.11922506330E+03 -0.58849425204E+03  0.21147389603E+03  0.63660264059E+03  0.12699999809E+01 0.  1.
       -4    1    3    3    0  502 -0.11922506330E+03  0.58849425204E+03  0.84678598316E+03  0.10380694652E+04  0.12699999809E+01 0. -1.
</event>
<event>
 5   0  0.2756984E-04  0.1300956E+04  0.7818609E-02  0.9028807E-01
        2   -1    0    0  501    0  0.00000000000E+00  0.00000000000E+00  0.23727469962E+04  0.23727469962E+04  0.25500000920E-02 0. -1.
       -2   -1    0    0    0  501  0.00000000000E+00  0.00000000000E+00 -0.17832566984E+03  0.17832566986E+03  0.25500000920E-02 0.  1.
    10030    2    1    2    0    0  0.00000000000E+00  0.00000000000E+00  0.21944213263E+04  0.25510726660E+04  0.13009561061E+04 0.  0.
        3    1    3    3  502    0  0.15698156439E+03 -0.60220908787E+03  0.72606936347E+03  0.95628224277E+03  0.10100000352E+00 0.  1.
       -3    1    3    3    0  502 -0.15698156439E+03  0.60220908787E+03  0.14683519628E+04  0.15947904232E+04  0.10100000352E+00 0. -1.
</event>
<event>
 5   0  0.2573071E-04  0.1300876E+04  0.7818609E-02  0.9028870E-01
       -2   -1    0    0    0  501  0.00000000000E+00  0.00000000000E+00  0.50834775232E+03  0.50834775232E+03  0.25500000920E-02 0.  1.
        2   -1    0    0  501    0  0.00000000000E+00  0.00000000000E+00 -0.83224503645E+03  0.83224503645E+03  0.25500000920E-02 0. -1.
    10030    2    1    2    0    0  0.00000000000E+00  0.00000000000E+00 -0.32389728413E+03  0.13405927888E+04  0.13008764640E+04 0.  0.
        4    1    3    3  502    0 -0.34261444955E+03  0.95944833695E+02  0.39917324818E+03  0.53472513230E+03  0.12699999809E+01 0.  1.
       -4    1    3    3    0  502  0.34261444955E+03 -0.95944833695E+02 -0.72307053231E+03  0.80586765648E+03  0.12699999809E+01 0. -1.
</event>
<event>
 5   0  0.2573071E-04  0.1297602E+04  0.7818609E-02  0.9031469E-01
        2   -1    0    0  501    0  0.00000000000E+00  0.00000000000E+00  0.67301898534E+03  0.67301898534E+03  0.25500000920E-02 0. -1.
       -2   -1    0    0    0  501  0.00000000000E+00  0.00000000000E+00 -0.62545477780E+03  0.62545477781E+03  0.25500000920E-02 0.  1.
    10030    2    1    2    0    0  0.00000000000E+00  0.00000000000E+00  0.47564207539E+02  0.12984737631E+04  0.12976023119E+04 0.  0.
        4    1    3    3  502    0  0.15403957297E+03  0.49987709563E+03 -0.36031943265E+03  0.63516691288E+03  0.12699999809E+01 0.  1.
       -4    1    3    3    0  502 -0.15403957297E+03 -0.49987709563E+03  0.40788364019E+03  0.66330685027E+03  0.12699999809E+01 0. -1.
</event>
<event>
 5   0  0.1408341E-04  0.1301924E+04  0.7818609E-02  0.9028041E-01
       -1   -1    0    0    0  501  0.00000000000E+00  0.00000000000E+00  0.16933260792E+03  0.16933260799E+03  0.50400001928E-02 0.  1.
        1   -1    0    0  501    0  0.00000000000E+00  0.00000000000E+00 -0.25024803577E+04  0.25024803577E+04  0.50400001928E-02 0. -1.
    10030    2    1    2    0    0  0.00000000000E+00  0.00000000000E+00 -0.23331477498E+04  0.26718129657E+04  0.13019239998E+04 0.  0.
        5    1    3    3  502    0  0.36214604299E+03  0.52994320570E+03 -0.13889315910E+04  0.15300792830E+04  0.46999998093E+01 0. -1.
       -5    1    3    3    0  502 -0.36214604299E+03 -0.52994320570E+03 -0.94421615874E+03  0.11417336827E+04  0.46999998093E+01 0.  1.
</event>
<event>
 5   0  0.1475396E-04  0.1287789E+04  0.7818609E-02  0.9039305E-01
        1   -1    0    0  501    0  0.00000000000E+00  0.00000000000E+00  0.13373762851E+04  0.13373762851E+04  0.50400001928E-02 0. -1.
       -1   -1    0    0    0  501  0.00000000000E+00  0.00000000000E+00 -0.31001005418E+03  0.31001005422E+03  0.50400001928E-02 0.  1.
    10030    2    1    2    0    0  0.00000000000E+00  0.00000000000E+00  0.10273662309E+04  0.16473863393E+04  0.12877889496E+04 0.  0.
        3    1    3    3  502    0  0.11481516336E+02  0.58316277634E+03  0.16477875441E+03  0.60610452649E+03  0.10100000352E+00 0.  1.
       -3    1    3    3    0  502 -0.11481516336E+02 -0.58316277634E+03  0.86258747652E+03  0.10412818129E+04  0.10100000352E+00 0. -1.
</event>
<event>
 5   0  0.2573071E-04  0.1308245E+04  0.7818609E-02  0.9023052E-01
       -2   -1    0    0    0  501  0.00000000000E+00  0.00000000000E+00  0.29674818125E+03  0.29674818126E+03  0.25500000920E-02 0.  1.
        2   -1    0    0  501    0  0.00000000000E+00  0.00000000000E+00 -0.14418841565E+04  0.14418841565E+04  0.25500000920E-02 0. -1.
    10030    2    1    2    0    0  0.00000000000E+00  0.00000000000E+00 -0.11451359752E+04  0.17386323377E+04  0.13082453914E+04 0.  0.
        4    1    3    3  502    0 -0.15118650456E+03 -0.26778184494E+03  0.19469275896E+03  0.36396615080E+03  0.12699999809E+01 0.  1.
       -4    1    3    3    0  502  0.15118650456E+03  0.26778184494E+03 -0.13398287342E+04  0.13746661869E+04  0.12699999809E+01 0. -1.
</event>
<event>
 5   0  0.2661377E-04  0.1301056E+04  0.7818609E-02  0.9028728E-01
       -2   -1    0    0    0  501  0.00000000000E+00  0.00000000000E+00  0.30060068642E+03  0.30060068643E+03  0.25500000920E-02 0. -1.
        2   -1    0    0  501    0  0.00000000000E+00  0.00000000000E+00 -0.14078041123E+04  0.14078041123E+04  0.25500000920E-02 0.  1.
    10030    2    1    2    0    0  0.00000000000E+00  0.00000000000E+00 -0.11072034259E+04  0.17084047987E+04  0.13010563132E+04 0.  0.
        5    1    3    3  502    0  0.26356034535E+03 -0.14186852644E+03  0.20478518677E+03  0.36269794203E+03  0.46999998093E+01 0. -1.
       -5    1    3    3    0  502 -0.26356034535E+03  0.14186852644E+03 -0.13119886127E+04  0.13457068567E+04  0.46999998093E+01 0.  1.
</event>
<event>
 5   0  0.1408341E-04  0.1291958E+04  0.7818609E-02  0.9035967E-01
       -1   -1    0    0    0  501  0.00000000000E+00  0.00000000000E+00  0.91448897189E+03  0.91448897191E+03  0.50400001928E-02 0. -1.
        1   -1    0    0  501    0  0.00000000000E+00  0.00000000000E+00 -0.45630812158E+03  0.45630812160E+03  0.50400001928E-02 0.  1.
    10030    2    1    2    0    0  0.00000000000E+00  0.00000000000E+00  0.45818085032E+03  0.13707970935E+04  0.12919578089E+04 0.  0.
        5    1    3    3  502    0 -0.46959983124E+02 -0.56411602958E+02 -0.45185098454E+03  0.45779789339E+03  0.46999998093E+01 0.  1.
       -5    1    3    3    0  502  0.46959983124E+02  0.56411602958E+02  0.91003183486E+03  0.91299920012E+03  0.46999998093E+01 0. -1.
</event>
<event>
 5   0  0.1475396E-04  0.1300915E+04  0.7818609E-02  0.9028840E-01
       -1   -1    0    0    0  501  0.00000000000E+00  0.00000000000E+00  0.27018211286E+03  0.27018211290E+03  0.50400001928E-02 0.  1.
        1   -1    0    0  501    0  0.00000000000E+00  0.00000000000E+00 -0.15659609882E+04  0.15659609882E+04  0.50400001928E-02 0. -1.
    10030    2    1    2    0    0  0.00000000000E+00  0.00000000000E+00 -0.12957788754E+04  0.18361431012E+04  0.13009145222E+04 0.  0.
        3    1    3    3  502    0  0.37762677201E+03 -0.40446047283E+03 -0.16530516442E+03  0.57750849397E+03  0.10100000352E+00 0.  1.
       -3    1    3    3    0  502 -0.37762677201E+03  0.40446047283E+03 -0.11304737110E+04  0.12586346072E+04  0.10100000352E+00 0. -1.
</event>
<event>
 5   0  0.2723209E-04  0.1298347E+04  0.7818609E-02  0.9030877E-01
        2   -1    0    0  501    0  0.00000000000E+00  0.00000000000E+00  0.11355765305E+04  0.11355765305E+04  0.25500000920E-02 0.  1.
       -2   -1    0    0    0  501  0.00000000000E+00  0.00000000000E+00 -0.37111216952E+03  0.37111216953E+03  0.25500000920E-02 0. -1.
    10030    2    1    2    0    0  0.00000000000E+00  0.00000000000E+00  0.76446436098E+03  0.15066887000E+04  0.12983470567E+04 0.  0.
        2    1    3    3  502    0  0.41829250848E+01 -0.59812816354E+03  0.89455176270E+02  0.60479502763E+03  0.25500000920E-02 0. -1.
       -2    1    3    3    0  502 -0.41829250848E+01  0.59812816354E+03  0.67500918471E+03  0.90189367240E+03  0.25500000920E-02 0.  1.
</event>
<event>
 5   0  0.2661377E-04  0.1297165E+04  0.7818609E-02  0.9031816E-01
       -2   -1    0    0    0  501  0.00000000000E+00  0.00000000000E+00  0.33032480777E+03  0.33032480778E+03  0.25500000920E-02 0.  1.
        2   -1    0    0  501    0  0.00000000000E+00  0.00000000000E+00 -0.12734716928E+04  0.12734716928E+04  0.25500000920E-02 0. -1.
    10030    2    1    2    0    0  0.00000000000E+00  0.00000000000E+00 -0.94314688505E+03  0.16037965006E+04  0.12971650506E+04 0.  0.
        5    1    3    3  502    0 -0.40244522670E+03 -0.43048532613E+03 -0.13670358022E+03  0.60497085496E+03  0.46999998093E+01 0.  1.
       -5    1    3    3    0  502  0.40244522670E+03  0.43048532613E+03 -0.80644330483E+03  0.99882564565E+03  0.46999998093E+01 0. -1.
</event>
<event>
 5   0  0.2794825E-04  0.1300888E+04  0.7818609E-02  0.9028861E-01
        2   -1    0    0  501    0  0.00000000000E+00  0.00000000000E+00  0.49997471769E+03  0.49997471769E+03  0.25500000920E-02 0. -1.
       -2   -1    0    0    0  501  0.00000000000E+00  0.00000000000E+00 -0.84619805992E+03  0.84619805992E+03  0.25500000920E-02 0.  1.
    10030    2    1    2    0    0  0.00000000000E+00  0.00000000000E+00 -0.34622334223E+03  0.13461727776E+04  0.13008883674E+04 0.  0.
        1    1    3    3  502    0  0.59173225149E+03 -0.25059435326E+03 -0.27727883495E+03  0.69987723186E+03  0.50400001928E-02 0. -1.
       -1    1    3    3    0  502 -0.59173225149E+03  0.25059435326E+03 -0.68944507277E+02  0.64629554575E+03  0.50400001928E-02 0.  1.
</event>
<event>
 5   0  0.2573071E-04  0.1269748E+04  0.7818609E-02  0.9053905E-01
        2   -1    0    0  501    0  0.00000000000E+00  0.00000000000E+00  0.27149987663E+03  0.27149987664E+03  0.25500000920E-02 0.  1.
       -2   -1    0    0    0  501  0.00000000000E+00  0.00000000000E+00 -0.14845865906E+04  0.14845865906E+04  0.25500000920E-02 0. -1.
    10030    2    1    2    0    0  0.00000000000E+00  0.00000000000E+00 -0.12130867140E+04  0.17560864672E+04  0.12697481265E+04 0.  0.
        4    1    3    3  502    0 -0.24860759771E+03  0.15954707349E+03  0.17066250531E+03  0.34115730963E+03  0.12699999809E+01 0.  1.
       -4    1    3    3    0  502  0.24860759771E+03 -0.15954707349E+03 -0.13837492193E+04  0.14149291576E+04  0.12699999809E+01 0. -1.
</event>
<event>
 5   0  0.2661377E-04  0.1284264E+04  0.7818609E-02  0.9042138E-01
       -2   -1    0    0    0  501  0.00000000000E+00  0.00000000000E+00  0.20389078537E+03  0.20389078539E+03  0.25500000920E-02 0.  1.
        2   -1    0    0  501    0  0.00000000000E+00  0.00000000000E+00 -0.20223264561E+04  0.20223264561E+04  0.25500000920E-02 0. -1.
    10030    2    1    2    0    0  0.00000000000E+00  0.00000000000E+00 -0.18184356707E+04  0.22262172414E+04  0.12842643488E+04 0.  0.
        5    1    3    3  502    0  0.49861075319E+03  0.40390305613E+03 -0.95028568143E+03  0.11466539706E+04  0.46999998093E+01 0. -1.
       -5    1    3    3    0  502 -0.49861075319E+03 -0.40390305613E+03 -0.86814998926E+03  0.10795632709E+04  0.46999998093E+01 0.  1.
</event>
<event>
 5   0  0.2756984E-04  0.1299164E+04  0.7818609E-02  0.9030228E-01
        2   -1    0    0  501    0  0.00000000000E+00  0.00000000000E+00  0.28487242802E+04  0.28487242802E+04  0.25500000920E-02 0. -1.
       -2   -1    0    0    0  501  0.00000000000E+00  0.00000000000E+00 -0.14812137687E+03  0.14812137689E+03  0.25500000920E-02 0.  1.
    10030    2    1    2    0    0  0.00000000000E+00  0.00000000000E+00  0.27006029033E+04  0.29968456571E+04  0.12991642894E+04 0.  0.
        3    1    3    3  502    0 -0.41250560660E+03  0.43920543137E+02  0.19723374812E+03  0.45933762222E+03  0.10100000352E+00 0.  1.
       -3    1    3    3    0  502  0.41250560660E+03 -0.43920543137E+02  0.25033691552E+04  0.25375080348E+04  0.10100000352E+00 0. -1.
</event>
<event>
 5   0  0.1430636E-04  0.1295889E+04  0.7818609E-02  0.9032832E-01
        1   -1    0    0  501    0  0.00000000000E+00  0.00000000000E+00  0.10651120953E+04  0.10651120953E+04  0.50400001928E-02 0. -1.
       -1   -1    0    0    0  501  0.00000000000E+00  0.00000000000E+00 -0.39416679125E+03  0.39416679128E+03  0.50400001928E-02 0.  1.
    10030    2    1    2    0    0  0.00000000000E+00  0.00000000000E+00  0.67094530407E+03  0.14592788866E+04  0.12958886016E+04 0.  0.
        4    1    3    3  502    0  0.23858951437E+03  0.62955048355E+02 -0.33918385510E+03  0.41944677248E+03  0.12699999809E+01 0.  1.
       -4    1    3    3    0  502 -0.23858951437E+03 -0.62955048355E+02  0.10101291592E+04  0.10398321141E+04  0.12699999809E+01 0. -1.
</event>
<event>
 5   0  0.2661377E-04  0.1299392E+04  0.7818609E-02  0.9030048E-01
       -2   -1    0    0    0  501  0.00000000000E+00  0.00000000000E+00  0.57433648354E+03  0.57433648354E+03  0.25500000920E-02 0.  1.
        2   -1    0    0  501    0  0.00000000000E+00  0.00000000000E+00 -0.73494337600E+03  0.73494337601E+03  0.25500000920E-02 0. -1.
    10030    2    1    2    0    0  0.00000000000E+00  0.00000000000E+00 -0.16060689246E+03  0.13092798595E+04  0.12993918488E+04 0.  0.
        5    1    3    3  502    0 -0.18002965227E+03  0.55902869070E+03 -0.36019223827E+03  0.68897336032E+03  0.46999998093E+01 0. -1.
       -5    1    3    3    0  502  0.18002965227E+03 -0.55902869070E+03  0.19958534581E+03  0.62030649923E+03  0.46999998093E+01 0.  1.
</event>
<event>
 5   0  0.1408341E-04  0.1295407E+04  0.7818609E-02  0.9033215E-01
       -1   -1    0    0    0  501  0.00000000000E+00  0.00000000000E+00  0.36067180897E+03  0.36067180900E+03  0.50400001928E-02 0. -1.
        1   -1    0    0  501    0  0.00000000000E+00  0.00000000000E+00 -0.11631626969E+04  0.11631626970E+04  0.50400001928E-02 0.  1.
    10030    2    1    2    0    0  0.00000000000E+00  0.00000000000E+00 -0.80249088798E+03  0.15238345060E+04  0.12954072627E+04 0.  0.
        5    1    3    3  502    0  0.25100861990E+03 -0.29884060561E+03 -0.10092950782E+04  0.10821320066E+04  0.46999998093E+01 0.  1.
       -5    1    3    3    0  502 -0.25100861990E+03  0.29884060561E+03  0.20680419025E+03  0.44170249934E+03  0.46999998093E+01 0. -1.
</event>
<event>
 5   0  0.1408341E-04  0.1299975E+04  0.7818609E-02  0.9029585E-01
       -1   -1    0    0    0  501  0.00000000000E+00  0.00000000000E+00  0.78317365190E+03  0.78317365192E+03  0.50400001928E-02 0. -1.
        1   -1    0    0  501    0  0.00000000000E+00  0.00000000000E+00 -0.53945106510E+03  0.53945106512E+03  0.50400001928E-02 0.  1.
    10030    2    1    2    0    0  0.00000000000E+00  0.00000000000E+00  0.24372258680E+03  0.13226247170E+04  0.12999751701E+04 0.  0.
        5    1    3    3  502    0 -0.39991441279E+03 -0.51211237700E+03  0.13861471649E+03  0.66439954384E+03  0.46999998093E+01 0.  1.
       -5    1    3    3    0  502  0.39991441279E+03  0.51211237700E+03  0.10510787031E+03  0.65822517320E+03  0.46999998093E+01 0. -1.
</event>
<event>
 5   0  0.1408341E-04  0.1298153E+04  0.7818609E-02  0.9031031E-01
       -1   -1    0    0    0  501  0.00000000000E+00  0.00000000000E+00  0.35025920853E+03  0.35025920856E+03  0.50400001928E-02 0. -1.
        1   -1    0    0  501    0  0.00000000000E+00  0.00000000000E+00 -0.12028243539E+04  0.12028243539E+04  0.50400001928E-02 0.  1.
    10030    2    1    2    0    0  0.00000000000E+00  0.00000000000E+00 -0.85256514541E+03  0.15530835625E+04  0.12981530052E+04 0.  0.
        5    1    3    3  502    0 -0.25968437419E+03 -0.31652571682E+02 -0.11369363462E+04  0.11666551353E+04  0.46999998093E+01 0.  1.
       -5    1    3    3    0  502  0.25968437419E+03  0.31652571682E+02  0.28437120079E+03  0.38642842718E+03  0.46999998093E+01 0. -1.
</event>
<event>
 5   0  0.1479690E-04  0.1298122E+04  0.7818609E-02  0.9031056E-01
        1   -1    0    0  501    0  0.00000000000E+00  0.00000000000E+00  0.37760117262E+03  0.37760117266E+03  0.50400001928E-02 0.  1.
       -1   -1    0    0    0  501  0.00000000000E+00  0.00000000000E+00 -0.11156748638E+04  0.11156748638E+04  0.50400001928E-02 0. -1.
    10030    2    1    2    0    0  0.00000000000E+00  0.00000000000E+00 -0.73807369119E+03  0.14932760365E+04  0.12981219309E+04 0.  0.
        1    1    3    3  502    0  0.11122874347E+03  0.61053868781E+03 -0.15031928674E+03  0.63853364099E+03  0.50400001928E-02 0.  1.
       -1    1    3    3    0  502 -0.11122874347E+03 -0.61053868781E+03 -0.58775440445E+03  0.85474239549E+03  0.50400001928E-02 0. -1.
</event>
<event>
 5   0  0.2756984E-04  0.1301404E+04  0.7818609E-02  0.9028453E-01
        2   -1    0    0  501    0  0.00000000000E+00  0.00000000000E+00  0.11024621395E+04  0.11024621395E+04  0.25500000920E-02 0. -1.
       -2   -1    0    0    0  501  0.00000000000E+00  0.00000000000E+00 -0.38406122612E+03  0.38406122613E+03  0.25500000920E-02 0.  1.
    10030    2    1    2    0    0  0.00000000000E+00  0.00000000000E+00  0.71840091341E+03  0.14865233657E+04  0.13014037975E+04 0.  0.
        3    1    3    3  502    0  0.17950440122E+03 -0.61214861182E+03  0.50576980174E+03  0.81409511457E+03  0.10100000352E+00 0.  1.
       -3    1    3    3    0  502 -0.17950440122E+03  0.61214861182E+03  0.21263111167E+03  0.67242825109E+03  0.10100000352E+00 0. -1.
</event>
<event>
 5   0  0.1002887E-04  0.1298719E+04  0.7818609E-02  0.9030581E-01
       -4   -1    0    0    0  501  0.00000000000E+00  0.00000000000E+00  0.11005323073E+04  0.11005330401E+04  0.12699999809E+01 0.  1.
        4   -1    0    0  501    0  0.00000000000E+00  0.00000000000E+00 -0.38314723598E+03  0.38314934078E+03  0.12699999809E+01 0. -1.
    10030    2    1    2    0    0  0.00000000000E+00  0.00000000000E+00  0.71738507136E+03  0.14836823809E+04  0.12987193949E+04 0.  0.
        5    1    3    3  502    0 -0.21526683046E+02 -0.59409640670E+03  0.65710683254E+03  0.88612945889E+03  0.46999998093E+01 0.  1.
       -5    1    3    3    0  502  0.21526683046E+02  0.59409640670E+03  0.60278238816E+02  0.59755292202E+03  0.46999998093E+01 0. -1.
</event>
<event>
 5   0  0.1430636E-04  0.1299713E+04  0.7818609E-02  0.9029793E-01
        1   -1    0    0  501    0  0.00000000000E+00  0.00000000000E+00  0.48571621418E+03  0.48571621421E+03  0.50400001928E-02 0.  1.
       -1   -1    0    0    0  501  0.00000000000E+00  0.00000000000E+00 -0.86946485680E+03  0.86946485681E+03  0.50400001928E-02 0. -1.
    10030    2    1    2    0    0  0.00000000000E+00  0.00000000000E+00 -0.38374864261E+03  0.13551810710E+04  0.12997125507E+04 0.  0.
        4    1    3    3  502    0  0.47729758458E+03 -0.11829753773E+03 -0.63486415441E+03  0.80303262644E+03  0.12699999809E+01 0. -1.
       -4    1    3    3    0  502 -0.47729758458E+03  0.11829753773E+03  0.25111551180E+03  0.55214844458E+03  0.12699999809E+01 0.  1.
</event>
<event>
 5   0  0.2573071E-04  0.1297088E+04  0.7818609E-02  0.9031877E-01
        2   -1    0    0  501    0  0.00000000000E+00  0.00000000000E+00  0.16485196000E+04  0.16485196000E+04  0.25500000920E-02 0.  1.
       -2   -1    0    0    0  501  0.00000000000E+00  0.00000000000E+00 -0.25514377067E+03  0.25514377069E+03  0.25500000920E-02 0. -1.
    10030    2    1    2    0    0  0.00000000000E+00  0.00000000000E+00  0.13933758293E+04  0.19036633707E+04  0.12970882881E+04 0.  0.
        4    1    3    3  502    0  0.12582606364E+03 -0.63620295017E+03  0.68988244788E+03  0.94685046174E+03  0.12699999809E+01 0.  1.
       -4    1    3    3    0  502 -0.12582606364E+03  0.63620295017E+03  0.70349338142E+03  0.95681290893E+03  0.12699999809E+01 0. -1.
</event>
<event>
 5   0  0.2723209E-04  0.1308602E+04  0.7818609E-02  0.9022771E-01
        2   -1    0    0  501    0  0.00000000000E+00  0.00000000000E+00  0.19870826707E+04  0.19870826707E+04  0.25500000920E-02 0. -1.
       -2   -1    0    0    0  501  0.00000000000E+00  0.00000000000E+00 -0.21544644501E+03  0.21544644503E+03  0.25500000920E-02 0.  1.
    10030    2    1    2    0    0  0.00000000000E+00  0.00000000000E+00  0.17716362257E+04  0.22025291157E+04  0.13086021509E+04 0.  0.
        2    1    3    3  502    0 -0.14144120761E+02  0.76825714710E+02 -0.20756960380E+03  0.22178229645E+03  0.25500000920E-02 0.  1.
       -2    1    3    3    0  502  0.14144120761E+02 -0.76825714710E+02  0.19792058295E+04  0.19807468193E+04  0.25500000920E-02 0. -1.
</event>
<event>
 5   0  0.1479690E-04  0.1291057E+04  0.7818609E-02  0.9036688E-01
       -1   -1    0    0    0  501  0.00000000000E+00  0.00000000000E+00  0.23161945203E+03  0.23161945208E+03  0.50400001928E-02 0. -1.
        1   -1    0    0  501    0  0.00000000000E+00  0.00000000000E+00 -0.17991010090E+04  0.17991010090E+04  0.50400001928E-02 0.  1.
    10030    2    1    2    0    0  0.00000000000E+00  0.00000000000E+00 -0.15674815570E+04  0.20307204611E+04  0.12910566059E+04 0.  0.
        1    1    3    3  502    0  0.35768176100E+03  0.46014560384E+03 -0.12203102191E+04  0.13523413954E+04  0.50400001928E-02 0.  1.
       -1    1    3    3    0  502 -0.35768176100E+03 -0.46014560384E+03 -0.34717133789E+03  0.67837906569E+03  0.50400001928E-02 0. -1.
</event>
<event>
 5   0  0.2661377E-04  0.1300657E+04  0.7818609E-02  0.9029044E-01
        2   -1    0    0  501    0  0.00000000000E+00  0.00000000000E+00  0.90101744383E+03  0.90101744383E+03  0.25500000920E-02 0. -1.
       -2   -1    0    0    0  501  0.00000000000E+00  0.00000000000E+00 -0.46938856942E+03  0.46938856942E+03  0.25500000920E-02 0.  1.
    10030    2    1    2    0    0  0.00000000000E+00  0.00000000000E+00  0.43162887441E+03  0.13704060133E+04  0.13006572015E+04 0.  0.
        5    1    3    3  502    0 -0.39139862651E+03  0.25235846962E+03 -0.26242900098E+03  0.53457343049E+03  0.46999998093E+01 0.  1.
       -5    1    3    3    0  502  0.39139862651E+03 -0.25235846962E+03  0.69405787539E+03  0.83583258277E+03  0.46999998093E+01 0. -1.
</event>
<event>
 5   0  0.1475396E-04  0.1300781E+04  0.7818609E-02  0.9028946E-01
       -1   -1    0    0    0  501  0.00000000000E+00  0.00000000000E+00  0.38667991314E+03  0.38667991317E+03  0.50400001928E-02 0. -1.
        1   -1    0    0  501    0  0.00000000000E+00  0.00000000000E+00 -0.10939480332E+04  0.10939480332E+04  0.50400001928E-02 0.  1.
    10030    2    1    2    0    0  0.00000000000E+00  0.00000000000E+00 -0.70726812007E+03  0.14806279464E+04  0.13007808893E+04 0.  0.
        3    1    3    3  502    0  0.20796476936E+03  0.57231805700E+03 -0.93546024773E+02  0.61607481089E+03  0.10100000352E+00 0.  1.
       -3    1    3    3    0  502 -0.20796476936E+03 -0.57231805700E+03 -0.61372209530E+03  0.86455313551E+03  0.10100000352E+00 0. -1.
</event>
<event>
 5   0  0.2573071E-04  0.1300680E+04  0.7818609E-02  0.9029026E-01
       -2   -1    0    0    0  501  0.00000000000E+00  0.00000000000E+00  0.40560020527E+03  0.40560020527E+03  0.25500000920E-02 0. -1.
        2   -1    0    0  501    0  0.00000000000E+00  0.00000000000E+00 -0.10427562407E+04  0.10427562407E+04  0.25500000920E-02 0.  1.
    10030    2    1    2    0    0  0.00000000000E+00  0.00000000000E+00 -0.63715603543E+03  0.14483564460E+04  0.13006800456E+04 0.  0.
        4    1    3    3  502    0 -0.55090398837E+03 -0.11368989665E+03 -0.68200772649E+03  0.88405698284E+03  0.12699999809E+01 0.  1.
       -4    1    3    3    0  502  0.55090398837E+03  0.11368989665E+03  0.44851691066E+02  0.56429946313E+03  0.12699999809E+01 0. -1.
</event>
<event>
 5   0  0.1002887E-04  0.1298936E+04  0.7818609E-02  0.9030410E-01
       -3   -1    0    0    0  501  0.00000000000E+00  0.00000000000E+00  0.40734708097E+03  0.40734709349E+03  0.10100000352E+00 0.  1.
        3   -1    0    0  501    0  0.00000000000E+00  0.00000000000E+00 -0.10355011750E+04  0.10355011799E+04  0.10100000352E+00 0. -1.
    10030    2    1    2    0    0  0.00000000000E+00  0.00000000000E+00 -0.62815409400E+03  0.14428482734E+04  0.12989355543E+04 0.  0.
        3    1    3    3  502    0 -0.29749191596E+03 -0.36033554981E+03 -0.81512370147E+03  0.93955830443E+03  0.10100000352E+00 0.  1.
       -3    1    3    3    0  502  0.29749191596E+03  0.36033554981E+03  0.18696960747E+03  0.50328996895E+03  0.10100000352E+00 0. -1.
</event>
<event>
 5   0  0.1002887E-04  0.1295074E+04  0.7818609E-02  0.9033481E-01
       -4   -1    0    0    0  501  0.00000000000E+00  0.00000000000E+00  0.78885959212E+03  0.78886061441E+03  0.12699999809E+01 0.  1.
        4   -1    0    0  501    0  0.00000000000E+00  0.00000000000E+00 -0.53152966917E+03  0.53153118639E+03  0.12699999809E+01 0. -1.
    10030    2    1    2    0    0  0.00000000000E+00  0.00000000000E+00  0.25732992295E+03  0.13203918008E+04  0.12950736730E+04 0.  0.
        5    1    3    3  502    0 -0.27441382017E+03 -0.50073824965E+02  0.72444451611E+03  0.77630682050E+03  0.46999998093E+01 0.  1.
       -5    1    3    3    0  502  0.27441382017E+03  0.50073824965E+02 -0.46711459316E+03  0.54408498030E+03  0.46999998093E+01 0. -1.
</event>
<event>
 5   0  0.1479690E-04  0.1297562E+04  0.7818609E-02  0.9031501E-01
        1   -1    0    0  501    0  0.00000000000E+00  0.00000000000E+00  0.74837944196E+03  0.74837944197E+03  0.50400001928E-02 0.  1.
       -1   -1    0    0    0  501  0.00000000000E+00  0.00000000000E+00 -0.56243752564E+03  0.56243752566E+03  0.50400001928E-02 0. -1.
    10030    2    1    2    0    0  0.00000000000E+00  0.00000000000E+00  0.18594191632E+03  0.13108169676E+04  0.12975618391E+04 0.  0.
        1    1    3    3  502    0 -0.33709571276E+02  0.96343252055E+02  0.74021741848E+03  0.74722164319E+03  0.50400001928E-02 0.  1.
       -1    1    3    3    0  502  0.33709571276E+02 -0.96343252055E+02 -0.55427550216E+03  0.56359532444E+03  0.50400001928E-02 0. -1.
</event>
<event>
 5   0  0.1479690E-04  0.1300848E+04  0.7818609E-02  0.9028893E-01
       -1   -1    0    0    0  501  0.00000000000E+00  0.00000000000E+00  0.55688559279E+03  0.55688559282E+03  0.50400001928E-02 0. -1.
        1   -1    0    0  501    0  0.00000000000E+00  0.00000000000E+00 -0.75967361237E+03  0.75967361239E+03  0.50400001928E-02 0.  1.
    10030    2    1    2    0    0  0.00000000000E+00  0.00000000000E+00 -0.20278801958E+03  0.13165592052E+04  0.13008478619E+04 0.  0.
        1    1    3    3  502    0 -0.29689473154E+03 -0.56593157610E+03  0.21005738280E+02  0.63942651768E+03  0.50400001928E-02 0. -1.
       -1    1    3    3    0  502  0.29689473154E+03  0.56593157610E+03 -0.22379375786E+03  0.67713268753E+03  0.50400001928E-02 0.  1.
</event>
<event>
 5   0  0.1475396E-04  0.1300517E+04  0.7818609E-02  0.9029155E-01
        1   -1    0    0  501    0  0.00000000000E+00  0.00000000000E+00  0.41216476762E+03  0.41216476765E+03  0.50400001928E-02 0.  1.
       -1   -1    0    0    0  501  0.00000000000E+00  0.00000000000E+00 -0.10258912347E+04  0.10258912347E+04  0.50400001928E-02 0. -1.
    10030    2    1    2    0    0  0.00000000000E+00  0.00000000000E+00 -0.61372646706E+03  0.14380560023E+04  0.13005171623E+04 0.  0.
        3    1    3    3  502    0  0.18011822787E+03  0.34686587180E+03 -0.88151411493E+03  0.96427467770E+03  0.10100000352E+00 0. -1.
       -3    1    3    3    0  502 -0.18011822787E+03 -0.34686587180E+03  0.26778764787E+03  0.47378132465E+03  0.10100000352E+00 0.  1.
</event>
<event>
 5   0  0.2573071E-04  0.1299336E+04  0.7818609E-02  0.9030092E-01
        2   -1    0    0  501    0  0.00000000000E+00  0.00000000000E+00  0.12345760137E+04  0.12345760137E+04  0.25500000920E-02 0. -1.
       -2   -1    0    0    0  501  0.00000000000E+00  0.00000000000E+00 -0.34187318661E+03  0.34187318662E+03  0.25500000920E-02 0.  1.
    10030    2    1    2    0    0  0.00000000000E+00  0.00000000000E+00  0.89270282707E+03  0.15764492003E+04  0.12993358856E+04 0.  0.
        4    1    3    3  502    0  0.22317788216E+02 -0.30491134940E+03  0.11418413955E+04  0.11820627733E+04  0.12699999809E+01 0. -1.
       -4    1    3    3    0  502 -0.22317788216E+02  0.30491134940E+03 -0.24913856839E+03  0.39438642703E+03  0.12699999809E+01 0.  1.
</event>
<event>
 5   0  0.2794825E-04  0.1300577E+04  0.7818609E-02  0.9029108E-01
        2   -1    0    0  501    0  0.00000000000E+00  0.00000000000E+00  0.16196884545E+04  0.16196884545E+04  0.25500000920E-02 0.  1.
       -2   -1    0    0    0  501  0.00000000000E+00  0.00000000000E+00 -0.26108409970E+03  0.26108409972E+03  0.25500000920E-02 0. -1.
    10030    2    1    2    0    0  0.00000000000E+00  0.00000000000E+00  0.13586043548E+04  0.18807725542E+04  0.13005766444E+04 0.  0.
        1    1    3    3  502    0 -0.33806880237E+03 -0.50023346917E+03  0.32998176027E+03  0.68804941752E+03  0.50400001928E-02 0. -1.
       -1    1    3    3    0  502  0.33806880237E+03  0.50023346917E+03  0.10286225945E+04  0.11927231367E+04  0.50400001928E-02 0.  1.
</event>
<event>
 5   0  0.1002887E-04  0.1302773E+04  0.7818609E-02  0.9027369E-01
        4   -1    0    0  501    0  0.00000000000E+00  0.00000000000E+00  0.69542200780E+03  0.69542316745E+03  0.12699999809E+01 0. -1.
       -4   -1    0    0    0  501  0.00000000000E+00  0.00000000000E+00 -0.61013754529E+03  0.61013886704E+03  0.12699999809E+01 0.  1.
    10030    2    1    2    0    0  0.00000000000E+00  0.00000000000E+00  0.85284462508E+02  0.13055620345E+04  0.13027734977E+04 0.  0.
        5    1    3    3  502    0 -0.50840787974E+03  0.21424964103E+03 -0.30436636027E+03  0.63011304710E+03  0.46999998093E+01 0.  1.
       -5    1    3    3    0  502  0.50840787974E+03 -0.21424964103E+03  0.38965082278E+03  0.67544898738E+03  0.46999998093E+01 0. -1.
</event>
<event>
 5   0  0.1476511E-04  0.1300991E+04  0.7818609E-02  0.9028780E-01
        1   -1    0    0  501    0  0.00000000000E+00  0.00000000000E+00  0.74159706475E+03  0.74159706477E+03  0.50400001928E-02 0.  1.
       -1   -1    0    0    0  501  0.00000000000E+00  0.00000000000E+00 -0.57058537168E+03  0.57058537170E+03  0.50400001928E-02 0. -1.
    10030    2    1    2    0    0  0.00000000000E+00  0.00000000000E+00  0.17101169307E+03  0.13121824365E+04  0.13009910635E+04 0.  0.
        2    1    3    3  502    0  0.29368139524E+03 -0.24654152969E+03  0.61549050023E+03  0.72516208095E+03  0.25500000920E-02 0.  1.
       -2    1    3    3    0  502 -0.29368139524E+03  0.24654152969E+03 -0.44447880716E+03  0.58702035552E+03  0.25500000920E-02 0. -1.
</event>
<event>
 5   0  0.1408341E-04  0.1296814E+04  0.7818609E-02  0.9032095E-01
        1   -1    0    0  501    0  0.00000000000E+00  0.00000000000E+00  0.53814478587E+03  0.53814478589E+03  0.50400001928E-02 0.  1.
       -1   -1    0    0    0  501  0.00000000000E+00  0.00000000000E+00 -0.78126121357E+03  0.78126121359E+03  0.50400001928E-02 0. -1.
    10030    2    1    2    0    0  0.00000000000E+00  0.00000000000E+00 -0.24311642770E+03  0.13194059995E+04  0.12968140168E+04 0.  0.
        5    1    3    3  502    0 -0.22408325678E+03  0.59729258821E+03 -0.23949929741E+03  0.68143506320E+03  0.46999998093E+01 0. -1.
       -5    1    3    3    0  502  0.22408325678E+03 -0.59729258821E+03 -0.36171302970E+01  0.63797093628E+03  0.46999998093E+01 0.  1.
</event>
<event>
 5   0  0.2573071E-04  0.1302237E+04  0.7818609E-02  0.9027793E-01
       -2   -1    0    0    0  501  0.00000000000E+00  0.00000000000E+00  0.28852137471E+03  0.28852137472E+03  0.25500000920E-02 0. -1.
        2   -1    0    0  501    0  0.00000000000E+00  0.00000000000E+00 -0.14694059290E+04  0.14694059290E+04  0.25500000920E-02 0.  1.
    10030    2    1    2    0    0  0.00000000000E+00  0.00000000000E+00 -0.11808845543E+04  0.17579273037E+04  0.13022365663E+04 0.  0.
        4    1    3    3  502    0 -0.55399200421E+03  0.30220021808E+03 -0.37394251392E+03  0.73353031917E+03  0.12699999809E+01 0. -1.
       -4    1    3    3    0  502  0.55399200421E+03 -0.30220021808E+03 -0.80694204040E+03  0.10243969846E+04  0.12699999809E+01 0.  1.
</event>
<event>
 5   0  0.1475396E-04  0.1289536E+04  0.7818609E-02  0.9037904E-01
       -1   -1    0    0    0  501  0.00000000000E+00  0.00000000000E+00  0.78827105222E+03  0.78827105224E+03  0.50400001928E-02 0.  1.
        1   -1    0    0  501    0  0.00000000000E+00  0.00000000000E+00 -0.52738958678E+03  0.52738958681E+03  0.50400001928E-02 0. -1.
    10030    2    1    2    0    0  0.00000000000E+00  0.00000000000E+00  0.26088146544E+03  0.13156606390E+04  0.12895362648E+04 0.  0.
        3    1    3    3  502    0 -0.46731195457E+03 -0.14362558385E+03  0.55933445301E+03  0.74287536757E+03  0.10100000352E+00 0.  1.
       -3    1    3    3    0  502  0.46731195457E+03  0.14362558385E+03 -0.29845298757E+03  0.57278527147E+03  0.10100000352E+00 0. -1.
</event>
<event>
 5   0  0.2573071E-04  0.1299455E+04  0.7818609E-02  0.9029998E-01
       -2   -1    0    0    0  501  0.00000000000E+00  0.00000000000E+00  0.19684302519E+03  0.19684302521E+03  0.25500000920E-02 0.  1.
        2   -1    0    0  501    0  0.00000000000E+00  0.00000000000E+00 -0.21445803981E+04  0.21445803981E+04  0.25500000920E-02 0. -1.
    10030    2    1    2    0    0  0.00000000000E+00  0.00000000000E+00 -0.19477373729E+04  0.23414234233E+04  0.12994547985E+04 0.  0.
        4    1    3    3  502    0  0.20655714903E+03  0.33009959210E+03 -0.36711504858E+02  0.39112778476E+03  0.12699999809E+01 0.  1.
       -4    1    3    3    0  502 -0.20655714903E+03 -0.33009959210E+03 -0.19110258680E+04  0.19502956385E+04  0.12699999809E+01 0. -1.
</event>
<event>
 5   0  0.1475396E-04  0.1300818E+04  0.7818609E-02  0.9028916E-01
       -1   -1    0    0    0  501  0.00000000000E+00  0.00000000000E+00  0.45169722484E+03  0.45169722487E+03  0.50400001928E-02 0. -1.
        1   -1    0    0  501    0  0.00000000000E+00  0.00000000000E+00 -0.93653899611E+03  0.93653899612E+03  0.50400001928E-02 0.  1.
    10030    2    1    2    0    0  0.00000000000E+00  0.00000000000E+00 -0.48484177126E+03  0.13882362210E+04  0.13008183048E+04 0.  0.
        3    1    3    3  502    0 -0.32514080560E+03 -0.11650995081E+03 -0.83058483371E+03  0.89953448421E+03  0.10100000352E+00 0.  1.
       -3    1    3    3    0  502  0.32514080560E+03  0.11650995081E+03  0.34574306244E+03  0.48870173678E+03  0.10100000352E+00 0. -1.
</event>
<event>
 5   0  0.1475396E-04  0.1301939E+04  0.7818609E-02  0.9028029E-01
        1   -1    0    0  501    0  0.00000000000E+00  0.00000000000E+00  0.78550234585E+03  0.78550234586E+03  0.50400001928E-02 0. -1.
       -1   -1    0    0    0  501  0.00000000000E+00  0.00000000000E+00 -0.53947829721E+03  0.53947829724E+03  0.50400001928E-02 0.  1.
    10030    2    1    2    0    0  0.00000000000E+00  0.00000000000E+00  0.24602404864E+03  0.13249806431E+04  0.13019392736E+04 0.  0.
        3    1    3    3  502    0  0.33038602437E+03 -0.55843022012E+03  0.17649900636E+03  0.67242185069E+03  0.10100000352E+00 0. -1.
       -3    1    3    3    0  502 -0.33038602437E+03  0.55843022012E+03  0.69525042273E+02  0.65255879241E+03  0.10100000352E+00 0.  1.
</event>
<event>
 5   0  0.2573071E-04  0.1298632E+04  0.7818609E-02  0.9030651E-01
       -2   -1    0    0    0  501  0.00000000000E+00  0.00000000000E+00  0.47803928912E+03  0.47803928912E+03  0.25500000920E-02 0.  1.
        2   -1    0    0  501    0  0.00000000000E+00  0.00000000000E+00 -0.88195905910E+03  0.88195905911E+03  0.25500000920E-02 0. -1.
    10030    2    1    2    0    0  0.00000000000E+00  0.00000000000E+00 -0.40391976999E+03  0.13599983482E+04  0.12986317132E+04 0.  0.
        4    1    3    3  502    0  0.44412665636E+03 -0.16638356554E+03 -0.66639998107E+03  0.81793797163E+03  0.12699999809E+01 0. -1.
       -4    1    3    3    0  502 -0.44412665636E+03  0.16638356554E+03  0.26248021108E+03  0.54206037660E+03  0.12699999809E+01 0.  1.
</event>
<event>
 5   0  0.2794825E-04  0.1301621E+04  0.7818609E-02  0.9028280E-01
       -2   -1    0    0    0  501  0.00000000000E+00  0.00000000000E+00  0.70243029991E+03  0.70243029991E+03  0.25500000920E-02 0. -1.
        2   -1    0    0  501    0  0.00000000000E+00  0.00000000000E+00 -0.60298437137E+03  0.60298437138E+03  0.25500000920E-02 0.  1.
    10030    2    1    2    0    0  0.00000000000E+00  0.00000000000E+00  0.99445928537E+02  0.13054146713E+04  0.13016212857E+04 0.  0.
        1    1    3    3  502    0  0.32094458076E+03  0.37740260794E+03  0.47299124973E+03  0.68495173169E+03  0.50400001928E-02 0. -1.
       -1    1    3    3    0  502 -0.32094458076E+03 -0.37740260794E+03 -0.37354532120E+03  0.62046293960E+03  0.50400001928E-02 0.  1.
</event>
<event>
 5   0  0.2573071E-04  0.1298530E+04  0.7818609E-02  0.9030732E-01
        2   -1    0    0  501    0  0.00000000000E+00  0.00000000000E+00  0.12025826624E+04  0.12025826624E+04  0.25500000920E-02 0. -1.
       -2   -1    0    0    0  501  0.00000000000E+00  0.00000000000E+00 -0.35053311191E+03  0.35053311191E+03  0.25500000920E-02 0.  1.
    10030    2    1    2    0    0  0.00000000000E+00  0.00000000000E+00  0.85204955050E+03  0.15531157743E+04  0.12985300043E+04 0.  0.
        4    1    3    3  502    0 -0.12989960963E+03  0.50437993267E+03  0.88967296675E+03  0.10309183410E+04  0.12699999809E+01 0. -1.
       -4    1    3    3    0  502  0.12989960963E+03 -0.50437993267E+03 -0.37623416247E+02  0.52219743336E+03  0.12699999809E+01 0.  1.
</event>
<event>
 5   0  0.2573071E-04  0.1300042E+04  0.7818609E-02  0.9029531E-01
        2   -1    0    0  501    0  0.00000000000E+00  0.00000000000E+00  0.64834780951E+03  0.64834780951E+03  0.25500000920E-02 0.  1.
       -2   -1    0    0    0  501  0.00000000000E+00  0.00000000000E+00 -0.65169899476E+03  0.65169899477E+03  0.25500000920E-02 0. -1.
    10030    2    1    2    0    0  0.00000000000E+00  0.00000000000E+00 -0.33511852518E+01  0.13000468043E+04  0.13000424850E+04 0.  0.
        4    1    3    3  502    0  0.21157346674E+03 -0.87849752943E+02 -0.60999093089E+03  0.65159148214E+03  0.12699999809E+01 0. -1.
       -4    1    3    3    0  502 -0.21157346674E+03  0.87849752943E+02  0.60663974564E+03  0.64845532214E+03  0.12699999809E+01 0.  1.
</event>
<event>
 5   0  0.1479690E-04  0.1299558E+04  0.7818609E-02  0.9029915E-01
       -1   -1    0    0    0  501  0.00000000000E+00  0.00000000000E+00  0.35427351314E+03  0.35427351317E+03  0.50400001928E-02 0. -1.
        1   -1    0    0  501    0  0.00000000000E+00  0.00000000000E+00 -0.11917712703E+04  0.11917712703E+04  0.50400001928E-02 0.  1.
    10030    2    1    2    0    0  0.00000000000E+00  0.00000000000E+00 -0.83749775714E+03  0.15460447835E+04  0.12995583785E+04 0.  0.
        1    1    3    3  502    0 -0.37962667548E+03  0.36865911759E+03 -0.86734578916E+03  0.10160288754E+04  0.50400001928E-02 0. -1.
       -1    1    3    3    0  502  0.37962667548E+03 -0.36865911759E+03  0.29848032014E+02  0.53001590803E+03  0.50400001928E-02 0.  1.
</event>
<event>
 5   0  0.1475396E-04  0.1300925E+04  0.7818609E-02  0.9028832E-01
        1   -1    0    0  501    0  0.00000000000E+00  0.00000000000E+00  0.50040616703E+03  0.50040616705E+03  0.50400001928E-02 0.  1.
       -1   -1    0    0    0  501  0.00000000000E+00  0.00000000000E+00 -0.84551627319E+03  0.84551627321E+03  0.50400001928E-02 0. -1.
    10030    2    1    2    0    0  0.00000000000E+00  0.00000000000E+00 -0.34511010617E+03  0.13459224403E+04  0.13009251438E+04 0.  0.
        3    1    3    3  502    0  0.14770149767E+03 -0.32231206406E+02  0.48197825158E+03  0.50513129806E+03  0.10100000352E+00 0.  1.
       -3    1    3    3    0  502 -0.14770149767E+03  0.32231206406E+02 -0.82708835775E+03  0.84079114220E+03  0.10100000352E+00 0. -1.
</event>
<event>
 5   0  0.2723209E-04  0.1298544E+04  0.7818609E-02  0.9030721E-01
        2   -1    0    0  501    0  0.00000000000E+00  0.00000000000E+00  0.44087606068E+03  0.44087606068E+03  0.25500000920E-02 0. -1.
       -2   -1    0    0    0  501  0.00000000000E+00  0.00000000000E+00 -0.95617354851E+03  0.95617354852E+03  0.25500000920E-02 0.  1.
    10030    2    1    2    0    0  0.00000000000E+00  0.00000000000E+00 -0.51529748784E+03  0.13970496092E+04  0.12985438420E+04 0.  0.
        2    1    3    3  502    0 -0.24865385397E+03 -0.27157269610E+03  0.31768275415E+03  0.48631553610E+03  0.25500000920E-02 0. -1.
       -2    1    3    3    0  502  0.24865385397E+03  0.27157269610E+03 -0.83298024199E+03  0.91073407310E+03  0.25500000920E-02 0.  1.
</event>
<event>
 5   0  0.1476511E-04  0.1300939E+04  0.7818609E-02  0.9028821E-01
        1   -1    0    0  501    0  0.00000000000E+00  0.00000000000E+00  0.15551889150E+04  0.15551889150E+04  0.50400001928E-02 0. -1.
       -1   -1    0    0    0  501  0.00000000000E+00  0.00000000000E+00 -0.27206383844E+03  0.27206383849E+03  0.50400001928E-02 0.  1.
    10030    2    1    2    0    0  0.00000000000E+00  0.00000000000E+00  0.12831250766E+04  0.18272527535E+04  0.13009391466E+04 0.  0.
        2    1    3    3  502    0  0.50619783310E+03  0.20186516083E+03  0.11403804266E+04  0.12639039943E+04  0.25500000920E-02 0. -1.
       -2    1    3    3    0  502 -0.50619783310E+03 -0.20186516083E+03  0.14274464994E+03  0.56334875919E+03  0.25500000920E-02 0.  1.
</event>
<event>
 5   0  0.1430636E-04  0.1298796E+04  0.7818609E-02  0.9030521E-01
        1   -1    0    0  501    0  0.00000000000E+00  0.00000000000E+00  0.14822725202E+04  0.14822725202E+04  0.50400001928E-02 0. -1.
       -1   -1    0    0    0  501  0.00000000000E+00  0.00000000000E+00 -0.28450750847E+03  0.28450750852E+03  0.50400001928E-02 0.  1.
    10030    2    1    2    0    0  0.00000000000E+00  0.00000000000E+00  0.11977650117E+04  0.17667800287E+04  0.12987958448E+04 0.  0.
        4    1    3    3  502    0 -0.22964880812E+03  0.19168697778E+03 -0.18520286569E+03  0.35182976974E+03  0.12699999809E+01 0.  1.
       -4    1    3    3    0  502  0.22964880812E+03 -0.19168697778E+03  0.13829678774E+04  0.14149502590E+04  0.12699999809E+01 0. -1.
</event>
<event>
 5   0  0.1430636E-04  0.1303522E+04  0.7818609E-02  0.9026777E-01
       -1   -1    0    0    0  501  0.00000000000E+00  0.00000000000E+00  0.25638765392E+03  0.25638765397E+03  0.50400001928E-02 0.  1.
        1   -1    0    0  501    0  0.00000000000E+00  0.00000000000E+00 -0.16568374385E+04  0.16568374385E+04  0.50400001928E-02 0. -1.
    10030    2    1    2    0    0  0.00000000000E+00  0.00000000000E+00 -0.14004497846E+04  0.19132250925E+04  0.13035224031E+04 0.  0.
        4    1    3    3  502    0  0.17213569599E+03 -0.10020453101E+03 -0.16110715511E+04  0.16233375500E+04  0.12699999809E+01 0. -1.
       -4    1    3    3    0  502 -0.17213569599E+03  0.10020453101E+03  0.21062176645E+03  0.28988754246E+03  0.12699999809E+01 0.  1.
</event>
<event>
 5   0  0.2723209E-04  0.1298063E+04  0.7818609E-02  0.9031103E-01
       -2   -1    0    0    0  501  0.00000000000E+00  0.00000000000E+00  0.18441748419E+03  0.18441748421E+03  0.25500000920E-02 0.  1.
        2   -1    0    0  501    0  0.00000000000E+00  0.00000000000E+00 -0.22841751335E+04  0.22841751335E+04  0.25500000920E-02 0. -1.
    10030    2    1    2    0    0  0.00000000000E+00  0.00000000000E+00 -0.20997576493E+04  0.24685926177E+04  0.12980629131E+04 0.  0.
        2    1    3    3  502    0  0.36820655799E+03 -0.45852999206E+03 -0.15721372511E+04  0.16785235653E+04  0.25500000920E-02 0. -1.
       -2    1    3    3    0  502 -0.36820655799E+03  0.45852999206E+03 -0.52762039817E+03  0.79006905238E+03  0.25500000920E-02 0.  1.
</event>
<event>
 5   0  0.1479690E-04  0.1298797E+04  0.7818609E-02  0.9030520E-01
       -1   -1    0    0    0  501  0.00000000000E+00  0.00000000000E+00  0.76359012211E+03  0.76359012213E+03  0.50400001928E-02 0.  1.
        1   -1    0    0  501    0  0.00000000000E+00  0.00000000000E+00 -0.55228383476E+03  0.55228383478E+03  0.50400001928E-02 0. -1.
    10030    2    1    2    0    0  0.00000000000E+00  0.00000000000E+00  0.21130628735E+03  0.13158739569E+04  0.12987971063E+04 0.  0.
        1    1    3    3  502    0  0.50273345279E+03 -0.39349923928E+03  0.22611090499E+03  0.67728038304E+03  0.50400001928E-02 0.  1.
       -1    1    3    3    0  502 -0.50273345279E+03  0.39349923928E+03 -0.14804617636E+02  0.63859357388E+03  0.50400001928E-02 0. -1.
</event>
<event>
 5   0  0.2723209E-04  0.1298328E+04  0.7818609E-02  0.9030892E-01
       -2   -1    0    0    0  501  0.00000000000E+00  0.00000000000E+00  0.17819591877E+03  0.17819591879E+03  0.25500000920E-02 0.  1.
        2   -1    0    0  501    0  0.00000000000E+00  0.00000000000E+00 -0.23648913846E+04  0.23648913846E+04  0.25500000920E-02 0. -1.
    10030    2    1    2    0    0  0.00000000000E+00  0.00000000000E+00 -0.21866954659E+04  0.25430873034E+04  0.12983281451E+04 0.  0.
        2    1    3    3  502    0  0.50130944631E+03 -0.40980618873E+03 -0.10022774889E+04  0.11932361200E+04  0.25500000920E-02 0. -1.
       -2    1    3    3    0  502 -0.50130944631E+03  0.40980618873E+03 -0.11844179769E+04  0.13498511834E+04  0.25500000920E-02 0.  1.
</event>
<event>
 5   0  0.2723209E-04  0.1302203E+04  0.7818609E-02  0.9027820E-01
        2   -1    0    0  501    0  0.00000000000E+00  0.00000000000E+00  0.14083672156E+04  0.14083672156E+04  0.25500000920E-02 0. -1.
       -2   -1    0    0    0  501  0.00000000000E+00  0.00000000000E+00 -0.30101059409E+03  0.30101059410E+03  0.25500000920E-02 0.  1.
    10030    2    1    2    0    0  0.00000000000E+00  0.00000000000E+00  0.11073566215E+04  0.17093778097E+04  0.13022034438E+04 0.  0.
        2    1    3    3  502    0  0.35434643001E+00  0.24848447745E+03 -0.23632102340E+03  0.34291731832E+03  0.25500000920E-02 0.  1.
       -2    1    3    3    0  502 -0.35434643001E+00 -0.24848447745E+03  0.13436776449E+04  0.13664604914E+04  0.25500000920E-02 0. -1.
</event>
<event>
 5   0  0.2723209E-04  0.1299234E+04  0.7818609E-02  0.9030173E-01
        2   -1    0    0  501    0  0.00000000000E+00  0.00000000000E+00  0.10431780882E+04  0.10431780882E+04  0.25500000920E-02 0. -1.
       -2   -1    0    0    0  501  0.00000000000E+00  0.00000000000E+00 -0.40453490295E+03  0.40453490295E+03  0.25500000920E-02 0.  1.
    10030    2    1    2    0    0  0.00000000000E+00  0.00000000000E+00  0.63864318528E+03  0.14477129912E+04  0.12992335382E+04 0.  0.
        2    1    3    3  502    0 -0.37113383878E+03  0.53122862172E+03  0.36986841524E+03  0.74615468867E+03  0.25500000920E-02 0.  1.
       -2    1    3    3    0  502  0.37113383878E+03 -0.53122862172E+03  0.26877477004E+03  0.70155830252E+03  0.25500000920E-02 0. -1.
</event>
<event>
 5   0  0.2794825E-04  0.1300135E+04  0.7818609E-02  0.9029458E-01
       -2   -1    0    0    0  501  0.00000000000E+00  0.00000000000E+00  0.96864469868E+03  0.96864469868E+03  0.25500000920E-02 0.  1.
        2   -1    0    0  501    0  0.00000000000E+00  0.00000000000E+00 -0.43626710729E+03  0.43626710730E+03  0.25500000920E-02 0. -1.
    10030    2    1    2    0    0  0.00000000000E+00  0.00000000000E+00  0.53237759139E+03  0.14049118060E+04  0.13001351017E+04 0.  0.
        1    1    3    3  502    0  0.24487319184E+03 -0.96612454266E+02  0.90847242019E+03  0.94584300212E+03  0.50400001928E-02 0.  1.
       -1    1    3    3    0  502 -0.24487319184E+03  0.96612454266E+02 -0.37609482880E+03  0.45906880386E+03  0.50400001928E-02 0. -1.
</event>
<event>
 5   0  0.1476511E-04  0.1299355E+04  0.7818609E-02  0.9030077E-01
        1   -1    0    0  501    0  0.00000000000E+00  0.00000000000E+00  0.98904927380E+03  0.98904927382E+03  0.50400001928E-02 0. -1.
       -1   -1    0    0    0  501  0.00000000000E+00  0.00000000000E+00 -0.42675400451E+03  0.42675400454E+03  0.50400001928E-02 0.  1.
    10030    2    1    2    0    0  0.00000000000E+00  0.00000000000E+00  0.56229526929E+03  0.14158032784E+04  0.12993548219E+04 0.  0.
        2    1    3    3  502    0  0.40763514292E+03  0.20946680642E+03  0.78289140153E+03  0.90717236473E+03  0.25500000920E-02 0. -1.
       -2    1    3    3    0  502 -0.40763514292E+03 -0.20946680642E+03 -0.22059613224E+03  0.50863091363E+03  0.25500000920E-02 0.  1.
</event>
<event>
 5   0  0.2573071E-04  0.1300278E+04  0.7818609E-02  0.9029345E-01
       -2   -1    0    0    0  501  0.00000000000E+00  0.00000000000E+00  0.48866659472E+03  0.48866659473E+03  0.25500000920E-02 0. -1.
        2   -1    0    0  501    0  0.00000000000E+00  0.00000000000E+00 -0.86496739045E+03  0.86496739046E+03  0.25500000920E-02 0.  1.
    10030    2    1    2    0    0  0.00000000000E+00  0.00000000000E+00 -0.37630079573E+03  0.13536339852E+04  0.13002779230E+04 0.  0.
        4    1    3    3  502    0  0.16310077849E+03 -0.40806595176E+03  0.31063367146E+03  0.53815850423E+03  0.12699999809E+01 0. -1.
       -4    1    3    3    0  502 -0.16310077849E+03  0.40806595176E+03 -0.68693446719E+03  0.81547548096E+03  0.12699999809E+01 0.  1.
</event>
<event>
 5   0  0.2661377E-04  0.1300888E+04  0.7818609E-02  0.9028862E-01
        2   -1    0    0  501    0  0.00000000000E+00  0.00000000000E+00  0.28402471725E+03  0.28402471726E+03  0.25500000920E-02 0.  1.
       -2   -1    0    0    0  501  0.00000000000E+00  0.00000000000E+00 -0.14895787150E+04  0.14895787150E+04  0.25500000920E-02 0. -1.
    10030    2    1    2    0    0  0.00000000000E+00  0.00000000000E+00 -0.12055539978E+04  0.17736034323E+04  0.13008876560E+04 0.  0.
        5    1    3    3  502    0 -0.31167870500E+03 -0.27696999793E+03  0.77819879024E+02  0.42418630161E+03  0.46999998093E+01 0.  1.
       -5    1    3    3    0  502  0.31167870500E+03  0.27696999793E+03 -0.12833738768E+04  0.13494171307E+04  0.46999998093E+01 0. -1.
</event>
<event>
 5   0  0.1475396E-04  0.1292666E+04  0.7818609E-02  0.9035402E-01
        1   -1    0    0  501    0  0.00000000000E+00  0.00000000000E+00  0.64120814263E+03  0.64120814265E+03  0.50400001928E-02 0. -1.
       -1   -1    0    0    0  501  0.00000000000E+00  0.00000000000E+00 -0.65149833678E+03  0.65149833680E+03  0.50400001928E-02 0.  1.
    10030    2    1    2    0    0  0.00000000000E+00  0.00000000000E+00 -0.10290194158E+02  0.12927064794E+04  0.12926655228E+04 0.  0.
        3    1    3    3  502    0 -0.49341557845E+03 -0.41090980665E+03 -0.78905321843E+02  0.64694038541E+03  0.10100000352E+00 0.  1.
       -3    1    3    3    0  502  0.49341557845E+03  0.41090980665E+03  0.68615127685E+02  0.64576609404E+03  0.10100000352E+00 0. -1.
</event>
<event>
 5   0  0.2661377E-04  0.1303728E+04  0.7818609E-02  0.9026614E-01
        2   -1    0    0  501    0  0.00000000000E+00  0.00000000000E+00  0.95521098883E+03  0.95521098883E+03  0.25500000920E-02 0. -1.
       -2   -1    0    0    0  501  0.00000000000E+00  0.00000000000E+00 -0.44485095914E+03  0.44485095915E+03  0.25500000920E-02 0.  1.
    10030    2    1    2    0    0  0.00000000000E+00  0.00000000000E+00  0.51036002969E+03  0.14000619480E+04  0.13037277700E+04 0.  0.
        5    1    3    3  502    0  0.44890183869E+03 -0.13290361816E+03  0.74226781392E+03  0.87758750565E+03  0.46999998093E+01 0. -1.
       -5    1    3    3    0  502 -0.44890183869E+03  0.13290361816E+03 -0.23190778424E+03  0.52247444232E+03  0.46999998093E+01 0.  1.
</event>
<event>
 5   0  0.1408341E-04  0.1300266E+04  0.7818609E-02  0.9029354E-01
        1   -1    0    0  501    0  0.00000000000E+00  0.00000000000E+00  0.70394874447E+03  0.70394874448E+03  0.50400001928E-02 0.  1.
       -1   -1    0    0    0  501  0.00000000000E+00  0.00000000000E+00 -0.60043150078E+03  0.60043150080E+03  0.50400001928E-02 0. -1.
    10030    2    1    2    0    0  0.00000000000E+00  0.00000000000E+00  0.10351724369E+03  0.13043802453E+04  0.13002661284E+04 0.  0.
        5    1    3    3  502    0 -0.53665440737E+02  0.63822753604E+03 -0.60113484761E+02  0.64331181269E+03  0.46999998093E+01 0. -1.
       -5    1    3    3    0  502  0.53665440737E+02 -0.63822753604E+03  0.16363072845E+03  0.66106843260E+03  0.46999998093E+01 0.  1.
</event>
<event>
 5   0  0.2661377E-04  0.1296023E+04  0.7818609E-02  0.9032725E-01
       -2   -1    0    0    0  501  0.00000000000E+00  0.00000000000E+00  0.29942675218E+03  0.29942675219E+03  0.25500000920E-02 0. -1.
        2   -1    0    0  501    0  0.00000000000E+00  0.00000000000E+00 -0.14024101511E+04  0.14024101511E+04  0.25500000920E-02 0.  1.
    10030    2    1    2    0    0  0.00000000000E+00  0.00000000000E+00 -0.11029833989E+04  0.17018369033E+04  0.12960233281E+04 0.  0.
        5    1    3    3  502    0  0.22274327627E+03 -0.21964234676E+02  0.24703343438E+03  0.33338356653E+03  0.46999998093E+01 0. -1.
       -5    1    3    3    0  502 -0.22274327627E+03  0.21964234676E+02 -0.13500168333E+04  0.13684533367E+04  0.46999998093E+01 0.  1.
</event>
<event>
 5   0  0.2723209E-04  0.1297745E+04  0.7818609E-02  0.9031356E-01
        2   -1    0    0  501    0  0.00000000000E+00  0.00000000000E+00  0.12427401755E+04  0.12427401755E+04  0.25500000920E-02 0.  1.
       -2   -1    0    0    0  501  0.00000000000E+00  0.00000000000E+00 -0.33879586079E+03  0.33879586080E+03  0.25500000920E-02 0. -1.
    10030    2    1    2    0    0  0.00000000000E+00  0.00000000000E+00  0.90394431469E+03  0.15815360363E+04  0.12977445473E+04 0.  0.
        2    1    3    3  502    0  0.20678889184E+03 -0.22537599250E+03  0.11493718773E+04  0.11893744978E+04  0.25500000920E-02 0.  1.
       -2    1    3    3    0  502 -0.20678889184E+03  0.22537599250E+03 -0.24542756258E+03  0.39216153848E+03  0.25500000920E-02 0. -1.
</event>
<event>
 5   0  0.1479690E-04  0.1300786E+04  0.7818609E-02  0.9028942E-01
        1   -1    0    0  501    0  0.00000000000E+00  0.00000000000E+00  0.81024039775E+03  0.81024039777E+03  0.50400001928E-02 0. -1.
       -1   -1    0    0    0  501  0.00000000000E+00  0.00000000000E+00 -0.52208075546E+03  0.52208075548E+03  0.50400001928E-02 0.  1.
    10030    2    1    2    0    0  0.00000000000E+00  0.00000000000E+00  0.28815964230E+03  0.13323211533E+04  0.13007857917E+04 0.  0.
        1    1    3    3  502    0  0.56876062674E+03 -0.14900877603E+02  0.46683875401E+03  0.73596814398E+03  0.50400001928E-02 0. -1.
       -1    1    3    3    0  502 -0.56876062674E+03  0.14900877603E+02 -0.17867911171E+03  0.59635300927E+03  0.50400001928E-02 0.  1.
</event>
<event>
 5   0  0.1475396E-04  0.1299413E+04  0.7818609E-02  0.9030031E-01
       -1   -1    0    0    0  501  0.00000000000E+00  0.00000000000E+00  0.61212670717E+03  0.61212670719E+03  0.50400001928E-02 0. -1.
        1   -1    0    0  501    0  0.00000000000E+00  0.00000000000E+00 -0.68959354878E+03  0.68959354880E+03  0.50400001928E-02 0.  1.
    10030    2    1    2    0    0  0.00000000000E+00  0.00000000000E+00 -0.77466841611E+02  0.13017202560E+04  0.12994131419E+04 0.  0.
        3    1    3    3  502    0 -0.21446765414E+02  0.30832162824E+03 -0.61123425441E+03  0.68493029875E+03  0.10100000352E+00 0.  1.
       -3    1    3    3    0  502  0.21446765414E+02 -0.30832162824E+03  0.53376741280E+03  0.61678995724E+03  0.10100000352E+00 0. -1.
</event>
<event>
 5   0  0.2573071E-04  0.1298967E+04  0.7818609E-02  0.9030385E-01
        2   -1    0    0  501    0  0.00000000000E+00  0.00000000000E+00  0.13055574141E+04  0.13055574141E+04  0.25500000920E-02 0.  1.
       -2   -1    0    0    0  501  0.00000000000E+00  0.00000000000E+00 -0.32310231684E+03  0.32310231685E+03  0.25500000920E-02 0. -1.
    10030    2    1    2    0    0  0.00000000000E+00  0.00000000000E+00  0.98245509729E+03  0.16286597310E+04  0.12989667052E+04 0.  0.
        4    1    3    3  502    0 -0.43424453599E+03 -0.12786679359E+03  0.10751711491E+04  0.11665816931E+04  0.12699999809E+01 0.  1.
       -4    1    3    3    0  502  0.43424453599E+03  0.12786679359E+03 -0.92716051794E+02  0.46207803789E+03  0.12699999809E+01 0. -1.
</event>
<event>
 5   0  0.2573071E-04  0.1302053E+04  0.7818609E-02  0.9027938E-01
       -2   -1    0    0    0  501  0.00000000000E+00  0.00000000000E+00  0.24834699688E+03  0.24834699690E+03  0.25500000920E-02 0.  1.
        2   -1    0    0  501    0  0.00000000000E+00  0.00000000000E+00 -0.17066274510E+04  0.17066274510E+04  0.25500000920E-02 0. -1.
    10030    2    1    2    0    0  0.00000000000E+00  0.00000000000E+00 -0.14582804542E+04  0.19549744479E+04  0.13020534586E+04 0.  0.
        4    1    3    3  502    0  0.30511067077E+03 -0.37663293445E+03 -0.13816934655E+04  0.14642483854E+04  0.12699999809E+01 0. -1.
       -4    1    3    3    0  502 -0.30511067077E+03  0.37663293445E+03 -0.76586988709E+02  0.49072606256E+03  0.12699999809E+01 0.  1.
</event>
<event>
 5   0  0.2794825E-04  0.1296848E+04  0.7818609E-02  0.9032069E-01
       -2   -1    0    0    0  501  0.00000000000E+00  0.00000000000E+00  0.60658722401E+03  0.60658722402E+03  0.25500000920E-02 0.  1.
        2   -1    0    0  501    0  0.00000000000E+00  0.00000000000E+00 -0.69314600482E+03  0.69314600482E+03  0.25500000920E-02 0. -1.
    10030    2    1    2    0    0  0.00000000000E+00  0.00000000000E+00 -0.86558780803E+02  0.12997332288E+04  0.12968477334E+04 0.  0.
        1    1    3    3  502    0 -0.57471151556E+03  0.29914835478E+03 -0.69229985977E+02  0.65159485516E+03  0.50400001928E-02 0. -1.
       -1    1    3    3    0  502  0.57471151556E+03 -0.29914835478E+03 -0.17328794826E+02  0.64813837368E+03  0.50400001928E-02 0.  1.
</event>
<event>
 5   0  0.1002887E-04  0.1300759E+04  0.7818609E-02  0.9028964E-01
        4   -1    0    0  501    0  0.00000000000E+00  0.00000000000E+00  0.42815691113E+03  0.42815879466E+03  0.12699999809E+01 0.  1.
       -4   -1    0    0    0  501  0.00000000000E+00  0.00000000000E+00 -0.98793577945E+03  0.98793659575E+03  0.12699999809E+01 0. -1.
    10030    2    1    2    0    0  0.00000000000E+00  0.00000000000E+00 -0.55977886832E+03  0.14160953904E+04  0.13007589221E+04 0.  0.
        1    1    3    3  502    0  0.42975429146E+03  0.48715621853E+03 -0.24574772087E+03  0.69455156369E+03  0.50400001928E-02 0. -1.
       -1    1    3    3    0  502 -0.42975429146E+03 -0.48715621853E+03 -0.31403114745E+03  0.72154382672E+03  0.50400001928E-02 0.  1.
</event>
<event>
 5   0  0.1475396E-04  0.1299672E+04  0.7818609E-02  0.9029825E-01
        1   -1    0    0  501    0  0.00000000000E+00  0.00000000000E+00  0.48562667145E+03  0.48562667148E+03  0.50400001928E-02 0.  1.
       -1   -1    0    0    0  501  0.00000000000E+00  0.00000000000E+00 -0.86957137910E+03  0.86957137911E+03  0.50400001928E-02 0. -1.
    10030    2    1    2    0    0  0.00000000000E+00  0.00000000000E+00 -0.38394470765E+03  0.13551980506E+04  0.12996723502E+04 0.  0.
        3    1    3    3  502    0 -0.18679160581E+03  0.51487732454E+03  0.17267854574E+03  0.57428882428E+03  0.10100000352E+00 0.  1.
       -3    1    3    3    0  502  0.18679160581E+03 -0.51487732454E+03 -0.55662325338E+03  0.78090922631E+03  0.10100000352E+00 0. -1.
</event>
<event>
 5   0  0.1479690E-04  0.1301550E+04  0.7818609E-02  0.9028337E-01
        1   -1    0    0  501    0  0.00000000000E+00  0.00000000000E+00  0.72309691962E+03  0.72309691964E+03  0.50400001928E-02 0. -1.
       -1   -1    0    0    0  501  0.00000000000E+00  0.00000000000E+00 -0.58568645178E+03  0.58568645181E+03  0.50400001928E-02 0.  1.
    10030    2    1    2    0    0  0.00000000000E+00  0.00000000000E+00  0.13741046784E+03  0.13087833714E+04  0.13015499517E+04 0.  0.
        1    1    3    3  502    0  0.40233618627E+03 -0.29090637018E+03 -0.35435511981E+03  0.60997415842E+03  0.50400001928E-02 0.  1.
       -1    1    3    3    0  502 -0.40233618627E+03  0.29090637018E+03  0.49176558764E+03  0.69880921302E+03  0.50400001928E-02 0. -1.
</event>
<event>
 5   0  0.2723209E-04  0.1306557E+04  0.7818609E-02  0.9024381E-01
        2   -1    0    0  501    0  0.00000000000E+00  0.00000000000E+00  0.74811365439E+03  0.74811365439E+03  0.25500000920E-02 0.  1.
       -2   -1    0    0    0  501  0.00000000000E+00  0.00000000000E+00 -0.57046549861E+03  0.57046549861E+03  0.25500000920E-02 0. -1.
    10030    2    1    2    0    0  0.00000000000E+00  0.00000000000E+00  0.17764815578E+03  0.13185791530E+04  0.13065573525E+04 0.  0.
        2    1    3    3  502    0  0.13954527436E+03 -0.24472526854E+03 -0.50601390146E+03  0.57914886612E+03  0.25500000920E-02 0. -1.
       -2    1    3    3    0  502 -0.13954527436E+03  0.24472526854E+03  0.68366205723E+03  0.73943028689E+03  0.25500000920E-02 0.  1.
</event>
<event>
 5   0  0.1408341E-04  0.1299132E+04  0.7818609E-02  0.9030254E-01
       -1   -1    0    0    0  501  0.00000000000E+00  0.00000000000E+00  0.27586981583E+03  0.27586981588E+03  0.50400001928E-02 0. -1.
        1   -1    0    0  501    0  0.00000000000E+00  0.00000000000E+00 -0.15294745609E+04  0.15294745609E+04  0.50400001928E-02 0.  1.
    10030    2    1    2    0    0  0.00000000000E+00  0.00000000000E+00 -0.12536047451E+04  0.18053443768E+04  0.12991318108E+04 0.  0.
        5    1    3    3  502    0  0.28662997787E+03  0.46615742690E+03 -0.14051405849E+03  0.56500069159E+03  0.46999998093E+01 0.  1.
       -5    1    3    3    0  502 -0.28662997787E+03 -0.46615742690E+03 -0.11130906866E+04  0.12403436852E+04  0.46999998093E+01 0. -1.
</event>
<event>
 5   0  0.1475396E-04  0.1299225E+04  0.7818609E-02  0.9030180E-01
       -1   -1    0    0    0  501  0.00000000000E+00  0.00000000000E+00  0.58561117157E+03  0.58561117159E+03  0.50400001928E-02 0. -1.
        1   -1    0    0  501    0  0.00000000000E+00  0.00000000000E+00 -0.72060874645E+03  0.72060874647E+03  0.50400001928E-02 0.  1.
    10030    2    1    2    0    0  0.00000000000E+00  0.00000000000E+00 -0.13499757488E+03  0.13062199181E+04  0.12992252034E+04 0.  0.
        3    1    3    3  502    0 -0.19636977577E+03 -0.12727814317E+03 -0.67676110244E+03  0.71607710097E+03  0.10100000352E+00 0.  1.
       -3    1    3    3    0  502  0.19636977577E+03  0.12727814317E+03  0.54176352756E+03  0.59014281709E+03  0.10100000352E+00 0. -1.
</event>
<event>
 5   0  0.1476511E-04  0.1301476E+04  0.7818609E-02  0.9028396E-01
        1   -1    0    0  501    0  0.00000000000E+00  0.00000000000E+00  0.79327655292E+03  0.79327655294E+03  0.50400001928E-02 0.  1.
       -1   -1    0    0    0  501  0.00000000000E+00  0.00000000000E+00 -0.53381113307E+03  0.53381113309E+03  0.50400001928E-02 0. -1.
    10030    2    1    2    0    0  0.00000000000E+00  0.00000000000E+00  0.25946541985E+03  0.13270876860E+04  0.13014758631E+04 0.  0.
        2    1    3    3  502    0  0.25859008703E+03 -0.55657518369E+03  0.35035857230E+03  0.70667948704E+03  0.25500000920E-02 0. -1.
       -2    1    3    3    0  502 -0.25859008703E+03  0.55657518369E+03 -0.90893152448E+02  0.62040819899E+03  0.25500000920E-02 0.  1.
</event>
<event>
 5   0  0.2723209E-04  0.1298427E+04  0.7818609E-02  0.9030813E-01
       -2   -1    0    0    0  501  0.00000000000E+00  0.00000000000E+00  0.26733297015E+03  0.26733297017E+03  0.25500000920E-02 0. -1.
        2   -1    0    0  501    0  0.00000000000E+00  0.00000000000E+00 -0.15766043085E+04  0.15766043085E+04  0.25500000920E-02 0.  1.
    10030    2    1    2    0    0  0.00000000000E+00  0.00000000000E+00 -0.13092713383E+04  0.18439372786E+04  0.12984272218E+04 0.  0.
        2    1    3    3  502    0  0.22681144962E+03 -0.37090183544E+03  0.30077868730E+02  0.43579385425E+03  0.25500000920E-02 0. -1.
       -2    1    3    3    0  502 -0.22681144962E+03  0.37090183544E+03 -0.13393492070E+04  0.14081434244E+04  0.25500000920E-02 0.  1.
</event>
<event>
 5   0  0.2661377E-04  0.1300489E+04  0.7818609E-02  0.9029177E-01
        2   -1    0    0  501    0  0.00000000000E+00  0.00000000000E+00  0.51637614895E+03  0.51637614896E+03  0.25500000920E-02 0. -1.
       -2   -1    0    0    0  501  0.00000000000E+00  0.00000000000E+00 -0.81881823542E+03  0.81881823543E+03  0.25500000920E-02 0.  1.
    10030    2    1    2    0    0  0.00000000000E+00  0.00000000000E+00 -0.30244208647E+03  0.13351943844E+04  0.13004894573E+04 0.  0.
        5    1    3    3  502    0 -0.71839093877E+02 -0.14406747799E+02  0.51210690742E+03  0.51734319790E+03  0.46999998093E+01 0. -1.
       -5    1    3    3    0  502  0.71839093877E+02  0.14406747799E+02 -0.81454899389E+03  0.81785118648E+03  0.46999998093E+01 0.  1.
</event>
<event>
 5   0  0.1408341E-04  0.1286604E+04  0.7818609E-02  0.9040256E-01
       -1   -1    0    0    0  501  0.00000000000E+00  0.00000000000E+00  0.15776172400E+04  0.15776172400E+04  0.50400001928E-02 0. -1.
        1   -1    0    0  501    0  0.00000000000E+00  0.00000000000E+00 -0.26231824334E+03  0.26231824339E+03  0.50400001928E-02 0.  1.
    10030    2    1    2    0    0  0.00000000000E+00  0.00000000000E+00  0.13152989966E+04  0.18399354834E+04  0.12866044973E+04 0.  0.
        5    1    3    3  502    0 -0.58783261389E+03 -0.40238690033E+01  0.10312575591E+04  0.11870457517E+04  0.46999998093E+01 0. -1.
       -5    1    3    3    0  502  0.58783261389E+03  0.40238690033E+01  0.28404143757E+03  0.65288973168E+03  0.46999998093E+01 0.  1.
</event>
<event>
 5   0  0.1479690E-04  0.1299524E+04  0.7818609E-02  0.9029943E-01
       -1   -1    0    0    0  501  0.00000000000E+00  0.00000000000E+00  0.46750875247E+03  0.46750875249E+03  0.50400001928E-02 0.  1.
        1   -1    0    0  501    0  0.00000000000E+00  0.00000000000E+00 -0.90306483009E+03  0.90306483011E+03  0.50400001928E-02 0. -1.
    10030    2    1    2    0    0  0.00000000000E+00  0.00000000000E+00 -0.43555607762E+03  0.13705735826E+04  0.12995240854E+04 0.  0.
        1    1    3    3  502    0  0.27364288955E+03  0.54865856464E+03 -0.44467764919E+03  0.75739346661E+03  0.50400001928E-02 0.  1.
       -1    1    3    3    0  502 -0.27364288955E+03 -0.54865856464E+03  0.91215715647E+01  0.61318011599E+03  0.50400001928E-02 0. -1.
</event>
<event>
 5   0  0.1475396E-04  0.1308928E+04  0.7818609E-02  0.9022515E-01
       -1   -1    0    0    0  501  0.00000000000E+00  0.00000000000E+00  0.50849779384E+03  0.50849779387E+03  0.50400001928E-02 0. -1.
        1   -1    0    0  501    0  0.00000000000E+00  0.00000000000E+00 -0.84233068826E+03  0.84233068827E+03  0.50400001928E-02 0.  1.
    10030    2    1    2    0    0  0.00000000000E+00  0.00000000000E+00 -0.33383289441E+03  0.13508284821E+04  0.13089282588E+04 0.  0.
        3    1    3    3  502    0  0.94318449504E+00 -0.64296016458E+03 -0.29299350333E+03  0.70657191144E+03  0.10100000352E+00 0.  1.
       -3    1    3    3    0  502 -0.94318449504E+00  0.64296016458E+03 -0.40839391082E+02  0.64425657071E+03  0.10100000352E+00 0. -1.
</event>
<event>
 5   0  0.2661377E-04  0.1298832E+04  0.7818609E-02  0.9030492E-01
       -2   -1    0    0    0  501  0.00000000000E+00  0.00000000000E+00  0.47455068427E+03  0.47455068427E+03  0.25500000920E-02 0.  1.
        2   -1    0    0  501    0  0.00000000000E+00  0.00000000000E+00 -0.88871674129E+03  0.88871674129E+03  0.25500000920E-02 0. -1.
    10030    2    1    2    0    0  0.00000000000E+00  0.00000000000E+00 -0.41416605703E+03  0.13632674256E+04  0.12988319948E+04 0.  0.
        5    1    3    3  502    0  0.59322243935E+03 -0.49298062465E+02 -0.47952895859E+03  0.76440386814E+03  0.46999998093E+01 0. -1.
       -5    1    3    3    0  502 -0.59322243935E+03  0.49298062465E+02  0.65362901563E+02  0.59886355742E+03  0.46999998093E+01 0.  1.
</event>
<event>
 5   0  0.1002887E-04  0.1304720E+04  0.7818609E-02  0.9025830E-01
        3   -1    0    0  501    0  0.00000000000E+00  0.00000000000E+00  0.41663710887E+03  0.41663712112E+03  0.10100000352E+00 0. -1.
       -3   -1    0    0    0  501  0.00000000000E+00  0.00000000000E+00 -0.10214494483E+04  0.10214494533E+04  0.10100000352E+00 0.  1.
    10030    2    1    2    0    0  0.00000000000E+00  0.00000000000E+00 -0.60481233943E+03  0.14380865744E+04  0.13047202879E+04 0.  0.
        4    1    3    3  502    0 -0.13698662587E+02 -0.41464636929E+03 -0.85730809442E+03  0.95241694996E+03  0.12699999809E+01 0.  1.
       -4    1    3    3    0  502  0.13698662587E+02  0.41464636929E+03  0.25249575499E+03  0.48566962445E+03  0.12699999809E+01 0. -1.
</event>
<event>
 5   0  0.2723209E-04  0.1301319E+04  0.7818609E-02  0.9028520E-01
        2   -1    0    0  501    0  0.00000000000E+00  0.00000000000E+00  0.39937454338E+03  0.39937454338E+03  0.25500000920E-02 0.  1.
       -2   -1    0    0    0  501  0.00000000000E+00  0.00000000000E+00 -0.10600522630E+04  0.10600522630E+04  0.25500000920E-02 0. -1.
    10030    2    1    2    0    0  0.00000000000E+00  0.00000000000E+00 -0.66067771959E+03  0.14594268064E+04  0.13013191591E+04 0.  0.
        2    1    3    3  502    0  0.40836277474E+03  0.25932566117E+03 -0.81834892642E+03  0.95063395675E+03  0.25500000920E-02 0. -1.
       -2    1    3    3    0  502 -0.40836277474E+03 -0.25932566117E+03  0.15767120683E+03  0.50879284961E+03  0.25500000920E-02 0.  1.
</event>
<event>
 5   0  0.2723209E-04  0.1299879E+04  0.7818609E-02  0.9029661E-01
       -2   -1    0    0    0  501  0.00000000000E+00  0.00000000000E+00  0.37193320335E+03  0.37193320335E+03  0.25500000920E-02 0. -1.
        2   -1    0    0  501    0  0.00000000000E+00  0.00000000000E+00 -0.11357459900E+04  0.11357459900E+04  0.25500000920E-02 0.  1.
    10030    2    1    2    0    0  0.00000000000E+00  0.00000000000E+00 -0.76381278664E+03  0.15076791933E+04  0.12998794471E+04 0.  0.
        2    1    3    3  502    0 -0.13234363448E+03  0.19256366275E+03 -0.10853464605E+04  0.11102128360E+04  0.25500000920E-02 0.  1.
       -2    1    3    3    0  502  0.13234363448E+03 -0.19256366275E+03  0.32153367388E+03  0.39746635737E+03  0.25500000920E-02 0. -1.
</event>
<event>
 5   0  0.2661377E-04  0.1297534E+04  0.7818609E-02  0.9031523E-01
       -2   -1    0    0    0  501  0.00000000000E+00  0.00000000000E+00  0.24069389671E+03  0.24069389673E+03  0.25500000920E-02 0.  1.
        2   -1    0    0  501    0  0.00000000000E+00  0.00000000000E+00 -0.17486885211E+04  0.17486885211E+04  0.25500000920E-02 0. -1.
    10030    2    1    2    0    0  0.00000000000E+00  0.00000000000E+00 -0.15079946244E+04  0.19893824179E+04  0.12975340524E+04 0.  0.
        5    1    3    3  502    0  0.48553269567E+03  0.30940371828E+02 -0.96010008237E+02  0.49592269242E+03  0.46999998093E+01 0.  1.
       -5    1    3    3    0  502 -0.48553269567E+03 -0.30940371828E+02 -0.14119846162E+04  0.14934597254E+04  0.46999998093E+01 0. -1.
</event>
<event>
 5   0  0.2794825E-04  0.1298583E+04  0.7818609E-02  0.9030690E-01
        2   -1    0    0  501    0  0.00000000000E+00  0.00000000000E+00  0.26756761857E+04  0.26756761857E+04  0.25500000920E-02 0. -1.
       -2   -1    0    0    0  501  0.00000000000E+00  0.00000000000E+00 -0.15755998145E+03  0.15755998147E+03  0.25500000920E-02 0.  1.
    10030    2    1    2    0    0  0.00000000000E+00  0.00000000000E+00  0.25181162042E+04  0.28332361671E+04  0.12985830589E+04 0.  0.
        1    1    3    3  502    0  0.56124995231E+03  0.22030773862E+03  0.17846952258E+04  0.18837924667E+04  0.50400001928E-02 0. -1.
       -1    1    3    3    0  502 -0.56124995231E+03 -0.22030773862E+03  0.73342097846E+03  0.94944370046E+03  0.50400001928E-02 0.  1.
</event>
<event>
 5   0  0.2723209E-04  0.1299464E+04  0.7818609E-02  0.9029991E-01
        2   -1    0    0  501    0  0.00000000000E+00  0.00000000000E+00  0.95142134435E+03  0.95142134435E+03  0.25500000920E-02 0.  1.
       -2   -1    0    0    0  501  0.00000000000E+00  0.00000000000E+00 -0.44370604411E+03  0.44370604412E+03  0.25500000920E-02 0. -1.
    10030    2    1    2    0    0  0.00000000000E+00  0.00000000000E+00  0.50771530024E+03  0.13951273885E+04  0.12994635832E+04 0.  0.
        2    1    3    3  502    0  0.14631257309E+03  0.61960666345E+03  0.39314530937E+03  0.74825331321E+03  0.25500000920E-02 0.  1.
       -2    1    3    3    0  502 -0.14631257309E+03 -0.61960666345E+03  0.11456999087E+03  0.64687407527E+03  0.25500000920E-02 0. -1.
</event>
<event>
 5   0  0.2794825E-04  0.1301389E+04  0.7818609E-02  0.9028464E-01
        2   -1    0    0  501    0  0.00000000000E+00  0.00000000000E+00  0.26739961176E+04  0.26739961176E+04  0.25500000920E-02 0.  1.
       -2   -1    0    0    0  501  0.00000000000E+00  0.00000000000E+00 -0.15834110160E+03  0.15834110163E+03  0.25500000920E-02 0. -1.
    10030    2    1    2    0    0  0.00000000000E+00  0.00000000000E+00  0.25156550160E+04  0.28323372192E+04  0.13013892438E+04 0.  0.
        1    1    3    3  502    0 -0.38393725298E+02 -0.30338190090E+03  0.25078607292E+04  0.25264362437E+04  0.50400001928E-02 0.  1.
       -1    1    3    3    0  502  0.38393725298E+02  0.30338190090E+03  0.77942867648E+01  0.30590097559E+03  0.50400001928E-02 0. -1.
</event>
<event>
 5   0  0.1430636E-04  0.1301916E+04  0.7818609E-02  0.9028047E-01
        1   -1    0    0  501    0  0.00000000000E+00  0.00000000000E+00  0.62002674213E+03  0.62002674215E+03  0.50400001928E-02 0.  1.
       -1   -1    0    0    0  501  0.00000000000E+00  0.00000000000E+00 -0.68343199894E+03  0.68343199896E+03  0.50400001928E-02 0. -1.
    10030    2    1    2    0    0  0.00000000000E+00  0.00000000000E+00 -0.63405256810E+02  0.13034587411E+04  0.13019156897E+04 0.  0.
        4    1    3    3  502    0  0.28724371737E+03 -0.11908591330E+03  0.54086161597E+03  0.62387763900E+03  0.12699999809E+01 0.  1.
       -4    1    3    3    0  502 -0.28724371737E+03  0.11908591330E+03 -0.60426687278E+03  0.67958110212E+03  0.12699999809E+01 0. -1.
</event>
<event>
 5   0  0.1430636E-04  0.1299396E+04  0.7818609E-02  0.9030045E-01
       -1   -1    0    0    0  501  0.00000000000E+00  0.00000000000E+00  0.79831657205E+03  0.79831657207E+03  0.50400001928E-02 0. -1.
        1   -1    0    0  501    0  0.00000000000E+00  0.00000000000E+00 -0.52874666323E+03  0.52874666326E+03  0.50400001928E-02 0.  1.
    10030    2    1    2    0    0  0.00000000000E+00  0.00000000000E+00  0.26956990882E+03  0.13270632353E+04  0.12993955883E+04 0.  0.
        4    1    3    3  502    0  0.99103982159E+02  0.48511846921E+03 -0.29481898116E+03  0.57626501976E+03  0.12699999809E+01 0.  1.
       -4    1    3    3    0  502 -0.99103982159E+02 -0.48511846921E+03  0.56438888999E+03  0.75079821556E+03  0.12699999809E+01 0. -1.
</event>
<event>
 5   0  0.1430636E-04  0.1301680E+04  0.7818609E-02  0.9028234E-01
        1   -1    0    0  501    0  0.00000000000E+00  0.00000000000E+00  0.35336825284E+03  0.35336825287E+03  0.50400001928E-02 0. -1.
       -1   -1    0    0    0  501  0.00000000000E+00  0.00000000000E+00 -0.11987289563E+04  0.11987289564E+04  0.50400001928E-02 0.  1.
    10030    2    1    2    0    0  0.00000000000E+00  0.00000000000E+00 -0.84536070351E+03  0.15520972092E+04  0.13016800789E+04 0.  0.
        4    1    3    3  502    0 -0.51688093321E+03 -0.30503137942E+03 -0.72286919987E+03  0.93954858021E+03  0.12699999809E+01 0.  1.
       -4    1    3    3    0  502  0.51688093321E+03  0.30503137942E+03 -0.12249150364E+03  0.61254862902E+03  0.12699999809E+01 0. -1.
</event>
<event>
 5   0  0.2573071E-04  0.1299034E+04  0.7818609E-02  0.9030332E-01
        2   -1    0    0  501    0  0.00000000000E+00  0.00000000000E+00  0.37581348695E+03  0.37581348696E+03  0.25500000920E-02 0. -1.
       -2   -1    0    0    0  501  0.00000000000E+00  0.00000000000E+00 -0.11225570811E+04  0.11225570811E+04  0.25500000920E-02 0.  1.
    10030    2    1    2    0    0  0.00000000000E+00  0.00000000000E+00 -0.74674359417E+03  0.14983705681E+04  0.12990336269E+04 0.  0.
        4    1    3    3  502    0  0.59874968480E+01  0.52506143495E+03  0.67579876954E+02  0.52942800574E+03  0.12699999809E+01 0. -1.
       -4    1    3    3    0  502 -0.59874968480E+01 -0.52506143495E+03 -0.81432347112E+03  0.96894256234E+03  0.12699999809E+01 0.  1.
</event>
<event>
 5   0  0.1408341E-04  0.1299447E+04  0.7818609E-02  0.9030004E-01
       -1   -1    0    0    0  501  0.00000000000E+00  0.00000000000E+00  0.77737576540E+03  0.77737576541E+03  0.50400001928E-02 0.  1.
        1   -1    0    0  501    0  0.00000000000E+00  0.00000000000E+00 -0.54303259059E+03  0.54303259062E+03  0.50400001928E-02 0. -1.
    10030    2    1    2    0    0  0.00000000000E+00  0.00000000000E+00  0.23434317480E+03  0.13204083560E+04  0.12994466142E+04 0.  0.
        5    1    3    3  502    0  0.25050174831E+03  0.30906965070E+03  0.63911413576E+03  0.75283739507E+03  0.46999998093E+01 0.  1.
       -5    1    3    3    0  502 -0.25050174831E+03 -0.30906965070E+03 -0.40477096096E+03  0.56757096096E+03  0.46999998093E+01 0. -1.
</event>
<event>
 5   0  0.1476511E-04  0.1298470E+04  0.7818609E-02  0.9030779E-01
        1   -1    0    0  501    0  0.00000000000E+00  0.00000000000E+00  0.80181239168E+03  0.80181239170E+03  0.50400001928E-02 0. -1.
       -1   -1    0    0    0  501  0.00000000000E+00  0.00000000000E+00 -0.52569190410E+03  0.52569190413E+03  0.50400001928E-02 0.  1.
    10030    2    1    2    0    0  0.00000000000E+00  0.00000000000E+00  0.27612048758E+03  0.13275042958E+04  0.12984703045E+04 0.  0.
        2    1    3    3  502    0 -0.40969758890E+03 -0.41664768763E+03  0.42733374309E+03  0.72392094731E+03  0.25500000920E-02 0. -1.
       -2    1    3    3    0  502  0.40969758890E+03  0.41664768763E+03 -0.15121325551E+03  0.60358334852E+03  0.25500000920E-02 0.  1.
</event>
<event>
 5   0  0.1430636E-04  0.1300336E+04  0.7818609E-02  0.9029298E-01
        1   -1    0    0  501    0  0.00000000000E+00  0.00000000000E+00  0.37569945069E+03  0.37569945072E+03  0.50400001928E-02 0.  1.
       -1   -1    0    0    0  501  0.00000000000E+00  0.00000000000E+00 -0.11251511337E+04  0.11251511337E+04  0.50400001928E-02 0. -1.
    10030    2    1    2    0    0  0.00000000000E+00  0.00000000000E+00 -0.74945168300E+03  0.15008505844E+04  0.13003363609E+04 0.  0.
        4    1    3    3  502    0  0.15452408404E+02 -0.26851324148E+03 -0.10579303630E+04  0.10915843548E+04  0.12699999809E+01 0. -1.
       -4    1    3    3    0  502 -0.15452408404E+02  0.26851324148E+03  0.30847868001E+03  0.40926622961E+03  0.12699999809E+01 0.  1.
</event>
<event>
 5   0  0.1430636E-04  0.1288173E+04  0.7818609E-02  0.9038997E-01
        1   -1    0    0  501    0  0.00000000000E+00  0.00000000000E+00  0.82852195042E+03  0.82852195043E+03  0.50400001928E-02 0.  1.
       -1   -1    0    0    0  501  0.00000000000E+00  0.00000000000E+00 -0.50070752891E+03  0.50070752893E+03  0.50400001928E-02 0. -1.
    10030    2    1    2    0    0  0.00000000000E+00  0.00000000000E+00  0.32781442151E+03  0.13292294794E+04  0.12881726258E+04 0.  0.
        4    1    3    3  502    0 -0.26126540545E+03  0.57891179775E+03  0.27430829322E+03  0.69184184196E+03  0.12699999809E+01 0.  1.
       -4    1    3    3    0  502  0.26126540545E+03 -0.57891179775E+03  0.53506128288E+02  0.63738763741E+03  0.12699999809E+01 0. -1.
</event>
<event>
 5   0  0.2756984E-04  0.1300548E+04  0.7818609E-02  0.9029131E-01
       -2   -1    0    0    0  501  0.00000000000E+00  0.00000000000E+00  0.59345752212E+03  0.59345752213E+03  0.25500000920E-02 0. -1.
        2   -1    0    0  501    0  0.00000000000E+00  0.00000000000E+00 -0.71252975099E+03  0.71252975099E+03  0.25500000920E-02 0.  1.
    10030    2    1    2    0    0  0.00000000000E+00  0.00000000000E+00 -0.11907222886E+03  0.13059872731E+04  0.13005477930E+04 0.  0.
        3    1    3    3  502    0  0.38968084524E+03 -0.39440884834E+03 -0.40073158508E+03  0.68410183034E+03  0.10100000352E+00 0.  1.
       -3    1    3    3    0  502 -0.38968084524E+03  0.39440884834E+03  0.28165935622E+03  0.62188544278E+03  0.10100000352E+00 0. -1.
</event>
<event>
 5   0  0.1476511E-04  0.1298804E+04  0.7818609E-02  0.9030514E-01
        1   -1    0    0  501    0  0.00000000000E+00  0.00000000000E+00  0.81034659940E+03  0.81034659942E+03  0.50400001928E-02 0. -1.
       -1   -1    0    0    0  501  0.00000000000E+00  0.00000000000E+00 -0.52042319304E+03  0.52042319307E+03  0.50400001928E-02 0.  1.
    10030    2    1    2    0    0  0.00000000000E+00  0.00000000000E+00  0.28992340636E+03  0.13307697925E+04  0.12988043190E+04 0.  0.
        2    1    3    3  502    0 -0.96402272707E+02  0.47440968605E+03 -0.29854858067E+03  0.56876111279E+03  0.25500000920E-02 0.  1.
       -2    1    3    3    0  502  0.96402272707E+02 -0.47440968605E+03  0.58847198703E+03  0.76200867969E+03  0.25500000920E-02 0. -1.
</event>
<event>
 5   0  0.2756984E-04  0.1327605E+04  0.7818609E-02  0.9007956E-01
        2   -1    0    0  501    0  0.00000000000E+00  0.00000000000E+00  0.96806320256E+03  0.96806320256E+03  0.25500000920E-02 0.  1.
       -2   -1    0    0    0  501  0.00000000000E+00  0.00000000000E+00 -0.45517054512E+03  0.45517054513E+03  0.25500000920E-02 0. -1.
    10030    2    1    2    0    0  0.00000000000E+00  0.00000000000E+00  0.51289265744E+03  0.14232337477E+04  0.13276051456E+04 0.  0.
        3    1    3    3  502    0  0.44696976652E+03  0.39462093846E+03  0.56922627418E+03  0.82433380294E+03  0.10100000352E+00 0.  1.
       -3    1    3    3    0  502 -0.44696976652E+03 -0.39462093846E+03 -0.56333616737E+02  0.59889994475E+03  0.10100000352E+00 0. -1.
</event>
<event>
 5   0  0.1408341E-04  0.1299707E+04  0.7818609E-02  0.9029797E-01
       -1   -1    0    0    0  501  0.00000000000E+00  0.00000000000E+00  0.29056425799E+03  0.29056425804E+03  0.50400001928E-02 0. -1.
        1   -1    0    0  501    0  0.00000000000E+00  0.00000000000E+00 -0.14534129892E+04  0.14534129892E+04  0.50400001928E-02 0.  1.
    10030    2    1    2    0    0  0.00000000000E+00  0.00000000000E+00 -0.11628487312E+04  0.17439772472E+04  0.12997074545E+04 0.  0.
        5    1    3    3  502    0  0.22297694239E+03  0.44676345569E+03 -0.11394863624E+04  0.12440930682E+04  0.46999998093E+01 0.  1.
       -5    1    3    3    0  502 -0.22297694239E+03 -0.44676345569E+03 -0.23362368759E+02  0.49988417903E+03  0.46999998093E+01 0. -1.
</event>
<event>
 5   0  0.2661377E-04  0.1299186E+04  0.7818609E-02  0.9030211E-01
       -2   -1    0    0    0  501  0.00000000000E+00  0.00000000000E+00  0.40136732078E+03  0.40136732078E+03  0.25500000920E-02 0.  1.
        2   -1    0    0  501    0  0.00000000000E+00  0.00000000000E+00 -0.10513342369E+04  0.10513342369E+04  0.25500000920E-02 0. -1.
    10030    2    1    2    0    0  0.00000000000E+00  0.00000000000E+00 -0.64996691612E+03  0.14527015577E+04  0.12991862159E+04 0.  0.
        5    1    3    3  502    0  0.89922825048E+01  0.28487378508E+03  0.32769719671E+03  0.43432876637E+03  0.46999998093E+01 0.  1.
       -5    1    3    3    0  502 -0.89922825048E+01 -0.28487378508E+03 -0.97766411283E+03  0.10183727913E+04  0.46999998093E+01 0. -1.
</event>
<event>
 5   0  0.1475396E-04  0.1298165E+04  0.7818609E-02  0.9031022E-01
       -1   -1    0    0    0  501  0.00000000000E+00  0.00000000000E+00  0.29247893265E+03  0.29247893269E+03  0.50400001928E-02 0.  1.
        1   -1    0    0  501    0  0.00000000000E+00  0.00000000000E+00 -0.14404732963E+04  0.14404732963E+04  0.50400001928E-02 0. -1.
    10030    2    1    2    0    0  0.00000000000E+00  0.00000000000E+00 -0.11479943636E+04  0.17329522290E+04  0.12981650007E+04 0.  0.
        3    1    3    3  502    0 -0.16190483264E+03 -0.52783334234E+02 -0.14101212689E+04  0.14203665929E+04  0.10100000352E+00 0. -1.
       -3    1    3    3    0  502  0.16190483264E+03  0.52783334234E+02  0.26212690524E+03  0.31258563604E+03  0.10100000352E+00 0.  1.
</event>
<event>
 5   0  0.1408341E-04  0.1299582E+04  0.7818609E-02  0.9029897E-01
       -1   -1    0    0    0  501  0.00000000000E+00  0.00000000000E+00  0.49513036839E+03  0.49513036842E+03  0.50400001928E-02 0. -1.
        1   -1    0    0  501    0  0.00000000000E+00  0.00000000000E+00 -0.85276141021E+03  0.85276141023E+03  0.50400001928E-02 0.  1.
    10030    2    1    2    0    0  0.00000000000E+00  0.00000000000E+00 -0.35763104182E+03  0.13478917786E+04  0.12995815807E+04 0.  0.
        5    1    3    3  502    0  0.28177785077E+02 -0.14787654860E+03  0.47677711445E+03  0.49999996806E+03  0.46999998093E+01 0. -1.
       -5    1    3    3    0  502 -0.28177785077E+02  0.14787654860E+03 -0.83440815627E+03  0.84789181058E+03  0.46999998093E+01 0.  1.
</event>
<event>
 5   0  0.2661377E-04  0.1302545E+04  0.7818609E-02  0.9027549E-01
       -2   -1    0    0    0  501  0.00000000000E+00  0.00000000000E+00  0.51784310594E+03  0.51784310595E+03  0.25500000920E-02 0. -1.
        2   -1    0    0  501    0  0.00000000000E+00  0.00000000000E+00 -0.81908203746E+03  0.81908203746E+03  0.25500000920E-02 0.  1.
    10030    2    1    2    0    0  0.00000000000E+00  0.00000000000E+00 -0.30123893152E+03  0.13369251434E+04  0.13025451797E+04 0.  0.
        5    1    3    3  502    0  0.57729945059E+03 -0.64960095719E+02  0.15149538903E+03  0.60038938414E+03  0.46999998093E+01 0. -1.
       -5    1    3    3    0  502 -0.57729945059E+03  0.64960095719E+02 -0.45273432055E+03  0.73653575927E+03  0.46999998093E+01 0.  1.
</event>
<event>
 5   0  0.1475396E-04  0.1296143E+04  0.7818609E-02  0.9032629E-01
       -1   -1    0    0    0  501  0.00000000000E+00  0.00000000000E+00  0.37169547407E+03  0.37169547411E+03  0.50400001928E-02 0. -1.
        1   -1    0    0  501    0  0.00000000000E+00  0.00000000000E+00 -0.11299486907E+04  0.11299486907E+04  0.50400001928E-02 0.  1.
    10030    2    1    2    0    0  0.00000000000E+00  0.00000000000E+00 -0.75825321662E+03  0.15016441648E+04  0.12961432240E+04 0.  0.
        3    1    3    3  502    0 -0.42661135310E+03 -0.20828950624E+03  0.13196910442E+03  0.49274498447E+03  0.10100000352E+00 0. -1.
       -3    1    3    3    0  502  0.42661135310E+03  0.20828950624E+03 -0.89022232104E+03  0.10088991803E+04  0.10100000352E+00 0.  1.
</event>
<event>
 5   0  0.1476511E-04  0.1298023E+04  0.7818609E-02  0.9031134E-01
        1   -1    0    0  501    0  0.00000000000E+00  0.00000000000E+00  0.15068913199E+04  0.15068913199E+04  0.50400001928E-02 0. -1.
       -1   -1    0    0    0  501  0.00000000000E+00  0.00000000000E+00 -0.27952659924E+03  0.27952659929E+03  0.50400001928E-02 0.  1.
    10030    2    1    2    0    0  0.00000000000E+00  0.00000000000E+00  0.12273647207E+04  0.17864179192E+04  0.12980234299E+04 0.  0.
        2    1    3    3  502    0 -0.43481486132E+03  0.87788215329E+01 -0.49319699637E+02  0.43769106013E+03  0.25500000920E-02 0.  1.
       -2    1    3    3    0  502  0.43481486132E+03 -0.87788215329E+01  0.12766844203E+04  0.13487268591E+04  0.25500000920E-02 0. -1.
</event>
<event>
 5   0  0.2723209E-04  0.1300046E+04  0.7818609E-02  0.9029529E-01
       -2   -1    0    0    0  501  0.00000000000E+00  0.00000000000E+00  0.21197168446E+03  0.21197168447E+03  0.25500000920E-02 0.  1.
        2   -1    0    0  501    0  0.00000000000E+00  0.00000000000E+00 -0.19933316194E+04  0.19933316194E+04  0.25500000920E-02 0. -1.
    10030    2    1    2    0    0  0.00000000000E+00  0.00000000000E+00 -0.17813599350E+04  0.22053033039E+04  0.13000459393E+04 0.  0.
        2    1    3    3  502    0  0.58478109545E+02  0.52906252360E+03 -0.15235783043E+04  0.16138828001E+04  0.25500000920E-02 0. -1.
       -2    1    3    3    0  502 -0.58478109545E+02 -0.52906252360E+03 -0.25778163067E+03  0.59142050378E+03  0.25500000920E-02 0.  1.
</event>
<event>
 5   0  0.2723209E-04  0.1300512E+04  0.7818609E-02  0.9029160E-01
        2   -1    0    0  501    0  0.00000000000E+00  0.00000000000E+00  0.12712086323E+04  0.12712086323E+04  0.25500000920E-02 0.  1.
       -2   -1    0    0    0  501  0.00000000000E+00  0.00000000000E+00 -0.33262247847E+03  0.33262247848E+03  0.25500000920E-02 0. -1.
    10030    2    1    2    0    0  0.00000000000E+00  0.00000000000E+00  0.93858615382E+03  0.16038311108E+04  0.13005115393E+04 0.  0.
        2    1    3    3  502    0 -0.43450067902E+03 -0.27311519329E+03  0.96173660739E+03  0.10901009361E+04  0.25500000920E-02 0.  1.
       -2    1    3    3    0  502  0.43450067902E+03  0.27311519329E+03 -0.23150453570E+02  0.51373017468E+03  0.25500000920E-02 0. -1.
</event>
<event>
 5   0  0.2573071E-04  0.1302371E+04  0.7818609E-02  0.9027687E-01
        2   -1    0    0  501    0  0.00000000000E+00  0.00000000000E+00  0.68672512740E+03  0.68672512740E+03  0.25500000920E-02 0.  1.
       -2   -1    0    0    0  501  0.00000000000E+00  0.00000000000E+00 -0.61748519885E+03  0.61748519885E+03  0.25500000920E-02 0. -1.
    10030    2    1    2    0    0  0.00000000000E+00  0.00000000000E+00  0.69239928552E+02  0.13042103263E+04  0.13023710713E+04 0.  0.
        4    1    3    3  502    0 -0.39290821494E+03 -0.70906412003E+02 -0.48053476013E+03  0.62475583488E+03  0.12699999809E+01 0. -1.
       -4    1    3    3    0  502  0.39290821494E+03  0.70906412003E+02  0.54977468868E+03  0.67945449137E+03  0.12699999809E+01 0.  1.
</event>
<event>
 5   0  0.2794825E-04  0.1299825E+04  0.7818609E-02  0.9029704E-01
        2   -1    0    0  501    0  0.00000000000E+00  0.00000000000E+00  0.12055513977E+04  0.12055513977E+04  0.25500000920E-02 0. -1.
       -2   -1    0    0    0  501  0.00000000000E+00  0.00000000000E+00 -0.35036783817E+03  0.35036783818E+03  0.25500000920E-02 0.  1.
    10030    2    1    2    0    0  0.00000000000E+00  0.00000000000E+00  0.85518355949E+03  0.15559192358E+04  0.12998252760E+04 0.  0.
        1    1    3    3  502    0  0.88483451457E+02 -0.32920267026E+03 -0.23476564502E+03  0.41390654427E+03  0.50400001928E-02 0.  1.
       -1    1    3    3    0  502 -0.88483451457E+02  0.32920267026E+03  0.10899492045E+04  0.11420126916E+04  0.50400001928E-02 0. -1.
</event>
<event>
 5   0  0.1002887E-04  0.1298909E+04  0.7818609E-02  0.9030431E-01
        4   -1    0    0  501    0  0.00000000000E+00  0.00000000000E+00  0.54441253031E+03  0.54441401163E+03  0.12699999809E+01 0.  1.
       -4   -1    0    0    0  501  0.00000000000E+00  0.00000000000E+00 -0.77476033107E+03  0.77476137197E+03  0.12699999809E+01 0. -1.
    10030    2    1    2    0    0  0.00000000000E+00  0.00000000000E+00 -0.23034780076E+03  0.13191753836E+04  0.12989086124E+04 0.  0.
        5    1    3    3  502    0  0.63396989665E+03  0.82986692292E+02  0.46302879142E+00  0.63939575019E+03  0.46999998093E+01 0.  1.
       -5    1    3    3    0  502 -0.63396989665E+03 -0.82986692292E+02 -0.23081082955E+03  0.67977963341E+03  0.46999998093E+01 0. -1.
</event>
<event>
 5   0  0.2573071E-04  0.1299202E+04  0.7818609E-02  0.9030198E-01
        2   -1    0    0  501    0  0.00000000000E+00  0.00000000000E+00  0.14040974267E+04  0.14040974267E+04  0.25500000920E-02 0.  1.
       -2   -1    0    0    0  501  0.00000000000E+00  0.00000000000E+00 -0.30053559309E+03  0.30053559310E+03  0.25500000920E-02 0. -1.
    10030    2    1    2    0    0  0.00000000000E+00  0.00000000000E+00  0.11035618336E+04  0.17046330198E+04  0.12992016824E+04 0.  0.
        4    1    3    3  502    0  0.45620601869E+03  0.40840277617E+03  0.26714245955E+03  0.66804450875E+03  0.12699999809E+01 0. -1.
       -4    1    3    3    0  502 -0.45620601869E+03 -0.40840277617E+03  0.83641937408E+03  0.10365885111E+04  0.12699999809E+01 0.  1.
</event>
<event>
 5   0  0.2756984E-04  0.1295164E+04  0.7818609E-02  0.9033409E-01
       -2   -1    0    0    0  501  0.00000000000E+00  0.00000000000E+00  0.36568041200E+03  0.36568041201E+03  0.25500000920E-02 0.  1.
        2   -1    0    0  501    0  0.00000000000E+00  0.00000000000E+00 -0.11468002406E+04  0.11468002406E+04  0.25500000920E-02 0. -1.
    10030    2    1    2    0    0  0.00000000000E+00  0.00000000000E+00 -0.78111982861E+03  0.15124806526E+04  0.12951639039E+04 0.  0.
        3    1    3    3  502    0  0.39876759544E+03 -0.15162632481E+03  0.17837871171E+03  0.46241227551E+03  0.10100000352E+00 0.  1.
       -3    1    3    3    0  502 -0.39876759544E+03  0.15162632481E+03 -0.95949854032E+03  0.10500683771E+04  0.10100000352E+00 0. -1.
</event>
<event>
 5   0  0.1002887E-04  0.1303972E+04  0.7818609E-02  0.9026422E-01
       -3   -1    0    0    0  501  0.00000000000E+00  0.00000000000E+00  0.13913754224E+04  0.13913754260E+04  0.10100000352E+00 0. -1.
        3   -1    0    0  501    0  0.00000000000E+00  0.00000000000E+00 -0.30551457372E+03  0.30551459041E+03  0.10100000352E+00 0.  1.
    10030    2    1    2    0    0  0.00000000000E+00  0.00000000000E+00  0.10858608487E+04  0.16968900165E+04  0.13039716045E+04 0.  0.
        1    1    3    3  502    0  0.40030925919E+03  0.31684816938E+03  0.15219373892E+02  0.51075619898E+03  0.50400001928E-02 0.  1.
       -1    1    3    3    0  502 -0.40030925919E+03 -0.31684816938E+03  0.10706414748E+04  0.11861338175E+04  0.50400001928E-02 0. -1.
</event>
<event>
 5   0  0.1002887E-04  0.1289980E+04  0.7818609E-02  0.9037549E-01
       -3   -1    0    0    0  501  0.00000000000E+00  0.00000000000E+00  0.69696990771E+03  0.69696991503E+03  0.10100000352E+00 0.  1.
        3   -1    0    0  501    0  0.00000000000E+00  0.00000000000E+00 -0.59688666838E+03  0.59688667693E+03  0.10100000352E+00 0. -1.
    10030    2    1    2    0    0  0.00000000000E+00  0.00000000000E+00  0.10008323933E+03  0.12938565920E+04  0.12899799323E+04 0.  0.
        1    1    3    3  502    0  0.12758918288E+02  0.29123519541E+03 -0.52704065682E+03  0.60228945119E+03  0.50400001928E-02 0. -1.
       -1    1    3    3    0  502 -0.12758918288E+02 -0.29123519541E+03  0.62712389615E+03  0.69156714077E+03  0.50400001928E-02 0.  1.
</event>
<event>
 5   0  0.1475396E-04  0.1302755E+04  0.7818609E-02  0.9027383E-01
       -1   -1    0    0    0  501  0.00000000000E+00  0.00000000000E+00  0.31748055195E+03  0.31748055199E+03  0.50400001928E-02 0. -1.
        1   -1    0    0  501    0  0.00000000000E+00  0.00000000000E+00 -0.13364376087E+04  0.13364376087E+04  0.50400001928E-02 0.  1.
    10030    2    1    2    0    0  0.00000000000E+00  0.00000000000E+00 -0.10189570567E+04  0.16539181607E+04  0.13027554639E+04 0.  0.
        3    1    3    3  502    0  0.50727825182E+02  0.57304324753E+03 -0.89734968520E+03  0.10659213590E+04  0.10100000352E+00 0.  1.
       -3    1    3    3    0  502 -0.50727825182E+02 -0.57304324753E+03 -0.12160737151E+03  0.58799680169E+03  0.10100000352E+00 0. -1.
</event>
<event>
 5   0  0.2661377E-04  0.1296690E+04  0.7818609E-02  0.9032194E-01
       -2   -1    0    0    0  501  0.00000000000E+00  0.00000000000E+00  0.10834968231E+04  0.10834968231E+04  0.25500000920E-02 0.  1.
        2   -1    0    0  501    0  0.00000000000E+00  0.00000000000E+00 -0.38795780171E+03  0.38795780171E+03  0.25500000920E-02 0. -1.
    10030    2    1    2    0    0  0.00000000000E+00  0.00000000000E+00  0.69553902137E+03  0.14714546248E+04  0.12966897017E+04 0.  0.
        5    1    3    3  502    0  0.43187637491E+03  0.39956330090E+03  0.65679789407E+03  0.88180133720E+03  0.46999998093E+01 0.  1.
       -5    1    3    3    0  502 -0.43187637491E+03 -0.39956330090E+03  0.38741127304E+02  0.58965328760E+03  0.46999998093E+01 0. -1.
</event>
<event>
 5   0  0.1430636E-04  0.1298885E+04  0.7818609E-02  0.9030450E-01
        1   -1    0    0  501    0  0.00000000000E+00  0.00000000000E+00  0.43441921514E+03  0.43441921517E+03  0.50400001928E-02 0.  1.
       -1   -1    0    0    0  501  0.00000000000E+00  0.00000000000E+00 -0.97089516104E+03  0.97089516105E+03  0.50400001928E-02 0. -1.
    10030    2    1    2    0    0  0.00000000000E+00  0.00000000000E+00 -0.53647594589E+03  0.14053143762E+04  0.12988849277E+04 0.  0.
        4    1    3    3  502    0  0.57793960833E+03  0.55171415548E+02 -0.58314698112E+03  0.82287307069E+03  0.12699999809E+01 0.  1.
       -4    1    3    3    0  502 -0.57793960833E+03 -0.55171415548E+02  0.46671035226E+02  0.58244130554E+03  0.12699999809E+01 0. -1.
</event>
<event>
 5   0  0.2794825E-04  0.1300018E+04  0.7818609E-02  0.9029551E-01
        2   -1    0    0  501    0  0.00000000000E+00  0.00000000000E+00  0.18818393611E+04  0.18818393612E+04  0.25500000920E-02 0. -1.
       -2   -1    0    0    0  501  0.00000000000E+00  0.00000000000E+00 -0.22452071130E+03  0.22452071132E+03  0.25500000920E-02 0.  1.
    10030    2    1    2    0    0  0.00000000000E+00  0.00000000000E+00  0.16573186498E+04  0.21063600725E+04  0.13000183259E+04 0.  0.
        1    1    3    3  502    0  0.45493820275E+03  0.35744416775E+03  0.13086944730E+04  0.14308795634E+04  0.50400001928E-02 0.  1.
       -1    1    3    3    0  502 -0.45493820275E+03 -0.35744416775E+03  0.34862417686E+03  0.67548050904E+03  0.50400001928E-02 0. -1.
</event>
<event>
 5   0  0.1002887E-04  0.1309907E+04  0.7818609E-02  0.9021746E-01
        3   -1    0    0  501    0  0.00000000000E+00  0.00000000000E+00  0.36351054118E+03  0.36351055521E+03  0.10100000352E+00 0.  1.
       -3   -1    0    0    0  501  0.00000000000E+00  0.00000000000E+00 -0.11800587581E+04  0.11800587624E+04  0.10100000352E+00 0. -1.
    10030    2    1    2    0    0  0.00000000000E+00  0.00000000000E+00 -0.81654821693E+03  0.15435693176E+04  0.13099065798E+04 0.  0.
        5    1    3    3  502    0 -0.17302479138E+03  0.59881032469E+03 -0.17133349820E+03  0.64644306864E+03  0.46999998093E+01 0.  1.
       -5    1    3    3    0  502  0.17302479138E+03 -0.59881032469E+03 -0.64521471873E+03  0.89712624900E+03  0.46999998093E+01 0. -1.
</event>
<event>
 5   0  0.2723209E-04  0.1298889E+04  0.7818609E-02  0.9030447E-01
       -2   -1    0    0    0  501  0.00000000000E+00  0.00000000000E+00  0.34150551046E+03  0.34150551047E+03  0.25500000920E-02 0.  1.
        2   -1    0    0  501    0  0.00000000000E+00  0.00000000000E+00 -0.12350554600E+04  0.12350554600E+04  0.25500000920E-02 0. -1.
    10030    2    1    2    0    0  0.00000000000E+00  0.00000000000E+00 -0.89354994949E+03  0.15765609704E+04  0.12988891335E+04 0.  0.
        2    1    3    3  502    0 -0.56140712343E+03  0.29480853345E+03 -0.27646430123E+03  0.69175323598E+03  0.25500000920E-02 0.  1.
       -2    1    3    3    0  502  0.56140712343E+03 -0.29480853345E+03 -0.61708564826E+03  0.88480773444E+03  0.25500000920E-02 0. -1.
</event>
<event>
 5   0  0.1408341E-04  0.1294560E+04  0.7818609E-02  0.9033890E-01
       -1   -1    0    0    0  501  0.00000000000E+00  0.00000000000E+00  0.85906105538E+03  0.85906105540E+03  0.50400001928E-02 0.  1.
        1   -1    0    0  501    0  0.00000000000E+00  0.00000000000E+00 -0.48770842752E+03  0.48770842755E+03  0.50400001928E-02 0. -1.
    10030    2    1    2    0    0  0.00000000000E+00  0.00000000000E+00  0.37135262786E+03  0.13467694829E+04  0.12945598735E+04 0.  0.
        5    1    3    3  502    0 -0.48169703136E+03  0.42385256022E+03  0.27435615559E+03  0.69783695297E+03  0.46999998093E+01 0.  1.
       -5    1    3    3    0  502  0.48169703136E+03 -0.42385256022E+03  0.96996472271E+02  0.64893252997E+03  0.46999998093E+01 0. -1.
</event>
<event>
 5   0  0.2573071E-04  0.1300141E+04  0.7818609E-02  0.9029453E-01
        2   -1    0    0  501    0  0.00000000000E+00  0.00000000000E+00  0.23383053606E+04  0.23383053606E+04  0.25500000920E-02 0. -1.
       -2   -1    0    0    0  501  0.00000000000E+00  0.00000000000E+00 -0.18072571908E+03  0.18072571910E+03  0.25500000920E-02 0.  1.
    10030    2    1    2    0    0  0.00000000000E+00  0.00000000000E+00  0.21575796415E+04  0.25190310797E+04  0.13001414042E+04 0.  0.
        4    1    3    3  502    0 -0.11118392508E+03  0.42999864732E+03  0.19985022644E+04  0.20472600264E+04  0.12699999809E+01 0. -1.
       -4    1    3    3    0  502  0.11118392508E+03 -0.42999864732E+03  0.15907737705E+03  0.47177105324E+03  0.12699999809E+01 0.  1.
</event>
<event>
 5   0  0.2661377E-04  0.1302842E+04  0.7818609E-02  0.9027315E-01
       -2   -1    0    0    0  501  0.00000000000E+00  0.00000000000E+00  0.82841650896E+03  0.82841650896E+03  0.25500000920E-02 0. -1.
        2   -1    0    0  501    0  0.00000000000E+00  0.00000000000E+00 -0.51224146467E+03  0.51224146467E+03  0.25500000920E-02 0.  1.
    10030    2    1    2    0    0  0.00000000000E+00  0.00000000000E+00  0.31617504429E+03  0.13406579736E+04  0.13028419488E+04 0.  0.
        5    1    3    3  502    0 -0.91908559643E+02  0.10419135112E+03 -0.49680002910E+03  0.51588310682E+03  0.46999998093E+01 0.  1.
       -5    1    3    3    0  502  0.91908559643E+02 -0.10419135112E+03  0.81297507339E+03  0.82477486682E+03  0.46999998093E+01 0. -1.
</event>
<event>
 5   0  0.1430636E-04  0.1301641E+04  0.7818609E-02  0.9028265E-01
        1   -1    0    0  501    0  0.00000000000E+00  0.00000000000E+00  0.16240600836E+04  0.16240600837E+04  0.50400001928E-02 0. -1.
       -1   -1    0    0    0  501  0.00000000000E+00  0.00000000000E+00 -0.26080756410E+03  0.26080756415E+03  0.50400001928E-02 0.  1.
    10030    2    1    2    0    0  0.00000000000E+00  0.00000000000E+00  0.13632525195E+04  0.18848676478E+04  0.13016407406E+04 0.  0.
        4    1    3    3  502    0  0.39090765603E+03  0.11678412055E+01  0.14351176185E+04  0.14874052411E+04  0.12699999809E+01 0. -1.
       -4    1    3    3    0  502 -0.39090765603E+03 -0.11678412055E+01 -0.71865098971E+02  0.39746240671E+03  0.12699999809E+01 0.  1.
</event>
<event>
 5   0  0.2756984E-04  0.1300804E+04  0.7818609E-02  0.9028928E-01
       -2   -1    0    0    0  501  0.00000000000E+00  0.00000000000E+00  0.36120785464E+03  0.36120785465E+03  0.25500000920E-02 0.  1.
        2   -1    0    0  501    0  0.00000000000E+00  0.00000000000E+00 -0.11711335823E+04  0.11711335823E+04  0.25500000920E-02 0. -1.
    10030    2    1    2    0    0  0.00000000000E+00  0.00000000000E+00 -0.80992572769E+03  0.15323414370E+04  0.13008038265E+04 0.  0.
        3    1    3    3  502    0 -0.25173256428E+03 -0.57676613896E+03 -0.59850644580E+03  0.86846902008E+03  0.10100000352E+00 0. -1.
       -3    1    3    3    0  502  0.25173256428E+03  0.57676613896E+03 -0.21141928189E+03  0.66387241690E+03  0.10100000352E+00 0.  1.
</event>
<event>
 5   0  0.1408341E-04  0.1298140E+04  0.7818609E-02  0.9031042E-01
       -1   -1    0    0    0  501  0.00000000000E+00  0.00000000000E+00  0.56648553154E+03  0.56648553156E+03  0.50400001928E-02 0.  1.
        1   -1    0    0  501    0  0.00000000000E+00  0.00000000000E+00 -0.74369371768E+03  0.74369371769E+03  0.50400001928E-02 0. -1.
    10030    2    1    2    0    0  0.00000000000E+00  0.00000000000E+00 -0.17720818614E+03  0.13101792493E+04  0.12981397937E+04 0.  0.
        5    1    3    3  502    0 -0.33016554784E+03  0.20479918792E+03  0.43613866172E+03  0.58411558667E+03  0.46999998093E+01 0.  1.
       -5    1    3    3    0  502  0.33016554784E+03 -0.20479918792E+03 -0.61334684786E+03  0.72606366258E+03  0.46999998093E+01 0. -1.
</event>
<event>
 5   0  0.1475396E-04  0.1298746E+04  0.7818609E-02  0.9030560E-01
        1   -1    0    0  501    0  0.00000000000E+00  0.00000000000E+00  0.13125701397E+04  0.13125701397E+04  0.50400001928E-02 0. -1.
       -1   -1    0    0    0  501  0.00000000000E+00  0.00000000000E+00 -0.32126672744E+03  0.32126672748E+03  0.50400001928E-02 0.  1.
    10030    2    1    2    0    0  0.00000000000E+00  0.00000000000E+00  0.99130341224E+03  0.16338368672E+04  0.12987457231E+04 0.  0.
        3    1    3    3  502    0 -0.95163021394E+02 -0.64224978504E+03  0.51076440353E+03  0.82608781200E+03  0.10100000352E+00 0.  1.
       -3    1    3    3    0  502  0.95163021394E+02  0.64224978504E+03  0.48053900871E+03  0.80774905516E+03  0.10100000352E+00 0. -1.
</event>
<event>
 5   0  0.1475396E-04  0.1299523E+04  0.7818609E-02  0.9029944E-01
        1   -1    0    0  501    0  0.00000000000E+00  0.00000000000E+00  0.76984543841E+03  0.76984543843E+03  0.50400001928E-02 0. -1.
       -1   -1    0    0    0  501  0.00000000000E+00  0.00000000000E+00 -0.54840845382E+03  0.54840845384E+03  0.50400001928E-02 0.  1.
    10030    2    1    2    0    0  0.00000000000E+00  0.00000000000E+00  0.22143698459E+03  0.13182538923E+04  0.12995225994E+04 0.  0.
        3    1    3    3  502    0 -0.57661461801E+03  0.28131914570E+03  0.64514543347E+01  0.64161243045E+03  0.10100000352E+00 0.  1.
       -3    1    3    3    0  502  0.57661461801E+03 -0.28131914570E+03  0.21498553026E+03  0.67664146182E+03  0.10100000352E+00 0. -1.
</event>
<event>
 5   0  0.1479690E-04  0.1298900E+04  0.7818609E-02  0.9030438E-01
       -1   -1    0    0    0  501  0.00000000000E+00  0.00000000000E+00  0.62631490688E+03  0.62631490690E+03  0.50400001928E-02 0.  1.
        1   -1    0    0  501    0  0.00000000000E+00  0.00000000000E+00 -0.67343918793E+03  0.67343918794E+03  0.50400001928E-02 0. -1.
    10030    2    1    2    0    0  0.00000000000E+00  0.00000000000E+00 -0.47124281046E+02  0.12997540948E+04  0.12988995378E+04 0.  0.
        1    1    3    3  502    0 -0.54746675195E+03  0.69026635224E+02 -0.36627904725E+03  0.66230269616E+03  0.50400001928E-02 0. -1.
       -1    1    3    3    0  502  0.54746675195E+03 -0.69026635224E+02  0.31915476620E+03  0.63745139868E+03  0.50400001928E-02 0.  1.
</event>
<event>
 5   0  0.2756984E-04  0.1300120E+04  0.7818609E-02  0.9029470E-01
        2   -1    0    0  501    0  0.00000000000E+00  0.00000000000E+00  0.11147904665E+04  0.11147904665E+04  0.25500000920E-02 0.  1.
       -2   -1    0    0    0  501  0.00000000000E+00  0.00000000000E+00 -0.37906497903E+03  0.37906497904E+03  0.25500000920E-02 0. -1.
    10030    2    1    2    0    0  0.00000000000E+00  0.00000000000E+00  0.73572548750E+03  0.14938554456E+04  0.13001200326E+04 0.  0.
        3    1    3    3  502    0 -0.23513492319E+03  0.28783453567E+03 -0.24494058820E+03  0.44512139240E+03  0.10100000352E+00 0. -1.
       -3    1    3    3    0  502  0.23513492319E+03 -0.28783453567E+03  0.98066607571E+03  0.10487340532E+04  0.10100000352E+00 0.  1.
</event>
<event>
 5   0  0.1002887E-04  0.1271766E+04  0.7818609E-02  0.9052259E-01
       -3   -1    0    0    0  501  0.00000000000E+00  0.00000000000E+00  0.97142418542E+03  0.97142419067E+03  0.10100000352E+00 0.  1.
        3   -1    0    0  501    0  0.00000000000E+00  0.00000000000E+00 -0.41624178478E+03  0.41624179704E+03  0.10100000352E+00 0. -1.
    10030    2    1    2    0    0  0.00000000000E+00  0.00000000000E+00  0.55518240063E+03  0.13876659877E+04  0.12717662503E+04 0.  0.
        2    1    3    3  502    0  0.14227937239E+03  0.53643252240E+03 -0.61089274861E+02  0.55833249091E+03  0.25500000920E-02 0. -1.
       -2    1    3    3    0  502 -0.14227937239E+03 -0.53643252240E+03  0.61627167549E+03  0.82933349680E+03  0.25500000920E-02 0.  1.
</event>
<event>
 5   0  0.2756984E-04  0.1299017E+04  0.7818609E-02  0.9030345E-01
       -2   -1    0    0    0  501  0.00000000000E+00  0.00000000000E+00  0.91330880505E+03  0.91330880505E+03  0.25500000920E-02 0.  1.
        2   -1    0    0  501    0  0.00000000000E+00  0.00000000000E+00 -0.46190398019E+03  0.46190398019E+03  0.25500000920E-02 0. -1.
    10030    2    1    2    0    0  0.00000000000E+00  0.00000000000E+00  0.45140482486E+03  0.13752127852E+04  0.12990165083E+04 0.  0.
        3    1    3    3  502    0  0.37088625660E+03 -0.49272464502E+02  0.78776505488E+03  0.87209986985E+03  0.10100000352E+00 0.  1.
       -3    1    3    3    0  502 -0.37088625660E+03  0.49272464502E+02 -0.33636023002E+03  0.50311291540E+03  0.10100000352E+00 0. -1.
</event>
<event>
 5   0  0.2661377E-04  0.1297604E+04  0.7818609E-02  0.9031468E-01
        2   -1    0    0  501    0  0.00000000000E+00  0.00000000000E+00  0.84733831007E+03  0.84733831008E+03  0.25500000920E-02 0.  1.
       -2   -1    0    0    0  501  0.00000000000E+00  0.00000000000E+00 -0.49678374669E+03  0.49678374669E+03  0.25500000920E-02 0. -1.
    10030    2    1    2    0    0  0.00000000000E+00  0.00000000000E+00  0.35055456338E+03  0.13441220568E+04  0.12976037922E+04 0.  0.
        5    1    3    3  502    0  0.12516961349E+03  0.46189396711E+03 -0.27850081349E+03  0.55371315869E+03  0.46999998093E+01 0. -1.
       -5    1    3    3    0  502 -0.12516961349E+03 -0.46189396711E+03  0.62905537688E+03  0.79040889808E+03  0.46999998093E+01 0.  1.
</event>
<event>
 5   0  0.1476511E-04  0.1298767E+04  0.7818609E-02  0.9030543E-01
       -1   -1    0    0    0  501  0.00000000000E+00  0.00000000000E+00  0.37727994341E+03  0.37727994345E+03  0.50400001928E-02 0.  1.
        1   -1    0    0  501    0  0.00000000000E+00  0.00000000000E+00 -0.11177356586E+04  0.11177356587E+04  0.50400001928E-02 0. -1.
    10030    2    1    2    0    0  0.00000000000E+00  0.00000000000E+00 -0.74045571523E+03  0.14950156021E+04  0.12987674866E+04 0.  0.
        2    1    3    3  502    0 -0.28436222879E+03 -0.31869081359E+02  0.30079898096E+03  0.41515965900E+03  0.25500000920E-02 0.  1.
       -2    1    3    3    0  502  0.28436222879E+03  0.31869081359E+02 -0.10412546962E+04  0.10798559431E+04  0.25500000920E-02 0. -1.
</event>
<event>
 5   0  0.1430636E-04  0.1301442E+04  0.7818609E-02  0.9028423E-01
        1   -1    0    0  501    0  0.00000000000E+00  0.00000000000E+00  0.92518528629E+03  0.92518528630E+03  0.50400001928E-02 0. -1.
       -1   -1    0    0    0  501  0.00000000000E+00  0.00000000000E+00 -0.45767860050E+03  0.45767860053E+03  0.50400001928E-02 0.  1.
    10030    2    1    2    0    0  0.00000000000E+00  0.00000000000E+00  0.46750668579E+03  0.13828638868E+04  0.13014415193E+04 0.  0.
        4    1    3    3  502    0  0.78173337245E+02  0.58531378291E+03 -0.56722366302E+02  0.59323042308E+03  0.12699999809E+01 0.  1.
       -4    1    3    3    0  502 -0.78173337245E+02 -0.58531378291E+03  0.52422905209E+03  0.78963346375E+03  0.12699999809E+01 0. -1.
</event>
<event>
 5   0  0.2723209E-04  0.1296285E+04  0.7818609E-02  0.9032516E-01
       -2   -1    0    0    0  501  0.00000000000E+00  0.00000000000E+00  0.27685920776E+03  0.27685920777E+03  0.25500000920E-02 0. -1.
        2   -1    0    0  501    0  0.00000000000E+00  0.00000000000E+00 -0.15173367615E+04  0.15173367615E+04  0.25500000920E-02 0.  1.
    10030    2    1    2    0    0  0.00000000000E+00  0.00000000000E+00 -0.12404775537E+04  0.17941959692E+04  0.12962849281E+04 0.  0.
        2    1    3    3  502    0  0.53049278317E+03  0.10278054459E+03 -0.12484820859E+03  0.55459310178E+03  0.25500000920E-02 0. -1.
       -2    1    3    3    0  502 -0.53049278317E+03 -0.10278054459E+03 -0.11156293451E+04  0.12396028674E+04  0.25500000920E-02 0.  1.
</event>
<event>
 5   0  0.2756984E-04  0.1298615E+04  0.7818609E-02  0.9030664E-01
       -2   -1    0    0    0  501  0.00000000000E+00  0.00000000000E+00  0.10609736979E+04  0.10609736979E+04  0.25500000920E-02 0.  1.
        2   -1    0    0  501    0  0.00000000000E+00  0.00000000000E+00 -0.39737099811E+03  0.39737099812E+03  0.25500000920E-02 0. -1.
    10030    2    1    2    0    0  0.00000000000E+00  0.00000000000E+00  0.66360269977E+03  0.14583446960E+04  0.12986149195E+04 0.  0.
        3    1    3    3  502    0 -0.80874051980E+02  0.35918830617E+03  0.93241569404E+03  0.10024748816E+04  0.10100000352E+00 0.  1.
       -3    1    3    3    0  502  0.80874051980E+02 -0.35918830617E+03 -0.26881299427E+03  0.45586981438E+03  0.10100000352E+00 0. -1.
</event>
<event>
 5   0  0.1479690E-04  0.1311300E+04  0.7818609E-02  0.9020652E-01
       -1   -1    0    0    0  501  0.00000000000E+00  0.00000000000E+00  0.10404225642E+04  0.10404225642E+04  0.50400001928E-02 0.  1.
        1   -1    0    0  501    0  0.00000000000E+00  0.00000000000E+00 -0.41317559087E+03  0.41317559090E+03  0.50400001928E-02 0. -1.
    10030    2    1    2    0    0  0.00000000000E+00  0.00000000000E+00  0.62724697331E+03  0.14535981551E+04  0.13113004350E+04 0.  0.
        1    1    3    3  502    0 -0.56363742820E+03  0.33310552747E+03  0.27473422540E+03  0.71001784311E+03  0.50400001928E-02 0. -1.
       -1    1    3    3    0  502  0.56363742820E+03 -0.33310552747E+03  0.35251274790E+03  0.74358031198E+03  0.50400001928E-02 0.  1.
</event>
<event>
 5   0  0.2661377E-04  0.1309542E+04  0.7818609E-02  0.9022032E-01
       -2   -1    0    0    0  501  0.00000000000E+00  0.00000000000E+00  0.56871797324E+03  0.56871797324E+03  0.25500000920E-02 0. -1.
        2   -1    0    0  501    0  0.00000000000E+00  0.00000000000E+00 -0.75384494513E+03  0.75384494514E+03  0.25500000920E-02 0.  1.
    10030    2    1    2    0    0  0.00000000000E+00  0.00000000000E+00 -0.18512697189E+03  0.13225629184E+04  0.13095421633E+04 0.  0.
        5    1    3    3  502    0  0.22008717742E+03 -0.24247687893E+03 -0.66518394767E+03  0.74143453973E+03  0.46999998093E+01 0.  1.
       -5    1    3    3    0  502 -0.22008717742E+03  0.24247687893E+03  0.48005697577E+03  0.58112837864E+03  0.46999998093E+01 0. -1.
</event>
<event>
 5   0  0.1430636E-04  0.1301300E+04  0.7818609E-02  0.9028535E-01
        1   -1    0    0  501    0  0.00000000000E+00  0.00000000000E+00  0.79652970329E+03  0.79652970331E+03  0.50400001928E-02 0. -1.
       -1   -1    0    0    0  501  0.00000000000E+00  0.00000000000E+00 -0.53148742593E+03  0.53148742596E+03  0.50400001928E-02 0.  1.
    10030    2    1    2    0    0  0.00000000000E+00  0.00000000000E+00  0.26504227736E+03  0.13280171293E+04  0.13013001525E+04 0.  0.
        4    1    3    3  502    0  0.99755446700E+01 -0.21754451857E+03  0.75823129914E+03  0.78888620532E+03  0.12699999809E+01 0. -1.
       -4    1    3    3    0  502 -0.99755446700E+01  0.21754451857E+03 -0.49318902178E+03  0.53913092395E+03  0.12699999809E+01 0.  1.
</event>
<event>
 5   0  0.1408341E-04  0.1293766E+04  0.7818609E-02  0.9034524E-01
        1   -1    0    0  501    0  0.00000000000E+00  0.00000000000E+00  0.18100015214E+03  0.18100015221E+03  0.50400001928E-02 0. -1.
       -1   -1    0    0    0  501  0.00000000000E+00  0.00000000000E+00 -0.23119180352E+04  0.23119180352E+04  0.50400001928E-02 0.  1.
    10030    2    1    2    0    0  0.00000000000E+00  0.00000000000E+00 -0.21309178830E+04  0.24929181874E+04  0.12937658462E+04 0.  0.
        5    1    3    3  502    0  0.16411505440E+03  0.66169617586E+02  0.13342453696E+03  0.22166724258E+03  0.46999998093E+01 0. -1.
       -5    1    3    3    0  502 -0.16411505440E+03 -0.66169617586E+02 -0.22643424200E+04  0.22712509448E+04  0.46999998093E+01 0.  1.
</event>
<event>
 5   0  0.2723209E-04  0.1301426E+04  0.7818609E-02  0.9028435E-01
        2   -1    0    0  501    0  0.00000000000E+00  0.00000000000E+00  0.11641506892E+04  0.11641506892E+04  0.25500000920E-02 0.  1.
       -2   -1    0    0    0  501  0.00000000000E+00  0.00000000000E+00 -0.36372215061E+03  0.36372215061E+03  0.25500000920E-02 0. -1.
    10030    2    1    2    0    0  0.00000000000E+00  0.00000000000E+00  0.80042853860E+03  0.15278728398E+04  0.13014259753E+04 0.  0.
        2    1    3    3  502    0 -0.61982238473E+03 -0.12006032970E+03  0.58521923773E+03  0.86085761168E+03  0.25500000920E-02 0.  1.
       -2    1    3    3    0  502  0.61982238473E+03  0.12006032970E+03  0.21520930087E+03  0.66701522814E+03  0.25500000920E-02 0. -1.
</event>
<event>
 5   0  0.1479690E-04  0.1305246E+04  0.7818609E-02  0.9025416E-01
        1   -1    0    0  501    0  0.00000000000E+00  0.00000000000E+00  0.45562353714E+03  0.45562353717E+03  0.50400001928E-02 0. -1.
       -1   -1    0    0    0  501  0.00000000000E+00  0.00000000000E+00 -0.93479950814E+03  0.93479950815E+03  0.50400001928E-02 0.  1.
    10030    2    1    2    0    0  0.00000000000E+00  0.00000000000E+00 -0.47917597099E+03  0.13904230453E+04  0.13052458136E+04 0.  0.
        1    1    3    3  502    0 -0.43434059543E+02 -0.23935194098E+03  0.40552273043E+03  0.47288957918E+03  0.50400001928E-02 0. -1.
       -1    1    3    3    0  502  0.43434059543E+02  0.23935194098E+03 -0.88469870142E+03  0.91753346615E+03  0.50400001928E-02 0.  1.
</event>
<event>
 5   0  0.1476511E-04  0.1301194E+04  0.7818609E-02  0.9028619E-01
       -1   -1    0    0    0  501  0.00000000000E+00  0.00000000000E+00  0.14419802648E+04  0.14419802648E+04  0.50400001928E-02 0.  1.
        1   -1    0    0  501    0  0.00000000000E+00  0.00000000000E+00 -0.29353839047E+03  0.29353839051E+03  0.50400001928E-02 0. -1.
    10030    2    1    2    0    0  0.00000000000E+00  0.00000000000E+00  0.11484418744E+04  0.17355186554E+04  0.13011941686E+04 0.  0.
        2    1    3    3  502    0  0.40380480339E+03 -0.13369340505E+03  0.12308250534E+04  0.13022528778E+04  0.25500000920E-02 0.  1.
       -2    1    3    3    0  502 -0.40380480339E+03  0.13369340505E+03 -0.82383178991E+02  0.43326577754E+03  0.25500000920E-02 0. -1.
</event>
<event>
 5   0  0.2661377E-04  0.1309677E+04  0.7818609E-02  0.9021926E-01
        2   -1    0    0  501    0  0.00000000000E+00  0.00000000000E+00  0.76835364506E+03  0.76835364506E+03  0.25500000920E-02 0. -1.
       -2   -1    0    0    0  501  0.00000000000E+00  0.00000000000E+00 -0.55809427389E+03  0.55809427390E+03  0.25500000920E-02 0.  1.
    10030    2    1    2    0    0  0.00000000000E+00  0.00000000000E+00  0.21025937117E+03  0.13264479190E+04  0.13096774712E+04 0.  0.
        5    1    3    3  502    0  0.30669030137E+03 -0.40171413545E+03 -0.31656527021E+03  0.59637978493E+03  0.46999998093E+01 0.  1.
       -5    1    3    3    0  502 -0.30669030137E+03  0.40171413545E+03  0.52682464137E+03  0.73006813403E+03  0.46999998093E+01 0. -1.
</event>
<event>
 5   0  0.2573071E-04  0.1299366E+04  0.7818609E-02  0.9030068E-01
       -2   -1    0    0    0  501  0.00000000000E+00  0.00000000000E+00  0.47171805541E+03  0.47171805541E+03  0.25500000920E-02 0. -1.
        2   -1    0    0  501    0  0.00000000000E+00  0.00000000000E+00 -0.89478893459E+03  0.89478893459E+03  0.25500000920E-02 0.  1.
    10030    2    1    2    0    0  0.00000000000E+00  0.00000000000E+00 -0.42307087918E+03  0.13665069900E+04  0.12993661474E+04 0.  0.
        4    1    3    3  502    0 -0.30259843650E+03  0.57445875264E+03 -0.18760415686E+03  0.67584436435E+03  0.12699999809E+01 0. -1.
       -4    1    3    3    0  502  0.30259843650E+03 -0.57445875264E+03 -0.23546672232E+03  0.69066262565E+03  0.12699999809E+01 0.  1.
</event>
<event>
 5   0  0.1476511E-04  0.1299486E+04  0.7818609E-02  0.9029973E-01
        1   -1    0    0  501    0  0.00000000000E+00  0.00000000000E+00  0.13029636370E+04  0.13029636370E+04  0.50400001928E-02 0.  1.
       -1   -1    0    0    0  501  0.00000000000E+00  0.00000000000E+00 -0.32400427296E+03  0.32400427300E+03  0.50400001928E-02 0. -1.
    10030    2    1    2    0    0  0.00000000000E+00  0.00000000000E+00  0.97895936407E+03  0.16269679100E+04  0.12994857228E+04 0.  0.
        2    1    3    3  502    0 -0.45353791026E+03  0.46498923755E+03  0.46951970201E+03  0.80147387834E+03  0.25500000920E-02 0.  1.
       -2    1    3    3    0  502  0.45353791026E+03 -0.46498923755E+03  0.50943966206E+03  0.82549403170E+03  0.25500000920E-02 0. -1.
</event>
<event>
 5   0  0.1475396E-04  0.1302191E+04  0.7818609E-02  0.9027830E-01
        1   -1    0    0  501    0  0.00000000000E+00  0.00000000000E+00  0.16475761680E+04  0.16475761680E+04  0.50400001928E-02 0. -1.
       -1   -1    0    0    0  501  0.00000000000E+00  0.00000000000E+00 -0.25730235128E+03  0.25730235133E+03  0.50400001928E-02 0.  1.
    10030    2    1    2    0    0  0.00000000000E+00  0.00000000000E+00  0.13902738167E+04  0.19048785193E+04  0.13021908032E+04 0.  0.
        3    1    3    3  502    0  0.64154928611E+03  0.49095621184E+02  0.84090181100E+03  0.10588256384E+04  0.10100000352E+00 0. -1.
       -3    1    3    3    0  502 -0.64154928611E+03 -0.49095621184E+02  0.54937200570E+03  0.84605288096E+03  0.10100000352E+00 0.  1.
</event>
<event>
 5   0  0.1476511E-04  0.1306835E+04  0.7818609E-02  0.9024163E-01
        1   -1    0    0  501    0  0.00000000000E+00  0.00000000000E+00  0.10239163478E+04  0.10239163478E+04  0.50400001928E-02 0.  1.
       -1   -1    0    0    0  501  0.00000000000E+00  0.00000000000E+00 -0.41698164218E+03  0.41698164221E+03  0.50400001928E-02 0. -1.
    10030    2    1    2    0    0  0.00000000000E+00  0.00000000000E+00  0.60693470560E+03  0.14408979900E+04  0.13068348330E+04 0.  0.
        2    1    3    3  502    0  0.33302933145E+03 -0.49187188942E+03  0.60362165938E+03  0.84687991999E+03  0.25500000920E-02 0. -1.
       -2    1    3    3    0  502 -0.33302933145E+03  0.49187188942E+03  0.33130462205E+01  0.59401807000E+03  0.25500000920E-02 0.  1.
</event>
<event>
 5   0  0.2756984E-04  0.1312457E+04  0.7818609E-02  0.9019744E-01
       -2   -1    0    0    0  501  0.00000000000E+00  0.00000000000E+00  0.63175596769E+03  0.63175596770E+03  0.25500000920E-02 0.  1.
        2   -1    0    0  501    0  0.00000000000E+00  0.00000000000E+00 -0.68164914762E+03  0.68164914763E+03  0.25500000920E-02 0. -1.
    10030    2    1    2    0    0  0.00000000000E+00  0.00000000000E+00 -0.49893179928E+02  0.13134051153E+04  0.13124571108E+04 0.  0.
        3    1    3    3  502    0  0.11060621862E+03  0.60801496380E+03  0.19593886096E+03  0.64831163744E+03  0.10100000352E+00 0.  1.
       -3    1    3    3    0  502 -0.11060621862E+03 -0.60801496380E+03 -0.24583204089E+03  0.66509347789E+03  0.10100000352E+00 0. -1.
</event>
<event>
 5   0  0.1408341E-04  0.1299223E+04  0.7818609E-02  0.9030182E-01
       -1   -1    0    0    0  501  0.00000000000E+00  0.00000000000E+00  0.64883616473E+03  0.64883616475E+03  0.50400001928E-02 0.  1.
        1   -1    0    0  501    0  0.00000000000E+00  0.00000000000E+00 -0.65038741874E+03  0.65038741876E+03  0.50400001928E-02 0. -1.
    10030    2    1    2    0    0  0.00000000000E+00  0.00000000000E+00 -0.15512540108E+01  0.12992235835E+04  0.12992226574E+04 0.  0.
        5    1    3    3  502    0 -0.34036740572E+03  0.54483204662E+03 -0.97112908063E+02  0.64972681706E+03  0.46999998093E+01 0. -1.
       -5    1    3    3    0  502  0.34036740572E+03 -0.54483204662E+03  0.95561654052E+02  0.64949676644E+03  0.46999998093E+01 0.  1.
</event>
<event>
 5   0  0.1430636E-04  0.1301348E+04  0.7818609E-02  0.9028497E-01
        1   -1    0    0  501    0  0.00000000000E+00  0.00000000000E+00  0.58602549116E+03  0.58602549118E+03  0.50400001928E-02 0. -1.
       -1   -1    0    0    0  501  0.00000000000E+00  0.00000000000E+00 -0.72245410734E+03  0.72245410736E+03  0.50400001928E-02 0.  1.
    10030    2    1    2    0    0  0.00000000000E+00  0.00000000000E+00 -0.13642861618E+03  0.13084795985E+04  0.13013477984E+04 0.  0.
        4    1    3    3  502    0  0.47263805928E+03  0.41687635320E+02 -0.51590752905E+03  0.70091852982E+03  0.12699999809E+01 0.  1.
       -4    1    3    3    0  502 -0.47263805928E+03 -0.41687635320E+02  0.37947891287E+03  0.60756106872E+03  0.12699999809E+01 0. -1.
</event>
<event>
 5   0  0.1475396E-04  0.1301297E+04  0.7818609E-02  0.9028537E-01
       -1   -1    0    0    0  501  0.00000000000E+00  0.00000000000E+00  0.21941649397E+03  0.21941649403E+03  0.50400001928E-02 0. -1.
        1   -1    0    0  501    0  0.00000000000E+00  0.00000000000E+00 -0.19294058101E+04  0.19294058101E+04  0.50400001928E-02 0.  1.
    10030    2    1    2    0    0  0.00000000000E+00  0.00000000000E+00 -0.17099893161E+04  0.21488223041E+04  0.13012969813E+04 0.  0.
        3    1    3    3  502    0 -0.64950721472E+03 -0.44584663319E+01 -0.91817572349E+03  0.11246893657E+04  0.10100000352E+00 0.  1.
       -3    1    3    3    0  502  0.64950721472E+03  0.44584663319E+01 -0.79181359259E+03  0.10241329384E+04  0.10100000352E+00 0. -1.
</event>
<event>
 5   0  0.2794825E-04  0.1310313E+04  0.7818609E-02  0.9021426E-01
       -2   -1    0    0    0  501  0.00000000000E+00  0.00000000000E+00  0.22571175960E+03  0.22571175961E+03  0.25500000920E-02 0.  1.
        2   -1    0    0  501    0  0.00000000000E+00  0.00000000000E+00 -0.19016738789E+04  0.19016738789E+04  0.25500000920E-02 0. -1.
    10030    2    1    2    0    0  0.00000000000E+00  0.00000000000E+00 -0.16759621193E+04  0.21273856385E+04  0.13103131800E+04 0.  0.
        1    1    3    3  502    0 -0.62720887961E+03 -0.18839243491E+03 -0.86824526433E+03  0.10875350694E+04  0.50400001928E-02 0. -1.
       -1    1    3    3    0  502  0.62720887961E+03  0.18839243491E+03 -0.80771685496E+03  0.10398505691E+04  0.50400001928E-02 0.  1.
</event>
<event>
 5   0  0.1479690E-04  0.1300366E+04  0.7818609E-02  0.9029275E-01
        1   -1    0    0  501    0  0.00000000000E+00  0.00000000000E+00  0.18199525922E+04  0.18199525922E+04  0.50400001928E-02 0. -1.
       -1   -1    0    0    0  501  0.00000000000E+00  0.00000000000E+00 -0.23227971396E+03  0.23227971401E+03  0.50400001928E-02 0.  1.
    10030    2    1    2    0    0  0.00000000000E+00  0.00000000000E+00  0.15876728782E+04  0.20522323062E+04  0.13003662063E+04 0.  0.
        1    1    3    3  502    0  0.54087844555E+03  0.29040615721E+03  0.45589304735E+03  0.76467228252E+03  0.50400001928E-02 0.  1.
       -1    1    3    3    0  502 -0.54087844555E+03 -0.29040615721E+03  0.11317798309E+04  0.12875600237E+04  0.50400001928E-02 0. -1.
</event>
<event>
 5   0  0.2756984E-04  0.1308479E+04  0.7818609E-02  0.9022868E-01
        2   -1    0    0  501    0  0.00000000000E+00  0.00000000000E+00  0.13125829617E+04  0.13125829617E+04  0.25500000920E-02 0.  1.
       -2   -1    0    0    0  501  0.00000000000E+00  0.00000000000E+00 -0.32609705312E+03  0.32609705313E+03  0.25500000920E-02 0. -1.
    10030    2    1    2    0    0  0.00000000000E+00  0.00000000000E+00  0.98648590857E+03  0.16386800148E+04  0.13084791719E+04 0.  0.
        3    1    3    3  502    0 -0.60760197321E+03  0.89606858251E+02  0.21092132271E+03  0.64938229223E+03  0.10100000352E+00 0.  1.
       -3    1    3    3    0  502  0.60760197321E+03 -0.89606858251E+02  0.77556458587E+03  0.98929772260E+03  0.10100000352E+00 0. -1.
</event>
<event>
 5   0  0.2756984E-04  0.1301481E+04  0.7818609E-02  0.9028392E-01
        2   -1    0    0  501    0  0.00000000000E+00  0.00000000000E+00  0.34994694684E+03  0.34994694685E+03  0.25500000920E-02 0. -1.
       -2   -1    0    0    0  501  0.00000000000E+00  0.00000000000E+00 -0.12100775124E+04  0.12100775124E+04  0.25500000920E-02 0.  1.
    10030    2    1    2    0    0  0.00000000000E+00  0.00000000000E+00 -0.86013056557E+03  0.15600244593E+04  0.13014805890E+04 0.  0.
        3    1    3    3  502    0  0.35840263515E+03 -0.53074533275E+03 -0.56840395442E+03  0.85628623878E+03  0.10100000352E+00 0.  1.
       -3    1    3    3    0  502 -0.35840263515E+03  0.53074533275E+03 -0.29172661115E+03  0.70373822048E+03  0.10100000352E+00 0. -1.
</event>
<event>
 5   0  0.2573071E-04  0.1299528E+04  0.7818609E-02  0.9029940E-01
       -2   -1    0    0    0  501  0.00000000000E+00  0.00000000000E+00  0.27081216533E+03  0.27081216534E+03  0.25500000920E-02 0.  1.
        2   -1    0    0  501    0  0.00000000000E+00  0.00000000000E+00 -0.15589886718E+04  0.15589886718E+04  0.25500000920E-02 0. -1.
    10030    2    1    2    0    0  0.00000000000E+00  0.00000000000E+00 -0.12881765064E+04  0.18298008371E+04  0.12995277572E+04 0.  0.
        4    1    3    3  502    0 -0.23475400915E+03  0.13485561248E+03 -0.14757874066E+04  0.15004151304E+04  0.12699999809E+01 0. -1.
       -4    1    3    3    0  502  0.23475400915E+03 -0.13485561248E+03  0.18761090018E+03  0.32938570673E+03  0.12699999809E+01 0.  1.
</event>
<event>
 5   0  0.1475396E-04  0.1298152E+04  0.7818609E-02  0.9031032E-01
        1   -1    0    0  501    0  0.00000000000E+00  0.00000000000E+00  0.78769044411E+03  0.78769044412E+03  0.50400001928E-02 0.  1.
       -1   -1    0    0    0  501  0.00000000000E+00  0.00000000000E+00 -0.53485472622E+03  0.53485472625E+03  0.50400001928E-02 0. -1.
    10030    2    1    2    0    0  0.00000000000E+00  0.00000000000E+00  0.25283571788E+03  0.13225451704E+04  0.12981524669E+04 0.  0.
        3    1    3    3  502    0  0.15740614470E+02 -0.21934641299E+03 -0.49574474632E+03  0.54233152180E+03  0.10100000352E+00 0. -1.
       -3    1    3    3    0  502 -0.15740614470E+02  0.21934641299E+03  0.74858046420E+03  0.78021364857E+03  0.10100000352E+00 0.  1.
</event>
<event>
 5   0  0.2573071E-04  0.1299753E+04  0.7818609E-02  0.9029761E-01
        2   -1    0    0  501    0  0.00000000000E+00  0.00000000000E+00  0.14474556323E+04  0.14474556323E+04  0.25500000920E-02 0.  1.
       -2   -1    0    0    0  501  0.00000000000E+00  0.00000000000E+00 -0.29178058392E+03  0.29178058393E+03  0.25500000920E-02 0. -1.
    10030    2    1    2    0    0  0.00000000000E+00  0.00000000000E+00  0.11556750484E+04  0.17392362163E+04  0.12997529759E+04 0.  0.
        4    1    3    3  502    0  0.33936513360E+03 -0.34079627442E+03  0.11626884414E+04  0.12582355976E+04  0.12699999809E+01 0.  1.
       -4    1    3    3    0  502 -0.33936513360E+03  0.34079627442E+03 -0.70133929456E+01  0.48100061865E+03  0.12699999809E+01 0. -1.
</event>
<event>
 5   0  0.1408341E-04  0.1300794E+04  0.7818609E-02  0.9028936E-01
        1   -1    0    0  501    0  0.00000000000E+00  0.00000000000E+00  0.47379600813E+03  0.47379600816E+03  0.50400001928E-02 0. -1.
       -1   -1    0    0    0  501  0.00000000000E+00  0.00000000000E+00 -0.89282353623E+03  0.89282353624E+03  0.50400001928E-02 0.  1.
    10030    2    1    2    0    0  0.00000000000E+00  0.00000000000E+00 -0.41902752809E+03  0.13666195444E+04  0.13007939536E+04 0.  0.
        5    1    3    3  502    0  0.55016794158E+03  0.12979907870E+03 -0.54744524820E+03  0.78692499931E+03  0.46999998093E+01 0.  1.
       -5    1    3    3    0  502 -0.55016794158E+03 -0.12979907870E+03  0.12841772011E+03  0.57969454509E+03  0.46999998093E+01 0. -1.
</event>
<event>
 5   0  0.2794825E-04  0.1295967E+04  0.7818609E-02  0.9032769E-01
        2   -1    0    0  501    0  0.00000000000E+00  0.00000000000E+00  0.10567688703E+04  0.10567688703E+04  0.25500000920E-02 0.  1.
       -2   -1    0    0    0  501  0.00000000000E+00  0.00000000000E+00 -0.39732711735E+03  0.39732711735E+03  0.25500000920E-02 0. -1.
    10030    2    1    2    0    0  0.00000000000E+00  0.00000000000E+00  0.65944175296E+03  0.14540959877E+04  0.12959674825E+04 0.  0.
        1    1    3    3  502    0 -0.27965517518E+03  0.52123586790E+03  0.62655520137E+03  0.86166424283E+03  0.50400001928E-02 0.  1.
       -1    1    3    3    0  502  0.27965517518E+03 -0.52123586790E+03  0.32886551592E+02  0.59243174483E+03  0.50400001928E-02 0. -1.
</event>
<event>
 5   0  0.1476511E-04  0.1294817E+04  0.7818609E-02  0.9033685E-01
       -1   -1    0    0    0  501  0.00000000000E+00  0.00000000000E+00  0.74464961924E+03  0.74464961926E+03  0.50400001928E-02 0. -1.
        1   -1    0    0  501    0  0.00000000000E+00  0.00000000000E+00 -0.56286573843E+03  0.56286573845E+03  0.50400001928E-02 0.  1.
    10030    2    1    2    0    0  0.00000000000E+00  0.00000000000E+00  0.18178388081E+03  0.13075153577E+04  0.12948169876E+04 0.  0.
        2    1    3    3  502    0 -0.47927415077E+03  0.37738600924E+03 -0.12806126194E+03  0.62331661168E+03  0.25500000920E-02 0.  1.
       -2    1    3    3    0  502  0.47927415077E+03 -0.37738600924E+03  0.30984514276E+03  0.68419874603E+03  0.25500000920E-02 0. -1.
</event>
<event>
 5   0  0.2661377E-04  0.1300216E+04  0.7818609E-02  0.9029394E-01
       -2   -1    0    0    0  501  0.00000000000E+00  0.00000000000E+00  0.30583153884E+03  0.30583153885E+03  0.25500000920E-02 0.  1.
        2   -1    0    0  501    0  0.00000000000E+00  0.00000000000E+00 -0.13819382021E+04  0.13819382021E+04  0.25500000920E-02 0. -1.
    10030    2    1    2    0    0  0.00000000000E+00  0.00000000000E+00 -0.10761066633E+04  0.16877697410E+04  0.13002158082E+04 0.  0.
        5    1    3    3  502    0 -0.86175349190E+02  0.14829993825E+03  0.27590848249E+03  0.32491020791E+03  0.46999998093E+01 0.  1.
       -5    1    3    3    0  502  0.86175349190E+02 -0.14829993825E+03 -0.13520151458E+04  0.13628595331E+04  0.46999998093E+01 0. -1.
</event>
<event>
 5   0  0.1475396E-04  0.1313020E+04  0.7818609E-02  0.9019304E-01
       -1   -1    0    0    0  501  0.00000000000E+00  0.00000000000E+00  0.25020999931E+03  0.25020999936E+03  0.50400001928E-02 0.  1.
        1   -1    0    0  501    0  0.00000000000E+00  0.00000000000E+00 -0.17225735658E+04  0.17225735658E+04  0.50400001928E-02 0. -1.
    10030    2    1    2    0    0  0.00000000000E+00  0.00000000000E+00 -0.14723635665E+04  0.19727835652E+04  0.13130196202E+04 0.  0.
        3    1    3    3  502    0  0.15938827465E+03  0.38188088443E+03  0.29592228233E+02  0.41486545067E+03  0.10100000352E+00 0.  1.
       -3    1    3    3    0  502 -0.15938827465E+03 -0.38188088443E+03 -0.15019557948E+04  0.15579181145E+04  0.10100000352E+00 0. -1.
</event>
<event>
 5   0  0.1475396E-04  0.1301448E+04  0.7818609E-02  0.9028418E-01
        1   -1    0    0  501    0  0.00000000000E+00  0.00000000000E+00  0.55243606787E+03  0.55243606789E+03  0.50400001928E-02 0.  1.
       -1   -1    0    0    0  501  0.00000000000E+00  0.00000000000E+00 -0.76649902263E+03  0.76649902265E+03  0.50400001928E-02 0. -1.
    10030    2    1    2    0    0  0.00000000000E+00  0.00000000000E+00 -0.21406295476E+03  0.13189350905E+04  0.13014479722E+04 0.  0.
        3    1    3    3  502    0  0.27450013333E+03 -0.49683351510E+03  0.21543864017E+03  0.60713069664E+03  0.10100000352E+00 0.  1.
       -3    1    3    3    0  502 -0.27450013333E+03  0.49683351510E+03 -0.42950159493E+03  0.71180439390E+03  0.10100000352E+00 0. -1.
</event>
<event>
 5   0  0.1002887E-04  0.1302164E+04  0.7818609E-02  0.9027851E-01
       -3   -1    0    0    0  501  0.00000000000E+00  0.00000000000E+00  0.40738282160E+03  0.40738283412E+03  0.10100000352E+00 0. -1.
        3   -1    0    0  501    0  0.00000000000E+00  0.00000000000E+00 -0.10405638696E+04  0.10405638745E+04  0.10100000352E+00 0.  1.
    10030    2    1    2    0    0  0.00000000000E+00  0.00000000000E+00 -0.63318104798E+03  0.14479467086E+04  0.13021641338E+04 0.  0.
        4    1    3    3  502    0 -0.40238297426E+03 -0.36406127471E+03 -0.71666778977E+03  0.89892547161E+03  0.12699999809E+01 0.  1.
       -4    1    3    3    0  502  0.40238297426E+03  0.36406127471E+03  0.83486741789E+02  0.54902123700E+03  0.12699999809E+01 0. -1.
</event>
<event>
 5   0  0.1475396E-04  0.1269704E+04  0.7818609E-02  0.9053941E-01
       -1   -1    0    0    0  501  0.00000000000E+00  0.00000000000E+00  0.47482354378E+03  0.47482354381E+03  0.50400001928E-02 0. -1.
        1   -1    0    0  501    0  0.00000000000E+00  0.00000000000E+00 -0.84881403022E+03  0.84881403024E+03  0.50400001928E-02 0.  1.
    10030    2    1    2    0    0  0.00000000000E+00  0.00000000000E+00 -0.37399048644E+03  0.13236375740E+04  0.12697037227E+04 0.  0.
        3    1    3    3  502    0 -0.26605126704E+03 -0.45765543002E+03 -0.55231646951E+03  0.76503938593E+03  0.10100000352E+00 0.  1.
       -3    1    3    3    0  502  0.26605126704E+03  0.45765543002E+03  0.17832598308E+03  0.55859818812E+03  0.10100000352E+00 0. -1.
</event>
<event>
 5   0  0.1476511E-04  0.1302074E+04  0.7818609E-02  0.9027922E-01
        1   -1    0    0  501    0  0.00000000000E+00  0.00000000000E+00  0.80258154058E+03  0.80258154060E+03  0.50400001928E-02 0.  1.
       -1   -1    0    0    0  501  0.00000000000E+00  0.00000000000E+00 -0.52810705113E+03  0.52810705115E+03  0.50400001928E-02 0. -1.
    10030    2    1    2    0    0  0.00000000000E+00  0.00000000000E+00  0.27447448945E+03  0.13306885917E+04  0.13020736856E+04 0.  0.
        2    1    3    3  502    0 -0.67110357700E+02  0.37648201630E+03 -0.40122549567E+03  0.55427827586E+03  0.25500000920E-02 0. -1.
       -2    1    3    3    0  502  0.67110357700E+02 -0.37648201630E+03  0.67569998512E+03  0.77641031589E+03  0.25500000920E-02 0.  1.
</event>
<event>
 5   0  0.1408341E-04  0.1300222E+04  0.7818609E-02  0.9029389E-01
        1   -1    0    0  501    0  0.00000000000E+00  0.00000000000E+00  0.11477898406E+04  0.11477898406E+04  0.50400001928E-02 0. -1.
       -1   -1    0    0    0  501  0.00000000000E+00  0.00000000000E+00 -0.36822451010E+03  0.36822451013E+03  0.50400001928E-02 0.  1.
    10030    2    1    2    0    0  0.00000000000E+00  0.00000000000E+00  0.77956533050E+03  0.15160143507E+04  0.13002220607E+04 0.  0.
        5    1    3    3  502    0  0.16623836695E+03  0.66231098989E+02  0.11184883948E+04  0.11327224428E+04  0.46999998093E+01 0. -1.
       -5    1    3    3    0  502 -0.16623836695E+03 -0.66231098989E+02 -0.33892306434E+03  0.38329190790E+03  0.46999998093E+01 0.  1.
</event>
<event>
 5   0  0.2661377E-04  0.1302171E+04  0.7818609E-02  0.9027845E-01
        2   -1    0    0  501    0  0.00000000000E+00  0.00000000000E+00  0.77796385538E+03  0.77796385538E+03  0.25500000920E-02 0. -1.
       -2   -1    0    0    0  501  0.00000000000E+00  0.00000000000E+00 -0.54489977039E+03  0.54489977040E+03  0.25500000920E-02 0.  1.
    10030    2    1    2    0    0  0.00000000000E+00  0.00000000000E+00  0.23306408499E+03  0.13228636258E+04  0.13021709967E+04 0.  0.
        5    1    3    3  502    0  0.32766179019E+02  0.10520163563E+03  0.76840573478E+03  0.77627989145E+03  0.46999998093E+01 0. -1.
       -5    1    3    3    0  502 -0.32766179019E+02 -0.10520163563E+03 -0.53534164980E+03  0.54658373433E+03  0.46999998093E+01 0.  1.
</event>
<event>
 5   0  0.1408341E-04  0.1300236E+04  0.7818609E-02  0.9029378E-01
       -1   -1    0    0    0  501  0.00000000000E+00  0.00000000000E+00  0.41514512679E+03  0.41514512682E+03  0.50400001928E-02 0. -1.
        1   -1    0    0  501    0  0.00000000000E+00  0.00000000000E+00 -0.10180863317E+04  0.10180863317E+04  0.50400001928E-02 0.  1.
    10030    2    1    2    0    0  0.00000000000E+00  0.00000000000E+00 -0.60294120492E+03  0.14332314585E+04  0.13002362544E+04 0.  0.
        5    1    3    3  502    0  0.17010225079E+03  0.49637898675E+03 -0.72453086796E+03  0.89459149495E+03  0.46999998093E+01 0.  1.
       -5    1    3    3    0  502 -0.17010225079E+03 -0.49637898675E+03  0.12158966304E+03  0.53863996358E+03  0.46999998093E+01 0. -1.
</event>
<event>
 5   0  0.2794825E-04  0.1300775E+04  0.7818609E-02  0.9028951E-01
       -2   -1    0    0    0  501  0.00000000000E+00  0.00000000000E+00  0.21659909234E+03  0.21659909236E+03  0.25500000920E-02 0. -1.
        2   -1    0    0  501    0  0.00000000000E+00  0.00000000000E+00 -0.19529354425E+04  0.19529354425E+04  0.25500000920E-02 0.  1.
    10030    2    1    2    0    0  0.00000000000E+00  0.00000000000E+00 -0.17363363501E+04  0.21695345349E+04  0.13007752216E+04 0.  0.
        1    1    3    3  502    0  0.43475028216E+03 -0.48366537504E+03 -0.85482083617E+03  0.10740850361E+04  0.50400001928E-02 0.  1.
       -1    1    3    3    0  502 -0.43475028216E+03  0.48366537504E+03 -0.88151551398E+03  0.10954494987E+04  0.50400001928E-02 0. -1.
</event>
<event>
 5   0  0.1479690E-04  0.1295805E+04  0.7818609E-02  0.9032898E-01
        1   -1    0    0  501    0  0.00000000000E+00  0.00000000000E+00  0.34008275515E+03  0.34008275519E+03  0.50400001928E-02 0.  1.
       -1   -1    0    0    0  501  0.00000000000E+00  0.00000000000E+00 -0.12343400142E+04  0.12343400142E+04  0.50400001928E-02 0. -1.
    10030    2    1    2    0    0  0.00000000000E+00  0.00000000000E+00 -0.89425725901E+03  0.15744227694E+04  0.12958051595E+04 0.  0.
        1    1    3    3  502    0  0.58491913301E+03 -0.27080044261E+03 -0.52693653899E+03  0.83254152331E+03  0.50400001928E-02 0. -1.
       -1    1    3    3    0  502 -0.58491913301E+03  0.27080044261E+03 -0.36732072001E+03  0.74188124606E+03  0.50400001928E-02 0.  1.
</event>
<event>
 5   0  0.2573071E-04  0.1299329E+04  0.7818609E-02  0.9030097E-01
        2   -1    0    0  501    0  0.00000000000E+00  0.00000000000E+00  0.21547439435E+04  0.21547439436E+04  0.25500000920E-02 0. -1.
       -2   -1    0    0    0  501  0.00000000000E+00  0.00000000000E+00 -0.19587663388E+03  0.19587663389E+03  0.25500000920E-02 0.  1.
    10030    2    1    2    0    0  0.00000000000E+00  0.00000000000E+00  0.19588673097E+04  0.23506205774E+04  0.12993290431E+04 0.  0.
        4    1    3    3  502    0  0.61893401754E+02  0.55668592447E+03  0.38398749094E+03  0.67910088925E+03  0.12699999809E+01 0.  1.
       -4    1    3    3    0  502 -0.61893401754E+02 -0.55668592447E+03  0.15748798187E+04  0.16715196882E+04  0.12699999809E+01 0. -1.
</event>
<event>
 5   0  0.2756984E-04  0.1302899E+04  0.7818609E-02  0.9027269E-01
       -2   -1    0    0    0  501  0.00000000000E+00  0.00000000000E+00  0.32656240521E+03  0.32656240522E+03  0.25500000920E-02 0.  1.
        2   -1    0    0  501    0  0.00000000000E+00  0.00000000000E+00 -0.12995579532E+04  0.12995579533E+04  0.25500000920E-02 0. -1.
    10030    2    1    2    0    0  0.00000000000E+00  0.00000000000E+00 -0.97299554804E+03  0.16261203585E+04  0.13028994910E+04 0.  0.
        3    1    3    3  502    0  0.45313654298E+03 -0.28060294517E+03 -0.18982931283E+02  0.53332082399E+03  0.10100000352E+00 0.  1.
       -3    1    3    3    0  502 -0.45313654298E+03  0.28060294517E+03 -0.95401261676E+03  0.10927995345E+04  0.10100000352E+00 0. -1.
</event>
<event>
 5   0  0.1475396E-04  0.1301205E+04  0.7818609E-02  0.9028610E-01
       -1   -1    0    0    0  501  0.00000000000E+00  0.00000000000E+00  0.86582414388E+03  0.86582414390E+03  0.50400001928E-02 0. -1.
        1   -1    0    0  501    0  0.00000000000E+00  0.00000000000E+00 -0.48887925570E+03  0.48887925573E+03  0.50400001928E-02 0.  1.
    10030    2    1    2    0    0  0.00000000000E+00  0.00000000000E+00  0.37694488818E+03  0.13547033996E+04  0.13012047695E+04 0.  0.
        3    1    3    3  502    0  0.56031367420E+02  0.58672766176E+03  0.47528884561E+03  0.75715808136E+03  0.10100000352E+00 0. -1.
       -3    1    3    3    0  502 -0.56031367420E+02 -0.58672766176E+03 -0.98343957435E+02  0.59754531826E+03  0.10100000352E+00 0.  1.
</event>
<event>
 5   0  0.1408341E-04  0.1302162E+04  0.7818609E-02  0.9027853E-01
        1   -1    0    0  501    0  0.00000000000E+00  0.00000000000E+00  0.68381745858E+03  0.68381745860E+03  0.50400001928E-02 0. -1.
       -1   -1    0    0    0  501  0.00000000000E+00  0.00000000000E+00 -0.61991151017E+03  0.61991151020E+03  0.50400001928E-02 0.  1.
    10030    2    1    2    0    0  0.00000000000E+00  0.00000000000E+00  0.63905948406E+02  0.13037289688E+04  0.13021617618E+04 0.  0.
        5    1    3    3  502    0 -0.37039970266E+03 -0.20709968035E+03 -0.46240034256E+03  0.62763236383E+03  0.46999998093E+01 0.  1.
       -5    1    3    3    0  502  0.37039970266E+03  0.20709968035E+03  0.52630629097E+03  0.67609660496E+03  0.46999998093E+01 0. -1.
</event>
<event>
 5   0  0.1002887E-04  0.1305205E+04  0.7818609E-02  0.9025448E-01
        3   -1    0    0  501    0  0.00000000000E+00  0.00000000000E+00  0.16862637797E+04  0.16862637827E+04  0.10100000352E+00 0.  1.
       -3   -1    0    0    0  501  0.00000000000E+00  0.00000000000E+00 -0.25256422529E+03  0.25256424548E+03  0.10100000352E+00 0. -1.
    10030    2    1    2    0    0  0.00000000000E+00  0.00000000000E+00  0.14336995544E+04  0.19388280282E+04  0.13052048539E+04 0.  0.
        1    1    3    3  502    0 -0.61897171919E+02  0.41703745731E+03 -0.23109162684E+02  0.42223871698E+03  0.50400001928E-02 0. -1.
       -1    1    3    3    0  502  0.61897171919E+02 -0.41703745731E+03  0.14568087171E+04  0.15165893112E+04  0.50400001928E-02 0.  1.
</event>
<event>
 5   0  0.1430636E-04  0.1298419E+04  0.7818609E-02  0.9030820E-01
        1   -1    0    0  501    0  0.00000000000E+00  0.00000000000E+00  0.89354350662E+03  0.89354350663E+03  0.50400001928E-02 0.  1.
       -1   -1    0    0    0  501  0.00000000000E+00  0.00000000000E+00 -0.47168721941E+03  0.47168721943E+03  0.50400001928E-02 0. -1.
    10030    2    1    2    0    0  0.00000000000E+00  0.00000000000E+00  0.42185628721E+03  0.13652307261E+04  0.12984191189E+04 0.  0.
        4    1    3    3  502    0 -0.15863552559E+03  0.30934014639E+03  0.78742426708E+03  0.86075266217E+03  0.12699999809E+01 0.  1.
       -4    1    3    3    0  502  0.15863552559E+03 -0.30934014639E+03 -0.36556797987E+03  0.50447806390E+03  0.12699999809E+01 0. -1.
</event>
<event>
 5   0  0.2661377E-04  0.1313166E+04  0.7818609E-02  0.9019189E-01
        2   -1    0    0  501    0  0.00000000000E+00  0.00000000000E+00  0.12812659911E+04  0.12812659911E+04  0.25500000920E-02 0. -1.
       -2   -1    0    0    0  501  0.00000000000E+00  0.00000000000E+00 -0.33646529642E+03  0.33646529643E+03  0.25500000920E-02 0.  1.
    10030    2    1    2    0    0  0.00000000000E+00  0.00000000000E+00  0.94480069466E+03  0.16177312875E+04  0.13131664654E+04 0.  0.
        5    1    3    3  502    0 -0.49294166033E+03  0.36584478484E+03  0.75932556355E+03  0.97643806180E+03  0.46999998093E+01 0. -1.
       -5    1    3    3    0  502  0.49294166033E+03 -0.36584478484E+03  0.18547513112E+03  0.64129322571E+03  0.46999998093E+01 0.  1.
</event>
<event>
 5   0  0.2723209E-04  0.1298514E+04  0.7818609E-02  0.9030744E-01
       -2   -1    0    0    0  501  0.00000000000E+00  0.00000000000E+00  0.58274189178E+03  0.58274189178E+03  0.25500000920E-02 0. -1.
        2   -1    0    0  501    0  0.00000000000E+00  0.00000000000E+00 -0.72336446875E+03  0.72336446875E+03  0.25500000920E-02 0.  1.
    10030    2    1    2    0    0  0.00000000000E+00  0.00000000000E+00 -0.14062257697E+03  0.13061063605E+04  0.12985141955E+04 0.  0.
        2    1    3    3  502    0 -0.17760546741E+03 -0.32511641791E+03 -0.60661763165E+03  0.71079486372E+03  0.25500000920E-02 0.  1.
       -2    1    3    3    0  502  0.17760546741E+03  0.32511641791E+03  0.46599505468E+03  0.59531149682E+03  0.25500000920E-02 0. -1.
</event>
<event>
 5   0  0.2756984E-04  0.1300341E+04  0.7818609E-02  0.9029295E-01
       -2   -1    0    0    0  501  0.00000000000E+00  0.00000000000E+00  0.29046817678E+03  0.29046817679E+03  0.25500000920E-02 0.  1.
        2   -1    0    0  501    0  0.00000000000E+00  0.00000000000E+00 -0.14553107285E+04  0.14553107285E+04  0.25500000920E-02 0. -1.
    10030    2    1    2    0    0  0.00000000000E+00  0.00000000000E+00 -0.11648425517E+04  0.17457789053E+04  0.13003406538E+04 0.  0.
        3    1    3    3  502    0 -0.53112814240E+03  0.83457516952E+02 -0.10732517309E+04  0.12003880826E+04  0.10100000352E+00 0. -1.
       -3    1    3    3    0  502  0.53112814240E+03 -0.83457516952E+02 -0.91590820793E+02  0.54539082266E+03  0.10100000352E+00 0.  1.
</event>
<event>
 5   0  0.2723209E-04  0.1301127E+04  0.7818609E-02  0.9028672E-01
        2   -1    0    0  501    0  0.00000000000E+00  0.00000000000E+00  0.11013777557E+04  0.11013777557E+04  0.25500000920E-02 0.  1.
       -2   -1    0    0    0  501  0.00000000000E+00  0.00000000000E+00 -0.38427595232E+03  0.38427595232E+03  0.25500000920E-02 0. -1.
    10030    2    1    2    0    0  0.00000000000E+00  0.00000000000E+00  0.71710180338E+03  0.14856537080E+04  0.13011271820E+04 0.  0.
        2    1    3    3  502    0 -0.34037969248E+02 -0.41096415971E+03  0.93308392166E+03  0.10201449548E+04  0.25500000920E-02 0.  1.
       -2    1    3    3    0  502  0.34037969248E+02  0.41096415971E+03 -0.21598211828E+03  0.46550875323E+03  0.25500000920E-02 0. -1.
</event>
<event>
 5   0  0.2756984E-04  0.1300820E+04  0.7818609E-02  0.9028915E-01
       -2   -1    0    0    0  501  0.00000000000E+00  0.00000000000E+00  0.23488809421E+03  0.23488809422E+03  0.25500000920E-02 0. -1.
        2   -1    0    0  501    0  0.00000000000E+00  0.00000000000E+00 -0.18009981888E+04  0.18009981888E+04  0.25500000920E-02 0.  1.
    10030    2    1    2    0    0  0.00000000000E+00  0.00000000000E+00 -0.15661100946E+04  0.20358862830E+04  0.13008197911E+04 0.  0.
        3    1    3    3  502    0 -0.50449575225E+02  0.56879814429E+03 -0.29572305788E+03  0.64306191440E+03  0.10100000352E+00 0. -1.
       -3    1    3    3    0  502  0.50449575225E+02 -0.56879814429E+03 -0.12703870367E+04  0.13928243686E+04  0.10100000352E+00 0.  1.
</event>
<event>
 5   0  0.2661377E-04  0.1302189E+04  0.7818609E-02  0.9027831E-01
        2   -1    0    0  501    0  0.00000000000E+00  0.00000000000E+00  0.14780935741E+04  0.14780935741E+04  0.25500000920E-02 0. -1.
       -2   -1    0    0    0  501  0.00000000000E+00  0.00000000000E+00 -0.28680463140E+03  0.28680463141E+03  0.25500000920E-02 0.  1.
    10030    2    1    2    0    0  0.00000000000E+00  0.00000000000E+00  0.11912889427E+04  0.17648982055E+04  0.13021890534E+04 0.  0.
        5    1    3    3  502    0 -0.19670007635E+03  0.33088427385E+03 -0.11603593502E+03  0.40207182310E+03  0.46999998093E+01 0.  1.
       -5    1    3    3    0  502  0.19670007635E+03 -0.33088427385E+03  0.13073248777E+04  0.13628263824E+04  0.46999998093E+01 0. -1.
</event>
<event>
 5   0  0.2573071E-04  0.1307448E+04  0.7818609E-02  0.9023679E-01
        2   -1    0    0  501    0  0.00000000000E+00  0.00000000000E+00  0.84522487226E+03  0.84522487226E+03  0.25500000920E-02 0.  1.
       -2   -1    0    0    0  501  0.00000000000E+00  0.00000000000E+00 -0.50561134149E+03  0.50561134149E+03  0.25500000920E-02 0. -1.
    10030    2    1    2    0    0  0.00000000000E+00  0.00000000000E+00  0.33961353078E+03  0.13508362138E+04  0.13074483264E+04 0.  0.
        4    1    3    3  502    0 -0.18848089877E+03 -0.92013252144E+02  0.80951625747E+03  0.83624737475E+03  0.12699999809E+01 0.  1.
       -4    1    3    3    0  502  0.18848089877E+03  0.92013252144E+02 -0.46990272669E+03  0.51458883900E+03  0.12699999809E+01 0. -1.
</event>
<event>
 5   0  0.2573071E-04  0.1296038E+04  0.7818609E-02  0.9032713E-01
       -2   -1    0    0    0  501  0.00000000000E+00  0.00000000000E+00  0.44155187251E+03  0.44155187252E+03  0.25500000920E-02 0.  1.
        2   -1    0    0  501    0  0.00000000000E+00  0.00000000000E+00 -0.95102916259E+03  0.95102916259E+03  0.25500000920E-02 0. -1.
    10030    2    1    2    0    0  0.00000000000E+00  0.00000000000E+00 -0.50947729007E+03  0.13925810351E+04  0.12960381284E+04 0.  0.
        4    1    3    3  502    0 -0.48942153577E+03  0.23289971571E+03 -0.63637408373E+03  0.83591225891E+03  0.12699999809E+01 0. -1.
       -4    1    3    3    0  502  0.48942153577E+03 -0.23289971571E+03  0.12689679366E+03  0.55666877620E+03  0.12699999809E+01 0.  1.
</event>
<event>
 5   0  0.1479690E-04  0.1299790E+04  0.7818609E-02  0.9029732E-01
       -1   -1    0    0    0  501  0.00000000000E+00  0.00000000000E+00  0.31415804970E+03  0.31415804974E+03  0.50400001928E-02 0.  1.
        1   -1    0    0  501    0  0.00000000000E+00  0.00000000000E+00 -0.13444303764E+04  0.13444303764E+04  0.50400001928E-02 0. -1.
    10030    2    1    2    0    0  0.00000000000E+00  0.00000000000E+00 -0.10302723267E+04  0.16585884261E+04  0.12997901755E+04 0.  0.
        1    1    3    3  502    0 -0.13190222140E+03 -0.54973934325E+02  0.29386244585E+03  0.32676515508E+03  0.50400001928E-02 0.  1.
       -1    1    3    3    0  502  0.13190222140E+03  0.54973934325E+02 -0.13241347725E+04  0.13318232711E+04  0.50400001928E-02 0. -1.
</event>
<event>
 5   0  0.2723209E-04  0.1298349E+04  0.7818609E-02  0.9030875E-01
        2   -1    0    0  501    0  0.00000000000E+00  0.00000000000E+00  0.10559551147E+04  0.10559551147E+04  0.25500000920E-02 0.  1.
       -2   -1    0    0    0  501  0.00000000000E+00  0.00000000000E+00 -0.39909633628E+03  0.39909633629E+03  0.25500000920E-02 0. -1.
    10030    2    1    2    0    0  0.00000000000E+00  0.00000000000E+00  0.65685877846E+03  0.14550514510E+04  0.12983494408E+04 0.  0.
        2    1    3    3  502    0  0.23349809431E+03  0.37176091113E+03  0.86437424369E+03  0.96946911671E+03  0.25500000920E-02 0.  1.
       -2    1    3    3    0  502 -0.23349809431E+03 -0.37176091113E+03 -0.20751546523E+03  0.48558233432E+03  0.25500000920E-02 0. -1.
</event>
<event>
 5   0  0.1408341E-04  0.1298088E+04  0.7818609E-02  0.9031083E-01
       -1   -1    0    0    0  501  0.00000000000E+00  0.00000000000E+00  0.34724839993E+03  0.34724839997E+03  0.50400001928E-02 0. -1.
        1   -1    0    0  501    0  0.00000000000E+00  0.00000000000E+00 -0.12131320219E+04  0.12131320219E+04  0.50400001928E-02 0.  1.
    10030    2    1    2    0    0  0.00000000000E+00  0.00000000000E+00 -0.86588362199E+03  0.15603804219E+04  0.12980880610E+04 0.  0.
        5    1    3    3  502    0  0.13736793395E+03 -0.45334219584E+03 -0.96626528774E+03  0.10761411581E+04  0.46999998093E+01 0.  1.
       -5    1    3    3    0  502 -0.13736793395E+03  0.45334219584E+03  0.10038166575E+03  0.48423926382E+03  0.46999998093E+01 0. -1.
</event>
<event>
 5   0  0.1430636E-04  0.1302152E+04  0.7818609E-02  0.9027861E-01
        1   -1    0    0  501    0  0.00000000000E+00  0.00000000000E+00  0.72309331697E+03  0.72309331698E+03  0.50400001928E-02 0.  1.
       -1   -1    0    0    0  501  0.00000000000E+00  0.00000000000E+00 -0.58623112723E+03  0.58623112726E+03  0.50400001928E-02 0. -1.
    10030    2    1    2    0    0  0.00000000000E+00  0.00000000000E+00  0.13686218973E+03  0.13093244442E+04  0.13021517735E+04 0.  0.
        4    1    3    3  502    0 -0.16238088661E+03  0.26771796844E+03  0.64241496214E+03  0.71466010064E+03  0.12699999809E+01 0.  1.
       -4    1    3    3    0  502  0.16238088661E+03 -0.26771796844E+03 -0.50555277241E+03  0.59466434360E+03  0.12699999809E+01 0. -1.
</event>
<event>
 5   0  0.1408341E-04  0.1301957E+04  0.7818609E-02  0.9028014E-01
       -1   -1    0    0    0  501  0.00000000000E+00  0.00000000000E+00  0.53760417810E+03  0.53760417812E+03  0.50400001928E-02 0. -1.
        1   -1    0    0  501    0  0.00000000000E+00  0.00000000000E+00 -0.78826269309E+03  0.78826269311E+03  0.50400001928E-02 0.  1.
    10030    2    1    2    0    0  0.00000000000E+00  0.00000000000E+00 -0.25065851499E+03  0.13258668712E+04  0.13019574759E+04 0.  0.
        5    1    3    3  502    0 -0.24385818683E+03 -0.25296213424E+03 -0.68338407247E+03  0.76843512228E+03  0.46999998093E+01 0.  1.
       -5    1    3    3    0  502  0.24385818683E+03  0.25296213424E+03  0.43272555748E+03  0.55743174895E+03  0.46999998093E+01 0. -1.
</event>
<event>
 5   0  0.2794825E-04  0.1287933E+04  0.7818609E-02  0.9039190E-01
        2   -1    0    0  501    0  0.00000000000E+00  0.00000000000E+00  0.17466001019E+04  0.17466001019E+04  0.25500000920E-02 0. -1.
       -2   -1    0    0    0  501  0.00000000000E+00  0.00000000000E+00 -0.23742856156E+03  0.23742856157E+03  0.25500000920E-02 0.  1.
    10030    2    1    2    0    0  0.00000000000E+00  0.00000000000E+00  0.15091715403E+04  0.19840286634E+04  0.12879328396E+04 0.  0.
        1    1    3    3  502    0 -0.37609402411E+03 -0.49038452357E+03  0.47572547908E+03  0.77989642095E+03  0.50400001928E-02 0.  1.
       -1    1    3    3    0  502  0.37609402411E+03  0.49038452357E+03  0.10334460612E+04  0.12041322425E+04  0.50400001928E-02 0. -1.
</event>
<event>
 5   0  0.2756984E-04  0.1303982E+04  0.7818609E-02  0.9026413E-01
       -2   -1    0    0    0  501  0.00000000000E+00  0.00000000000E+00  0.28516000446E+03  0.28516000447E+03  0.25500000920E-02 0.  1.
        2   -1    0    0  501    0  0.00000000000E+00  0.00000000000E+00 -0.14907157101E+04  0.14907157101E+04  0.25500000920E-02 0. -1.
    10030    2    1    2    0    0  0.00000000000E+00  0.00000000000E+00 -0.12055557056E+04  0.17758757145E+04  0.13039823596E+04 0.  0.
        3    1    3    3  502    0 -0.57230046381E+03 -0.23542398602E+03 -0.88234698718E+03  0.10777237541E+04  0.10100000352E+00 0. -1.
       -3    1    3    3    0  502  0.57230046381E+03  0.23542398602E+03 -0.32320871843E+03  0.69815196049E+03  0.10100000352E+00 0.  1.
</event>
<event>
 5   0  0.2661377E-04  0.1308504E+04  0.7818609E-02  0.9022848E-01
        2   -1    0    0  501    0  0.00000000000E+00  0.00000000000E+00  0.15658666941E+04  0.15658666941E+04  0.25500000920E-02 0. -1.
       -2   -1    0    0    0  501  0.00000000000E+00  0.00000000000E+00 -0.27336024145E+03  0.27336024147E+03  0.25500000920E-02 0.  1.
    10030    2    1    2    0    0  0.00000000000E+00  0.00000000000E+00  0.12925064527E+04  0.18392269356E+04  0.13085040277E+04 0.  0.
        5    1    3    3  502    0 -0.73394765402E+02  0.63478547440E+03  0.84345886679E+03  0.10581986298E+04  0.46999998093E+01 0. -1.
       -5    1    3    3    0  502  0.73394765402E+02 -0.63478547440E+03  0.44904758589E+03  0.78102830582E+03  0.46999998093E+01 0.  1.
</event>
<event>
 5   0  0.1408341E-04  0.1299417E+04  0.7818609E-02  0.9030027E-01
        1   -1    0    0  501    0  0.00000000000E+00  0.00000000000E+00  0.95701249777E+03  0.95701249778E+03  0.50400001928E-02 0. -1.
       -1   -1    0    0    0  501  0.00000000000E+00  0.00000000000E+00 -0.44108236813E+03  0.44108236816E+03  0.50400001928E-02 0.  1.
    10030    2    1    2    0    0  0.00000000000E+00  0.00000000000E+00  0.51593012964E+03  0.13980948659E+04  0.12994173138E+04 0.  0.
        5    1    3    3  502    0 -0.43859431067E+02  0.61501186959E+03  0.47829905055E+03  0.78035589393E+03  0.46999998093E+01 0. -1.
       -5    1    3    3    0  502  0.43859431067E+02 -0.61501186959E+03  0.37631079090E+02  0.61773897202E+03  0.46999998093E+01 0.  1.
</event>
<event>
 5   0  0.2756984E-04  0.1298011E+04  0.7818609E-02  0.9031144E-01
        2   -1    0    0  501    0  0.00000000000E+00  0.00000000000E+00  0.69999373363E+03  0.69999373364E+03  0.25500000920E-02 0. -1.
       -2   -1    0    0    0  501  0.00000000000E+00  0.00000000000E+00 -0.60173112888E+03  0.60173112888E+03  0.25500000920E-02 0.  1.
    10030    2    1    2    0    0  0.00000000000E+00  0.00000000000E+00  0.98262604756E+02  0.13017248625E+04  0.12980108159E+04 0.  0.
        3    1    3    3  502    0  0.16316610866E+03 -0.19041238115E+02 -0.58053646305E+03  0.60333103923E+03  0.10100000352E+00 0.  1.
       -3    1    3    3    0  502 -0.16316610866E+03  0.19041238115E+02  0.67879906781E+03  0.69839382330E+03  0.10100000352E+00 0. -1.
</event>
<event>
 5   0  0.2573071E-04  0.1303101E+04  0.7818609E-02  0.9027109E-01
        2   -1    0    0  501    0  0.00000000000E+00  0.00000000000E+00  0.18591240724E+04  0.18591240724E+04  0.25500000920E-02 0.  1.
       -2   -1    0    0    0  501  0.00000000000E+00  0.00000000000E+00 -0.22834314148E+03  0.22834314150E+03  0.25500000920E-02 0. -1.
    10030    2    1    2    0    0  0.00000000000E+00  0.00000000000E+00  0.16307809309E+04  0.20874672139E+04  0.13031012717E+04 0.  0.
        4    1    3    3  502    0  0.31874088278E+03 -0.55900977222E+03  0.97898230241E+03  0.11715355894E+04  0.12699999809E+01 0. -1.
       -4    1    3    3    0  502 -0.31874088278E+03  0.55900977222E+03  0.65179862847E+03  0.91593162451E+03  0.12699999809E+01 0.  1.
</event>
<event>
 5   0  0.2661377E-04  0.1300362E+04  0.7818609E-02  0.9029278E-01
        2   -1    0    0  501    0  0.00000000000E+00  0.00000000000E+00  0.14722806214E+04  0.14722806214E+04  0.25500000920E-02 0. -1.
       -2   -1    0    0    0  501  0.00000000000E+00  0.00000000000E+00 -0.28712957263E+03  0.28712957264E+03  0.25500000920E-02 0.  1.
    10030    2    1    2    0    0  0.00000000000E+00  0.00000000000E+00  0.11851510488E+04  0.17594101941E+04  0.13003619583E+04 0.  0.
        5    1    3    3  502    0 -0.33310431666E+03  0.19343074660E+03 -0.11609903488E+03  0.40233694263E+03  0.46999998093E+01 0.  1.
       -5    1    3    3    0  502  0.33310431666E+03 -0.19343074660E+03  0.13012500837E+04  0.13570732514E+04  0.46999998093E+01 0. -1.
</event>
<event>
 5   0  0.1408341E-04  0.1299766E+04  0.7818609E-02  0.9029751E-01
       -1   -1    0    0    0  501  0.00000000000E+00  0.00000000000E+00  0.44339412310E+03  0.44339412312E+03  0.50400001928E-02 0.  1.
        1   -1    0    0  501    0  0.00000000000E+00  0.00000000000E+00 -0.95253386775E+03  0.95253386776E+03  0.50400001928E-02 0. -1.
    10030    2    1    2    0    0  0.00000000000E+00  0.00000000000E+00 -0.50913974466E+03  0.13959279909E+04  0.12997660082E+04 0.  0.
        5    1    3    3  502    0  0.16730124720E+03  0.15349458616E+03  0.39939342529E+03  0.45944258995E+03  0.46999998093E+01 0.  1.
       -5    1    3    3    0  502 -0.16730124720E+03 -0.15349458616E+03 -0.90853316994E+03  0.93648540094E+03  0.46999998093E+01 0. -1.
</event>
<event>
 5   0  0.2756984E-04  0.1297551E+04  0.7818609E-02  0.9031510E-01
        2   -1    0    0  501    0  0.00000000000E+00  0.00000000000E+00  0.56903602486E+03  0.56903602486E+03  0.25500000920E-02 0. -1.
       -2   -1    0    0    0  501  0.00000000000E+00  0.00000000000E+00 -0.73968853511E+03  0.73968853512E+03  0.25500000920E-02 0.  1.
    10030    2    1    2    0    0  0.00000000000E+00  0.00000000000E+00 -0.17065251026E+03  0.13087245600E+04  0.12975506521E+04 0.  0.
        3    1    3    3  502    0 -0.21941454004E+03  0.27230257323E+03 -0.63649160919E+03  0.72623206383E+03  0.10100000352E+00 0.  1.
       -3    1    3    3    0  502  0.21941454004E+03 -0.27230257323E+03  0.46583909893E+03  0.58249249615E+03  0.10100000352E+00 0. -1.
</event>
<event>
 5   0  0.2794825E-04  0.1286472E+04  0.7818609E-02  0.9040362E-01
       -2   -1    0    0    0  501  0.00000000000E+00  0.00000000000E+00  0.60718572667E+03  0.60718572668E+03  0.25500000920E-02 0. -1.
        2   -1    0    0  501    0  0.00000000000E+00  0.00000000000E+00 -0.68142716148E+03  0.68142716149E+03  0.25500000920E-02 0.  1.
    10030    2    1    2    0    0  0.00000000000E+00  0.00000000000E+00 -0.74241434808E+02  0.12886128882E+04  0.12864724579E+04 0.  0.
        1    1    3    3  502    0 -0.19204228090E+03 -0.59645001279E+03 -0.18268969778E+03  0.65269317532E+03  0.50400001928E-02 0.  1.
       -1    1    3    3    0  502  0.19204228090E+03  0.59645001279E+03  0.10844826297E+03  0.63591971284E+03  0.50400001928E-02 0. -1.
</event>
<event>
 5   0  0.2573071E-04  0.1300071E+04  0.7818609E-02  0.9029509E-01
       -2   -1    0    0    0  501  0.00000000000E+00  0.00000000000E+00  0.24142271145E+03  0.24142271146E+03  0.25500000920E-02 0. -1.
        2   -1    0    0  501    0  0.00000000000E+00  0.00000000000E+00 -0.17502346687E+04  0.17502346687E+04  0.25500000920E-02 0.  1.
    10030    2    1    2    0    0  0.00000000000E+00  0.00000000000E+00 -0.15088119572E+04  0.19916573801E+04  0.13000713817E+04 0.  0.
        4    1    3    3  502    0 -0.36524689702E+03  0.53634221285E+03 -0.69553960146E+03  0.95123352294E+03  0.12699999809E+01 0.  1.
       -4    1    3    3    0  502  0.36524689702E+03 -0.53634221285E+03 -0.81327235574E+03  0.10404238572E+04  0.12699999809E+01 0. -1.
</event>
<event>
 5   0  0.2794825E-04  0.1303622E+04  0.7818609E-02  0.9026698E-01
       -2   -1    0    0    0  501  0.00000000000E+00  0.00000000000E+00  0.35343629135E+03  0.35343629136E+03  0.25500000920E-02 0. -1.
        2   -1    0    0  501    0  0.00000000000E+00  0.00000000000E+00 -0.12020764341E+04  0.12020764341E+04  0.25500000920E-02 0.  1.
    10030    2    1    2    0    0  0.00000000000E+00  0.00000000000E+00 -0.84864014274E+03  0.15555127255E+04  0.13036217807E+04 0.  0.
        1    1    3    3  502    0  0.32889354516E+03  0.27121333731E+03  0.16403710543E+03  0.45676669139E+03  0.50400001928E-02 0. -1.
       -1    1    3    3    0  502 -0.32889354516E+03 -0.27121333731E+03 -0.10126772482E+04  0.10987460341E+04  0.50400001928E-02 0.  1.
</event>
<event>
 5   0  0.2756984E-04  0.1303629E+04  0.7818609E-02  0.9026692E-01
        2   -1    0    0  501    0  0.00000000000E+00  0.00000000000E+00  0.92656656746E+03  0.92656656746E+03  0.25500000920E-02 0. -1.
       -2   -1    0    0    0  501  0.00000000000E+00  0.00000000000E+00 -0.45853396437E+03  0.45853396438E+03  0.25500000920E-02 0.  1.
    10030    2    1    2    0    0  0.00000000000E+00  0.00000000000E+00  0.46803260309E+03  0.13851005318E+04  0.13036291519E+04 0.  0.
        3    1    3    3  502    0  0.49822450569E+03 -0.11832381185E+03 -0.19446608006E+03  0.54776386246E+03  0.10100000352E+00 0.  1.
       -3    1    3    3    0  502 -0.49822450569E+03  0.11832381185E+03  0.66249868315E+03  0.83733666938E+03  0.10100000352E+00 0. -1.
</event>
<event>
 5   0  0.2723209E-04  0.1301907E+04  0.7818609E-02  0.9028054E-01
        2   -1    0    0  501    0  0.00000000000E+00  0.00000000000E+00  0.10922306729E+04  0.10922306729E+04  0.25500000920E-02 0.  1.
       -2   -1    0    0    0  501  0.00000000000E+00  0.00000000000E+00 -0.38795870633E+03  0.38795870634E+03  0.25500000920E-02 0. -1.
    10030    2    1    2    0    0  0.00000000000E+00  0.00000000000E+00  0.70427196659E+03  0.14801893793E+04  0.13019069074E+04 0.  0.
        2    1    3    3  502    0 -0.23456952070E+03 -0.29989952011E+03 -0.24816141172E+03  0.45447405699E+03  0.25500000920E-02 0. -1.
       -2    1    3    3    0  502  0.23456952070E+03  0.29989952011E+03  0.95243337831E+03  0.10257153223E+04  0.25500000920E-02 0.  1.
</event>
<event>
 5   0  0.2794825E-04  0.1301081E+04  0.7818609E-02  0.9028708E-01
        2   -1    0    0  501    0  0.00000000000E+00  0.00000000000E+00  0.19273203846E+04  0.19273203846E+04  0.25500000920E-02 0.  1.
       -2   -1    0    0    0  501  0.00000000000E+00  0.00000000000E+00 -0.21958099136E+03  0.21958099138E+03  0.25500000920E-02 0. -1.
    10030    2    1    2    0    0  0.00000000000E+00  0.00000000000E+00  0.17077393933E+04  0.21469013760E+04  0.13010809671E+04 0.  0.
        1    1    3    3  502    0  0.20958471651E+03 -0.61470102429E+03  0.91604588856E+03  0.11229083545E+04  0.50400001928E-02 0.  1.
       -1    1    3    3    0  502 -0.20958471651E+03  0.61470102429E+03  0.79169350471E+03  0.10239930215E+04  0.50400001928E-02 0. -1.
</event>
<event>
 5   0  0.2723209E-04  0.1287033E+04  0.7818609E-02  0.9039912E-01
        2   -1    0    0  501    0  0.00000000000E+00  0.00000000000E+00  0.70368657507E+03  0.70368657507E+03  0.25500000920E-02 0.  1.
       -2   -1    0    0    0  501  0.00000000000E+00  0.00000000000E+00 -0.58849123872E+03  0.58849123872E+03  0.25500000920E-02 0. -1.
    10030    2    1    2    0    0  0.00000000000E+00  0.00000000000E+00  0.11519533635E+03  0.12921778138E+04  0.12870328422E+04 0.  0.
        2    1    3    3  502    0  0.44533549712E+03  0.34928278278E+03 -0.24988011137E+03  0.61867781389E+03  0.25500000920E-02 0. -1.
       -2    1    3    3    0  502 -0.44533549712E+03 -0.34928278278E+03  0.36507544772E+03  0.67349999991E+03  0.25500000920E-02 0.  1.
</event>
<event>
 5   0  0.1479690E-04  0.1302423E+04  0.7818609E-02  0.9027646E-01
       -1   -1    0    0    0  501  0.00000000000E+00  0.00000000000E+00  0.23852160411E+03  0.23852160416E+03  0.50400001928E-02 0.  1.
        1   -1    0    0  501    0  0.00000000000E+00  0.00000000000E+00 -0.17779358416E+04  0.17779358416E+04  0.50400001928E-02 0. -1.
    10030    2    1    2    0    0  0.00000000000E+00  0.00000000000E+00 -0.15394142375E+04  0.20164574458E+04  0.13024225259E+04 0.  0.
        1    1    3    3  502    0  0.49265722385E+03  0.11977622634E+03 -0.13697538913E+03  0.52518543569E+03  0.50400001928E-02 0.  1.
       -1    1    3    3    0  502 -0.49265722385E+03 -0.11977622634E+03 -0.14024388484E+04  0.14912720101E+04  0.50400001928E-02 0. -1.
</event>
<event>
 5   0  0.1476511E-04  0.1302214E+04  0.7818609E-02  0.9027812E-01
       -1   -1    0    0    0  501  0.00000000000E+00  0.00000000000E+00  0.36142964776E+03  0.36142964780E+03  0.50400001928E-02 0. -1.
        1   -1    0    0  501    0  0.00000000000E+00  0.00000000000E+00 -0.11729531700E+04  0.11729531700E+04  0.50400001928E-02 0.  1.
    10030    2    1    2    0    0  0.00000000000E+00  0.00000000000E+00 -0.81152352222E+03  0.15343828178E+04  0.13022135786E+04 0.  0.
        2    1    3    3  502    0 -0.26960599442E+03 -0.17170827806E+03 -0.10741419328E+04  0.11206926505E+04  0.25500000920E-02 0.  1.
       -2    1    3    3    0  502  0.26960599442E+03  0.17170827806E+03  0.26261841057E+03  0.41369016734E+03  0.25500000920E-02 0. -1.
</event>
<event>
 5   0  0.1430636E-04  0.1300257E+04  0.7818609E-02  0.9029362E-01
       -1   -1    0    0    0  501  0.00000000000E+00  0.00000000000E+00  0.12803462467E+04  0.12803462467E+04  0.50400001928E-02 0.  1.
        1   -1    0    0  501    0  0.00000000000E+00  0.00000000000E+00 -0.33011910363E+03  0.33011910367E+03  0.50400001928E-02 0. -1.
    10030    2    1    2    0    0  0.00000000000E+00  0.00000000000E+00  0.95022714306E+03  0.16104653504E+04  0.13002565214E+04 0.  0.
        4    1    3    3  502    0  0.59019276340E+03  0.10645197313E+03  0.78600732480E+03  0.98867014119E+03  0.12699999809E+01 0.  1.
       -4    1    3    3    0  502 -0.59019276340E+03 -0.10645197313E+03  0.16421981826E+03  0.62179520918E+03  0.12699999809E+01 0. -1.
</event>
<event>
 5   0  0.1408341E-04  0.1299808E+04  0.7818609E-02  0.9029717E-01
        1   -1    0    0  501    0  0.00000000000E+00  0.00000000000E+00  0.29066774606E+04  0.29066774606E+04  0.50400001928E-02 0.  1.
       -1   -1    0    0    0  501  0.00000000000E+00  0.00000000000E+00 -0.14531206352E+03  0.14531206361E+03  0.50400001928E-02 0. -1.
    10030    2    1    2    0    0  0.00000000000E+00  0.00000000000E+00  0.27613653970E+04  0.30519895242E+04  0.12998081396E+04 0.  0.
        5    1    3    3  502    0 -0.55583044462E+03  0.31782142004E+03  0.16420984862E+04  0.17625173663E+04  0.46999998093E+01 0.  1.
       -5    1    3    3    0  502  0.55583044462E+03 -0.31782142004E+03  0.11192669109E+04  0.12894721579E+04  0.46999998093E+01 0. -1.
</event>
<event>
 5   0  0.2756984E-04  0.1299294E+04  0.7818609E-02  0.9030125E-01
        2   -1    0    0  501    0  0.00000000000E+00  0.00000000000E+00  0.16975982380E+04  0.16975982380E+04  0.25500000920E-02 0.  1.
       -2   -1    0    0    0  501  0.00000000000E+00  0.00000000000E+00 -0.24861078301E+03  0.24861078303E+03  0.25500000920E-02 0. -1.
    10030    2    1    2    0    0  0.00000000000E+00  0.00000000000E+00  0.14489874549E+04  0.19462090210E+04  0.12992940040E+04 0.  0.
        3    1    3    3  502    0 -0.41098226900E+03  0.38182931557E+03  0.23373819992E+03  0.60772823528E+03  0.10100000352E+00 0. -1.
       -3    1    3    3    0  502  0.41098226900E+03 -0.38182931557E+03  0.12152492550E+04  0.13384807857E+04  0.10100000352E+00 0.  1.
</event>
<event>
 5   0  0.1002887E-04  0.1300388E+04  0.7818609E-02  0.9029258E-01
        3   -1    0    0  501    0  0.00000000000E+00  0.00000000000E+00  0.47340362198E+03  0.47340363276E+03  0.10100000352E+00 0.  1.
       -3   -1    0    0    0  501  0.00000000000E+00  0.00000000000E+00 -0.89300530949E+03  0.89300531520E+03  0.10100000352E+00 0. -1.
    10030    2    1    2    0    0  0.00000000000E+00  0.00000000000E+00 -0.41960168750E+03  0.13664089480E+04  0.13003875718E+04 0.  0.
        3    1    3    3  502    0 -0.69747786272E+02  0.27806477926E+03  0.40340922875E+03  0.49489775833E+03  0.10100000352E+00 0.  1.
       -3    1    3    3    0  502  0.69747786272E+02 -0.27806477926E+03 -0.82301091626E+03  0.87151118962E+03  0.10100000352E+00 0. -1.
</event>
<event>
 5   0  0.2756984E-04  0.1301360E+04  0.7818609E-02  0.9028488E-01
       -2   -1    0    0    0  501  0.00000000000E+00  0.00000000000E+00  0.38207857730E+03  0.38207857731E+03  0.25500000920E-02 0. -1.
        2   -1    0    0  501    0  0.00000000000E+00  0.00000000000E+00 -0.11081075677E+04  0.11081075677E+04  0.25500000920E-02 0.  1.
    10030    2    1    2    0    0  0.00000000000E+00  0.00000000000E+00 -0.72602899037E+03  0.14901861450E+04  0.13013595398E+04 0.  0.
        3    1    3    3  502    0 -0.58351823783E+02 -0.62192644714E+03 -0.15440919779E+03  0.64345912967E+03  0.10100000352E+00 0. -1.
       -3    1    3    3    0  502  0.58351823783E+02  0.62192644714E+03 -0.57161979258E+03  0.84672701531E+03  0.10100000352E+00 0.  1.
</event>
<event>
 5   0  0.1475396E-04  0.1295517E+04  0.7818609E-02  0.9033127E-01
        1   -1    0    0  501    0  0.00000000000E+00  0.00000000000E+00  0.42791032392E+03  0.42791032395E+03  0.50400001928E-02 0. -1.
       -1   -1    0    0    0  501  0.00000000000E+00  0.00000000000E+00 -0.98055899257E+03  0.98055899258E+03  0.50400001928E-02 0.  1.
    10030    2    1    2    0    0  0.00000000000E+00  0.00000000000E+00 -0.55264866865E+03  0.14084693165E+04  0.12955173733E+04 0.  0.
        3    1    3    3  502    0  0.49721222763E+03  0.19514107467E+03 -0.67473232070E+03  0.86056013917E+03  0.10100000352E+00 0. -1.
       -3    1    3    3    0  502 -0.49721222763E+03 -0.19514107467E+03  0.12208365205E+03  0.54790917735E+03  0.10100000352E+00 0.  1.
</event>
<event>
 5   0  0.1430636E-04  0.1299908E+04  0.7818609E-02  0.9029638E-01
       -1   -1    0    0    0  501  0.00000000000E+00  0.00000000000E+00  0.56487761364E+03  0.56487761366E+03  0.50400001928E-02 0. -1.
        1   -1    0    0  501    0  0.00000000000E+00  0.00000000000E+00 -0.74784366824E+03  0.74784366826E+03  0.50400001928E-02 0.  1.
    10030    2    1    2    0    0  0.00000000000E+00  0.00000000000E+00 -0.18296605461E+03  0.13127212819E+04  0.12999079148E+04 0.  0.
        4    1    3    3  502    0  0.26759248865E+03 -0.14946759987E+03  0.48730893182E+03  0.57568907522E+03  0.12699999809E+01 0. -1.
       -4    1    3    3    0  502 -0.26759248865E+03  0.14946759987E+03 -0.67027498643E+03  0.73703220670E+03  0.12699999809E+01 0.  1.
</event>
<event>
 5   0  0.1408341E-04  0.1294874E+04  0.7818609E-02  0.9033640E-01
        1   -1    0    0  501    0  0.00000000000E+00  0.00000000000E+00  0.12682517360E+04  0.12682517360E+04  0.50400001928E-02 0. -1.
       -1   -1    0    0    0  501  0.00000000000E+00  0.00000000000E+00 -0.33051389293E+03  0.33051389297E+03  0.50400001928E-02 0.  1.
    10030    2    1    2    0    0  0.00000000000E+00  0.00000000000E+00  0.93773784309E+03  0.15987656290E+04  0.12948742310E+04 0.  0.
        5    1    3    3  502    0 -0.42494685664E+03 -0.19148517088E+03  0.10236634623E+04  0.11247912587E+04  0.46999998093E+01 0. -1.
       -5    1    3    3    0  502  0.42494685664E+03  0.19148517088E+03 -0.85925619221E+02  0.47397437027E+03  0.46999998093E+01 0.  1.
</event>
<event>
 5   0  0.2573071E-04  0.1300201E+04  0.7818609E-02  0.9029406E-01
        2   -1    0    0  501    0  0.00000000000E+00  0.00000000000E+00  0.12133821565E+04  0.12133821565E+04  0.25500000920E-02 0.  1.
       -2   -1    0    0    0  501  0.00000000000E+00  0.00000000000E+00 -0.34830814351E+03  0.34830814352E+03  0.25500000920E-02 0. -1.
    10030    2    1    2    0    0  0.00000000000E+00  0.00000000000E+00  0.86507401299E+03  0.15616903000E+04  0.13002013480E+04 0.  0.
        4    1    3    3  502    0 -0.20132386943E+02  0.41227922631E+03 -0.17071630710E+03  0.44668237469E+03  0.12699999809E+01 0. -1.
       -4    1    3    3    0  502  0.20132386943E+02 -0.41227922631E+03  0.10357903201E+04  0.11150079253E+04  0.12699999809E+01 0.  1.
</event>
<event>
 5   0  0.2573071E-04  0.1300303E+04  0.7818609E-02  0.9029325E-01
       -2   -1    0    0    0  501  0.00000000000E+00  0.00000000000E+00  0.20447717905E+03  0.20447717907E+03  0.25500000920E-02 0. -1.
        2   -1    0    0  501    0  0.00000000000E+00  0.00000000000E+00 -0.20672099005E+04  0.20672099005E+04  0.25500000920E-02 0.  1.
    10030    2    1    2    0    0  0.00000000000E+00  0.00000000000E+00 -0.18627327215E+04  0.22716870796E+04  0.13003034246E+04 0.  0.
        4    1    3    3  502    0  0.55165979137E+03  0.55349540359E+02 -0.33813360846E+03  0.64940591859E+03  0.12699999809E+01 0. -1.
       -4    1    3    3    0  502 -0.55165979137E+03 -0.55349540359E+02 -0.15245991130E+04  0.16222811610E+04  0.12699999809E+01 0.  1.
</event>
<event>
 5   0  0.2756984E-04  0.1303666E+04  0.7818609E-02  0.9026663E-01
        2   -1    0    0  501    0  0.00000000000E+00  0.00000000000E+00  0.21405329183E+04  0.21405329183E+04  0.25500000920E-02 0. -1.
       -2   -1    0    0    0  501  0.00000000000E+00  0.00000000000E+00 -0.19849543960E+03  0.19849543962E+03  0.25500000920E-02 0.  1.
    10030    2    1    2    0    0  0.00000000000E+00  0.00000000000E+00  0.19420374787E+04  0.23390283580E+04  0.13036656360E+04 0.  0.
        3    1    3    3  502    0 -0.53244949518E+03 -0.64964520552E+02  0.16355080637E+04  0.17212232541E+04  0.10100000352E+00 0. -1.
       -3    1    3    3    0  502  0.53244949518E+03  0.64964520552E+02  0.30652941501E+03  0.61780510383E+03  0.10100000352E+00 0.  1.
</event>
<event>
 5   0  0.1479690E-04  0.1299491E+04  0.7818609E-02  0.9029969E-01
       -1   -1    0    0    0  501  0.00000000000E+00  0.00000000000E+00  0.98293800946E+03  0.98293800947E+03  0.50400001928E-02 0. -1.
        1   -1    0    0  501    0  0.00000000000E+00  0.00000000000E+00 -0.42949696312E+03  0.42949696315E+03  0.50400001928E-02 0.  1.
    10030    2    1    2    0    0  0.00000000000E+00  0.00000000000E+00  0.55344104633E+03  0.14124349726E+04  0.12994905002E+04 0.  0.
        1    1    3    3  502    0 -0.26116369461E+03 -0.58919053371E+03  0.18697976006E+03  0.67105394052E+03  0.50400001928E-02 0. -1.
       -1    1    3    3    0  502  0.26116369461E+03  0.58919053371E+03  0.36646128628E+03  0.74138103210E+03  0.50400001928E-02 0.  1.
</event>
<event>
 5   0  0.2573071E-04  0.1268792E+04  0.7818609E-02  0.9054686E-01
       -2   -1    0    0    0  501  0.00000000000E+00  0.00000000000E+00  0.14711468652E+04  0.14711468652E+04  0.25500000920E-02 0. -1.
        2   -1    0    0  501    0  0.00000000000E+00  0.00000000000E+00 -0.27356781473E+03  0.27356781474E+03  0.25500000920E-02 0.  1.
    10030    2    1    2    0    0  0.00000000000E+00  0.00000000000E+00  0.11975790505E+04  0.17447146799E+04  0.12687922337E+04 0.  0.
        4    1    3    3  502    0 -0.21471669129E+03  0.11424097842E+03 -0.20690873432E+03  0.31932287094E+03  0.12699999809E+01 0.  1.
       -4    1    3    3    0  502  0.21471669129E+03 -0.11424097842E+03  0.14044877848E+04  0.14253918090E+04  0.12699999809E+01 0. -1.
</event>
<event>
 5   0  0.1430636E-04  0.1302337E+04  0.7818609E-02  0.9027714E-01
       -1   -1    0    0    0  501  0.00000000000E+00  0.00000000000E+00  0.44525475503E+03  0.44525475506E+03  0.50400001928E-02 0. -1.
        1   -1    0    0  501    0  0.00000000000E+00  0.00000000000E+00 -0.95230932282E+03  0.95230932284E+03  0.50400001928E-02 0.  1.
    10030    2    1    2    0    0  0.00000000000E+00  0.00000000000E+00 -0.50705456779E+03  0.13975640779E+04  0.13023367526E+04 0.  0.
        4    1    3    3  502    0 -0.30714947400E+03 -0.31112292091E+03  0.26433570533E+03  0.51089455791E+03  0.12699999809E+01 0. -1.
       -4    1    3    3    0  502  0.30714947400E+03  0.31112292091E+03 -0.77139027312E+03  0.88666951998E+03  0.12699999809E+01 0.  1.
</event>
<event>
 5   0  0.2794825E-04  0.1299885E+04  0.7818609E-02  0.9029656E-01
       -2   -1    0    0    0  501  0.00000000000E+00  0.00000000000E+00  0.83450879055E+03  0.83450879056E+03  0.25500000920E-02 0. -1.
        2   -1    0    0  501    0  0.00000000000E+00  0.00000000000E+00 -0.50619638936E+03  0.50619638937E+03  0.25500000920E-02 0.  1.
    10030    2    1    2    0    0  0.00000000000E+00  0.00000000000E+00  0.32831240119E+03  0.13407051799E+04  0.12998851283E+04 0.  0.
        1    1    3    3  502    0  0.95036065825E+02  0.10115751606E+03 -0.49073231583E+03  0.50998323765E+03  0.50400001928E-02 0.  1.
       -1    1    3    3    0  502 -0.95036065825E+02 -0.10115751606E+03  0.81904471702E+03  0.83072194227E+03  0.50400001928E-02 0. -1.
</event>
<event>
 5   0  0.2661377E-04  0.1295709E+04  0.7818609E-02  0.9032975E-01
        2   -1    0    0  501    0  0.00000000000E+00  0.00000000000E+00  0.68692620033E+03  0.68692620034E+03  0.25500000920E-02 0.  1.
       -2   -1    0    0    0  501  0.00000000000E+00  0.00000000000E+00 -0.61100485194E+03  0.61100485194E+03  0.25500000920E-02 0. -1.
    10030    2    1    2    0    0  0.00000000000E+00  0.00000000000E+00  0.75921348396E+02  0.12979310523E+04  0.12957086730E+04 0.  0.
        5    1    3    3  502    0 -0.18544871930E+03 -0.35607990970E+02  0.65872834637E+03  0.68527679139E+03  0.46999998093E+01 0.  1.
       -5    1    3    3    0  502  0.18544871930E+03  0.35607990970E+02 -0.58280699797E+03  0.61265426089E+03  0.46999998093E+01 0. -1.
</event>
<event>
 5   0  0.1479690E-04  0.1291504E+04  0.7818609E-02  0.9036330E-01
        1   -1    0    0  501    0  0.00000000000E+00  0.00000000000E+00  0.21056247067E+03  0.21056247073E+03  0.50400001928E-02 0. -1.
       -1   -1    0    0    0  501  0.00000000000E+00  0.00000000000E+00 -0.19803878943E+04  0.19803878943E+04  0.50400001928E-02 0.  1.
    10030    2    1    2    0    0  0.00000000000E+00  0.00000000000E+00 -0.17698254236E+04  0.21909503650E+04  0.12915035702E+04 0.  0.
        1    1    3    3  502    0 -0.62999488737E+03 -0.12510463579E+03 -0.77173832262E+03  0.10040541652E+04  0.50400001928E-02 0. -1.
       -1    1    3    3    0  502  0.62999488737E+03  0.12510463579E+03 -0.99808710100E+03  0.11868961999E+04  0.50400001928E-02 0.  1.
</event>
<event>
 5   0  0.1479690E-04  0.1299496E+04  0.7818609E-02  0.9029965E-01
       -1   -1    0    0    0  501  0.00000000000E+00  0.00000000000E+00  0.26617427770E+03  0.26617427775E+03  0.50400001928E-02 0.  1.
        1   -1    0    0  501    0  0.00000000000E+00  0.00000000000E+00 -0.15860741553E+04  0.15860741553E+04  0.50400001928E-02 0. -1.
    10030    2    1    2    0    0  0.00000000000E+00  0.00000000000E+00 -0.13198998776E+04  0.18522484331E+04  0.12994955063E+04 0.  0.
        1    1    3    3  502    0 -0.20313488252E+03  0.50800321667E+03 -0.16038000610E+03  0.57013401497E+03  0.50400001928E-02 0.  1.
       -1    1    3    3    0  502  0.20313488252E+03 -0.50800321667E+03 -0.11595198715E+04  0.12821144181E+04  0.50400001928E-02 0. -1.
</event>
<event>
 5   0  0.1430636E-04  0.1300777E+04  0.7818609E-02  0.9028949E-01
        1   -1    0    0  501    0  0.00000000000E+00  0.00000000000E+00  0.69822541182E+03  0.69822541184E+03  0.50400001928E-02 0. -1.
       -1   -1    0    0    0  501  0.00000000000E+00  0.00000000000E+00 -0.60582903951E+03  0.60582903953E+03  0.50400001928E-02 0.  1.
    10030    2    1    2    0    0  0.00000000000E+00  0.00000000000E+00  0.92396372308E+02  0.13040544514E+04  0.13007770457E+04 0.  0.
        4    1    3    3  502    0 -0.37729009886E+03  0.31966578608E+03  0.46971920372E+03  0.68203502603E+03  0.12699999809E+01 0. -1.
       -4    1    3    3    0  502  0.37729009886E+03 -0.31966578608E+03 -0.37732283142E+03  0.62201942534E+03  0.12699999809E+01 0.  1.
</event>
<event>
 5   0  0.2573071E-04  0.1300102E+04  0.7818609E-02  0.9029485E-01
       -2   -1    0    0    0  501  0.00000000000E+00  0.00000000000E+00  0.25991555148E+03  0.25991555149E+03  0.25500000920E-02 0. -1.
        2   -1    0    0  501    0  0.00000000000E+00  0.00000000000E+00 -0.16257823309E+04  0.16257823309E+04  0.25500000920E-02 0.  1.
    10030    2    1    2    0    0  0.00000000000E+00  0.00000000000E+00 -0.13658667794E+04  0.18856978824E+04  0.13001017054E+04 0.  0.
        4    1    3    3  502    0  0.49038604597E+03 -0.13187967566E+03 -0.94315607702E+02  0.51649566280E+03  0.12699999809E+01 0. -1.
       -4    1    3    3    0  502 -0.49038604597E+03  0.13187967566E+03 -0.12715511717E+04  0.13692022196E+04  0.12699999809E+01 0.  1.
</event>
<event>
 5   0  0.1479690E-04  0.1294117E+04  0.7818609E-02  0.9034243E-01
       -1   -1    0    0    0  501  0.00000000000E+00  0.00000000000E+00  0.16522501946E+04  0.16522501946E+04  0.50400001928E-02 0. -1.
        1   -1    0    0  501    0  0.00000000000E+00  0.00000000000E+00 -0.25340283532E+03  0.25340283537E+03  0.50400001928E-02 0.  1.
    10030    2    1    2    0    0  0.00000000000E+00  0.00000000000E+00  0.13988473592E+04  0.19056530299E+04  0.12941172806E+04 0.  0.
        1    1    3    3  502    0 -0.40064571295E+03  0.43942204797E+03  0.32377561654E+03  0.67708151166E+03  0.50400001928E-02 0. -1.
       -1    1    3    3    0  502  0.40064571295E+03 -0.43942204797E+03  0.10750717427E+04  0.12285715183E+04  0.50400001928E-02 0.  1.
</event>
<event>
 5   0  0.2794825E-04  0.1296105E+04  0.7818609E-02  0.9032660E-01
        2   -1    0    0  501    0  0.00000000000E+00  0.00000000000E+00  0.13995815081E+04  0.13995815081E+04  0.25500000920E-02 0.  1.
       -2   -1    0    0    0  501  0.00000000000E+00  0.00000000000E+00 -0.30006970048E+03  0.30006970049E+03  0.25500000920E-02 0. -1.
    10030    2    1    2    0    0  0.00000000000E+00  0.00000000000E+00  0.10995118076E+04  0.16996512086E+04  0.12961049401E+04 0.  0.
        1    1    3    3  502    0 -0.27402644050E+03 -0.17879729304E+03 -0.18379705584E+03  0.37528698333E+03  0.50400001928E-02 0. -1.
       -1    1    3    3    0  502  0.27402644050E+03  0.17879729304E+03  0.12833088634E+04  0.13243642252E+04  0.50400001928E-02 0.  1.
</event>
<event>
 5   0  0.1002887E-04  0.1303471E+04  0.7818609E-02  0.9026817E-01
       -3   -1    0    0    0  501  0.00000000000E+00  0.00000000000E+00  0.30186512322E+03  0.30186514012E+03  0.10100000352E+00 0.  1.
        3   -1    0    0  501    0  0.00000000000E+00  0.00000000000E+00 -0.14071154493E+04  0.14071154529E+04  0.10100000352E+00 0. -1.
    10030    2    1    2    0    0  0.00000000000E+00  0.00000000000E+00 -0.11052503261E+04  0.17089805930E+04  0.13034708988E+04 0.  0.
        1    1    3    3  502    0 -0.79618975038E+02 -0.11338384850E+03 -0.13875848348E+04  0.13944844037E+04  0.50400001928E-02 0. -1.
       -1    1    3    3    0  502  0.79618975038E+02  0.11338384850E+03  0.28233450872E+03  0.31449618937E+03  0.50400001928E-02 0.  1.
</event>
<event>
 5   0  0.1408341E-04  0.1294993E+04  0.7818609E-02  0.9033545E-01
       -1   -1    0    0    0  501  0.00000000000E+00  0.00000000000E+00  0.23903280338E+03  0.23903280343E+03  0.50400001928E-02 0. -1.
        1   -1    0    0  501    0  0.00000000000E+00  0.00000000000E+00 -0.17539505912E+04  0.17539505912E+04  0.50400001928E-02 0.  1.
    10030    2    1    2    0    0  0.00000000000E+00  0.00000000000E+00 -0.15149177878E+04  0.19929833946E+04  0.12949930144E+04 0.  0.
        5    1    3    3  502    0  0.62077276294E+03 -0.18052749092E+03 -0.81253326673E+03  0.10383551405E+04  0.46999998093E+01 0. -1.
       -5    1    3    3    0  502 -0.62077276294E+03  0.18052749092E+03 -0.70238452110E+03  0.95462825418E+03  0.46999998093E+01 0.  1.
</event>
<event>
 5   0  0.2756984E-04  0.1303080E+04  0.7818609E-02  0.9027126E-01
       -2   -1    0    0    0  501  0.00000000000E+00  0.00000000000E+00  0.30514855173E+03  0.30514855174E+03  0.25500000920E-02 0. -1.
        2   -1    0    0  501    0  0.00000000000E+00  0.00000000000E+00 -0.13911396513E+04  0.13911396513E+04  0.25500000920E-02 0.  1.
    10030    2    1    2    0    0  0.00000000000E+00  0.00000000000E+00 -0.10859910996E+04  0.16962882031E+04  0.13030798132E+04 0.  0.
        3    1    3    3  502    0  0.54882393328E+03 -0.35097889248E+03 -0.55666996624E+03  0.85689868375E+03  0.10100000352E+00 0. -1.
       -3    1    3    3    0  502 -0.54882393328E+03  0.35097889248E+03 -0.52932113336E+03  0.83938951931E+03  0.10100000352E+00 0.  1.
</event>
<event>
 5   0  0.1479690E-04  0.1297495E+04  0.7818609E-02  0.9031554E-01
        1   -1    0    0  501    0  0.00000000000E+00  0.00000000000E+00  0.21177169097E+04  0.21177169097E+04  0.50400001928E-02 0. -1.
       -1   -1    0    0    0  501  0.00000000000E+00  0.00000000000E+00 -0.19873907764E+03  0.19873907770E+03  0.50400001928E-02 0.  1.
    10030    2    1    2    0    0  0.00000000000E+00  0.00000000000E+00  0.19189778321E+04  0.23164559874E+04  0.12974946712E+04 0.  0.
        1    1    3    3  502    0 -0.38950377949E+03 -0.49283630085E+03  0.12488682076E+04  0.13979530083E+04  0.50400001928E-02 0. -1.
       -1    1    3    3    0  502  0.38950377949E+03  0.49283630085E+03  0.67010962451E+03  0.91850297907E+03  0.50400001928E-02 0.  1.
</event>
<event>
 5   0  0.1408341E-04  0.1297054E+04  0.7818609E-02  0.9031905E-01
       -1   -1    0    0    0  501  0.00000000000E+00  0.00000000000E+00  0.89235196355E+03  0.89235196356E+03  0.50400001928E-02 0. -1.
        1   -1    0    0  501    0  0.00000000000E+00  0.00000000000E+00 -0.47132411986E+03  0.47132411989E+03  0.50400001928E-02 0.  1.
    10030    2    1    2    0    0  0.00000000000E+00  0.00000000000E+00  0.42102784369E+03  0.13636760834E+04  0.12970535900E+04 0.  0.
        5    1    3    3  502    0  0.28075332908E+03 -0.46500275974E+03 -0.16196437490E+03  0.56683731978E+03  0.46999998093E+01 0.  1.
       -5    1    3    3    0  502 -0.28075332908E+03  0.46500275974E+03  0.58299221859E+03  0.79683876367E+03  0.46999998093E+01 0. -1.
</event>
<event>
 5   0  0.1002887E-04  0.1300136E+04  0.7818609E-02  0.9029458E-01
        3   -1    0    0  501    0  0.00000000000E+00  0.00000000000E+00  0.97351066439E+03  0.97351066963E+03  0.10100000352E+00 0. -1.
       -3   -1    0    0    0  501  0.00000000000E+00  0.00000000000E+00 -0.43408682787E+03  0.43408683962E+03  0.10100000352E+00 0.  1.
    10030    2    1    2    0    0  0.00000000000E+00  0.00000000000E+00  0.53942383652E+03  0.14075975093E+04  0.13001356363E+04 0.  0.
        5    1    3    3  502    0 -0.50061667110E+03  0.15017915553E+03 -0.14875219459E+03  0.54343365330E+03  0.46999998093E+01 0.  1.
       -5    1    3    3    0  502  0.50061667110E+03 -0.15017915553E+03  0.68817603111E+03  0.86416385595E+03  0.46999998093E+01 0. -1.
</event>
<event>
 5   0  0.2661377E-04  0.1299705E+04  0.7818609E-02  0.9029799E-01
        2   -1    0    0  501    0  0.00000000000E+00  0.00000000000E+00  0.47241203767E+03  0.47241203767E+03  0.25500000920E-02 0. -1.
       -2   -1    0    0    0  501  0.00000000000E+00  0.00000000000E+00 -0.89393989957E+03  0.89393989957E+03  0.25500000920E-02 0.  1.
    10030    2    1    2    0    0  0.00000000000E+00  0.00000000000E+00 -0.42152786190E+03  0.13663519372E+04  0.12997045349E+04 0.  0.
        5    1    3    3  502    0 -0.11781732407E+03  0.61835907655E+03 -0.41129698317E+02  0.63084277873E+03  0.46999998093E+01 0. -1.
       -5    1    3    3    0  502  0.11781732407E+03 -0.61835907655E+03 -0.38039816358E+03  0.73550915851E+03  0.46999998093E+01 0.  1.
</event>
<event>
 5   0  0.1479690E-04  0.1299840E+04  0.7818609E-02  0.9029692E-01
       -1   -1    0    0    0  501  0.00000000000E+00  0.00000000000E+00  0.41776972261E+03  0.41776972264E+03  0.50400001928E-02 0.  1.
        1   -1    0    0  501    0  0.00000000000E+00  0.00000000000E+00 -0.10110740869E+04  0.10110740869E+04  0.50400001928E-02 0. -1.
    10030    2    1    2    0    0  0.00000000000E+00  0.00000000000E+00 -0.59330436428E+03  0.14288438095E+04  0.12998402069E+04 0.  0.
        1    1    3    3  502    0  0.77612300574E+02 -0.36251571581E+02  0.41153708409E+03  0.42035772534E+03  0.50400001928E-02 0.  1.
       -1    1    3    3    0  502 -0.77612300574E+02  0.36251571581E+02 -0.10048414484E+04  0.10084860842E+04  0.50400001928E-02 0. -1.
</event>
<event>
 5   0  0.1408341E-04  0.1303142E+04  0.7818609E-02  0.9027077E-01
        1   -1    0    0  501    0  0.00000000000E+00  0.00000000000E+00  0.57331077698E+03  0.57331077701E+03  0.50400001928E-02 0. -1.
       -1   -1    0    0    0  501  0.00000000000E+00  0.00000000000E+00 -0.74051474794E+03  0.74051474795E+03  0.50400001928E-02 0.  1.
    10030    2    1    2    0    0  0.00000000000E+00  0.00000000000E+00 -0.16720397095E+03  0.13138255250E+04  0.13031424873E+04 0.  0.
        5    1    3    3  502    0  0.73676918503E+02  0.64619904778E+03 -0.12292813847E+03  0.66191760431E+03  0.46999998093E+01 0. -1.
       -5    1    3    3    0  502 -0.73676918503E+02 -0.64619904778E+03 -0.44275832483E+02  0.65190792065E+03  0.46999998093E+01 0.  1.
</event>
<event>
 5   0  0.1475396E-04  0.1299092E+04  0.7818609E-02  0.9030286E-01
        1   -1    0    0  501    0  0.00000000000E+00  0.00000000000E+00  0.39581906474E+03  0.39581906477E+03  0.50400001928E-02 0. -1.
       -1   -1    0    0    0  501  0.00000000000E+00  0.00000000000E+00 -0.10659157810E+04  0.10659157810E+04  0.50400001928E-02 0.  1.
    10030    2    1    2    0    0  0.00000000000E+00  0.00000000000E+00 -0.67009671629E+03  0.14617348458E+04  0.12990916635E+04 0.  0.
        3    1    3    3  502    0  0.65003688283E+02  0.33614281244E+03  0.28604881008E+03  0.44614056282E+03  0.10100000352E+00 0. -1.
       -3    1    3    3    0  502 -0.65003688283E+02 -0.33614281244E+03 -0.95614552638E+03  0.10155942830E+04  0.10100000352E+00 0.  1.
</event>
<event>
 5   0  0.2573071E-04  0.1299153E+04  0.7818609E-02  0.9030237E-01
       -2   -1    0    0    0  501  0.00000000000E+00  0.00000000000E+00  0.19211018321E+03  0.19211018323E+03  0.25500000920E-02 0.  1.
        2   -1    0    0  501    0  0.00000000000E+00  0.00000000000E+00 -0.21963937315E+04  0.21963937315E+04  0.25500000920E-02 0. -1.
    10030    2    1    2    0    0  0.00000000000E+00  0.00000000000E+00 -0.20042835483E+04  0.23885039148E+04  0.12991529582E+04 0.  0.
        4    1    3    3  502    0  0.64460093875E+03  0.55564467946E+02 -0.89572707570E+03  0.11049553780E+04  0.12699999809E+01 0.  1.
       -4    1    3    3    0  502 -0.64460093875E+03 -0.55564467946E+02 -0.11085564726E+04  0.12835485368E+04  0.12699999809E+01 0. -1.
</event>
<event>
 5   0  0.1476511E-04  0.1301962E+04  0.7818609E-02  0.9028011E-01
       -1   -1    0    0    0  501  0.00000000000E+00  0.00000000000E+00  0.80229724943E+03  0.80229724945E+03  0.50400001928E-02 0.  1.
        1   -1    0    0  501    0  0.00000000000E+00  0.00000000000E+00 -0.52820339969E+03  0.52820339972E+03  0.50400001928E-02 0. -1.
    10030    2    1    2    0    0  0.00000000000E+00  0.00000000000E+00  0.27409384974E+03  0.13305006492E+04  0.13019618040E+04 0.  0.
        2    1    3    3  502    0  0.43990897094E+03  0.31466255766E+02 -0.35226609911E+03  0.56444790066E+03  0.25500000920E-02 0. -1.
       -2    1    3    3    0  502 -0.43990897094E+03 -0.31466255766E+02  0.62635994885E+03  0.76605274851E+03  0.25500000920E-02 0.  1.
</event>
<event>
 5   0  0.1002887E-04  0.1300476E+04  0.7818609E-02  0.9029188E-01
       -3   -1    0    0    0  501  0.00000000000E+00  0.00000000000E+00  0.15357623049E+04  0.15357623082E+04  0.10100000352E+00 0.  1.
        3   -1    0    0  501    0  0.00000000000E+00  0.00000000000E+00 -0.27530920301E+03  0.27530922154E+03  0.10100000352E+00 0. -1.
    10030    2    1    2    0    0  0.00000000000E+00  0.00000000000E+00  0.12604531019E+04  0.18110715298E+04  0.13004760912E+04 0.  0.
        4    1    3    3  502    0  0.49132849971E+03 -0.20784134201E+03  0.11479489688E+04  0.12658555075E+04  0.12699999809E+01 0.  1.
       -4    1    3    3    0  502 -0.49132849971E+03  0.20784134201E+03  0.11250413313E+03  0.54521602227E+03  0.12699999809E+01 0. -1.
</event>
<event>
 5   0  0.2794825E-04  0.1302777E+04  0.7818609E-02  0.9027366E-01
       -2   -1    0    0    0  501  0.00000000000E+00  0.00000000000E+00  0.70200662893E+03  0.70200662894E+03  0.25500000920E-02 0. -1.
        2   -1    0    0  501    0  0.00000000000E+00  0.00000000000E+00 -0.60441975160E+03  0.60441975161E+03  0.25500000920E-02 0.  1.
    10030    2    1    2    0    0  0.00000000000E+00  0.00000000000E+00  0.97586877327E+02  0.13064263805E+04  0.13027765308E+04 0.  0.
        1    1    3    3  502    0 -0.19902975229E+03 -0.23472825423E+03  0.62450678231E+03  0.69621757864E+03  0.50400001928E-02 0. -1.
       -1    1    3    3    0  502  0.19902975229E+03  0.23472825423E+03 -0.52691990499E+03  0.61020880191E+03  0.50400001928E-02 0.  1.
</event>
<event>
 5   0  0.2573071E-04  0.1281258E+04  0.7818609E-02  0.9044561E-01
       -2   -1    0    0    0  501  0.00000000000E+00  0.00000000000E+00  0.59649892015E+03  0.59649892016E+03  0.25500000920E-02 0. -1.
        2   -1    0    0  501    0  0.00000000000E+00  0.00000000000E+00 -0.68802364891E+03  0.68802364892E+03  0.25500000920E-02 0.  1.
    10030    2    1    2    0    0  0.00000000000E+00  0.00000000000E+00 -0.91524728763E+02  0.12845225691E+04  0.12812577627E+04 0.  0.
        4    1    3    3  502    0 -0.31142679155E+03 -0.92719332713E+02 -0.59927446861E+03  0.68170009739E+03  0.12699999809E+01 0.  1.
       -4    1    3    3    0  502  0.31142679155E+03  0.92719332713E+02  0.50774973985E+03  0.60282247168E+03  0.12699999809E+01 0. -1.
</event>
<event>
 5   0  0.2573071E-04  0.1299182E+04  0.7818609E-02  0.9030214E-01
       -2   -1    0    0    0  501  0.00000000000E+00  0.00000000000E+00  0.39126718313E+03  0.39126718314E+03  0.25500000920E-02 0. -1.
        2   -1    0    0  501    0  0.00000000000E+00  0.00000000000E+00 -0.10784670251E+04  0.10784670251E+04  0.25500000920E-02 0.  1.
    10030    2    1    2    0    0  0.00000000000E+00  0.00000000000E+00 -0.68719984193E+03  0.14697342082E+04  0.12991824429E+04 0.  0.
        4    1    3    3  502    0  0.14776565690E+03  0.58517941492E+03 -0.71863921889E+02  0.60781220223E+03  0.12699999809E+01 0. -1.
       -4    1    3    3    0  502 -0.14776565690E+03 -0.58517941492E+03 -0.61533592004E+03  0.86192200598E+03  0.12699999809E+01 0.  1.
</event>
<event>
 5   0  0.2573071E-04  0.1298983E+04  0.7818609E-02  0.9030372E-01
        2   -1    0    0  501    0  0.00000000000E+00  0.00000000000E+00  0.55170646026E+03  0.55170646027E+03  0.25500000920E-02 0.  1.
       -2   -1    0    0    0  501  0.00000000000E+00  0.00000000000E+00 -0.76460820958E+03  0.76460820958E+03  0.25500000920E-02 0. -1.
    10030    2    1    2    0    0  0.00000000000E+00  0.00000000000E+00 -0.21290174931E+03  0.13163146698E+04  0.12989831235E+04 0.  0.
        4    1    3    3  502    0 -0.51504468864E+03  0.28268920205E+03 -0.38700851042E+03  0.70353494319E+03  0.12699999809E+01 0. -1.
       -4    1    3    3    0  502  0.51504468864E+03 -0.28268920205E+03  0.17410676110E+03  0.61277972666E+03  0.12699999809E+01 0.  1.
</event>
<event>
 5   0  0.2756984E-04  0.1299953E+04  0.7818609E-02  0.9029603E-01
       -2   -1    0    0    0  501  0.00000000000E+00  0.00000000000E+00  0.17241426369E+03  0.17241426370E+03  0.25500000920E-02 0. -1.
        2   -1    0    0  501    0  0.00000000000E+00  0.00000000000E+00 -0.24503144443E+04  0.24503144443E+04  0.25500000920E-02 0.  1.
    10030    2    1    2    0    0  0.00000000000E+00  0.00000000000E+00 -0.22779001806E+04  0.26227287080E+04  0.12999525541E+04 0.  0.
        3    1    3    3  502    0  0.46628693844E+03  0.22347631448E+03 -0.19335295556E+04  0.20014748873E+04  0.10100000352E+00 0.  1.
       -3    1    3    3    0  502 -0.46628693844E+03 -0.22347631448E+03 -0.34437062499E+03  0.62125382064E+03  0.10100000352E+00 0. -1.
</event>
<event>
 5   0  0.1475396E-04  0.1288637E+04  0.7818609E-02  0.9038625E-01
        1   -1    0    0  501    0  0.00000000000E+00  0.00000000000E+00  0.94130921083E+03  0.94130921085E+03  0.50400001928E-02 0. -1.
       -1   -1    0    0    0  501  0.00000000000E+00  0.00000000000E+00 -0.44103084778E+03  0.44103084781E+03  0.50400001928E-02 0.  1.
    10030    2    1    2    0    0  0.00000000000E+00  0.00000000000E+00  0.50027836305E+03  0.13823400587E+04  0.12886371084E+04 0.  0.
        3    1    3    3  502    0 -0.31177776959E+03 -0.32747998291E+03 -0.24225661311E+03  0.51296860880E+03  0.10100000352E+00 0.  1.
       -3    1    3    3    0  502  0.31177776959E+03  0.32747998291E+03  0.74253497616E+03  0.86937144986E+03  0.10100000352E+00 0. -1.
</event>
<event>
 5   0  0.1430636E-04  0.1296117E+04  0.7818609E-02  0.9032650E-01
        1   -1    0    0  501    0  0.00000000000E+00  0.00000000000E+00  0.81324981925E+03  0.81324981927E+03  0.50400001928E-02 0. -1.
       -1   -1    0    0    0  501  0.00000000000E+00  0.00000000000E+00 -0.51642135037E+03  0.51642135039E+03  0.50400001928E-02 0.  1.
    10030    2    1    2    0    0  0.00000000000E+00  0.00000000000E+00  0.29682846888E+03  0.13296711697E+04  0.12961166149E+04 0.  0.
        4    1    3    3  502    0 -0.25217390403E+03 -0.42119340373E+03 -0.28560135871E+03  0.56794833411E+03  0.12699999809E+01 0.  1.
       -4    1    3    3    0  502  0.25217390403E+03  0.42119340373E+03  0.58242982759E+03  0.76172283555E+03  0.12699999809E+01 0. -1.
</event>
<event>
 5   0  0.2756984E-04  0.1299631E+04  0.7818609E-02  0.9029858E-01
       -2   -1    0    0    0  501  0.00000000000E+00  0.00000000000E+00  0.92504921269E+03  0.92504921269E+03  0.25500000920E-02 0. -1.
        2   -1    0    0  501    0  0.00000000000E+00  0.00000000000E+00 -0.45647342174E+03  0.45647342175E+03  0.25500000920E-02 0.  1.
    10030    2    1    2    0    0  0.00000000000E+00  0.00000000000E+00  0.46857579095E+03  0.13815226344E+04  0.12996313006E+04 0.  0.
        3    1    3    3  502    0  0.21897420498E+03 -0.49735279977E+03 -0.14446474103E+03  0.56229848078E+03  0.10100000352E+00 0.  1.
       -3    1    3    3    0  502 -0.21897420498E+03  0.49735279977E+03  0.61304053198E+03  0.81922415366E+03  0.10100000352E+00 0. -1.
</event>
<event>
 5   0  0.2723209E-04  0.1303225E+04  0.7818609E-02  0.9027011E-01
        2   -1    0    0  501    0  0.00000000000E+00  0.00000000000E+00  0.42109764283E+03  0.42109764284E+03  0.25500000920E-02 0. -1.
       -2   -1    0    0    0  501  0.00000000000E+00  0.00000000000E+00 -0.10083147269E+04  0.10083147270E+04  0.25500000920E-02 0.  1.
    10030    2    1    2    0    0  0.00000000000E+00  0.00000000000E+00 -0.58721708412E+03  0.14294123698E+04  0.13032251605E+04 0.  0.
        2    1    3    3  502    0 -0.28271640833E+03  0.34394821182E+03  0.22824367112E+03  0.50032400838E+03  0.25500000920E-02 0. -1.
       -2    1    3    3    0  502  0.28271640833E+03 -0.34394821182E+03 -0.81546075524E+03  0.92908836140E+03  0.25500000920E-02 0.  1.
</event>
<event>
 5   0  0.1479690E-04  0.1306237E+04  0.7818609E-02  0.9024634E-01
        1   -1    0    0  501    0  0.00000000000E+00  0.00000000000E+00  0.24761755812E+04  0.24761755812E+04  0.50400001928E-02 0. -1.
       -1   -1    0    0    0  501  0.00000000000E+00  0.00000000000E+00 -0.17226709126E+03  0.17226709133E+03  0.50400001928E-02 0.  1.
    10030    2    1    2    0    0  0.00000000000E+00  0.00000000000E+00  0.23039084900E+04  0.26484426726E+04  0.13062366783E+04 0.  0.
        1    1    3    3  502    0  0.34556580904E+03  0.46193812841E+03  0.17727944341E+04  0.18642968295E+04  0.50400001928E-02 0. -1.
       -1    1    3    3    0  502 -0.34556580904E+03 -0.46193812841E+03  0.53111405589E+03  0.78414584310E+03  0.50400001928E-02 0.  1.
</event>
<event>
 5   0  0.2794825E-04  0.1299394E+04  0.7818609E-02  0.9030046E-01
        2   -1    0    0  501    0  0.00000000000E+00  0.00000000000E+00  0.11669836817E+04  0.11669836817E+04  0.25500000920E-02 0. -1.
       -2   -1    0    0    0  501  0.00000000000E+00  0.00000000000E+00 -0.36170712349E+03  0.36170712350E+03  0.25500000920E-02 0.  1.
    10030    2    1    2    0    0  0.00000000000E+00  0.00000000000E+00  0.80527655823E+03  0.15286908052E+04  0.12993941830E+04 0.  0.
        1    1    3    3  502    0  0.51419283864E+03  0.33381079031E+03  0.65573506589E+03  0.89767053851E+03  0.50400001928E-02 0. -1.
       -1    1    3    3    0  502 -0.51419283864E+03 -0.33381079031E+03  0.14954149234E+03  0.63102026671E+03  0.50400001928E-02 0.  1.
</event>
<event>
 5   0  0.1476511E-04  0.1299325E+04  0.7818609E-02  0.9030101E-01
       -1   -1    0    0    0  501  0.00000000000E+00  0.00000000000E+00  0.11423763089E+04  0.11423763089E+04  0.50400001928E-02 0.  1.
        1   -1    0    0  501    0  0.00000000000E+00  0.00000000000E+00 -0.36945905542E+03  0.36945905545E+03  0.50400001928E-02 0. -1.
    10030    2    1    2    0    0  0.00000000000E+00  0.00000000000E+00  0.77291725352E+03  0.15118353644E+04  0.12993248586E+04 0.  0.
        2    1    3    3  502    0  0.21909182237E+03  0.49985800554E+02  0.10957131039E+04  0.11185200101E+04  0.25500000920E-02 0.  1.
       -2    1    3    3    0  502 -0.21909182237E+03 -0.49985800554E+02 -0.32279585040E+03  0.39331535430E+03  0.25500000920E-02 0. -1.
</event>
<event>
 5   0  0.2661377E-04  0.1299737E+04  0.7818609E-02  0.9029774E-01
        2   -1    0    0  501    0  0.00000000000E+00  0.00000000000E+00  0.12764631298E+04  0.12764631298E+04  0.25500000920E-02 0.  1.
       -2   -1    0    0    0  501  0.00000000000E+00  0.00000000000E+00 -0.33085870704E+03  0.33085870705E+03  0.25500000920E-02 0. -1.
    10030    2    1    2    0    0  0.00000000000E+00  0.00000000000E+00  0.94560442276E+03  0.16073218369E+04  0.12997368052E+04 0.  0.
        5    1    3    3  502    0 -0.20915684719E+03  0.58569684248E+03  0.70586915598E+03  0.94077666498E+03  0.46999998093E+01 0.  1.
       -5    1    3    3    0  502  0.20915684719E+03 -0.58569684248E+03  0.23973526678E+03  0.66654517188E+03  0.46999998093E+01 0. -1.
</event>
<event>
 5   0  0.1476511E-04  0.1301275E+04  0.7818609E-02  0.9028554E-01
        1   -1    0    0  501    0  0.00000000000E+00  0.00000000000E+00  0.83925031393E+03  0.83925031394E+03  0.50400001928E-02 0.  1.
       -1   -1    0    0    0  501  0.00000000000E+00  0.00000000000E+00 -0.50441373519E+03  0.50441373522E+03  0.50400001928E-02 0. -1.
    10030    2    1    2    0    0  0.00000000000E+00  0.00000000000E+00  0.33483657874E+03  0.13436640492E+04  0.13012753523E+04 0.  0.
        2    1    3    3  502    0 -0.20318405062E+02  0.61174306382E+03  0.39525718969E+03  0.72860871510E+03  0.25500000920E-02 0. -1.
       -2    1    3    3    0  502  0.20318405062E+02 -0.61174306382E+03 -0.60420610959E+02  0.61505533406E+03  0.25500000920E-02 0.  1.
</event>
<event>
 5   0  0.1475396E-04  0.1297795E+04  0.7818609E-02  0.9031315E-01
       -1   -1    0    0    0  501  0.00000000000E+00  0.00000000000E+00  0.62423340356E+03  0.62423340358E+03  0.50400001928E-02 0.  1.
        1   -1    0    0  501    0  0.00000000000E+00  0.00000000000E+00 -0.67453626033E+03  0.67453626035E+03  0.50400001928E-02 0. -1.
    10030    2    1    2    0    0  0.00000000000E+00  0.00000000000E+00 -0.50302856771E+02  0.12987696639E+04  0.12977951543E+04 0.  0.
        3    1    3    3  502    0 -0.60405128349E+03  0.16330052218E+03  0.14680029722E+03  0.64272494202E+03  0.10100000352E+00 0. -1.
       -3    1    3    3    0  502  0.60405128349E+03 -0.16330052218E+03 -0.19710315400E+03  0.65604472191E+03  0.10100000352E+00 0.  1.
</event>
<event>
 5   0  0.1408341E-04  0.1302855E+04  0.7818609E-02  0.9027304E-01
       -1   -1    0    0    0  501  0.00000000000E+00  0.00000000000E+00  0.75665196879E+03  0.75665196881E+03  0.50400001928E-02 0. -1.
        1   -1    0    0  501    0  0.00000000000E+00  0.00000000000E+00 -0.56083635294E+03  0.56083635296E+03  0.50400001928E-02 0.  1.
    10030    2    1    2    0    0  0.00000000000E+00  0.00000000000E+00  0.19581561586E+03  0.13174883218E+04  0.13028552194E+04 0.  0.
        5    1    3    3  502    0  0.15670433767E+03 -0.17086315207E+03 -0.51768672596E+03  0.56724959446E+03  0.46999998093E+01 0.  1.
       -5    1    3    3    0  502 -0.15670433767E+03  0.17086315207E+03  0.71350234182E+03  0.75023872731E+03  0.46999998093E+01 0. -1.
</event>
<event>
 5   0  0.2794825E-04  0.1296924E+04  0.7818609E-02  0.9032008E-01
       -2   -1    0    0    0  501  0.00000000000E+00  0.00000000000E+00  0.81169771374E+03  0.81169771375E+03  0.25500000920E-02 0. -1.
        2   -1    0    0  501    0  0.00000000000E+00  0.00000000000E+00 -0.51805342673E+03  0.51805342673E+03  0.25500000920E-02 0.  1.
    10030    2    1    2    0    0  0.00000000000E+00  0.00000000000E+00  0.29364428702E+03  0.13297511405E+04  0.12969237172E+04 0.  0.
        1    1    3    3  502    0  0.29087211516E+03  0.42029947081E+03  0.55597748702E+03  0.75522791172E+03  0.50400001928E-02 0. -1.
       -1    1    3    3    0  502 -0.29087211516E+03 -0.42029947081E+03 -0.26233320000E+03  0.57452322877E+03  0.50400001928E-02 0.  1.
</event>
<event>
 5   0  0.1475396E-04  0.1298245E+04  0.7818609E-02  0.9030958E-01
       -1   -1    0    0    0  501  0.00000000000E+00  0.00000000000E+00  0.29330448898E+03  0.29330448902E+03  0.50400001928E-02 0. -1.
        1   -1    0    0  501    0  0.00000000000E+00  0.00000000000E+00 -0.14365961169E+04  0.14365961169E+04  0.50400001928E-02 0.  1.
    10030    2    1    2    0    0  0.00000000000E+00  0.00000000000E+00 -0.11432916279E+04  0.17299006059E+04  0.12982451078E+04 0.  0.
        3    1    3    3  502    0  0.32818410461E+03  0.49245329846E+03 -0.92706160158E+03  0.10998446622E+04  0.10100000352E+00 0.  1.
       -3    1    3    3    0  502 -0.32818410461E+03 -0.49245329846E+03 -0.21623002630E+03  0.63005594367E+03  0.10100000352E+00 0. -1.
</event>
<event>
 5   0  0.2723209E-04  0.1298110E+04  0.7818609E-02  0.9031065E-01
       -2   -1    0    0    0  501  0.00000000000E+00  0.00000000000E+00  0.49369887995E+03  0.49369887996E+03  0.25500000920E-02 0. -1.
        2   -1    0    0  501    0  0.00000000000E+00  0.00000000000E+00 -0.85329870221E+03  0.85329870222E+03  0.25500000920E-02 0.  1.
    10030    2    1    2    0    0  0.00000000000E+00  0.00000000000E+00 -0.35959982226E+03  0.13469975822E+04  0.12981103398E+04 0.  0.
        2    1    3    3  502    0 -0.28797286026E+03 -0.14749719732E+03  0.40405238900E+03  0.51763126309E+03  0.25500000920E-02 0. -1.
       -2    1    3    3    0  502  0.28797286026E+03  0.14749719732E+03 -0.76365221126E+03  0.82936631909E+03  0.25500000920E-02 0.  1.
</event>
<event>
 5   0  0.1430636E-04  0.1297271E+04  0.7818609E-02  0.9031732E-01
       -1   -1    0    0    0  501  0.00000000000E+00  0.00000000000E+00  0.77602638650E+03  0.77602638652E+03  0.50400001928E-02 0. -1.
        1   -1    0    0  501    0  0.00000000000E+00  0.00000000000E+00 -0.54215724982E+03  0.54215724984E+03  0.50400001928E-02 0.  1.
    10030    2    1    2    0    0  0.00000000000E+00  0.00000000000E+00  0.23386913669E+03  0.13181836364E+04  0.12972714928E+04 0.  0.
        4    1    3    3  502    0  0.86121524266E+01  0.60635094198E+03 -0.11697416962E+03  0.61759226296E+03  0.12699999809E+01 0.  1.
       -4    1    3    3    0  502 -0.86121524266E+01 -0.60635094198E+03  0.35084330631E+03  0.70059137340E+03  0.12699999809E+01 0. -1.
</event>
<event>
 5   0  0.1408341E-04  0.1306176E+04  0.7818609E-02  0.9024682E-01
       -1   -1    0    0    0  501  0.00000000000E+00  0.00000000000E+00  0.51678297486E+03  0.51678297489E+03  0.50400001928E-02 0. -1.
        1   -1    0    0  501    0  0.00000000000E+00  0.00000000000E+00 -0.82534474538E+03  0.82534474540E+03  0.50400001928E-02 0.  1.
    10030    2    1    2    0    0  0.00000000000E+00  0.00000000000E+00 -0.30856177051E+03  0.13421277203E+04  0.13061762712E+04 0.  0.
        5    1    3    3  502    0 -0.22772754650E+03 -0.28257867847E+03  0.40361032461E+03  0.54280192436E+03  0.46999998093E+01 0. -1.
       -5    1    3    3    0  502  0.22772754650E+03  0.28257867847E+03 -0.71217209513E+03  0.79932579593E+03  0.46999998093E+01 0.  1.
</event>
<event>
 5   0  0.2661377E-04  0.1308780E+04  0.7818609E-02  0.9022631E-01
        2   -1    0    0  501    0  0.00000000000E+00  0.00000000000E+00  0.13613846926E+04  0.13613846926E+04  0.25500000920E-02 0.  1.
       -2   -1    0    0    0  501  0.00000000000E+00  0.00000000000E+00 -0.31455195958E+03  0.31455195959E+03  0.25500000920E-02 0. -1.
    10030    2    1    2    0    0  0.00000000000E+00  0.00000000000E+00  0.10468327330E+04  0.16759366522E+04  0.13087799247E+04 0.  0.
        5    1    3    3  502    0 -0.59047885751E+03  0.81519365604E+02  0.17768784329E+03  0.62201748190E+03  0.46999998093E+01 0. -1.
       -5    1    3    3    0  502  0.59047885751E+03 -0.81519365604E+02  0.86914488970E+03  0.10539191703E+04  0.46999998093E+01 0.  1.
</event>
<event>
 5   0  0.1408341E-04  0.1299804E+04  0.7818609E-02  0.9029721E-01
        1   -1    0    0  501    0  0.00000000000E+00  0.00000000000E+00  0.13779581459E+04  0.13779581459E+04  0.50400001928E-02 0.  1.
       -1   -1    0    0    0  501  0.00000000000E+00  0.00000000000E+00 -0.30652053445E+03  0.30652053450E+03  0.50400001928E-02 0. -1.
    10030    2    1    2    0    0  0.00000000000E+00  0.00000000000E+00  0.10714376114E+04  0.16844786804E+04  0.12998037811E+04 0.  0.
        5    1    3    3  502    0  0.24994129341E+03  0.27475960552E+03  0.12268213724E+04  0.12818253628E+04  0.46999998093E+01 0.  1.
       -5    1    3    3    0  502 -0.24994129341E+03 -0.27475960552E+03 -0.15538376098E+03  0.40265331757E+03  0.46999998093E+01 0. -1.
</event>
<event>
 5   0  0.1476511E-04  0.1300584E+04  0.7818609E-02  0.9029103E-01
       -1   -1    0    0    0  501  0.00000000000E+00  0.00000000000E+00  0.11989340076E+04  0.11989340077E+04  0.50400001928E-02 0.  1.
        1   -1    0    0  501    0  0.00000000000E+00  0.00000000000E+00 -0.35271282738E+03  0.35271282742E+03  0.50400001928E-02 0. -1.
    10030    2    1    2    0    0  0.00000000000E+00  0.00000000000E+00  0.84622118026E+03  0.15516468351E+04  0.13005835670E+04 0.  0.
        2    1    3    3  502    0  0.42906915103E+03  0.69249864152E+02 -0.15398433605E+03  0.46109332657E+03  0.25500000920E-02 0. -1.
       -2    1    3    3    0  502 -0.42906915103E+03 -0.69249864152E+02  0.10002055163E+04  0.10905535085E+04  0.25500000920E-02 0.  1.
</event>
<event>
 5   0  0.2794825E-04  0.1299592E+04  0.7818609E-02  0.9029889E-01
        2   -1    0    0  501    0  0.00000000000E+00  0.00000000000E+00  0.86652655385E+03  0.86652655385E+03  0.25500000920E-02 0. -1.
       -2   -1    0    0    0  501  0.00000000000E+00  0.00000000000E+00 -0.48727271536E+03  0.48727271537E+03  0.25500000920E-02 0.  1.
    10030    2    1    2    0    0  0.00000000000E+00  0.00000000000E+00  0.37925383849E+03  0.13537992692E+04  0.12995918541E+04 0.  0.
        1    1    3    3  502    0  0.18959681322E+03  0.52542995012E+03 -0.15620102811E+03  0.58001926285E+03  0.50400001928E-02 0.  1.
       -1    1    3    3    0  502 -0.18959681322E+03 -0.52542995012E+03  0.53545486660E+03  0.77378000637E+03  0.50400001928E-02 0. -1.
</event>
<event>
 5   0  0.1430636E-04  0.1298940E+04  0.7818609E-02  0.9030406E-01
        1   -1    0    0  501    0  0.00000000000E+00  0.00000000000E+00  0.15764522972E+04  0.15764522972E+04  0.50400001928E-02 0.  1.
       -1   -1    0    0    0  501  0.00000000000E+00  0.00000000000E+00 -0.26756983999E+03  0.26756984004E+03  0.50400001928E-02 0. -1.
    10030    2    1    2    0    0  0.00000000000E+00  0.00000000000E+00  0.13088824572E+04  0.18440221372E+04  0.12989397045E+04 0.  0.
        4    1    3    3  502    0 -0.75929555908E+02  0.25045818576E+02  0.15694372614E+04  0.15714730418E+04  0.12699999809E+01 0.  1.
       -4    1    3    3    0  502  0.75929555908E+02 -0.25045818576E+02 -0.26055480428E+03  0.27254909543E+03  0.12699999809E+01 0. -1.
</event>
<event>
 5   0  0.2794825E-04  0.1300539E+04  0.7818609E-02  0.9029138E-01
        2   -1    0    0  501    0  0.00000000000E+00  0.00000000000E+00  0.42994196280E+03  0.42994196281E+03  0.25500000920E-02 0.  1.
       -2   -1    0    0    0  501  0.00000000000E+00  0.00000000000E+00 -0.98350531237E+03  0.98350531237E+03  0.25500000920E-02 0. -1.
    10030    2    1    2    0    0  0.00000000000E+00  0.00000000000E+00 -0.55356334957E+03  0.14134472752E+04  0.13005386644E+04 0.  0.
        1    1    3    3  502    0  0.31542074565E+03  0.43009275595E+03 -0.68107194418E+03  0.86506012431E+03  0.50400001928E-02 0. -1.
       -1    1    3    3    0  502 -0.31542074565E+03 -0.43009275595E+03  0.12750859461E+03  0.54838715086E+03  0.50400001928E-02 0.  1.
</event>
<event>
 5   0  0.2794825E-04  0.1300138E+04  0.7818609E-02  0.9029455E-01
        2   -1    0    0  501    0  0.00000000000E+00  0.00000000000E+00  0.61408421238E+03  0.61408421239E+03  0.25500000920E-02 0. -1.
       -2   -1    0    0    0  501  0.00000000000E+00  0.00000000000E+00 -0.68816293435E+03  0.68816293435E+03  0.25500000920E-02 0.  1.
    10030    2    1    2    0    0  0.00000000000E+00  0.00000000000E+00 -0.74078721969E+02  0.13022471467E+04  0.13001384442E+04 0.  0.
        1    1    3    3  502    0 -0.62477047731E+03  0.11840359200E+03 -0.17228589198E+03  0.65881711310E+03  0.50400001928E-02 0.  1.
       -1    1    3    3    0  502  0.62477047731E+03 -0.11840359200E+03  0.98207170007E+02  0.64343003364E+03  0.50400001928E-02 0. -1.
</event>
<event>
 5   0  0.1430636E-04  0.1296435E+04  0.7818609E-02  0.9032397E-01
       -1   -1    0    0    0  501  0.00000000000E+00  0.00000000000E+00  0.61324728226E+03  0.61324728228E+03  0.50400001928E-02 0. -1.
        1   -1    0    0  501    0  0.00000000000E+00  0.00000000000E+00 -0.68518214985E+03  0.68518214987E+03  0.50400001928E-02 0.  1.
    10030    2    1    2    0    0  0.00000000000E+00  0.00000000000E+00 -0.71934867592E+02  0.12984294322E+04  0.12964352530E+04 0.  0.
        4    1    3    3  502    0 -0.40921247193E+03 -0.50043463389E+03  0.12010410878E+02  0.64655667412E+03  0.12699999809E+01 0.  1.
       -4    1    3    3    0  502  0.40921247193E+03  0.50043463389E+03 -0.83945278470E+02  0.65187275803E+03  0.12699999809E+01 0. -1.
</event>
<event>
 5   0  0.1475396E-04  0.1295664E+04  0.7818609E-02  0.9033011E-01
       -1   -1    0    0    0  501  0.00000000000E+00  0.00000000000E+00  0.64553347347E+03  0.64553347349E+03  0.50400001928E-02 0. -1.
        1   -1    0    0  501    0  0.00000000000E+00  0.00000000000E+00 -0.65013857007E+03  0.65013857009E+03  0.50400001928E-02 0.  1.
    10030    2    1    2    0    0  0.00000000000E+00  0.00000000000E+00 -0.46050965966E+01  0.12956720436E+04  0.12956638598E+04 0.  0.
        3    1    3    3  502    0 -0.19958889040E+03  0.86628044462E+02  0.60790295777E+03  0.64566722042E+03  0.10100000352E+00 0. -1.
       -3    1    3    3    0  502  0.19958889040E+03 -0.86628044462E+02 -0.61250805437E+03  0.65000482316E+03  0.10100000352E+00 0.  1.
</event>
<event>
 5   0  0.2573071E-04  0.1300013E+04  0.7818609E-02  0.9029555E-01
       -2   -1    0    0    0  501  0.00000000000E+00  0.00000000000E+00  0.43150165846E+03  0.43150165847E+03  0.25500000920E-02 0.  1.
        2   -1    0    0  501    0  0.00000000000E+00  0.00000000000E+00 -0.97915888392E+03  0.97915888392E+03  0.25500000920E-02 0. -1.
    10030    2    1    2    0    0  0.00000000000E+00  0.00000000000E+00 -0.54765722546E+03  0.14106605424E+04  0.13000133573E+04 0.  0.
        4    1    3    3  502    0  0.42839509830E+03  0.27745934236E+03 -0.71057928496E+03  0.87488889581E+03  0.12699999809E+01 0. -1.
       -4    1    3    3    0  502 -0.42839509830E+03 -0.27745934236E+03  0.16292205950E+03  0.53577164658E+03  0.12699999809E+01 0.  1.
</event>
<event>
 5   0  0.1430636E-04  0.1300128E+04  0.7818609E-02  0.9029464E-01
       -1   -1    0    0    0  501  0.00000000000E+00  0.00000000000E+00  0.41734747324E+03  0.41734747327E+03  0.50400001928E-02 0. -1.
        1   -1    0    0  501    0  0.00000000000E+00  0.00000000000E+00 -0.10125449874E+04  0.10125449874E+04  0.50400001928E-02 0.  1.
    10030    2    1    2    0    0  0.00000000000E+00  0.00000000000E+00 -0.59519751412E+03  0.14298924606E+04  0.13001278276E+04 0.  0.
        4    1    3    3  502    0  0.47681211897E+03 -0.26532293708E+03 -0.68618394143E+03  0.87669611161E+03  0.12699999809E+01 0.  1.
       -4    1    3    3    0  502 -0.47681211897E+03  0.26532293708E+03  0.90986427311E+02  0.55319634904E+03  0.12699999809E+01 0. -1.
</event>
<event>
 5   0  0.1479690E-04  0.1300938E+04  0.7818609E-02  0.9028822E-01
        1   -1    0    0  501    0  0.00000000000E+00  0.00000000000E+00  0.39827199573E+03  0.39827199576E+03  0.50400001928E-02 0.  1.
       -1   -1    0    0    0  501  0.00000000000E+00  0.00000000000E+00 -0.10623634185E+04  0.10623634185E+04  0.50400001928E-02 0. -1.
    10030    2    1    2    0    0  0.00000000000E+00  0.00000000000E+00 -0.66409142277E+03  0.14606354143E+04  0.13009375064E+04 0.  0.
        1    1    3    3  502    0  0.78070901745E+02  0.15982820999E+03 -0.10345263259E+04  0.10497070265E+04  0.50400001928E-02 0. -1.
       -1    1    3    3    0  502 -0.78070901745E+02 -0.15982820999E+03  0.37043490314E+03  0.41092838780E+03  0.50400001928E-02 0.  1.
</event>
<event>
 5   0  0.1408341E-04  0.1299201E+04  0.7818609E-02  0.9030199E-01
       -1   -1    0    0    0  501  0.00000000000E+00  0.00000000000E+00  0.66794383130E+03  0.66794383132E+03  0.50400001928E-02 0. -1.
        1   -1    0    0  501    0  0.00000000000E+00  0.00000000000E+00 -0.63176140467E+03  0.63176140469E+03  0.50400001928E-02 0.  1.
    10030    2    1    2    0    0  0.00000000000E+00  0.00000000000E+00  0.36182426628E+02  0.12997052360E+04  0.12992014980E+04 0.  0.
        5    1    3    3  502    0  0.23773956828E+03 -0.16647691824E+03  0.59945712070E+03  0.66603723333E+03  0.46999998093E+01 0. -1.
       -5    1    3    3    0  502 -0.23773956828E+03  0.16647691824E+03 -0.56327469407E+03  0.63366800267E+03  0.46999998093E+01 0.  1.
</event>
<event>
 5   0  0.2573071E-04  0.1289318E+04  0.7818609E-02  0.9038079E-01
       -2   -1    0    0    0  501  0.00000000000E+00  0.00000000000E+00  0.58699194845E+03  0.58699194845E+03  0.25500000920E-02 0. -1.
        2   -1    0    0  501    0  0.00000000000E+00  0.00000000000E+00 -0.70799139677E+03  0.70799139677E+03  0.25500000920E-02 0.  1.
    10030    2    1    2    0    0  0.00000000000E+00  0.00000000000E+00 -0.12099944832E+03  0.12949833452E+04  0.12893180360E+04 0.  0.
        4    1    3    3  502    0 -0.55357620385E+03  0.16051496513E+03 -0.35051051289E+03  0.67458943072E+03  0.12699999809E+01 0.  1.
       -4    1    3    3    0  502  0.55357620385E+03 -0.16051496513E+03  0.22951106457E+03  0.62039391451E+03  0.12699999809E+01 0. -1.
</event>
<event>
 5   0  0.2723209E-04  0.1303826E+04  0.7818609E-02  0.9026536E-01
       -2   -1    0    0    0  501  0.00000000000E+00  0.00000000000E+00  0.39879047240E+03  0.39879047241E+03  0.25500000920E-02 0. -1.
        2   -1    0    0  501    0  0.00000000000E+00  0.00000000000E+00 -0.10656993292E+04  0.10656993292E+04  0.25500000920E-02 0.  1.
    10030    2    1    2    0    0  0.00000000000E+00  0.00000000000E+00 -0.66690885679E+03  0.14644898016E+04  0.13038262751E+04 0.  0.
        2    1    3    3  502    0  0.31670749861E+03  0.54335988127E+03 -0.14070718589E+03  0.64447041237E+03  0.25500000920E-02 0. -1.
       -2    1    3    3    0  502 -0.31670749861E+03 -0.54335988127E+03 -0.52620167090E+03  0.82001938924E+03  0.25500000920E-02 0.  1.
</event>
<event>
 5   0  0.1408341E-04  0.1300608E+04  0.7818609E-02  0.9029083E-01
        1   -1    0    0  501    0  0.00000000000E+00  0.00000000000E+00  0.17412772863E+04  0.17412772863E+04  0.50400001928E-02 0. -1.
       -1   -1    0    0    0  501  0.00000000000E+00  0.00000000000E+00 -0.24286496288E+03  0.24286496294E+03  0.50400001928E-02 0.  1.
    10030    2    1    2    0    0  0.00000000000E+00  0.00000000000E+00  0.14984123234E+04  0.19841422493E+04  0.13006079249E+04 0.  0.
        5    1    3    3  502    0  0.31845620145E+03  0.37878552179E+03  0.10561153064E+03  0.50603232028E+03  0.46999998093E+01 0.  1.
       -5    1    3    3    0  502 -0.31845620145E+03 -0.37878552179E+03  0.13928007928E+04  0.14781099290E+04  0.46999998093E+01 0. -1.
</event>
<event>
 5   0  0.1479690E-04  0.1284582E+04  0.7818609E-02  0.9041882E-01
        1   -1    0    0  501    0  0.00000000000E+00  0.00000000000E+00  0.64060467233E+03  0.64060467235E+03  0.50400001928E-02 0. -1.
       -1   -1    0    0    0  501  0.00000000000E+00  0.00000000000E+00 -0.64398169349E+03  0.64398169351E+03  0.50400001928E-02 0.  1.
    10030    2    1    2    0    0  0.00000000000E+00  0.00000000000E+00 -0.33770211618E+01  0.12845863659E+04  0.12845819270E+04 0.  0.
        1    1    3    3  502    0  0.55910368932E+03 -0.31554408037E+03 -0.20993490465E+02  0.64234393337E+03  0.50400001928E-02 0.  1.
       -1    1    3    3    0  502 -0.55910368932E+03  0.31554408037E+03  0.17616469303E+02  0.64224243249E+03  0.50400001928E-02 0. -1.
</event>
<event>
 5   0  0.2756984E-04  0.1311769E+04  0.7818609E-02  0.9020284E-01
       -2   -1    0    0    0  501  0.00000000000E+00  0.00000000000E+00  0.31729021579E+03  0.31729021580E+03  0.25500000920E-02 0.  1.
        2   -1    0    0  501    0  0.00000000000E+00  0.00000000000E+00 -0.13558083373E+04  0.13558083373E+04  0.25500000920E-02 0. -1.
    10030    2    1    2    0    0  0.00000000000E+00  0.00000000000E+00 -0.10385181215E+04  0.16730985531E+04  0.13117693698E+04 0.  0.
        3    1    3    3  502    0 -0.12507800386E+03  0.18087335427E+03 -0.13073861160E+04  0.13257519164E+04  0.10100000352E+00 0. -1.
       -3    1    3    3    0  502  0.12507800386E+03 -0.18087335427E+03  0.26886799452E+03  0.34734663668E+03  0.10100000352E+00 0.  1.
</event>
<event>
 5   0  0.2573071E-04  0.1289065E+04  0.7818609E-02  0.9038282E-01
       -2   -1    0    0    0  501  0.00000000000E+00  0.00000000000E+00  0.55862842663E+03  0.55862842663E+03  0.25500000920E-02 0.  1.
        2   -1    0    0  501    0  0.00000000000E+00  0.00000000000E+00 -0.74364691604E+03  0.74364691605E+03  0.25500000920E-02 0. -1.
    10030    2    1    2    0    0  0.00000000000E+00  0.00000000000E+00 -0.18501848942E+03  0.13022753427E+04  0.12890652531E+04 0.  0.
        4    1    3    3  502    0  0.62593861655E+03  0.13591321242E+03 -0.16500211554E+03  0.66143696905E+03  0.12699999809E+01 0. -1.
       -4    1    3    3    0  502 -0.62593861655E+03 -0.13591321242E+03 -0.20016373881E+02  0.64083837363E+03  0.12699999809E+01 0.  1.
</event>
<event>
 5   0  0.2573071E-04  0.1298748E+04  0.7818609E-02  0.9030558E-01
        2   -1    0    0  501    0  0.00000000000E+00  0.00000000000E+00  0.62292669098E+03  0.62292669098E+03  0.25500000920E-02 0.  1.
       -2   -1    0    0    0  501  0.00000000000E+00  0.00000000000E+00 -0.67694461558E+03  0.67694461558E+03  0.25500000920E-02 0. -1.
    10030    2    1    2    0    0  0.00000000000E+00  0.00000000000E+00 -0.54017924597E+02  0.12998713066E+04  0.12987484273E+04 0.  0.
        4    1    3    3  502    0  0.37483769116E+03  0.29454242049E+03  0.41431072537E+03  0.63159601190E+03  0.12699999809E+01 0.  1.
       -4    1    3    3    0  502 -0.37483769116E+03 -0.29454242049E+03 -0.46832864997E+03  0.66827529467E+03  0.12699999809E+01 0. -1.
</event>
<event>
 5   0  0.1475396E-04  0.1299201E+04  0.7818609E-02  0.9030199E-01
        1   -1    0    0  501    0  0.00000000000E+00  0.00000000000E+00  0.68100464979E+03  0.68100464981E+03  0.50400001928E-02 0. -1.
       -1   -1    0    0    0  501  0.00000000000E+00  0.00000000000E+00 -0.61964501031E+03  0.61964501033E+03  0.50400001928E-02 0.  1.
    10030    2    1    2    0    0  0.00000000000E+00  0.00000000000E+00  0.61359639476E+02  0.13006496601E+04  0.12992014983E+04 0.  0.
        3    1    3    3  502    0 -0.33499971776E+03 -0.22881813109E+03  0.53858996558E+03  0.67428607374E+03  0.10100000352E+00 0. -1.
       -3    1    3    3    0  502  0.33499971776E+03  0.22881813109E+03 -0.47723032611E+03  0.62636358640E+03  0.10100000352E+00 0.  1.
</event>
<event>
 5   0  0.1475396E-04  0.1302129E+04  0.7818609E-02  0.9027878E-01
       -1   -1    0    0    0  501  0.00000000000E+00  0.00000000000E+00  0.40526293039E+03  0.40526293042E+03  0.50400001928E-02 0.  1.
        1   -1    0    0  501    0  0.00000000000E+00  0.00000000000E+00 -0.10459508046E+04  0.10459508046E+04  0.50400001928E-02 0. -1.
    10030    2    1    2    0    0  0.00000000000E+00  0.00000000000E+00 -0.64068787419E+03  0.14512137350E+04  0.13021291612E+04 0.  0.
        3    1    3    3  502    0 -0.52090816467E+03 -0.26332967160E+03 -0.64180752693E+03  0.86752794986E+03  0.10100000352E+00 0. -1.
       -3    1    3    3    0  502  0.52090816467E+03  0.26332967160E+03  0.11196527417E+01  0.58368578515E+03  0.10100000352E+00 0.  1.
</event>
<event>
 5   0  0.1479690E-04  0.1299095E+04  0.7818609E-02  0.9030283E-01
        1   -1    0    0  501    0  0.00000000000E+00  0.00000000000E+00  0.39399575403E+03  0.39399575407E+03  0.50400001928E-02 0.  1.
       -1   -1    0    0    0  501  0.00000000000E+00  0.00000000000E+00 -0.10708538315E+04  0.10708538315E+04  0.50400001928E-02 0. -1.
    10030    2    1    2    0    0  0.00000000000E+00  0.00000000000E+00 -0.67685807746E+03  0.14648495856E+04  0.12990948585E+04 0.  0.
        1    1    3    3  502    0 -0.32080996861E+03 -0.42984315029E+03 -0.75154619545E+03  0.92331243560E+03  0.50400001928E-02 0. -1.
       -1    1    3    3    0  502  0.32080996861E+03  0.42984315029E+03  0.74688117989E+02  0.54153714998E+03  0.50400001928E-02 0.  1.
</event>
<event>
 5   0  0.1476511E-04  0.1300287E+04  0.7818609E-02  0.9029337E-01
       -1   -1    0    0    0  501  0.00000000000E+00  0.00000000000E+00  0.70350031343E+03  0.70350031345E+03  0.50400001928E-02 0. -1.
        1   -1    0    0  501    0  0.00000000000E+00  0.00000000000E+00 -0.60083386052E+03  0.60083386054E+03  0.50400001928E-02 0.  1.
    10030    2    1    2    0    0  0.00000000000E+00  0.00000000000E+00  0.10266645291E+03  0.13043341740E+04  0.13002873670E+04 0.  0.
        2    1    3    3  502    0 -0.52142180600E+03 -0.38046015452E+03 -0.26730436664E+02  0.64602255781E+03  0.25500000920E-02 0. -1.
       -2    1    3    3    0  502  0.52142180600E+03  0.38046015452E+03  0.12939688957E+03  0.65831161617E+03  0.25500000920E-02 0.  1.
</event>
<event>
 5   0  0.2756984E-04  0.1288352E+04  0.7818609E-02  0.9038853E-01
        2   -1    0    0  501    0  0.00000000000E+00  0.00000000000E+00  0.14071988178E+04  0.14071988178E+04  0.25500000920E-02 0. -1.
       -2   -1    0    0    0  501  0.00000000000E+00  0.00000000000E+00 -0.29488581419E+03  0.29488581420E+03  0.25500000920E-02 0.  1.
    10030    2    1    2    0    0  0.00000000000E+00  0.00000000000E+00  0.11123130036E+04  0.17020846320E+04  0.12883523883E+04 0.  0.
        3    1    3    3  502    0  0.26388820282E+03  0.57869199408E+03  0.42115798490E+03  0.76282072995E+03  0.10100000352E+00 0.  1.
       -3    1    3    3    0  502 -0.26388820282E+03 -0.57869199408E+03  0.69115501870E+03  0.93926390204E+03  0.10100000352E+00 0. -1.
</event>
<event>
 5   0  0.2756984E-04  0.1301633E+04  0.7818609E-02  0.9028271E-01
        2   -1    0    0  501    0  0.00000000000E+00  0.00000000000E+00  0.22134144519E+04  0.22134144519E+04  0.25500000920E-02 0.  1.
       -2   -1    0    0    0  501  0.00000000000E+00  0.00000000000E+00 -0.19136155701E+03  0.19136155703E+03  0.25500000920E-02 0. -1.
    10030    2    1    2    0    0  0.00000000000E+00  0.00000000000E+00  0.20220528949E+04  0.24047760089E+04  0.13016334904E+04 0.  0.
        3    1    3    3  502    0  0.84834361749E+01  0.13959910559E+03 -0.16327059658E+03  0.21498180592E+03  0.10100000352E+00 0. -1.
       -3    1    3    3    0  502 -0.84834361749E+01 -0.13959910559E+03  0.21853234915E+04  0.21897942030E+04  0.10100000352E+00 0.  1.
</event>
<event>
 5   0  0.1475396E-04  0.1286812E+04  0.7818609E-02  0.9040089E-01
        1   -1    0    0  501    0  0.00000000000E+00  0.00000000000E+00  0.12007587348E+04  0.12007587348E+04  0.50400001928E-02 0. -1.
       -1   -1    0    0    0  501  0.00000000000E+00  0.00000000000E+00 -0.34475825643E+03  0.34475825647E+03  0.50400001928E-02 0.  1.
    10030    2    1    2    0    0  0.00000000000E+00  0.00000000000E+00  0.85600047838E+03  0.15455169913E+04  0.12868123217E+04 0.  0.
        3    1    3    3  502    0  0.18817549473E+03  0.48083858182E+03  0.88904391724E+03  0.10281122777E+04  0.10100000352E+00 0. -1.
       -3    1    3    3    0  502 -0.18817549473E+03 -0.48083858182E+03 -0.33043438863E+02  0.51740471358E+03  0.10100000352E+00 0.  1.
</event>
<event>
 5   0  0.2723209E-04  0.1299750E+04  0.7818609E-02  0.9029763E-01
       -2   -1    0    0    0  501  0.00000000000E+00  0.00000000000E+00  0.57144322910E+03  0.57144322911E+03  0.25500000920E-02 0. -1.
        2   -1    0    0  501    0  0.00000000000E+00  0.00000000000E+00 -0.73907176859E+03  0.73907176859E+03  0.25500000920E-02 0.  1.
    10030    2    1    2    0    0  0.00000000000E+00  0.00000000000E+00 -0.16762853949E+03  0.13105149977E+04  0.12997500652E+04 0.  0.
        2    1    3    3  502    0 -0.46342032427E+03  0.30632996208E+03 -0.42386278967E+03  0.69875325193E+03  0.25500000920E-02 0.  1.
       -2    1    3    3    0  502  0.46342032427E+03 -0.30632996208E+03  0.25623425018E+03  0.61176174577E+03  0.25500000920E-02 0. -1.
</event>
<event>
 5   0  0.2794825E-04  0.1300131E+04  0.7818609E-02  0.9029462E-01
       -2   -1    0    0    0  501  0.00000000000E+00  0.00000000000E+00  0.35311631398E+03  0.35311631399E+03  0.25500000920E-02 0. -1.
        2   -1    0    0  501    0  0.00000000000E+00  0.00000000000E+00 -0.11967299208E+04  0.11967299208E+04  0.25500000920E-02 0.  1.
    10030    2    1    2    0    0  0.00000000000E+00  0.00000000000E+00 -0.84361360685E+03  0.15498462348E+04  0.13001305450E+04 0.  0.
        1    1    3    3  502    0  0.21045477710E+03  0.60068272195E+03 -0.26422838656E+03  0.68914990093E+03  0.50400001928E-02 0.  1.
       -1    1    3    3    0  502 -0.21045477710E+03 -0.60068272195E+03 -0.57938522029E+03  0.86069633389E+03  0.50400001928E-02 0. -1.
</event>
<event>
 5   0  0.2573071E-04  0.1299515E+04  0.7818609E-02  0.9029950E-01
        2   -1    0    0  501    0  0.00000000000E+00  0.00000000000E+00  0.15171430716E+04  0.15171430716E+04  0.25500000920E-02 0. -1.
       -2   -1    0    0    0  501  0.00000000000E+00  0.00000000000E+00 -0.27827637773E+03  0.27827637774E+03  0.25500000920E-02 0.  1.
    10030    2    1    2    0    0  0.00000000000E+00  0.00000000000E+00  0.12388666938E+04  0.17954194493E+04  0.12995154150E+04 0.  0.
        4    1    3    3  502    0  0.10200336410E+03  0.47100177023E+03  0.17306125595E+02  0.48223279516E+03  0.12699999809E+01 0.  1.
       -4    1    3    3    0  502 -0.10200336410E+03 -0.47100177023E+03  0.12215605682E+04  0.13131866541E+04  0.12699999809E+01 0. -1.
</event>
<event>
 5   0  0.1408341E-04  0.1300427E+04  0.7818609E-02  0.9029227E-01
        1   -1    0    0  501    0  0.00000000000E+00  0.00000000000E+00  0.55734942859E+03  0.55734942861E+03  0.50400001928E-02 0.  1.
       -1   -1    0    0    0  501  0.00000000000E+00  0.00000000000E+00 -0.75854992074E+03  0.75854992076E+03  0.50400001928E-02 0. -1.
    10030    2    1    2    0    0  0.00000000000E+00  0.00000000000E+00 -0.20120049215E+03  0.13158993494E+04  0.13004266452E+04 0.  0.
        5    1    3    3  502    0  0.54008293574E+03  0.94644724532E+02  0.25299710473E+03  0.60388477904E+03  0.46999998093E+01 0.  1.
       -5    1    3    3    0  502 -0.54008293574E+03 -0.94644724532E+02 -0.45419759688E+03  0.71201457033E+03  0.46999998093E+01 0. -1.
</event>
<event>
 5   0  0.2794825E-04  0.1302623E+04  0.7818609E-02  0.9027487E-01
        2   -1    0    0  501    0  0.00000000000E+00  0.00000000000E+00  0.12268894386E+04  0.12268894386E+04  0.25500000920E-02 0.  1.
       -2   -1    0    0    0  501  0.00000000000E+00  0.00000000000E+00 -0.34575799377E+03  0.34575799378E+03  0.25500000920E-02 0. -1.
    10030    2    1    2    0    0  0.00000000000E+00  0.00000000000E+00  0.88113144480E+03  0.15726474323E+04  0.13026232469E+04 0.  0.
        1    1    3    3  502    0  0.60440561425E+03 -0.75223061727E+01  0.14770306060E+03  0.62223703342E+03  0.50400001928E-02 0. -1.
       -1    1    3    3    0  502 -0.60440561425E+03  0.75223061727E+01  0.73342838420E+03  0.95041039893E+03  0.50400001928E-02 0.  1.
</event>
<event>
 5   0  0.2661377E-04  0.1300907E+04  0.7818609E-02  0.9028847E-01
       -2   -1    0    0    0  501  0.00000000000E+00  0.00000000000E+00  0.35946744394E+03  0.35946744395E+03  0.25500000920E-02 0.  1.
        2   -1    0    0  501    0  0.00000000000E+00  0.00000000000E+00 -0.11769895701E+04  0.11769895701E+04  0.25500000920E-02 0. -1.
    10030    2    1    2    0    0  0.00000000000E+00  0.00000000000E+00 -0.81752212615E+03  0.15364570140E+04  0.13009065029E+04 0.  0.
        5    1    3    3  502    0  0.33937517518E+03  0.21602230829E+03 -0.10124075703E+04  0.10894183428E+04  0.46999998093E+01 0.  1.
       -5    1    3    3    0  502 -0.33937517518E+03 -0.21602230829E+03  0.19488544419E+03  0.44703867121E+03  0.46999998093E+01 0. -1.
</event>
<event>
 5   0  0.1430636E-04  0.1299901E+04  0.7818609E-02  0.9029644E-01
        1   -1    0    0  501    0  0.00000000000E+00  0.00000000000E+00  0.90641205552E+03  0.90641205553E+03  0.50400001928E-02 0. -1.
       -1   -1    0    0    0  501  0.00000000000E+00  0.00000000000E+00 -0.46605233331E+03  0.46605233334E+03  0.50400001928E-02 0.  1.
    10030    2    1    2    0    0  0.00000000000E+00  0.00000000000E+00  0.44035972221E+03  0.13724643889E+04  0.12999006938E+04 0.  0.
        4    1    3    3  502    0 -0.47675552388E+03 -0.34138718103E+03  0.51617344686E+03  0.78120271189E+03  0.12699999809E+01 0. -1.
       -4    1    3    3    0  502  0.47675552388E+03  0.34138718103E+03 -0.75813724650E+02  0.59126167698E+03  0.12699999809E+01 0.  1.
</event>
<event>
 5   0  0.2661377E-04  0.1304475E+04  0.7818609E-02  0.9026024E-01
       -2   -1    0    0    0  501  0.00000000000E+00  0.00000000000E+00  0.79231586942E+03  0.79231586942E+03  0.25500000920E-02 0.  1.
        2   -1    0    0  501    0  0.00000000000E+00  0.00000000000E+00 -0.53692416781E+03  0.53692416782E+03  0.25500000920E-02 0. -1.
    10030    2    1    2    0    0  0.00000000000E+00  0.00000000000E+00  0.25539170161E+03  0.13292400372E+04  0.13044746664E+04 0.  0.
        5    1    3    3  502    0 -0.90014712862E+01  0.60749187706E+03 -0.11400780968E+03  0.61818061911E+03  0.46999998093E+01 0. -1.
       -5    1    3    3    0  502  0.90014712862E+01 -0.60749187706E+03  0.36939951129E+03  0.71105941813E+03  0.46999998093E+01 0.  1.
</event>
<event>
 5   0  0.2723209E-04  0.1297104E+04  0.7818609E-02  0.9031865E-01
       -2   -1    0    0    0  501  0.00000000000E+00  0.00000000000E+00  0.28522827788E+03  0.28522827789E+03  0.25500000920E-02 0.  1.
        2   -1    0    0  501    0  0.00000000000E+00  0.00000000000E+00 -0.14746764438E+04  0.14746764438E+04  0.25500000920E-02 0. -1.
    10030    2    1    2    0    0  0.00000000000E+00  0.00000000000E+00 -0.11894481660E+04  0.17599047217E+04  0.12971035772E+04 0.  0.
        2    1    3    3  502    0  0.61215942403E+01 -0.62646116741E+03 -0.36716893688E+03  0.72615707420E+03  0.25500000920E-02 0.  1.
       -2    1    3    3    0  502 -0.61215942403E+01  0.62646116741E+03 -0.82227922909E+03  0.10337476475E+04  0.25500000920E-02 0. -1.
</event>
<event>
 5   0  0.2723209E-04  0.1293508E+04  0.7818609E-02  0.9034730E-01
        2   -1    0    0  501    0  0.00000000000E+00  0.00000000000E+00  0.98189668066E+03  0.98189668066E+03  0.25500000920E-02 0. -1.
       -2   -1    0    0    0  501  0.00000000000E+00  0.00000000000E+00 -0.42600255632E+03  0.42600255633E+03  0.25500000920E-02 0.  1.
    10030    2    1    2    0    0  0.00000000000E+00  0.00000000000E+00  0.55589412434E+03  0.14078992370E+04  0.12935076281E+04 0.  0.
        2    1    3    3  502    0  0.50205043030E+02  0.57768395620E+03 -0.33830630248E+02  0.58084749388E+03  0.25500000920E-02 0.  1.
       -2    1    3    3    0  502 -0.50205043030E+02 -0.57768395620E+03  0.58972475459E+03  0.82705174311E+03  0.25500000920E-02 0. -1.
</event>
<event>
 5   0  0.1475396E-04  0.1300533E+04  0.7818609E-02  0.9029143E-01
       -1   -1    0    0    0  501  0.00000000000E+00  0.00000000000E+00  0.12001501571E+04  0.12001501571E+04  0.50400001928E-02 0. -1.
        1   -1    0    0  501    0  0.00000000000E+00  0.00000000000E+00 -0.35232793538E+03  0.35232793542E+03  0.50400001928E-02 0.  1.
    10030    2    1    2    0    0  0.00000000000E+00  0.00000000000E+00  0.84782222174E+03  0.15524780925E+04  0.13005328555E+04 0.  0.
        3    1    3    3  502    0 -0.22125598444E+03 -0.15350202526E+03 -0.28263808125E+03  0.39038619031E+03  0.10100000352E+00 0.  1.
       -3    1    3    3    0  502  0.22125598444E+03  0.15350202526E+03  0.11304603030E+04  0.11620919022E+04  0.10100000352E+00 0. -1.
</event>
<event>
 5   0  0.1476511E-04  0.1299929E+04  0.7818609E-02  0.9029621E-01
       -1   -1    0    0    0  501  0.00000000000E+00  0.00000000000E+00  0.29180464678E+03  0.29180464682E+03  0.50400001928E-02 0.  1.
        1   -1    0    0  501    0  0.00000000000E+00  0.00000000000E+00 -0.14477283031E+04  0.14477283031E+04  0.50400001928E-02 0. -1.
    10030    2    1    2    0    0  0.00000000000E+00  0.00000000000E+00 -0.11559236563E+04  0.17395329499E+04  0.12999289922E+04 0.  0.
        2    1    3    3  502    0 -0.10634243425E+03  0.48517275063E+03 -0.11389630775E+04  0.12425530987E+04  0.25500000920E-02 0. -1.
       -2    1    3    3    0  502  0.10634243425E+03 -0.48517275063E+03 -0.16960578856E+02  0.49697985122E+03  0.25500000920E-02 0.  1.
</event>
<event>
 5   0  0.2794825E-04  0.1296522E+04  0.7818609E-02  0.9032328E-01
        2   -1    0    0  501    0  0.00000000000E+00  0.00000000000E+00  0.20554864355E+04  0.20554864355E+04  0.25500000920E-02 0.  1.
       -2   -1    0    0    0  501  0.00000000000E+00  0.00000000000E+00 -0.20444915267E+03  0.20444915269E+03  0.25500000920E-02 0. -1.
    10030    2    1    2    0    0  0.00000000000E+00  0.00000000000E+00  0.18510372828E+04  0.22599355882E+04  0.12965222097E+04 0.  0.
        1    1    3    3  502    0  0.14691473895E+03 -0.15149299808E+03  0.19939375067E+04  0.20050737766E+04  0.50400001928E-02 0.  1.
       -1    1    3    3    0  502 -0.14691473895E+03  0.15149299808E+03 -0.14290022388E+03  0.25486181157E+03  0.50400001928E-02 0. -1.
</event>
<event>
 5   0  0.1476511E-04  0.1291837E+04  0.7818609E-02  0.9036063E-01
       -1   -1    0    0    0  501  0.00000000000E+00  0.00000000000E+00  0.84762408863E+03  0.84762408865E+03  0.50400001928E-02 0.  1.
        1   -1    0    0  501    0  0.00000000000E+00  0.00000000000E+00 -0.49221227256E+03  0.49221227259E+03  0.50400001928E-02 0. -1.
    10030    2    1    2    0    0  0.00000000000E+00  0.00000000000E+00  0.35541181607E+03  0.13398363612E+04  0.12918374185E+04 0.  0.
        2    1    3    3  502    0 -0.48489781204E+03 -0.39657523745E+03  0.34108069786E+03  0.71325580933E+03  0.25500000920E-02 0. -1.
       -2    1    3    3    0  502  0.48489781204E+03  0.39657523745E+03  0.14331118205E+02  0.62658055191E+03  0.25500000920E-02 0.  1.
</event>
<event>
 5   0  0.1408341E-04  0.1298427E+04  0.7818609E-02  0.9030814E-01
        1   -1    0    0  501    0  0.00000000000E+00  0.00000000000E+00  0.16966910071E+04  0.16966910071E+04  0.50400001928E-02 0.  1.
       -1   -1    0    0    0  501  0.00000000000E+00  0.00000000000E+00 -0.24841182840E+03  0.24841182845E+03  0.50400001928E-02 0. -1.
    10030    2    1    2    0    0  0.00000000000E+00  0.00000000000E+00  0.14482791787E+04  0.19451028356E+04  0.12984269180E+04 0.  0.
        5    1    3    3  502    0 -0.39837339226E+03  0.23047157259E+02 -0.42976085014E+02  0.40137459436E+03  0.46999998093E+01 0. -1.
       -5    1    3    3    0  502  0.39837339226E+03 -0.23047157259E+02  0.14912552637E+04  0.15437282412E+04  0.46999998093E+01 0.  1.
</event>
<event>
 5   0  0.2661377E-04  0.1291515E+04  0.7818609E-02  0.9036321E-01
       -2   -1    0    0    0  501  0.00000000000E+00  0.00000000000E+00  0.35686948124E+03  0.35686948124E+03  0.25500000920E-02 0. -1.
        2   -1    0    0  501    0  0.00000000000E+00  0.00000000000E+00 -0.11685024499E+04  0.11685024499E+04  0.25500000920E-02 0.  1.
    10030    2    1    2    0    0  0.00000000000E+00  0.00000000000E+00 -0.81163296867E+03  0.15253719312E+04  0.12915151770E+04 0.  0.
        5    1    3    3  502    0  0.41883946399E+03  0.48466790727E+03 -0.30949362177E+03  0.71143367143E+03  0.46999998093E+01 0.  1.
       -5    1    3    3    0  502 -0.41883946399E+03 -0.48466790727E+03 -0.50213934690E+03  0.81393825972E+03  0.46999998093E+01 0. -1.
</event>
<event>
 5   0  0.1476511E-04  0.1299465E+04  0.7818609E-02  0.9029990E-01
        1   -1    0    0  501    0  0.00000000000E+00  0.00000000000E+00  0.14387749865E+04  0.14387749865E+04  0.50400001928E-02 0. -1.
       -1   -1    0    0    0  501  0.00000000000E+00  0.00000000000E+00 -0.29341074361E+03  0.29341074366E+03  0.50400001928E-02 0.  1.
    10030    2    1    2    0    0  0.00000000000E+00  0.00000000000E+00  0.11453642429E+04  0.17321857302E+04  0.12994645647E+04 0.  0.
        2    1    3    3  502    0 -0.31878738871E+03 -0.52798964318E+03  0.84506314957E+03  0.10461979685E+04  0.25500000920E-02 0. -1.
       -2    1    3    3    0  502  0.31878738871E+03  0.52798964318E+03  0.30030109330E+03  0.68598776166E+03  0.25500000920E-02 0.  1.
</event>
<event>
 5   0  0.1475396E-04  0.1300156E+04  0.7818609E-02  0.9029442E-01
        1   -1    0    0  501    0  0.00000000000E+00  0.00000000000E+00  0.41090616007E+03  0.41090616010E+03  0.50400001928E-02 0.  1.
       -1   -1    0    0    0  501  0.00000000000E+00  0.00000000000E+00 -0.10284617802E+04  0.10284617802E+04  0.50400001928E-02 0. -1.
    10030    2    1    2    0    0  0.00000000000E+00  0.00000000000E+00 -0.61755562012E+03  0.14393679403E+04  0.13001558074E+04 0.  0.
        3    1    3    3  502    0  0.80326718746E+02  0.64479974252E+03 -0.33042048709E+03  0.72896968262E+03  0.10100000352E+00 0. -1.
       -3    1    3    3    0  502 -0.80326718746E+02 -0.64479974252E+03 -0.28713513303E+03  0.71039825768E+03  0.10100000352E+00 0.  1.
</event>
<event>
 5   0  0.1408341E-04  0.1301656E+04  0.7818609E-02  0.9028253E-01
        1   -1    0    0  501    0  0.00000000000E+00  0.00000000000E+00  0.14586263312E+04  0.14586263312E+04  0.50400001928E-02 0. -1.
       -1   -1    0    0    0  501  0.00000000000E+00  0.00000000000E+00 -0.29039467015E+03  0.29039467020E+03  0.50400001928E-02 0.  1.
    10030    2    1    2    0    0  0.00000000000E+00  0.00000000000E+00  0.11682316610E+04  0.17490210014E+04  0.13016563484E+04 0.  0.
        5    1    3    3  502    0 -0.54255557313E+03  0.70811923485E+02  0.11062167745E+03  0.55824736807E+03  0.46999998093E+01 0.  1.
       -5    1    3    3    0  502  0.54255557313E+03 -0.70811923485E+02  0.10576099836E+04  0.11907736333E+04  0.46999998093E+01 0. -1.
</event>
<event>
 5   0  0.2723209E-04  0.1301830E+04  0.7818609E-02  0.9028115E-01
        2   -1    0    0  501    0  0.00000000000E+00  0.00000000000E+00  0.46072239027E+03  0.46072239028E+03  0.25500000920E-02 0.  1.
       -2   -1    0    0    0  501  0.00000000000E+00  0.00000000000E+00 -0.91962138800E+03  0.91962138800E+03  0.25500000920E-02 0. -1.
    10030    2    1    2    0    0  0.00000000000E+00  0.00000000000E+00 -0.45889899772E+03  0.13803437783E+04  0.13018297339E+04 0.  0.
        2    1    3    3  502    0  0.44482554074E+03 -0.45761578098E+03 -0.93629557957E+02  0.64501818487E+03  0.25500000920E-02 0.  1.
       -2    1    3    3    0  502 -0.44482554074E+03  0.45761578098E+03 -0.36526943976E+03  0.73532559341E+03  0.25500000920E-02 0. -1.
</event>
<event>
 5   0  0.2756984E-04  0.1300222E+04  0.7818609E-02  0.9029389E-01
       -2   -1    0    0    0  501  0.00000000000E+00  0.00000000000E+00  0.47915603970E+03  0.47915603971E+03  0.25500000920E-02 0.  1.
        2   -1    0    0  501    0  0.00000000000E+00  0.00000000000E+00 -0.88206025608E+03  0.88206025608E+03  0.25500000920E-02 0. -1.
    10030    2    1    2    0    0  0.00000000000E+00  0.00000000000E+00 -0.40290421638E+03  0.13612162958E+04  0.13002222873E+04 0.  0.
        3    1    3    3  502    0  0.14464244736E+01  0.98387868607E+02  0.47131491652E+03  0.48147692111E+03  0.10100000352E+00 0.  1.
       -3    1    3    3    0  502 -0.14464244736E+01 -0.98387868607E+02 -0.87421913290E+03  0.87973937468E+03  0.10100000352E+00 0. -1.
</event>
<event>
 5   0  0.1475396E-04  0.1300726E+04  0.7818609E-02  0.9028990E-01
        1   -1    0    0  501    0  0.00000000000E+00  0.00000000000E+00  0.88391445327E+03  0.88391445328E+03  0.50400001928E-02 0. -1.
       -1   -1    0    0    0  501  0.00000000000E+00  0.00000000000E+00 -0.47852135752E+03  0.47852135755E+03  0.50400001928E-02 0.  1.
    10030    2    1    2    0    0  0.00000000000E+00  0.00000000000E+00  0.40539309575E+03  0.13624358108E+04  0.13007258653E+04 0.  0.
        3    1    3    3  502    0 -0.60815767864E+03  0.67871763981E+02 -0.28001596114E+02  0.61257361845E+03  0.10100000352E+00 0.  1.
       -3    1    3    3    0  502  0.60815767864E+03 -0.67871763981E+02  0.43339469186E+03  0.74986219238E+03  0.10100000352E+00 0. -1.
</event>
<event>
 5   0  0.2794825E-04  0.1299819E+04  0.7818609E-02  0.9029709E-01
        2   -1    0    0  501    0  0.00000000000E+00  0.00000000000E+00  0.12976651637E+04  0.12976651637E+04  0.25500000920E-02 0. -1.
       -2   -1    0    0    0  501  0.00000000000E+00  0.00000000000E+00 -0.32549412210E+03  0.32549412211E+03  0.25500000920E-02 0.  1.
    10030    2    1    2    0    0  0.00000000000E+00  0.00000000000E+00  0.97217104158E+03  0.16231592858E+04  0.12998190386E+04 0.  0.
        1    1    3    3  502    0 -0.60316436414E+03  0.19915013699E+03  0.65782653610E+03  0.91444178538E+03  0.50400001928E-02 0.  1.
       -1    1    3    3    0  502  0.60316436414E+03 -0.19915013699E+03  0.31434450549E+03  0.70871750041E+03  0.50400001928E-02 0. -1.
</event>
<event>
 5   0  0.2794825E-04  0.1299420E+04  0.7818609E-02  0.9030025E-01
        2   -1    0    0  501    0  0.00000000000E+00  0.00000000000E+00  0.13073663853E+04  0.13073663853E+04  0.25500000920E-02 0. -1.
       -2   -1    0    0    0  501  0.00000000000E+00  0.00000000000E+00 -0.32288043902E+03  0.32288043903E+03  0.25500000920E-02 0.  1.
    10030    2    1    2    0    0  0.00000000000E+00  0.00000000000E+00  0.98448594625E+03  0.16302468243E+04  0.12994199205E+04 0.  0.
        1    1    3    3  502    0 -0.27465207834E+03  0.31330023407E+03 -0.13321077906E+03  0.43741960689E+03  0.50400001928E-02 0.  1.
       -1    1    3    3    0  502  0.27465207834E+03 -0.31330023407E+03  0.11176967253E+04  0.11928272174E+04  0.50400001928E-02 0. -1.
</event>
<event>
 5   0  0.2661377E-04  0.1301721E+04  0.7818609E-02  0.9028201E-01
        2   -1    0    0  501    0  0.00000000000E+00  0.00000000000E+00  0.44579893396E+03  0.44579893397E+03  0.25500000920E-02 0. -1.
       -2   -1    0    0    0  501  0.00000000000E+00  0.00000000000E+00 -0.95024837214E+03  0.95024837214E+03  0.25500000920E-02 0.  1.
    10030    2    1    2    0    0  0.00000000000E+00  0.00000000000E+00 -0.50444943818E+03  0.13960473061E+04  0.13017214929E+04 0.  0.
        5    1    3    3  502    0 -0.54097223938E+03  0.15123480560E+02 -0.63997279669E+03  0.83813301686E+03  0.46999998093E+01 0.  1.
       -5    1    3    3    0  502  0.54097223938E+03 -0.15123480560E+02  0.13552335852E+03  0.55791428925E+03  0.46999998093E+01 0. -1.
</event>
<event>
 5   0  0.2756984E-04  0.1299781E+04  0.7818609E-02  0.9029739E-01
        2   -1    0    0  501    0  0.00000000000E+00  0.00000000000E+00  0.12909071019E+04  0.12909071019E+04  0.25500000920E-02 0.  1.
       -2   -1    0    0    0  501  0.00000000000E+00  0.00000000000E+00 -0.32717880868E+03  0.32717880869E+03  0.25500000920E-02 0. -1.
    10030    2    1    2    0    0  0.00000000000E+00  0.00000000000E+00  0.96372829327E+03  0.16180859106E+04  0.12997806703E+04 0.  0.
        3    1    3    3  502    0  0.31276772236E+03  0.22264796566E+03 -0.17091697002E+03  0.42024800488E+03  0.10100000352E+00 0. -1.
       -3    1    3    3    0  502 -0.31276772236E+03 -0.22264796566E+03  0.11346452633E+04  0.11978379058E+04  0.10100000352E+00 0.  1.
</event>
<event>
 5   0  0.1479690E-04  0.1299207E+04  0.7818609E-02  0.9030194E-01
       -1   -1    0    0    0  501  0.00000000000E+00  0.00000000000E+00  0.10503420483E+04  0.10503420484E+04  0.50400001928E-02 0. -1.
        1   -1    0    0  501    0  0.00000000000E+00  0.00000000000E+00 -0.40175941341E+03  0.40175941344E+03  0.50400001928E-02 0.  1.
    10030    2    1    2    0    0  0.00000000000E+00  0.00000000000E+00  0.64858263493E+03  0.14521014618E+04  0.12992071509E+04 0.  0.
        1    1    3    3  502    0  0.47233510442E+03 -0.27758021739E+03  0.71441476945E+03  0.90029977829E+03  0.50400001928E-02 0. -1.
       -1    1    3    3    0  502 -0.47233510442E+03  0.27758021739E+03 -0.65832134520E+02  0.55180168350E+03  0.50400001928E-02 0.  1.
</event>
<event>
 5   0  0.1479690E-04  0.1300905E+04  0.7818609E-02  0.9028848E-01
        1   -1    0    0  501    0  0.00000000000E+00  0.00000000000E+00  0.57312751204E+03  0.57312751206E+03  0.50400001928E-02 0. -1.
       -1   -1    0    0    0  501  0.00000000000E+00  0.00000000000E+00 -0.73821001298E+03  0.73821001299E+03  0.50400001928E-02 0.  1.
    10030    2    1    2    0    0  0.00000000000E+00  0.00000000000E+00 -0.16508250094E+03  0.13113375251E+04  0.13009050206E+04 0.  0.
        1    1    3    3  502    0 -0.13029496321E+03  0.20982863530E+03  0.52401816325E+03  0.57930982132E+03  0.50400001928E-02 0. -1.
       -1    1    3    3    0  502  0.13029496321E+03 -0.20982863530E+03 -0.68910066419E+03  0.73202770374E+03  0.50400001928E-02 0.  1.
</event>
<event>
 5   0  0.1479690E-04  0.1299921E+04  0.7818609E-02  0.9029628E-01
       -1   -1    0    0    0  501  0.00000000000E+00  0.00000000000E+00  0.22617287134E+03  0.22617287139E+03  0.50400001928E-02 0.  1.
        1   -1    0    0  501    0  0.00000000000E+00  0.00000000000E+00 -0.18678140418E+04  0.18678140419E+04  0.50400001928E-02 0. -1.
    10030    2    1    2    0    0  0.00000000000E+00  0.00000000000E+00 -0.16416411705E+04  0.20939869132E+04  0.12999213284E+04 0.  0.
        1    1    3    3  502    0  0.17969051195E+03 -0.60807311538E+03 -0.10509379344E+04  0.12274005604E+04  0.50400001928E-02 0. -1.
       -1    1    3    3    0  502 -0.17969051195E+03  0.60807311538E+03 -0.59070323612E+03  0.86658635283E+03  0.50400001928E-02 0.  1.
</event>
<event>
 5   0  0.2661377E-04  0.1300642E+04  0.7818609E-02  0.9029056E-01
        2   -1    0    0  501    0  0.00000000000E+00  0.00000000000E+00  0.82242558942E+03  0.82242558942E+03  0.25500000920E-02 0.  1.
       -2   -1    0    0    0  501  0.00000000000E+00  0.00000000000E+00 -0.51423172096E+03  0.51423172096E+03  0.25500000920E-02 0. -1.
    10030    2    1    2    0    0  0.00000000000E+00  0.00000000000E+00  0.30819386846E+03  0.13366573104E+04  0.13006418819E+04 0.  0.
        5    1    3    3  502    0  0.43264824079E+03 -0.47899175078E+03  0.72671421907E+02  0.64955432655E+03  0.46999998093E+01 0. -1.
       -5    1    3    3    0  502 -0.43264824079E+03  0.47899175078E+03  0.23552244656E+03  0.68710298384E+03  0.46999998093E+01 0.  1.
</event>
<event>
 5   0  0.2794825E-04  0.1299807E+04  0.7818609E-02  0.9029718E-01
       -2   -1    0    0    0  501  0.00000000000E+00  0.00000000000E+00  0.29439018246E+03  0.29439018247E+03  0.25500000920E-02 0. -1.
        2   -1    0    0  501    0  0.00000000000E+00  0.00000000000E+00 -0.14347436051E+04  0.14347436051E+04  0.25500000920E-02 0.  1.
    10030    2    1    2    0    0  0.00000000000E+00  0.00000000000E+00 -0.11403534227E+04  0.17291337876E+04  0.12998068037E+04 0.  0.
        1    1    3    3  502    0 -0.31913330288E+03  0.71325886357E+02  0.17697509546E+03  0.37182473224E+03  0.50400001928E-02 0. -1.
       -1    1    3    3    0  502  0.31913330288E+03 -0.71325886357E+02 -0.13173285181E+04  0.13573090554E+04  0.50400001928E-02 0.  1.
</event>
<event>
 5   0  0.1408341E-04  0.1302806E+04  0.7818609E-02  0.9027343E-01
        1   -1    0    0  501    0  0.00000000000E+00  0.00000000000E+00  0.59734573906E+03  0.59734573909E+03  0.50400001928E-02 0.  1.
       -1   -1    0    0    0  501  0.00000000000E+00  0.00000000000E+00 -0.71035192150E+03  0.71035192152E+03  0.50400001928E-02 0. -1.
    10030    2    1    2    0    0  0.00000000000E+00  0.00000000000E+00 -0.11300618243E+03  0.13076976606E+04  0.13028057316E+04 0.  0.
        5    1    3    3  502    0 -0.21769986221E+03  0.29403571526E+03 -0.59746401796E+03  0.70059658479E+03  0.46999998093E+01 0. -1.
       -5    1    3    3    0  502  0.21769986221E+03 -0.29403571526E+03  0.48445783553E+03  0.60710107582E+03  0.46999998093E+01 0.  1.
</event>
<event>
 5   0  0.1475396E-04  0.1294563E+04  0.7818609E-02  0.9033888E-01
       -1   -1    0    0    0  501  0.00000000000E+00  0.00000000000E+00  0.33616218863E+03  0.33616218867E+03  0.50400001928E-02 0. -1.
        1   -1    0    0  501    0  0.00000000000E+00  0.00000000000E+00 -0.12463433233E+04  0.12463433233E+04  0.50400001928E-02 0.  1.
    10030    2    1    2    0    0  0.00000000000E+00  0.00000000000E+00 -0.91018113469E+03  0.15825055120E+04  0.12945632459E+04 0.  0.
        3    1    3    3  502    0 -0.46663263237E+02  0.36587550823E+03 -0.11053135779E+04  0.11652297899E+04  0.10100000352E+00 0.  1.
       -3    1    3    3    0  502  0.46663263237E+02 -0.36587550823E+03  0.19513244319E+03  0.41727572208E+03  0.10100000352E+00 0. -1.
</event>
<event>
 5   0  0.2794825E-04  0.1300257E+04  0.7818609E-02  0.9029361E-01
        2   -1    0    0  501    0  0.00000000000E+00  0.00000000000E+00  0.15763037468E+04  0.15763037468E+04  0.25500000920E-02 0.  1.
       -2   -1    0    0    0  501  0.00000000000E+00  0.00000000000E+00 -0.26813824226E+03  0.26813824228E+03  0.25500000920E-02 0. -1.
    10030    2    1    2    0    0  0.00000000000E+00  0.00000000000E+00  0.13081655045E+04  0.18444419891E+04  0.13002573837E+04 0.  0.
        1    1    3    3  502    0  0.80493833306E+02  0.57699011081E+03  0.24474558316E+03  0.63189971172E+03  0.50400001928E-02 0. -1.
       -1    1    3    3    0  502 -0.80493833306E+02 -0.57699011081E+03  0.10634199214E+04  0.12125422774E+04  0.50400001928E-02 0.  1.
</event>
<event>
 5   0  0.1479690E-04  0.1297830E+04  0.7818609E-02  0.9031288E-01
       -1   -1    0    0    0  501  0.00000000000E+00  0.00000000000E+00  0.22069924773E+03  0.22069924779E+03  0.50400001928E-02 0.  1.
        1   -1    0    0  501    0  0.00000000000E+00  0.00000000000E+00 -0.19079845921E+04  0.19079845921E+04  0.50400001928E-02 0. -1.
    10030    2    1    2    0    0  0.00000000000E+00  0.00000000000E+00 -0.16872853443E+04  0.21286838399E+04  0.12978301341E+04 0.  0.
        1    1    3    3  502    0  0.76614085497E+02  0.34108268274E+03  0.53051584866E+02  0.35358391542E+03  0.50400001928E-02 0.  1.
       -1    1    3    3    0  502 -0.76614085497E+02 -0.34108268274E+03 -0.17403369292E+04  0.17750999244E+04  0.50400001928E-02 0. -1.
</event>
<event>
 5   0  0.1476511E-04  0.1301104E+04  0.7818609E-02  0.9028690E-01
        1   -1    0    0  501    0  0.00000000000E+00  0.00000000000E+00  0.12752628600E+04  0.12752628600E+04  0.50400001928E-02 0. -1.
       -1   -1    0    0    0  501  0.00000000000E+00  0.00000000000E+00 -0.33186734084E+03  0.33186734088E+03  0.50400001928E-02 0.  1.
    10030    2    1    2    0    0  0.00000000000E+00  0.00000000000E+00  0.94339551918E+03  0.16071302009E+04  0.13011042914E+04 0.  0.
        2    1    3    3  502    0  0.11534456474E+03  0.14898882576E+03  0.12408208430E+04  0.12550451798E+04  0.25500000920E-02 0. -1.
       -2    1    3    3    0  502 -0.11534456474E+03 -0.14898882576E+03 -0.29742532385E+03  0.35208502111E+03  0.25500000920E-02 0.  1.
</event>
<event>
 5   0  0.1430636E-04  0.1302575E+04  0.7818609E-02  0.9027525E-01
        1   -1    0    0  501    0  0.00000000000E+00  0.00000000000E+00  0.10557941451E+04  0.10557941451E+04  0.50400001928E-02 0. -1.
       -1   -1    0    0    0  501  0.00000000000E+00  0.00000000000E+00 -0.40175972167E+03  0.40175972170E+03  0.50400001928E-02 0.  1.
    10030    2    1    2    0    0  0.00000000000E+00  0.00000000000E+00  0.65403442344E+03  0.14575538668E+04  0.13025752368E+04 0.  0.
        4    1    3    3  502    0 -0.38638016061E+02 -0.54928346980E+03  0.71620422824E+03  0.90341315905E+03  0.12699999809E+01 0. -1.
       -4    1    3    3    0  502  0.38638016061E+02  0.54928346980E+03 -0.62169804799E+02  0.55414070778E+03  0.12699999809E+01 0.  1.
</event>
<event>
 5   0  0.1430636E-04  0.1300015E+04  0.7818609E-02  0.9029553E-01
       -1   -1    0    0    0  501  0.00000000000E+00  0.00000000000E+00  0.27352745130E+03  0.27352745135E+03  0.50400001928E-02 0.  1.
        1   -1    0    0  501    0  0.00000000000E+00  0.00000000000E+00 -0.15446712790E+04  0.15446712790E+04  0.50400001928E-02 0. -1.
    10030    2    1    2    0    0  0.00000000000E+00  0.00000000000E+00 -0.12711438277E+04  0.18181987304E+04  0.13000153816E+04 0.  0.
        4    1    3    3  502    0 -0.46364306602E+03 -0.69368348559E+02 -0.12653006369E+04  0.13493569487E+04  0.12699999809E+01 0. -1.
       -4    1    3    3    0  502  0.46364306602E+03  0.69368348559E+02 -0.58431908310E+01  0.46884178166E+03  0.12699999809E+01 0.  1.
</event>
<event>
 5   0  0.1479690E-04  0.1300574E+04  0.7818609E-02  0.9029110E-01
       -1   -1    0    0    0  501  0.00000000000E+00  0.00000000000E+00  0.58301268884E+03  0.58301268886E+03  0.50400001928E-02 0.  1.
        1   -1    0    0  501    0  0.00000000000E+00  0.00000000000E+00 -0.72532432801E+03  0.72532432803E+03  0.50400001928E-02 0. -1.
    10030    2    1    2    0    0  0.00000000000E+00  0.00000000000E+00 -0.14231163917E+03  0.13083370169E+04  0.13005741606E+04 0.  0.
        1    1    3    3  502    0  0.63760667647E+03 -0.12456619745E+03 -0.42449987126E+02  0.65104609119E+03  0.50400001928E-02 0.  1.
       -1    1    3    3    0  502 -0.63760667647E+03  0.12456619745E+03 -0.99861652046E+02  0.65729092569E+03  0.50400001928E-02 0. -1.
</event>
<event>
 5   0  0.1475396E-04  0.1299488E+04  0.7818609E-02  0.9029971E-01
       -1   -1    0    0    0  501  0.00000000000E+00  0.00000000000E+00  0.19643509388E+03  0.19643509394E+03  0.50400001928E-02 0.  1.
        1   -1    0    0  501    0  0.00000000000E+00  0.00000000000E+00 -0.21491437283E+04  0.21491437283E+04  0.50400001928E-02 0. -1.
    10030    2    1    2    0    0  0.00000000000E+00  0.00000000000E+00 -0.19527086344E+04  0.23455788222E+04  0.12994879762E+04 0.  0.
        3    1    3    3  502    0 -0.44443819023E+03  0.13408715851E+03 -0.15579746192E+03  0.48967083878E+03  0.10100000352E+00 0.  1.
       -3    1    3    3    0  502  0.44443819023E+03 -0.13408715851E+03 -0.17969111725E+04  0.18559079834E+04  0.10100000352E+00 0. -1.
</event>
<event>
 5   0  0.1430636E-04  0.1295752E+04  0.7818609E-02  0.9032941E-01
       -1   -1    0    0    0  501  0.00000000000E+00  0.00000000000E+00  0.26862224648E+03  0.26862224653E+03  0.50400001928E-02 0. -1.
        1   -1    0    0  501    0  0.00000000000E+00  0.00000000000E+00 -0.15625787332E+04  0.15625787332E+04  0.50400001928E-02 0.  1.
    10030    2    1    2    0    0  0.00000000000E+00  0.00000000000E+00 -0.12939564867E+04  0.18312009797E+04  0.12957521517E+04 0.  0.
        4    1    3    3  502    0 -0.15215507794E+03  0.64978128129E+02  0.23826195105E+03  0.29007532659E+03  0.12699999809E+01 0. -1.
       -4    1    3    3    0  502  0.15215507794E+03 -0.64978128129E+02 -0.15322184377E+04  0.15411256531E+04  0.12699999809E+01 0.  1.
</event>
<event>
 5   0  0.2661377E-04  0.1295573E+04  0.7818609E-02  0.9033083E-01
        2   -1    0    0  501    0  0.00000000000E+00  0.00000000000E+00  0.16934448494E+04  0.16934448494E+04  0.25500000920E-02 0. -1.
       -2   -1    0    0    0  501  0.00000000000E+00  0.00000000000E+00 -0.24779498773E+03  0.24779498775E+03  0.25500000920E-02 0.  1.
    10030    2    1    2    0    0  0.00000000000E+00  0.00000000000E+00  0.14456498617E+04  0.19412398372E+04  0.12955726853E+04 0.  0.
        5    1    3    3  502    0 -0.62803513979E+02 -0.64122812648E+03  0.82319592602E+03  0.10453666410E+04  0.46999998093E+01 0.  1.
       -5    1    3    3    0  502  0.62803513979E+02  0.64122812648E+03  0.62245393568E+03  0.89587319616E+03  0.46999998093E+01 0. -1.
</event>
<event>
 5   0  0.1476511E-04  0.1302428E+04  0.7818609E-02  0.9027642E-01
        1   -1    0    0  501    0  0.00000000000E+00  0.00000000000E+00  0.73428984619E+03  0.73428984620E+03  0.50400001928E-02 0.  1.
       -1   -1    0    0    0  501  0.00000000000E+00  0.00000000000E+00 -0.57753683780E+03  0.57753683782E+03  0.50400001928E-02 0. -1.
    10030    2    1    2    0    0  0.00000000000E+00  0.00000000000E+00  0.15675300839E+03  0.13118266840E+04  0.13024276346E+04 0.  0.
        2    1    3    3  502    0 -0.39674387933E+03 -0.38067955579E+02 -0.44033959561E+03  0.59393083309E+03  0.25500000920E-02 0. -1.
       -2    1    3    3    0  502  0.39674387933E+03  0.38067955579E+02  0.59709260400E+03  0.71789585093E+03  0.25500000920E-02 0.  1.
</event>
<event>
 5   0  0.1475396E-04  0.1300077E+04  0.7818609E-02  0.9029504E-01
        1   -1    0    0  501    0  0.00000000000E+00  0.00000000000E+00  0.71119335159E+03  0.71119335161E+03  0.50400001928E-02 0.  1.
       -1   -1    0    0    0  501  0.00000000000E+00  0.00000000000E+00 -0.59414243022E+03  0.59414243024E+03  0.50400001928E-02 0. -1.
    10030    2    1    2    0    0  0.00000000000E+00  0.00000000000E+00  0.11705092138E+03  0.13053357818E+04  0.13000771459E+04 0.  0.
        3    1    3    3  502    0  0.47415437668E+03 -0.44367189780E+03  0.28689776867E+02  0.64999249174E+03  0.10100000352E+00 0.  1.
       -3    1    3    3    0  502 -0.47415437668E+03  0.44367189780E+03  0.88361144509E+02  0.65534329010E+03  0.10100000352E+00 0. -1.
</event>
<event>
 5   0  0.1476511E-04  0.1295913E+04  0.7818609E-02  0.9032813E-01
       -1   -1    0    0    0  501  0.00000000000E+00  0.00000000000E+00  0.23509316701E+03  0.23509316707E+03  0.50400001928E-02 0.  1.
        1   -1    0    0  501    0  0.00000000000E+00  0.00000000000E+00 -0.17858766100E+04  0.17858766100E+04  0.50400001928E-02 0. -1.
    10030    2    1    2    0    0  0.00000000000E+00  0.00000000000E+00 -0.15507834430E+04  0.20209697771E+04  0.12959126332E+04 0.  0.
        2    1    3    3  502    0  0.18852627360E+03  0.61904838611E+03 -0.72403888555E+03  0.97107948592E+03  0.25500000920E-02 0.  1.
       -2    1    3    3    0  502 -0.18852627360E+03 -0.61904838611E+03 -0.82674455742E+03  0.10498902911E+04  0.25500000920E-02 0. -1.
</event>
<event>
 5   0  0.2794825E-04  0.1261754E+04  0.7818609E-02  0.9060457E-01
       -2   -1    0    0    0  501  0.00000000000E+00  0.00000000000E+00  0.57196532096E+03  0.57196532096E+03  0.25500000920E-02 0. -1.
        2   -1    0    0  501    0  0.00000000000E+00  0.00000000000E+00 -0.69585655180E+03  0.69585655181E+03  0.25500000920E-02 0.  1.
    10030    2    1    2    0    0  0.00000000000E+00  0.00000000000E+00 -0.12389123084E+03  0.12678218728E+04  0.12617540426E+04 0.  0.
        1    1    3    3  502    0  0.34023143576E+03  0.40501982388E+03  0.28352072232E+03  0.60015205376E+03  0.50400001928E-02 0. -1.
       -1    1    3    3    0  502 -0.34023143576E+03 -0.40501982388E+03 -0.40741195317E+03  0.66766981902E+03  0.50400001928E-02 0.  1.
</event>
<event>
 5   0  0.1479690E-04  0.1303709E+04  0.7818609E-02  0.9026629E-01
       -1   -1    0    0    0  501  0.00000000000E+00  0.00000000000E+00  0.61766141603E+03  0.61766141606E+03  0.50400001928E-02 0. -1.
        1   -1    0    0  501    0  0.00000000000E+00  0.00000000000E+00 -0.68794016358E+03  0.68794016360E+03  0.50400001928E-02 0.  1.
    10030    2    1    2    0    0  0.00000000000E+00  0.00000000000E+00 -0.70278747550E+02  0.13056015797E+04  0.13037087031E+04 0.  0.
        1    1    3    3  502    0 -0.21837689049E+03 -0.20322638082E+03 -0.61557097605E+03  0.68404462921E+03  0.50400001928E-02 0.  1.
       -1    1    3    3    0  502  0.21837689049E+03  0.20322638082E+03  0.54529222850E+03  0.62155695045E+03  0.50400001928E-02 0. -1.
</event>
<event>
 5   0  0.2723209E-04  0.1301001E+04  0.7818609E-02  0.9028772E-01
       -2   -1    0    0    0  501  0.00000000000E+00  0.00000000000E+00  0.17605521974E+04  0.17605521974E+04  0.25500000920E-02 0.  1.
        2   -1    0    0  501    0  0.00000000000E+00  0.00000000000E+00 -0.24035125381E+03  0.24035125383E+03  0.25500000920E-02 0. -1.
    10030    2    1    2    0    0  0.00000000000E+00  0.00000000000E+00  0.15202009436E+04  0.20009034513E+04  0.13010010424E+04 0.  0.
        2    1    3    3  502    0 -0.51522610422E+03  0.15175164680E+03  0.13244847834E+04  0.14292468094E+04  0.25500000920E-02 0.  1.
       -2    1    3    3    0  502  0.51522610422E+03 -0.15175164680E+03  0.19571616022E+03  0.57165664184E+03  0.25500000920E-02 0. -1.
</event>
<event>
 5   0  0.1408341E-04  0.1294456E+04  0.7818609E-02  0.9033973E-01
        1   -1    0    0  501    0  0.00000000000E+00  0.00000000000E+00  0.95985034164E+03  0.95985034165E+03  0.50400001928E-02 0.  1.
       -1   -1    0    0    0  501  0.00000000000E+00  0.00000000000E+00 -0.43642654704E+03  0.43642654706E+03  0.50400001928E-02 0. -1.
    10030    2    1    2    0    0  0.00000000000E+00  0.00000000000E+00  0.52342379460E+03  0.13962768887E+04  0.12944561334E+04 0.  0.
        5    1    3    3  502    0 -0.26248933598E+03  0.25618723543E+03 -0.31347696603E+03  0.48251678658E+03  0.46999998093E+01 0. -1.
       -5    1    3    3    0  502  0.26248933598E+03 -0.25618723543E+03  0.83690076063E+03  0.91376010213E+03  0.46999998093E+01 0.  1.
</event>
<event>
 5   0  0.1479690E-04  0.1303321E+04  0.7818609E-02  0.9026936E-01
        1   -1    0    0  501    0  0.00000000000E+00  0.00000000000E+00  0.48427200475E+03  0.48427200478E+03  0.50400001928E-02 0.  1.
       -1   -1    0    0    0  501  0.00000000000E+00  0.00000000000E+00 -0.87690654943E+03  0.87690654944E+03  0.50400001928E-02 0. -1.
    10030    2    1    2    0    0  0.00000000000E+00  0.00000000000E+00 -0.39263454468E+03  0.13611785542E+04  0.13033208242E+04 0.  0.
        1    1    3    3  502    0  0.40875762145E+03  0.50742559694E+03 -0.18599081519E+03  0.67761059089E+03  0.50400001928E-02 0. -1.
       -1    1    3    3    0  502 -0.40875762145E+03 -0.50742559694E+03 -0.20664372949E+03  0.68356796333E+03  0.50400001928E-02 0.  1.
</event>
<event>
 5   0  0.1475396E-04  0.1308950E+04  0.7818609E-02  0.9022497E-01
       -1   -1    0    0    0  501  0.00000000000E+00  0.00000000000E+00  0.29515427332E+03  0.29515427336E+03  0.50400001928E-02 0.  1.
        1   -1    0    0  501    0  0.00000000000E+00  0.00000000000E+00 -0.14512336328E+04  0.14512336329E+04  0.50400001928E-02 0. -1.
    10030    2    1    2    0    0  0.00000000000E+00  0.00000000000E+00 -0.11560793595E+04  0.17463879062E+04  0.13089504320E+04 0.  0.
        3    1    3    3  502    0  0.22306453574E+03 -0.21528933641E+03  0.19097967909E+03  0.36411609893E+03  0.10100000352E+00 0.  1.
       -3    1    3    3    0  502 -0.22306453574E+03  0.21528933641E+03 -0.13470590386E+04  0.13822718073E+04  0.10100000352E+00 0. -1.
</event>
<event>
 5   0  0.1002887E-04  0.1300305E+04  0.7818609E-02  0.9029323E-01
       -3   -1    0    0    0  501  0.00000000000E+00  0.00000000000E+00  0.46679621880E+03  0.46679622973E+03  0.10100000352E+00 0.  1.
        3   -1    0    0  501    0  0.00000000000E+00  0.00000000000E+00 -0.90553104204E+03  0.90553104768E+03  0.10100000352E+00 0. -1.
    10030    2    1    2    0    0  0.00000000000E+00  0.00000000000E+00 -0.43873482324E+03  0.13723272774E+04  0.13003053146E+04 0.  0.
        3    1    3    3  502    0  0.13518234823E+02 -0.16264415119E+03 -0.88356038682E+03  0.89850700050E+03  0.10100000352E+00 0. -1.
       -3    1    3    3    0  502 -0.13518234823E+02  0.16264415119E+03  0.44482556358E+03  0.47382027690E+03  0.10100000352E+00 0.  1.
</event>
<event>
 5   0  0.2661377E-04  0.1299204E+04  0.7818609E-02  0.9030197E-01
       -2   -1    0    0    0  501  0.00000000000E+00  0.00000000000E+00  0.84885547451E+03  0.84885547451E+03  0.25500000920E-02 0.  1.
        2   -1    0    0  501    0  0.00000000000E+00  0.00000000000E+00 -0.49711941620E+03  0.49711941620E+03  0.25500000920E-02 0. -1.
    10030    2    1    2    0    0  0.00000000000E+00  0.00000000000E+00  0.35173605831E+03  0.13459748907E+04  0.12992036606E+04 0.  0.
        5    1    3    3  502    0  0.51913566015E+02  0.63265927896E+03  0.33036487907E+02  0.63566208092E+03  0.46999998093E+01 0. -1.
       -5    1    3    3    0  502 -0.51913566015E+02 -0.63265927896E+03  0.31869957040E+03  0.71031280980E+03  0.46999998093E+01 0.  1.
</event>
<event>
 5   0  0.2573071E-04  0.1299574E+04  0.7818609E-02  0.9029903E-01
        2   -1    0    0  501    0  0.00000000000E+00  0.00000000000E+00  0.94350026184E+03  0.94350026184E+03  0.25500000920E-02 0.  1.
       -2   -1    0    0    0  501  0.00000000000E+00  0.00000000000E+00 -0.44750729449E+03  0.44750729450E+03  0.25500000920E-02 0. -1.
    10030    2    1    2    0    0  0.00000000000E+00  0.00000000000E+00  0.49599296735E+03  0.13910075563E+04  0.12995741603E+04 0.  0.
        4    1    3    3  502    0 -0.32178356563E+02  0.48513894969E+03  0.70940129204E+03  0.86002735607E+03  0.12699999809E+01 0.  1.
       -4    1    3    3    0  502  0.32178356563E+02 -0.48513894969E+03 -0.21340832469E+03  0.53098020027E+03  0.12699999809E+01 0. -1.
</event>
<event>
 5   0  0.1479690E-04  0.1293690E+04  0.7818609E-02  0.9034584E-01
       -1   -1    0    0    0  501  0.00000000000E+00  0.00000000000E+00  0.26695592995E+03  0.26695593000E+03  0.50400001928E-02 0. -1.
        1   -1    0    0  501    0  0.00000000000E+00  0.00000000000E+00 -0.15673303568E+04  0.15673303569E+04  0.50400001928E-02 0.  1.
    10030    2    1    2    0    0  0.00000000000E+00  0.00000000000E+00 -0.13003744269E+04  0.18342862869E+04  0.12936895037E+04 0.  0.
        1    1    3    3  502    0 -0.13422510203E+03  0.35346996001E+03 -0.13943347327E+04  0.14446891491E+04  0.50400001928E-02 0.  1.
       -1    1    3    3    0  502  0.13422510203E+03 -0.35346996001E+03  0.93960305828E+02  0.38959713775E+03  0.50400001928E-02 0. -1.
</event>
<event>
 5   0  0.1408341E-04  0.1300520E+04  0.7818609E-02  0.9029153E-01
       -1   -1    0    0    0  501  0.00000000000E+00  0.00000000000E+00  0.20149521902E+03  0.20149521908E+03  0.50400001928E-02 0. -1.
        1   -1    0    0  501    0  0.00000000000E+00  0.00000000000E+00 -0.20985027774E+04  0.20985027774E+04  0.50400001928E-02 0.  1.
    10030    2    1    2    0    0  0.00000000000E+00  0.00000000000E+00 -0.18970075584E+04  0.22999979965E+04  0.13005203217E+04 0.  0.
        5    1    3    3  502    0  0.17300108523E+03  0.15535014712E+03 -0.20224392338E+04  0.20357665849E+04  0.46999998093E+01 0.  1.
       -5    1    3    3    0  502 -0.17300108523E+03 -0.15535014712E+03  0.12543167539E+03  0.26423141163E+03  0.46999998093E+01 0. -1.
</event>
<event>
 5   0  0.2756984E-04  0.1300796E+04  0.7818609E-02  0.9028934E-01
       -2   -1    0    0    0  501  0.00000000000E+00  0.00000000000E+00  0.31947051014E+03  0.31947051015E+03  0.25500000920E-02 0. -1.
        2   -1    0    0  501    0  0.00000000000E+00  0.00000000000E+00 -0.13241212332E+04  0.13241212332E+04  0.25500000920E-02 0.  1.
    10030    2    1    2    0    0  0.00000000000E+00  0.00000000000E+00 -0.10046507231E+04  0.16435917434E+04  0.13007961960E+04 0.  0.
        3    1    3    3  502    0  0.49963265623E+03 -0.33538860999E+03 -0.19051461857E+03  0.63120055527E+03  0.10100000352E+00 0. -1.
       -3    1    3    3    0  502 -0.49963265623E+03  0.33538860999E+03 -0.81413610453E+03  0.10123911881E+04  0.10100000352E+00 0.  1.
</event>
<event>
 5   0  0.1430636E-04  0.1297227E+04  0.7818609E-02  0.9031767E-01
        1   -1    0    0  501    0  0.00000000000E+00  0.00000000000E+00  0.11013322841E+04  0.11013322841E+04  0.50400001928E-02 0. -1.
       -1   -1    0    0    0  501  0.00000000000E+00  0.00000000000E+00 -0.38199154041E+03  0.38199154044E+03  0.50400001928E-02 0.  1.
    10030    2    1    2    0    0  0.00000000000E+00  0.00000000000E+00  0.71934074365E+03  0.14833238245E+04  0.12972272210E+04 0.  0.
        4    1    3    3  502    0 -0.40067942030E+03 -0.39500177928E+03 -0.93096454217E+01  0.56272434272E+03  0.12699999809E+01 0.  1.
       -4    1    3    3    0  502  0.40067942030E+03  0.39500177928E+03  0.72865038907E+03  0.92059948179E+03  0.12699999809E+01 0. -1.
</event>
<event>
 5   0  0.2756984E-04  0.1301782E+04  0.7818609E-02  0.9028153E-01
        2   -1    0    0  501    0  0.00000000000E+00  0.00000000000E+00  0.58811059463E+03  0.58811059463E+03  0.25500000920E-02 0.  1.
       -2   -1    0    0    0  501  0.00000000000E+00  0.00000000000E+00 -0.72037340934E+03  0.72037340935E+03  0.25500000920E-02 0. -1.
    10030    2    1    2    0    0  0.00000000000E+00  0.00000000000E+00 -0.13226281471E+03  0.13084840040E+04  0.13017822155E+04 0.  0.
        3    1    3    3  502    0 -0.15391206697E+02  0.49940344864E+03 -0.48543427427E+03  0.69662553685E+03  0.10100000352E+00 0. -1.
       -3    1    3    3    0  502  0.15391206697E+02 -0.49940344864E+03  0.35317145956E+03  0.61185846713E+03  0.10100000352E+00 0.  1.
</event>
<event>
 5   0  0.1408341E-04  0.1298057E+04  0.7818609E-02  0.9031107E-01
        1   -1    0    0  501    0  0.00000000000E+00  0.00000000000E+00  0.16016741596E+04  0.16016741596E+04  0.50400001928E-02 0. -1.
       -1   -1    0    0    0  501  0.00000000000E+00  0.00000000000E+00 -0.26299871155E+03  0.26299871160E+03  0.50400001928E-02 0.  1.
    10030    2    1    2    0    0  0.00000000000E+00  0.00000000000E+00  0.13386754480E+04  0.18646728712E+04  0.12980573799E+04 0.  0.
        5    1    3    3  502    0 -0.51838262744E+03  0.15189606477E+03  0.15254688379E+03  0.56132486554E+03  0.46999998093E+01 0.  1.
       -5    1    3    3    0  502  0.51838262744E+03 -0.15189606477E+03  0.11861285643E+04  0.13033480057E+04  0.46999998093E+01 0. -1.
</event>
<event>
 5   0  0.1476511E-04  0.1301938E+04  0.7818609E-02  0.9028029E-01
        1   -1    0    0  501    0  0.00000000000E+00  0.00000000000E+00  0.80753044263E+03  0.80753044265E+03  0.50400001928E-02 0. -1.
       -1   -1    0    0    0  501  0.00000000000E+00  0.00000000000E+00 -0.52476148579E+03  0.52476148581E+03  0.50400001928E-02 0.  1.
    10030    2    1    2    0    0  0.00000000000E+00  0.00000000000E+00  0.28276895684E+03  0.13322919285E+04  0.13019383625E+04 0.  0.
        2    1    3    3  502    0  0.44812852638E+03 -0.46506732794E+03  0.57910145486E+02  0.64842916393E+03  0.25500000920E-02 0. -1.
       -2    1    3    3    0  502 -0.44812852638E+03  0.46506732794E+03  0.22485881136E+03  0.68386276454E+03  0.25500000920E-02 0.  1.
</event>
<event>
 5   0  0.2661377E-04  0.1303980E+04  0.7818609E-02  0.9026415E-01
        2   -1    0    0  501    0  0.00000000000E+00  0.00000000000E+00  0.10173611916E+04  0.10173611916E+04  0.25500000920E-02 0.  1.
       -2   -1    0    0    0  501  0.00000000000E+00  0.00000000000E+00 -0.41783654277E+03  0.41783654278E+03  0.25500000920E-02 0. -1.
    10030    2    1    2    0    0  0.00000000000E+00  0.00000000000E+00  0.59952464881E+03  0.14351977344E+04  0.13039795751E+04 0.  0.
        5    1    3    3  502    0  0.21626573021E+03  0.46158738050E+02 -0.37528054567E+03  0.43561344460E+03  0.46999998093E+01 0. -1.
       -5    1    3    3    0  502 -0.21626573021E+03 -0.46158738050E+02  0.97480519448E+03  0.99958428977E+03  0.46999998093E+01 0.  1.
</event>
<event>
 5   0  0.1479690E-04  0.1299410E+04  0.7818609E-02  0.9030033E-01
        1   -1    0    0  501    0  0.00000000000E+00  0.00000000000E+00  0.14506227035E+04  0.14506227035E+04  0.50400001928E-02 0. -1.
       -1   -1    0    0    0  501  0.00000000000E+00  0.00000000000E+00 -0.29099008897E+03  0.29099008902E+03  0.50400001928E-02 0.  1.
    10030    2    1    2    0    0  0.00000000000E+00  0.00000000000E+00  0.11596326146E+04  0.17416127926E+04  0.12994103734E+04 0.  0.
        1    1    3    3  502    0  0.48136620837E+03  0.22967304378E+03  0.82538343010E+02  0.53969964952E+03  0.50400001928E-02 0. -1.
       -1    1    3    3    0  502 -0.48136620837E+03 -0.22967304378E+03  0.10770942715E+04  0.12019131430E+04  0.50400001928E-02 0.  1.
</event>
<event>
 5   0  0.1479690E-04  0.1296665E+04  0.7818609E-02  0.9032214E-01
        1   -1    0    0  501    0  0.00000000000E+00  0.00000000000E+00  0.12406114508E+04  0.12406114509E+04  0.50400001928E-02 0.  1.
       -1   -1    0    0    0  501  0.00000000000E+00  0.00000000000E+00 -0.33881268400E+03  0.33881268404E+03  0.50400001928E-02 0. -1.
    10030    2    1    2    0    0  0.00000000000E+00  0.00000000000E+00  0.90179876684E+03  0.15794241349E+04  0.12966647917E+04 0.  0.
        1    1    3    3  502    0  0.33008112951E+03 -0.15635090502E+03 -0.20157486084E+03  0.41717092673E+03  0.50400001928E-02 0. -1.
       -1    1    3    3    0  502 -0.33008112951E+03  0.15635090502E+03  0.11033736277E+04  0.11622532082E+04  0.50400001928E-02 0.  1.
</event>
<event>
 5   0  0.2661377E-04  0.1298197E+04  0.7818609E-02  0.9030996E-01
        2   -1    0    0  501    0  0.00000000000E+00  0.00000000000E+00  0.12533291245E+04  0.12533291245E+04  0.25500000920E-02 0. -1.
       -2   -1    0    0    0  501  0.00000000000E+00  0.00000000000E+00 -0.33616782237E+03  0.33616782238E+03  0.25500000920E-02 0.  1.
    10030    2    1    2    0    0  0.00000000000E+00  0.00000000000E+00  0.91716130217E+03  0.15894969469E+04  0.12981970921E+04 0.  0.
        5    1    3    3  502    0 -0.45461062205E+03 -0.24880985424E+02  0.10250066155E+04  0.11215839393E+04  0.46999998093E+01 0. -1.
       -5    1    3    3    0  502  0.45461062205E+03  0.24880985424E+02 -0.10784531330E+03  0.46791300763E+03  0.46999998093E+01 0.  1.
</event>
<event>
 5   0  0.1430636E-04  0.1298038E+04  0.7818609E-02  0.9031123E-01
       -1   -1    0    0    0  501  0.00000000000E+00  0.00000000000E+00  0.34230802153E+03  0.34230802157E+03  0.50400001928E-02 0.  1.
        1   -1    0    0  501    0  0.00000000000E+00  0.00000000000E+00 -0.12305449315E+04  0.12305449315E+04  0.50400001928E-02 0. -1.
    10030    2    1    2    0    0  0.00000000000E+00  0.00000000000E+00 -0.88823690997E+03  0.15728529531E+04  0.12980375972E+04 0.  0.
        4    1    3    3  502    0 -0.21860019763E+03  0.19744820463E+03 -0.11448758915E+04  0.11821650730E+04  0.12699999809E+01 0. -1.
       -4    1    3    3    0  502  0.21860019763E+03 -0.19744820463E+03  0.25663898154E+03  0.39068788010E+03  0.12699999809E+01 0.  1.
</event>
<event>
 5   0  0.1479690E-04  0.1300153E+04  0.7818609E-02  0.9029444E-01
       -1   -1    0    0    0  501  0.00000000000E+00  0.00000000000E+00  0.41206133949E+03  0.41206133953E+03  0.50400001928E-02 0.  1.
        1   -1    0    0  501    0  0.00000000000E+00  0.00000000000E+00 -0.10255742328E+04  0.10255742328E+04  0.50400001928E-02 0. -1.
    10030    2    1    2    0    0  0.00000000000E+00  0.00000000000E+00 -0.61351289332E+03  0.14376355724E+04  0.13001530558E+04 0.  0.
        1    1    3    3  502    0 -0.61978697271E+03 -0.19466147716E+03 -0.33316751227E+03  0.73008874357E+03  0.50400001928E-02 0.  1.
       -1    1    3    3    0  502  0.61978697271E+03  0.19466147716E+03 -0.28034538106E+03  0.70754682879E+03  0.50400001928E-02 0. -1.
</event>
<event>
 5   0  0.2661377E-04  0.1298016E+04  0.7818609E-02  0.9031140E-01
       -2   -1    0    0    0  501  0.00000000000E+00  0.00000000000E+00  0.39828007357E+03  0.39828007358E+03  0.25500000920E-02 0. -1.
        2   -1    0    0  501    0  0.00000000000E+00  0.00000000000E+00 -0.10575754784E+04  0.10575754784E+04  0.25500000920E-02 0.  1.
    10030    2    1    2    0    0  0.00000000000E+00  0.00000000000E+00 -0.65929540488E+03  0.14558555520E+04  0.12980157770E+04 0.  0.
        5    1    3    3  502    0 -0.63442846891E+03 -0.63053634794E+01 -0.48281874954E+03  0.79729246496E+03  0.46999998093E+01 0.  1.
       -5    1    3    3    0  502  0.63442846891E+03  0.63053634794E+01 -0.17647665534E+03  0.65856308707E+03  0.46999998093E+01 0. -1.
</event>
<event>
 5   0  0.1408341E-04  0.1294778E+04  0.7818609E-02  0.9033717E-01
       -1   -1    0    0    0  501  0.00000000000E+00  0.00000000000E+00  0.36541625304E+03  0.36541625308E+03  0.50400001928E-02 0. -1.
        1   -1    0    0  501    0  0.00000000000E+00  0.00000000000E+00 -0.11469455311E+04  0.11469455311E+04  0.50400001928E-02 0.  1.
    10030    2    1    2    0    0  0.00000000000E+00  0.00000000000E+00 -0.78152927804E+03  0.15123617842E+04  0.12947780326E+04 0.  0.
        5    1    3    3  502    0  0.19579866131E+03 -0.30728246315E+03 -0.10157853680E+04  0.10791671009E+04  0.46999998093E+01 0.  1.
       -5    1    3    3    0  502 -0.19579866131E+03  0.30728246315E+03  0.23425608993E+03  0.43319468325E+03  0.46999998093E+01 0. -1.
</event>
<event>
 5   0  0.2756984E-04  0.1281792E+04  0.7818609E-02  0.9044130E-01
       -2   -1    0    0    0  501  0.00000000000E+00  0.00000000000E+00  0.17731249934E+03  0.17731249935E+03  0.25500000920E-02 0. -1.
        2   -1    0    0  501    0  0.00000000000E+00  0.00000000000E+00 -0.23165175698E+04  0.23165175698E+04  0.25500000920E-02 0.  1.
    10030    2    1    2    0    0  0.00000000000E+00  0.00000000000E+00 -0.21392050704E+04  0.24938300691E+04  0.12817917461E+04 0.  0.
        3    1    3    3  502    0 -0.44815815603E+02  0.27393007753E+02  0.17311790259E+03  0.18091062047E+03  0.10100000352E+00 0. -1.
       -3    1    3    3    0  502  0.44815815603E+02 -0.27393007753E+02 -0.23123229730E+04  0.23129194486E+04  0.10100000352E+00 0.  1.
</event>
<event>
 5   0  0.1476511E-04  0.1298990E+04  0.7818609E-02  0.9030367E-01
       -1   -1    0    0    0  501  0.00000000000E+00  0.00000000000E+00  0.36779688474E+03  0.36779688477E+03  0.50400001928E-02 0. -1.
        1   -1    0    0  501    0  0.00000000000E+00  0.00000000000E+00 -0.11469474469E+04  0.11469474469E+04  0.50400001928E-02 0.  1.
    10030    2    1    2    0    0  0.00000000000E+00  0.00000000000E+00 -0.77915056220E+03  0.15147443317E+04  0.12989899122E+04 0.  0.
        2    1    3    3  502    0  0.93400856050E+02  0.33192167905E+03 -0.10314016947E+04  0.10875132996E+04  0.25500000920E-02 0.  1.
       -2    1    3    3    0  502 -0.93400856050E+02 -0.33192167905E+03  0.25225113252E+03  0.42723103211E+03  0.25500000920E-02 0. -1.
</event>
<event>
 5   0  0.1430636E-04  0.1320651E+04  0.7818609E-02  0.9013347E-01
       -1   -1    0    0    0  501  0.00000000000E+00  0.00000000000E+00  0.65828914988E+03  0.65828914990E+03  0.50400001928E-02 0.  1.
        1   -1    0    0  501    0  0.00000000000E+00  0.00000000000E+00 -0.66236789676E+03  0.66236789678E+03  0.50400001928E-02 0. -1.
    10030    2    1    2    0    0  0.00000000000E+00  0.00000000000E+00 -0.40787468831E+01  0.13206570467E+04  0.13206507482E+04 0.  0.
        4    1    3    3  502    0  0.49245023762E+03 -0.34971654063E+03 -0.26890969923E+03  0.66115273165E+03  0.12699999809E+01 0. -1.
       -4    1    3    3    0  502 -0.49245023762E+03  0.34971654063E+03  0.26483095235E+03  0.65950431503E+03  0.12699999809E+01 0.  1.
</event>
<event>
 5   0  0.1479690E-04  0.1296860E+04  0.7818609E-02  0.9032059E-01
        1   -1    0    0  501    0  0.00000000000E+00  0.00000000000E+00  0.13747123312E+04  0.13747123312E+04  0.50400001928E-02 0.  1.
       -1   -1    0    0    0  501  0.00000000000E+00  0.00000000000E+00 -0.30585404679E+03  0.30585404683E+03  0.50400001928E-02 0. -1.
    10030    2    1    2    0    0  0.00000000000E+00  0.00000000000E+00  0.10688582844E+04  0.16805663781E+04  0.12968597915E+04 0.  0.
        1    1    3    3  502    0  0.37138964271E+03 -0.78972014055E+02 -0.14673025516E+03  0.40705848907E+03  0.50400001928E-02 0. -1.
       -1    1    3    3    0  502 -0.37138964271E+03  0.78972014055E+02  0.12155885396E+04  0.12735078890E+04  0.50400001928E-02 0.  1.
</event>
<event>
 5   0  0.1430636E-04  0.1301374E+04  0.7818609E-02  0.9028477E-01
        1   -1    0    0  501    0  0.00000000000E+00  0.00000000000E+00  0.10780361237E+04  0.10780361237E+04  0.50400001928E-02 0. -1.
       -1   -1    0    0    0  501  0.00000000000E+00  0.00000000000E+00 -0.39274495438E+03  0.39274495442E+03  0.50400001928E-02 0.  1.
    10030    2    1    2    0    0  0.00000000000E+00  0.00000000000E+00  0.68529116933E+03  0.14707810781E+04  0.13013735025E+04 0.  0.
        4    1    3    3  502    0  0.63528613114E+03  0.14057895325E+03  0.34985791817E+03  0.73875103135E+03  0.12699999809E+01 0. -1.
       -4    1    3    3    0  502 -0.63528613114E+03 -0.14057895325E+03  0.33543325116E+03  0.73203004679E+03  0.12699999809E+01 0.  1.
</event>
<event>
 5   0  0.2723209E-04  0.1301123E+04  0.7818609E-02  0.9028675E-01
        2   -1    0    0  501    0  0.00000000000E+00  0.00000000000E+00  0.17359411001E+04  0.17359411001E+04  0.25500000920E-02 0.  1.
       -2   -1    0    0    0  501  0.00000000000E+00  0.00000000000E+00 -0.24380435255E+03  0.24380435257E+03  0.25500000920E-02 0. -1.
    10030    2    1    2    0    0  0.00000000000E+00  0.00000000000E+00  0.14921367475E+04  0.19797454527E+04  0.13011225861E+04 0.  0.
        2    1    3    3  502    0 -0.37957321539E+03 -0.15328808258E+03  0.15154112315E+04  0.15697274485E+04  0.25500000920E-02 0.  1.
       -2    1    3    3    0  502  0.37957321539E+03  0.15328808258E+03 -0.23274483961E+02  0.41001800413E+03  0.25500000920E-02 0. -1.
</event>
<event>
 5   0  0.2794825E-04  0.1300808E+04  0.7818609E-02  0.9028925E-01
        2   -1    0    0  501    0  0.00000000000E+00  0.00000000000E+00  0.13184823867E+04  0.13184823867E+04  0.25500000920E-02 0.  1.
       -2   -1    0    0    0  501  0.00000000000E+00  0.00000000000E+00 -0.32084261853E+03  0.32084261854E+03  0.25500000920E-02 0. -1.
    10030    2    1    2    0    0  0.00000000000E+00  0.00000000000E+00  0.99763976819E+03  0.16393250053E+04  0.13008079665E+04 0.  0.
        1    1    3    3  502    0  0.42628728855E+03  0.60597803387E+02 -0.11551432299E+03  0.44579872700E+03  0.50400001928E-02 0. -1.
       -1    1    3    3    0  502 -0.42628728855E+03 -0.60597803387E+02  0.11131540912E+04  0.11935262783E+04  0.50400001928E-02 0.  1.
</event>
<event>
 5   0  0.2756984E-04  0.1291269E+04  0.7818609E-02  0.9036518E-01
        2   -1    0    0  501    0  0.00000000000E+00  0.00000000000E+00  0.16116750753E+04  0.16116750753E+04  0.25500000920E-02 0.  1.
       -2   -1    0    0    0  501  0.00000000000E+00  0.00000000000E+00 -0.25864017864E+03  0.25864017866E+03  0.25500000920E-02 0. -1.
    10030    2    1    2    0    0  0.00000000000E+00  0.00000000000E+00  0.13530348966E+04  0.18703152539E+04  0.12912690338E+04 0.  0.
        3    1    3    3  502    0  0.33986236104E+03  0.21077635995E+03 -0.57640116268E+02  0.40404887275E+03  0.10100000352E+00 0. -1.
       -3    1    3    3    0  502 -0.33986236104E+03 -0.21077635995E+03  0.14106750129E+04  0.14662663812E+04  0.10100000352E+00 0.  1.
</event>
<event>
 5   0  0.2794825E-04  0.1299693E+04  0.7818609E-02  0.9029809E-01
       -2   -1    0    0    0  501  0.00000000000E+00  0.00000000000E+00  0.37994390271E+03  0.37994390272E+03  0.25500000920E-02 0.  1.
        2   -1    0    0  501    0  0.00000000000E+00  0.00000000000E+00 -0.11114804256E+04  0.11114804256E+04  0.25500000920E-02 0. -1.
    10030    2    1    2    0    0  0.00000000000E+00  0.00000000000E+00 -0.73153652288E+03  0.14914243283E+04  0.12996925955E+04 0.  0.
        1    1    3    3  502    0 -0.42843516642E+03 -0.20088035621E+03  0.14534967916E+03  0.49501125098E+03  0.50400001928E-02 0.  1.
       -1    1    3    3    0  502  0.42843516642E+03  0.20088035621E+03 -0.87688620204E+03  0.99641307734E+03  0.50400001928E-02 0. -1.
</event>
<event>
 5   0  0.2573071E-04  0.1300504E+04  0.7818609E-02  0.9029165E-01
       -2   -1    0    0    0  501  0.00000000000E+00  0.00000000000E+00  0.91075224187E+03  0.91075224188E+03  0.25500000920E-02 0. -1.
        2   -1    0    0  501    0  0.00000000000E+00  0.00000000000E+00 -0.46426221357E+03  0.46426221358E+03  0.25500000920E-02 0.  1.
    10030    2    1    2    0    0  0.00000000000E+00  0.00000000000E+00  0.44649002830E+03  0.13750144555E+04  0.13005042896E+04 0.  0.
        4    1    3    3  502    0 -0.45919694003E+03  0.14639514141E+03 -0.23826425876E+03  0.53764750261E+03  0.12699999809E+01 0.  1.
       -4    1    3    3    0  502  0.45919694003E+03 -0.14639514141E+03  0.68475428706E+03  0.83736695284E+03  0.12699999809E+01 0. -1.
</event>
<event>
 5   0  0.1475396E-04  0.1301188E+04  0.7818609E-02  0.9028623E-01
        1   -1    0    0  501    0  0.00000000000E+00  0.00000000000E+00  0.18117529081E+04  0.18117529081E+04  0.50400001928E-02 0.  1.
       -1   -1    0    0    0  501  0.00000000000E+00  0.00000000000E+00 -0.23362611061E+03  0.23362611067E+03  0.50400001928E-02 0. -1.
    10030    2    1    2    0    0  0.00000000000E+00  0.00000000000E+00  0.15781267975E+04  0.20453790188E+04  0.13011883574E+04 0.  0.
        3    1    3    3  502    0 -0.25297100898E+03 -0.76988817923E+02 -0.14534534172E+03  0.30173976872E+03  0.10100000352E+00 0. -1.
       -3    1    3    3    0  502  0.25297100898E+03  0.76988817923E+02  0.17234721392E+04  0.17436392501E+04  0.10100000352E+00 0.  1.
</event>
<event>
 5   0  0.1479690E-04  0.1300349E+04  0.7818609E-02  0.9029288E-01
       -1   -1    0    0    0  501  0.00000000000E+00  0.00000000000E+00  0.10698564431E+04  0.10698564432E+04  0.50400001928E-02 0. -1.
        1   -1    0    0  501    0  0.00000000000E+00  0.00000000000E+00 -0.39512506819E+03  0.39512506823E+03  0.50400001928E-02 0.  1.
    10030    2    1    2    0    0  0.00000000000E+00  0.00000000000E+00  0.67473137495E+03  0.14649815114E+04  0.13003493378E+04 0.  0.
        1    1    3    3  502    0  0.33258253168E+03 -0.35321827298E+03 -0.15027755466E+03  0.50789529650E+03  0.50400001928E-02 0.  1.
       -1    1    3    3    0  502 -0.33258253168E+03  0.35321827298E+03  0.82500892961E+03  0.95708621488E+03  0.50400001928E-02 0. -1.
</event>
<event>
 5   0  0.1408341E-04  0.1300614E+04  0.7818609E-02  0.9029079E-01
        1   -1    0    0  501    0  0.00000000000E+00  0.00000000000E+00  0.14344974381E+04  0.14344974381E+04  0.50400001928E-02 0.  1.
       -1   -1    0    0    0  501  0.00000000000E+00  0.00000000000E+00 -0.29480634756E+03  0.29480634760E+03  0.50400001928E-02 0. -1.
    10030    2    1    2    0    0  0.00000000000E+00  0.00000000000E+00  0.11396910906E+04  0.17293037857E+04  0.13006136250E+04 0.  0.
        5    1    3    3  502    0  0.25815847073E+03  0.49960561691E+03  0.13568224537E+03  0.57851821939E+03  0.46999998093E+01 0. -1.
       -5    1    3    3    0  502 -0.25815847073E+03 -0.49960561691E+03  0.10040088452E+04  0.11507855663E+04  0.46999998093E+01 0.  1.
</event>
<event>
 5   0  0.1479690E-04  0.1301661E+04  0.7818609E-02  0.9028249E-01
       -1   -1    0    0    0  501  0.00000000000E+00  0.00000000000E+00  0.11401915832E+04  0.11401915832E+04  0.50400001928E-02 0.  1.
        1   -1    0    0  501    0  0.00000000000E+00  0.00000000000E+00 -0.37149915682E+03  0.37149915685E+03  0.50400001928E-02 0. -1.
    10030    2    1    2    0    0  0.00000000000E+00  0.00000000000E+00  0.76869242637E+03  0.15116907401E+04  0.13016608034E+04 0.  0.
        1    1    3    3  502    0 -0.48309133640E+03 -0.25552718501E+03  0.79479757042E+03  0.96455925663E+03  0.50400001928E-02 0.  1.
       -1    1    3    3    0  502  0.48309133640E+03  0.25552718501E+03 -0.26105144050E+02  0.54713148342E+03  0.50400001928E-02 0. -1.
</event>
<event>
 5   0  0.1430636E-04  0.1299858E+04  0.7818609E-02  0.9029678E-01
        1   -1    0    0  501    0  0.00000000000E+00  0.00000000000E+00  0.12650196397E+04  0.12650196397E+04  0.50400001928E-02 0.  1.
       -1   -1    0    0    0  501  0.00000000000E+00  0.00000000000E+00 -0.33391396955E+03  0.33391396959E+03  0.50400001928E-02 0. -1.
    10030    2    1    2    0    0  0.00000000000E+00  0.00000000000E+00  0.93110567015E+03  0.15989336093E+04  0.12998580376E+04 0.  0.
        4    1    3    3  502    0  0.44925105381E+03  0.16695255442E+03  0.10055390027E+04  0.11139164976E+04  0.12699999809E+01 0.  1.
       -4    1    3    3    0  502 -0.44925105381E+03 -0.16695255442E+03 -0.74433332524E+02  0.48501711173E+03  0.12699999809E+01 0. -1.
</event>
<event>
 5   0  0.1475396E-04  0.1299533E+04  0.7818609E-02  0.9029936E-01
        1   -1    0    0  501    0  0.00000000000E+00  0.00000000000E+00  0.88896816547E+03  0.88896816548E+03  0.50400001928E-02 0.  1.
       -1   -1    0    0    0  501  0.00000000000E+00  0.00000000000E+00 -0.47492873050E+03  0.47492873052E+03  0.50400001928E-02 0. -1.
    10030    2    1    2    0    0  0.00000000000E+00  0.00000000000E+00  0.41403943497E+03  0.13638968960E+04  0.12995330274E+04 0.  0.
        3    1    3    3  502    0 -0.38252873123E+03 -0.17084980478E+03 -0.31424698026E+03  0.52370703721E+03  0.10100000352E+00 0. -1.
       -3    1    3    3    0  502  0.38252873123E+03  0.17084980478E+03  0.72828641524E+03  0.84018985880E+03  0.10100000352E+00 0.  1.
</event>
<event>
 5   0  0.2573071E-04  0.1296805E+04  0.7818609E-02  0.9032103E-01
       -2   -1    0    0    0  501  0.00000000000E+00  0.00000000000E+00  0.45784181658E+03  0.45784181658E+03  0.25500000920E-02 0.  1.
        2   -1    0    0  501    0  0.00000000000E+00  0.00000000000E+00 -0.91827699049E+03  0.91827699049E+03  0.25500000920E-02 0. -1.
    10030    2    1    2    0    0  0.00000000000E+00  0.00000000000E+00 -0.46043517391E+03  0.13761188071E+04  0.12968046969E+04 0.  0.
        4    1    3    3  502    0 -0.39559893727E+03 -0.52622324280E+02  0.31207249611E+03  0.50661472927E+03  0.12699999809E+01 0.  1.
       -4    1    3    3    0  502  0.39559893727E+03  0.52622324280E+02 -0.77250767002E+03  0.86950407781E+03  0.12699999809E+01 0. -1.
</event>
<event>
 5   0  0.1476511E-04  0.1296840E+04  0.7818609E-02  0.9032075E-01
       -1   -1    0    0    0  501  0.00000000000E+00  0.00000000000E+00  0.72888110465E+03  0.72888110466E+03  0.50400001928E-02 0. -1.
        1   -1    0    0  501    0  0.00000000000E+00  0.00000000000E+00 -0.57684072902E+03  0.57684072904E+03  0.50400001928E-02 0.  1.
    10030    2    1    2    0    0  0.00000000000E+00  0.00000000000E+00  0.15204037563E+03  0.13057218337E+04  0.12968397091E+04 0.  0.
        2    1    3    3  502    0  0.71367516608E+02 -0.64302676028E+03  0.11957814572E+03  0.65793287637E+03  0.25500000920E-02 0.  1.
       -2    1    3    3    0  502 -0.71367516608E+02  0.64302676028E+03  0.32462229910E+02  0.64778895734E+03  0.25500000920E-02 0. -1.
</event>
<event>
 5   0  0.1475396E-04  0.1316467E+04  0.7818609E-02  0.9016607E-01
        1   -1    0    0  501    0  0.00000000000E+00  0.00000000000E+00  0.14523359303E+04  0.14523359303E+04  0.50400001928E-02 0.  1.
       -1   -1    0    0    0  501  0.00000000000E+00  0.00000000000E+00 -0.29832734989E+03  0.29832734993E+03  0.50400001928E-02 0. -1.
    10030    2    1    2    0    0  0.00000000000E+00  0.00000000000E+00  0.11540085804E+04  0.17506632803E+04  0.13164672868E+04 0.  0.
        3    1    3    3  502    0  0.58318834663E+03  0.21020824212E+03  0.87129828335E+03  0.10693254236E+04  0.10100000352E+00 0.  1.
       -3    1    3    3    0  502 -0.58318834663E+03 -0.21020824212E+03  0.28271029707E+03  0.68133785670E+03  0.10100000352E+00 0. -1.
</event>
<event>
 5   0  0.2661377E-04  0.1307450E+04  0.7818609E-02  0.9023678E-01
        2   -1    0    0  501    0  0.00000000000E+00  0.00000000000E+00  0.65556942591E+03  0.65556942592E+03  0.25500000920E-02 0. -1.
       -2   -1    0    0    0  501  0.00000000000E+00  0.00000000000E+00 -0.65188556758E+03  0.65188556758E+03  0.25500000920E-02 0.  1.
    10030    2    1    2    0    0  0.00000000000E+00  0.00000000000E+00  0.36838583344E+01  0.13074549935E+04  0.13074498037E+04 0.  0.
        5    1    3    3  502    0 -0.19682931748E+03 -0.15844226763E+03  0.60474433469E+03  0.65542622219E+03  0.46999998093E+01 0. -1.
       -5    1    3    3    0  502  0.19682931748E+03  0.15844226763E+03 -0.60106047636E+03  0.65202877132E+03  0.46999998093E+01 0.  1.
</event>
<event>
 5   0  0.1476511E-04  0.1299883E+04  0.7818609E-02  0.9029658E-01
        1   -1    0    0  501    0  0.00000000000E+00  0.00000000000E+00  0.58945960514E+03  0.58945960517E+03  0.50400001928E-02 0.  1.
       -1   -1    0    0    0  501  0.00000000000E+00  0.00000000000E+00 -0.71662952583E+03  0.71662952585E+03  0.50400001928E-02 0. -1.
    10030    2    1    2    0    0  0.00000000000E+00  0.00000000000E+00 -0.12716992069E+03  0.13060891310E+04  0.12998833138E+04 0.  0.
        2    1    3    3  502    0  0.13770313722E+03  0.62046030142E+03  0.73045915950E+02  0.63974123322E+03  0.25500000920E-02 0.  1.
       -2    1    3    3    0  502 -0.13770313722E+03 -0.62046030142E+03 -0.20021583663E+03  0.66634789779E+03  0.25500000920E-02 0. -1.
</event>
<event>
 5   0  0.1408341E-04  0.1299615E+04  0.7818609E-02  0.9029870E-01
       -1   -1    0    0    0  501  0.00000000000E+00  0.00000000000E+00  0.26960293308E+03  0.26960293313E+03  0.50400001928E-02 0.  1.
        1   -1    0    0  501    0  0.00000000000E+00  0.00000000000E+00 -0.15661922057E+04  0.15661922057E+04  0.50400001928E-02 0. -1.
    10030    2    1    2    0    0  0.00000000000E+00  0.00000000000E+00 -0.12965892727E+04  0.18357951389E+04  0.12996153469E+04 0.  0.
        5    1    3    3  502    0 -0.63131490812E+03  0.67521756019E+02 -0.84356765838E+03  0.10558154124E+04  0.46999998093E+01 0. -1.
       -5    1    3    3    0  502  0.63131490812E+03 -0.67521756019E+02 -0.45302161428E+03  0.77997972650E+03  0.46999998093E+01 0.  1.
</event>
<event>
 5   0  0.1408341E-04  0.1292541E+04  0.7818609E-02  0.9035501E-01
        1   -1    0    0  501    0  0.00000000000E+00  0.00000000000E+00  0.95232741575E+03  0.95232741577E+03  0.50400001928E-02 0. -1.
       -1   -1    0    0    0  501  0.00000000000E+00  0.00000000000E+00 -0.43857348137E+03  0.43857348140E+03  0.50400001928E-02 0.  1.
    10030    2    1    2    0    0  0.00000000000E+00  0.00000000000E+00  0.51375393439E+03  0.13909008972E+04  0.12925409861E+04 0.  0.
        5    1    3    3  502    0 -0.56307864801E+03  0.27496301519E+03  0.42695915367E+03  0.75827332306E+03  0.46999998093E+01 0. -1.
       -5    1    3    3    0  502  0.56307864801E+03 -0.27496301519E+03  0.86794780716E+02  0.63262757411E+03  0.46999998093E+01 0.  1.
</event>
<event>
 5   0  0.2723209E-04  0.1303271E+04  0.7818609E-02  0.9026975E-01
        2   -1    0    0  501    0  0.00000000000E+00  0.00000000000E+00  0.57269531387E+03  0.57269531388E+03  0.25500000920E-02 0.  1.
       -2   -1    0    0    0  501  0.00000000000E+00  0.00000000000E+00 -0.74145704537E+03  0.74145704538E+03  0.25500000920E-02 0. -1.
    10030    2    1    2    0    0  0.00000000000E+00  0.00000000000E+00 -0.16876173150E+03  0.13141523593E+04  0.13032712309E+04 0.  0.
        2    1    3    3  502    0  0.24113046826E+03  0.44755041692E+03  0.32667904022E+03  0.60428840278E+03  0.25500000920E-02 0.  1.
       -2    1    3    3    0  502 -0.24113046826E+03 -0.44755041692E+03 -0.49544077172E+03  0.70986395647E+03  0.25500000920E-02 0. -1.
</event>
<event>
 5   0  0.2723209E-04  0.1297670E+04  0.7818609E-02  0.9031415E-01
        2   -1    0    0  501    0  0.00000000000E+00  0.00000000000E+00  0.20909278683E+04  0.20909278683E+04  0.25500000920E-02 0.  1.
       -2   -1    0    0    0  501  0.00000000000E+00  0.00000000000E+00 -0.20133981046E+03  0.20133981048E+03  0.25500000920E-02 0. -1.
    10030    2    1    2    0    0  0.00000000000E+00  0.00000000000E+00  0.18895880578E+04  0.22922676788E+04  0.12976702520E+04 0.  0.
        2    1    3    3  502    0 -0.44170600145E+03  0.36780682700E+03  0.41309312523E+03  0.70783612780E+03  0.25500000920E-02 0. -1.
       -2    1    3    3    0  502  0.44170600145E+03 -0.36780682700E+03  0.14764949326E+04  0.15844315510E+04  0.25500000920E-02 0.  1.
</event>
<event>
 5   0  0.2661377E-04  0.1300648E+04  0.7818609E-02  0.9029051E-01
        2   -1    0    0  501    0  0.00000000000E+00  0.00000000000E+00  0.75148122325E+03  0.75148122326E+03  0.25500000920E-02 0.  1.
       -2   -1    0    0    0  501  0.00000000000E+00  0.00000000000E+00 -0.56278356686E+03  0.56278356687E+03  0.25500000920E-02 0. -1.
    10030    2    1    2    0    0  0.00000000000E+00  0.00000000000E+00  0.18869765639E+03  0.13142647901E+04  0.13006479666E+04 0.  0.
        5    1    3    3  502    0 -0.29849812300E+03 -0.15422208859E+03 -0.46826899719E+03  0.57635364645E+03  0.46999998093E+01 0. -1.
       -5    1    3    3    0  502  0.29849812300E+03  0.15422208859E+03  0.65696665358E+03  0.73791114368E+03  0.46999998093E+01 0.  1.
</event>
<event>
 5   0  0.2573071E-04  0.1300129E+04  0.7818609E-02  0.9029463E-01
        2   -1    0    0  501    0  0.00000000000E+00  0.00000000000E+00  0.19748035729E+04  0.19748035729E+04  0.25500000920E-02 0.  1.
       -2   -1    0    0    0  501  0.00000000000E+00  0.00000000000E+00 -0.21398766542E+03  0.21398766543E+03  0.25500000920E-02 0. -1.
    10030    2    1    2    0    0  0.00000000000E+00  0.00000000000E+00  0.17608159075E+04  0.21887912384E+04  0.13001286186E+04 0.  0.
        4    1    3    3  502    0 -0.76024821119E+01  0.54600825584E+03  0.28662628961E+03  0.61671634969E+03  0.12699999809E+01 0. -1.
       -4    1    3    3    0  502  0.76024821119E+01 -0.54600825584E+03  0.14741896179E+04  0.15720748887E+04  0.12699999809E+01 0.  1.
</event>
<event>
 5   0  0.1479690E-04  0.1294986E+04  0.7818609E-02  0.9033551E-01
       -1   -1    0    0    0  501  0.00000000000E+00  0.00000000000E+00  0.16612259668E+03  0.16612259675E+03  0.50400001928E-02 0.  1.
        1   -1    0    0  501    0  0.00000000000E+00  0.00000000000E+00 -0.25237199396E+04  0.25237199396E+04  0.50400001928E-02 0. -1.
    10030    2    1    2    0    0  0.00000000000E+00  0.00000000000E+00 -0.23575973430E+04  0.26898425364E+04  0.12949855748E+04 0.  0.
        1    1    3    3  502    0  0.21458790324E+03  0.16770403211E+03  0.41365402547E+02  0.27546997505E+03  0.50400001928E-02 0.  1.
       -1    1    3    3    0  502 -0.21458790324E+03 -0.16770403211E+03 -0.23989627455E+04  0.24143725613E+04  0.50400001928E-02 0. -1.
</event>
<event>
 5   0  0.2573071E-04  0.1297817E+04  0.7818609E-02  0.9031298E-01
       -2   -1    0    0    0  501  0.00000000000E+00  0.00000000000E+00  0.40159745892E+03  0.40159745893E+03  0.25500000920E-02 0.  1.
        2   -1    0    0  501    0  0.00000000000E+00  0.00000000000E+00 -0.10485182220E+04  0.10485182220E+04  0.25500000920E-02 0. -1.
    10030    2    1    2    0    0  0.00000000000E+00  0.00000000000E+00 -0.64692076309E+03  0.14501156809E+04  0.12978170188E+04 0.  0.
        4    1    3    3  502    0 -0.29568924731E+02  0.34162363273E+03 -0.93901735360E+03  0.99966806042E+03  0.12699999809E+01 0. -1.
       -4    1    3    3    0  502  0.29568924731E+02 -0.34162363273E+03  0.29209659051E+03  0.45044762053E+03  0.12699999809E+01 0.  1.
</event>
<event>
 5   0  0.1430636E-04  0.1301740E+04  0.7818609E-02  0.9028186E-01
        1   -1    0    0  501    0  0.00000000000E+00  0.00000000000E+00  0.97780823054E+03  0.97780823055E+03  0.50400001928E-02 0. -1.
       -1   -1    0    0    0  501  0.00000000000E+00  0.00000000000E+00 -0.43324627975E+03  0.43324627977E+03  0.50400001928E-02 0.  1.
    10030    2    1    2    0    0  0.00000000000E+00  0.00000000000E+00  0.54456195079E+03  0.14110545103E+04  0.13017400328E+04 0.  0.
        4    1    3    3  502    0 -0.20703033995E+03  0.11694629223E+00 -0.39660191656E+03  0.44738827483E+03  0.12699999809E+01 0.  1.
       -4    1    3    3    0  502  0.20703033995E+03 -0.11694629223E+00  0.94116386735E+03  0.96366623550E+03  0.12699999809E+01 0. -1.
</event>
<event>
 5   0  0.2794825E-04  0.1297404E+04  0.7818609E-02  0.9031626E-01
        2   -1    0    0  501    0  0.00000000000E+00  0.00000000000E+00  0.13527567369E+04  0.13527567369E+04  0.25500000920E-02 0. -1.
       -2   -1    0    0    0  501  0.00000000000E+00  0.00000000000E+00 -0.31107914220E+03  0.31107914221E+03  0.25500000920E-02 0.  1.
    10030    2    1    2    0    0  0.00000000000E+00  0.00000000000E+00  0.10416775947E+04  0.16638358791E+04  0.12974041858E+04 0.  0.
        1    1    3    3  502    0 -0.21461187575E+03  0.58725417256E+03  0.29912710665E+03  0.69311091924E+03  0.50400001928E-02 0.  1.
       -1    1    3    3    0  502  0.21461187575E+03 -0.58725417256E+03  0.74255048807E+03  0.97072495990E+03  0.50400001928E-02 0. -1.
</event>
<event>
 5   0  0.1475396E-04  0.1297495E+04  0.7818609E-02  0.9031554E-01
        1   -1    0    0  501    0  0.00000000000E+00  0.00000000000E+00  0.10454959069E+04  0.10454959069E+04  0.50400001928E-02 0. -1.
       -1   -1    0    0    0  501  0.00000000000E+00  0.00000000000E+00 -0.40255850730E+03  0.40255850733E+03  0.50400001928E-02 0.  1.
    10030    2    1    2    0    0  0.00000000000E+00  0.00000000000E+00  0.64293739963E+03  0.14480544143E+04  0.12974949275E+04 0.  0.
        3    1    3    3  502    0 -0.33404829461E+03 -0.51297843238E+03  0.81745983575E+02  0.61759011589E+03  0.10100000352E+00 0.  1.
       -3    1    3    3    0  502  0.33404829461E+03  0.51297843238E+03  0.56119141605E+03  0.83046429837E+03  0.10100000352E+00 0. -1.
</event>
<event>
 5   0  0.2756984E-04  0.1300680E+04  0.7818609E-02  0.9029026E-01
        2   -1    0    0  501    0  0.00000000000E+00  0.00000000000E+00  0.63585444750E+03  0.63585444751E+03  0.25500000920E-02 0. -1.
       -2   -1    0    0    0  501  0.00000000000E+00  0.00000000000E+00 -0.66515529713E+03  0.66515529714E+03  0.25500000920E-02 0.  1.
    10030    2    1    2    0    0  0.00000000000E+00  0.00000000000E+00 -0.29300849630E+02  0.13010097446E+04  0.13006797515E+04 0.  0.
        3    1    3    3  502    0  0.56574519304E+03  0.13769684780E+03  0.27510202663E+03  0.64397917715E+03  0.10100000352E+00 0.  1.
       -3    1    3    3    0  502 -0.56574519304E+03 -0.13769684780E+03 -0.30440287626E+03  0.65703056750E+03  0.10100000352E+00 0. -1.
</event>
<event>
 5   0  0.1408341E-04  0.1301681E+04  0.7818609E-02  0.9028233E-01
        1   -1    0    0  501    0  0.00000000000E+00  0.00000000000E+00  0.11568813141E+04  0.11568813141E+04  0.50400001928E-02 0.  1.
       -1   -1    0    0    0  501  0.00000000000E+00  0.00000000000E+00 -0.36615089769E+03  0.36615089773E+03  0.50400001928E-02 0. -1.
    10030    2    1    2    0    0  0.00000000000E+00  0.00000000000E+00  0.79073041641E+03  0.15230322118E+04  0.13016806547E+04 0.  0.
        5    1    3    3  502    0 -0.24900903650E+03 -0.59669552249E+03  0.30843434813E+03  0.71638319629E+03  0.46999998093E+01 0. -1.
       -5    1    3    3    0  502  0.24900903650E+03  0.59669552249E+03  0.48229606828E+03  0.80664901555E+03  0.46999998093E+01 0.  1.
</event>
<event>
 5   0  0.2794825E-04  0.1300334E+04  0.7818609E-02  0.9029300E-01
        2   -1    0    0  501    0  0.00000000000E+00  0.00000000000E+00  0.51027051253E+03  0.51027051254E+03  0.25500000920E-02 0.  1.
       -2   -1    0    0    0  501  0.00000000000E+00  0.00000000000E+00 -0.82841811728E+03  0.82841811729E+03  0.25500000920E-02 0. -1.
    10030    2    1    2    0    0  0.00000000000E+00  0.00000000000E+00 -0.31814760475E+03  0.13386886298E+04  0.13003343221E+04 0.  0.
        1    1    3    3  502    0  0.48455109716E+03 -0.41615310378E+03 -0.34066710815E+02  0.63963560904E+03  0.50400001928E-02 0.  1.
       -1    1    3    3    0  502 -0.48455109716E+03  0.41615310378E+03 -0.28408089394E+03  0.69905302078E+03  0.50400001928E-02 0. -1.
</event>
<event>
 5   0  0.2756984E-04  0.1298568E+04  0.7818609E-02  0.9030702E-01
       -2   -1    0    0    0  501  0.00000000000E+00  0.00000000000E+00  0.10576533651E+04  0.10576533651E+04  0.25500000920E-02 0.  1.
        2   -1    0    0  501    0  0.00000000000E+00  0.00000000000E+00 -0.39858965871E+03  0.39858965872E+03  0.25500000920E-02 0. -1.
    10030    2    1    2    0    0  0.00000000000E+00  0.00000000000E+00  0.65906370639E+03  0.14562430238E+04  0.12985679710E+04 0.  0.
        3    1    3    3  502    0  0.36007936982E+03  0.43206547724E+03  0.69331534668E+03  0.89276195558E+03  0.10100000352E+00 0. -1.
       -3    1    3    3    0  502 -0.36007936982E+03 -0.43206547724E+03 -0.34251640293E+02  0.56348106823E+03  0.10100000352E+00 0.  1.
</event>
<event>
 5   0  0.1408341E-04  0.1301503E+04  0.7818609E-02  0.9028374E-01
       -1   -1    0    0    0  501  0.00000000000E+00  0.00000000000E+00  0.10297835323E+04  0.10297835323E+04  0.50400001928E-02 0.  1.
        1   -1    0    0  501    0  0.00000000000E+00  0.00000000000E+00 -0.41122957184E+03  0.41122957187E+03  0.50400001928E-02 0. -1.
    10030    2    1    2    0    0  0.00000000000E+00  0.00000000000E+00  0.61855396046E+03  0.14410131042E+04  0.13015028868E+04 0.  0.
        5    1    3    3  502    0  0.38536099037E+03  0.52232268196E+03  0.25816267645E+03  0.69856576963E+03  0.46999998093E+01 0. -1.
       -5    1    3    3    0  502 -0.38536099037E+03 -0.52232268196E+03  0.36039128401E+03  0.74244733455E+03  0.46999998093E+01 0.  1.
</event>
<event>
 5   0  0.1430636E-04  0.1302195E+04  0.7818609E-02  0.9027826E-01
        1   -1    0    0  501    0  0.00000000000E+00  0.00000000000E+00  0.13702904956E+04  0.13702904956E+04  0.50400001928E-02 0. -1.
       -1   -1    0    0    0  501  0.00000000000E+00  0.00000000000E+00 -0.30937078730E+03  0.30937078734E+03  0.50400001928E-02 0.  1.
    10030    2    1    2    0    0  0.00000000000E+00  0.00000000000E+00  0.10609197083E+04  0.16796612830E+04  0.13021948387E+04 0.  0.
        4    1    3    3  502    0  0.12197980066E+02  0.61746435794E+02  0.13663557628E+04  0.13678052115E+04  0.12699999809E+01 0. -1.
       -4    1    3    3    0  502 -0.12197980066E+02 -0.61746435794E+02 -0.30543605449E+03  0.31185607151E+03  0.12699999809E+01 0.  1.
</event>
<event>
 5   0  0.1476511E-04  0.1301868E+04  0.7818609E-02  0.9028085E-01
       -1   -1    0    0    0  501  0.00000000000E+00  0.00000000000E+00  0.70713562532E+03  0.70713562534E+03  0.50400001928E-02 0. -1.
        1   -1    0    0  501    0  0.00000000000E+00  0.00000000000E+00 -0.59919892088E+03  0.59919892090E+03  0.50400001928E-02 0.  1.
    10030    2    1    2    0    0  0.00000000000E+00  0.00000000000E+00  0.10793670444E+03  0.13063345462E+04  0.13018677408E+04 0.  0.
        2    1    3    3  502    0 -0.59031625131E+03  0.11190419422E+03  0.30526539640E+03  0.67393084770E+03  0.25500000920E-02 0. -1.
       -2    1    3    3    0  502  0.59031625131E+03 -0.11190419422E+03 -0.19732869196E+03  0.63240369853E+03  0.25500000920E-02 0.  1.
</event>
<event>
 5   0  0.2573071E-04  0.1300341E+04  0.7818609E-02  0.9029295E-01
       -2   -1    0    0    0  501  0.00000000000E+00  0.00000000000E+00  0.74420798540E+03  0.74420798540E+03  0.25500000920E-02 0. -1.
        2   -1    0    0  501    0  0.00000000000E+00  0.00000000000E+00 -0.56801543405E+03  0.56801543406E+03  0.25500000920E-02 0.  1.
    10030    2    1    2    0    0  0.00000000000E+00  0.00000000000E+00  0.17619255135E+03  0.13122234195E+04  0.13003409120E+04 0.  0.
        4    1    3    3  502    0  0.55353460728E+03 -0.17804042771E+03 -0.20545892028E+03  0.61669598359E+03  0.12699999809E+01 0.  1.
       -4    1    3    3    0  502 -0.55353460728E+03  0.17804042771E+03  0.38165147162E+03  0.69552743587E+03  0.12699999809E+01 0. -1.
</event>
<event>
 5   0  0.2794825E-04  0.1288136E+04  0.7818609E-02  0.9039026E-01
        2   -1    0    0  501    0  0.00000000000E+00  0.00000000000E+00  0.18917386073E+04  0.18917386073E+04  0.25500000920E-02 0. -1.
       -2   -1    0    0    0  501  0.00000000000E+00  0.00000000000E+00 -0.21928174363E+03  0.21928174364E+03  0.25500000920E-02 0.  1.
    10030    2    1    2    0    0  0.00000000000E+00  0.00000000000E+00  0.16724568637E+04  0.21110203510E+04  0.12881362355E+04 0.  0.
        1    1    3    3  502    0  0.33260965817E+03  0.97672296580E+02  0.17258131079E+04  0.17602840525E+04  0.50400001928E-02 0. -1.
       -1    1    3    3    0  502 -0.33260965817E+03 -0.97672296580E+02 -0.53356244178E+02  0.35073629844E+03  0.50400001928E-02 0.  1.
</event>
<event>
 5   0  0.1479690E-04  0.1298049E+04  0.7818609E-02  0.9031113E-01
        1   -1    0    0  501    0  0.00000000000E+00  0.00000000000E+00  0.92931684578E+03  0.92931684579E+03  0.50400001928E-02 0.  1.
       -1   -1    0    0    0  501  0.00000000000E+00  0.00000000000E+00 -0.45327176071E+03  0.45327176074E+03  0.50400001928E-02 0. -1.
    10030    2    1    2    0    0  0.00000000000E+00  0.00000000000E+00  0.47604508506E+03  0.13825886065E+04  0.12980494335E+04 0.  0.
        1    1    3    3  502    0 -0.53188654786E+03  0.54564599020E+01 -0.15808475885E+03  0.55490887879E+03  0.50400001928E-02 0. -1.
       -1    1    3    3    0  502  0.53188654786E+03 -0.54564599020E+01  0.63412984391E+03  0.82767972774E+03  0.50400001928E-02 0.  1.
</event>
<event>
 5   0  0.2661377E-04  0.1299229E+04  0.7818609E-02  0.9030177E-01
       -2   -1    0    0    0  501  0.00000000000E+00  0.00000000000E+00  0.33995890598E+03  0.33995890599E+03  0.25500000920E-02 0.  1.
        2   -1    0    0  501    0  0.00000000000E+00  0.00000000000E+00 -0.12413237197E+04  0.12413237197E+04  0.25500000920E-02 0. -1.
    10030    2    1    2    0    0  0.00000000000E+00  0.00000000000E+00 -0.90136481370E+03  0.15812826257E+04  0.12992290848E+04 0.  0.
        5    1    3    3  502    0  0.14123343678E+03 -0.47495323679E+03  0.60568374263E+02  0.49921746640E+03  0.46999998093E+01 0.  1.
       -5    1    3    3    0  502 -0.14123343678E+03  0.47495323679E+03 -0.96193318796E+03  0.10820651593E+04  0.46999998093E+01 0. -1.
</event>
<event>
 5   0  0.1430636E-04  0.1299115E+04  0.7818609E-02  0.9030267E-01
       -1   -1    0    0    0  501  0.00000000000E+00  0.00000000000E+00  0.95426164294E+03  0.95426164295E+03  0.50400001928E-02 0.  1.
        1   -1    0    0  501    0  0.00000000000E+00  0.00000000000E+00 -0.44214806895E+03  0.44214806898E+03  0.50400001928E-02 0. -1.
    10030    2    1    2    0    0  0.00000000000E+00  0.00000000000E+00  0.51211357399E+03  0.13964097119E+04  0.12991149953E+04 0.  0.
        4    1    3    3  502    0 -0.26892321859E+03 -0.32356751970E+03 -0.27588790319E+03  0.50312164068E+03  0.12699999809E+01 0. -1.
       -4    1    3    3    0  502  0.26892321859E+03  0.32356751970E+03  0.78800147717E+03  0.89328807124E+03  0.12699999809E+01 0.  1.
</event>
<event>
 5   0  0.1475396E-04  0.1300023E+04  0.7818609E-02  0.9029547E-01
       -1   -1    0    0    0  501  0.00000000000E+00  0.00000000000E+00  0.73890892223E+03  0.73890892225E+03  0.50400001928E-02 0. -1.
        1   -1    0    0  501    0  0.00000000000E+00  0.00000000000E+00 -0.57180947231E+03  0.57180947233E+03  0.50400001928E-02 0.  1.
    10030    2    1    2    0    0  0.00000000000E+00  0.00000000000E+00  0.16709944993E+03  0.13107183946E+04  0.13000232628E+04 0.  0.
        3    1    3    3  502    0 -0.13274815024E+03  0.10432130097E+03 -0.54931654705E+03  0.57467702607E+03  0.10100000352E+00 0.  1.
       -3    1    3    3    0  502  0.13274815024E+03 -0.10432130097E+03  0.71641599698E+03  0.73604136851E+03  0.10100000352E+00 0. -1.
</event>
<event>
 5   0  0.1002887E-04  0.1300714E+04  0.7818609E-02  0.9028999E-01
        3   -1    0    0  501    0  0.00000000000E+00  0.00000000000E+00  0.52334924916E+03  0.52334925891E+03  0.10100000352E+00 0.  1.
       -3   -1    0    0    0  501  0.00000000000E+00  0.00000000000E+00 -0.80818788151E+03  0.80818788782E+03  0.10100000352E+00 0. -1.
    10030    2    1    2    0    0  0.00000000000E+00  0.00000000000E+00 -0.28483863235E+03  0.13315371467E+04  0.13007144678E+04 0.  0.
        5    1    3    3  502    0  0.13053050014E+03 -0.23636238894E+03  0.46323989164E+03  0.53620768139E+03  0.46999998093E+01 0.  1.
       -5    1    3    3    0  502 -0.13053050014E+03  0.23636238894E+03 -0.74807852400E+03  0.79532946534E+03  0.46999998093E+01 0. -1.
</event>
<event>
 5   0  0.1476511E-04  0.1301153E+04  0.7818609E-02  0.9028651E-01
        1   -1    0    0  501    0  0.00000000000E+00  0.00000000000E+00  0.75402145385E+03  0.75402145386E+03  0.50400001928E-02 0. -1.
       -1   -1    0    0    0  501  0.00000000000E+00  0.00000000000E+00 -0.56132306898E+03  0.56132306900E+03  0.50400001928E-02 0.  1.
    10030    2    1    2    0    0  0.00000000000E+00  0.00000000000E+00  0.19269838487E+03  0.13153445229E+04  0.13011527759E+04 0.  0.
        2    1    3    3  502    0  0.39561195842E+03 -0.29728293869E+03  0.52328681479E+03  0.72021875692E+03  0.25500000920E-02 0. -1.
       -2    1    3    3    0  502 -0.39561195842E+03  0.29728293869E+03 -0.33058842992E+03  0.59512576594E+03  0.25500000920E-02 0.  1.
</event>
<event>
 5   0  0.2573071E-04  0.1301860E+04  0.7818609E-02  0.9028091E-01
       -2   -1    0    0    0  501  0.00000000000E+00  0.00000000000E+00  0.32167420640E+03  0.32167420641E+03  0.25500000920E-02 0. -1.
        2   -1    0    0  501    0  0.00000000000E+00  0.00000000000E+00 -0.13172019516E+04  0.13172019516E+04  0.25500000920E-02 0.  1.
    10030    2    1    2    0    0  0.00000000000E+00  0.00000000000E+00 -0.99552774519E+03  0.16388761580E+04  0.13018600423E+04 0.  0.
        4    1    3    3  502    0 -0.58768301861E+03 -0.13111546559E+03 -0.18647417819E+03  0.63034659332E+03  0.12699999809E+01 0.  1.
       -4    1    3    3    0  502  0.58768301861E+03  0.13111546559E+03 -0.80905356700E+03  0.10085295647E+04  0.12699999809E+01 0. -1.
</event>
<event>
 5   0  0.1479690E-04  0.1302394E+04  0.7818609E-02  0.9027669E-01
       -1   -1    0    0    0  501  0.00000000000E+00  0.00000000000E+00  0.51054259228E+03  0.51054259231E+03  0.50400001928E-02 0.  1.
        1   -1    0    0  501    0  0.00000000000E+00  0.00000000000E+00 -0.83060173942E+03  0.83060173943E+03  0.50400001928E-02 0. -1.
    10030    2    1    2    0    0  0.00000000000E+00  0.00000000000E+00 -0.32005914714E+03  0.13411443317E+04  0.13023940498E+04 0.  0.
        1    1    3    3  502    0 -0.66979102382E+02 -0.53354352504E+03 -0.53824861604E+03  0.76083274506E+03  0.50400001928E-02 0. -1.
       -1    1    3    3    0  502  0.66979102382E+02  0.53354352504E+03  0.21818946890E+03  0.58031158668E+03  0.50400001928E-02 0.  1.
</event>
<event>
 5   0  0.1475396E-04  0.1300521E+04  0.7818609E-02  0.9029152E-01
        1   -1    0    0  501    0  0.00000000000E+00  0.00000000000E+00  0.35593689360E+03  0.35593689363E+03  0.50400001928E-02 0.  1.
       -1   -1    0    0    0  501  0.00000000000E+00  0.00000000000E+00 -0.11879598225E+04  0.11879598225E+04  0.50400001928E-02 0. -1.
    10030    2    1    2    0    0  0.00000000000E+00  0.00000000000E+00 -0.83202292888E+03  0.15438967161E+04  0.13005210171E+04 0.  0.
        3    1    3    3  502    0 -0.70375477603E+02  0.55972753565E+02 -0.11805434662E+04  0.11839630665E+04  0.10100000352E+00 0. -1.
       -3    1    3    3    0  502  0.70375477603E+02 -0.55972753565E+02  0.34852053733E+03  0.35993364963E+03  0.10100000352E+00 0.  1.
</event>
<event>
 5   0  0.2723209E-04  0.1303980E+04  0.7818609E-02  0.9026415E-01
       -2   -1    0    0    0  501  0.00000000000E+00  0.00000000000E+00  0.20207077714E+03  0.20207077715E+03  0.25500000920E-02 0.  1.
        2   -1    0    0  501    0  0.00000000000E+00  0.00000000000E+00 -0.21036735526E+04  0.21036735526E+04  0.25500000920E-02 0. -1.
    10030    2    1    2    0    0  0.00000000000E+00  0.00000000000E+00 -0.19016027755E+04  0.23057443298E+04  0.13039799840E+04 0.  0.
        2    1    3    3  502    0 -0.30105123575E+03  0.57820886816E+03 -0.97124022802E+03  0.11697285678E+04  0.25500000920E-02 0.  1.
       -2    1    3    3    0  502  0.30105123575E+03 -0.57820886816E+03 -0.93036254747E+03  0.11360157620E+04  0.25500000920E-02 0. -1.
</event>
<event>
 5   0  0.2573071E-04  0.1301363E+04  0.7818609E-02  0.9028485E-01
       -2   -1    0    0    0  501  0.00000000000E+00  0.00000000000E+00  0.42800696371E+03  0.42800696372E+03  0.25500000920E-02 0. -1.
        2   -1    0    0  501    0  0.00000000000E+00  0.00000000000E+00 -0.98920440677E+03  0.98920440677E+03  0.25500000920E-02 0.  1.
    10030    2    1    2    0    0  0.00000000000E+00  0.00000000000E+00 -0.56119744306E+03  0.14172113705E+04  0.13013629388E+04 0.  0.
        4    1    3    3  502    0 -0.45557707147E+03  0.10735561493E+03 -0.77284224695E+03  0.90352777914E+03  0.12699999809E+01 0.  1.
       -4    1    3    3    0  502  0.45557707147E+03 -0.10735561493E+03  0.21164480390E+03  0.51368359135E+03  0.12699999809E+01 0. -1.
</event>
<event>
 5   0  0.1408341E-04  0.1283732E+04  0.7818609E-02  0.9042566E-01
       -1   -1    0    0    0  501  0.00000000000E+00  0.00000000000E+00  0.79114721044E+03  0.79114721046E+03  0.50400001928E-02 0. -1.
        1   -1    0    0  501    0  0.00000000000E+00  0.00000000000E+00 -0.52075267572E+03  0.52075267574E+03  0.50400001928E-02 0.  1.
    10030    2    1    2    0    0  0.00000000000E+00  0.00000000000E+00  0.27039453472E+03  0.13118998862E+04  0.12837321009E+04 0.  0.
        5    1    3    3  502    0  0.15221466557E+03 -0.35716809849E+03 -0.38712571237E+03  0.54829441194E+03  0.46999998093E+01 0.  1.
       -5    1    3    3    0  502 -0.15221466557E+03  0.35716809849E+03  0.65752024709E+03  0.76360547426E+03  0.46999998093E+01 0. -1.
</event>
<event>
 5   0  0.2573071E-04  0.1291404E+04  0.7818609E-02  0.9036410E-01
       -2   -1    0    0    0  501  0.00000000000E+00  0.00000000000E+00  0.65656272709E+03  0.65656272709E+03  0.25500000920E-02 0. -1.
        2   -1    0    0  501    0  0.00000000000E+00  0.00000000000E+00 -0.63502051561E+03  0.63502051561E+03  0.25500000920E-02 0.  1.
    10030    2    1    2    0    0  0.00000000000E+00  0.00000000000E+00  0.21542211482E+02  0.12915832427E+04  0.12914035798E+04 0.  0.
        4    1    3    3  502    0  0.38549412232E+03 -0.20379694162E+02 -0.50689933714E+03  0.63715743829E+03  0.12699999809E+01 0.  1.
       -4    1    3    3    0  502 -0.38549412232E+03  0.20379694162E+02  0.52844154862E+03  0.65442580441E+03  0.12699999809E+01 0. -1.
</event>
<event>
 5   0  0.1476511E-04  0.1300834E+04  0.7818609E-02  0.9028904E-01
        1   -1    0    0  501    0  0.00000000000E+00  0.00000000000E+00  0.14362923002E+04  0.14362923002E+04  0.50400001928E-02 0.  1.
       -1   -1    0    0    0  501  0.00000000000E+00  0.00000000000E+00 -0.29453754122E+03  0.29453754127E+03  0.50400001928E-02 0. -1.
    10030    2    1    2    0    0  0.00000000000E+00  0.00000000000E+00  0.11417547590E+04  0.17308298415E+04  0.13008335829E+04 0.  0.
        2    1    3    3  502    0 -0.62917447001E+03  0.14544569813E+03  0.46758112091E+03  0.79727477664E+03  0.25500000920E-02 0. -1.
       -2    1    3    3    0  502  0.62917447001E+03 -0.14544569813E+03  0.67417363805E+03  0.93355506483E+03  0.25500000920E-02 0.  1.
</event>
<event>
 5   0  0.2661377E-04  0.1300150E+04  0.7818609E-02  0.9029446E-01
       -2   -1    0    0    0  501  0.00000000000E+00  0.00000000000E+00  0.40173522571E+03  0.40173522572E+03  0.25500000920E-02 0.  1.
        2   -1    0    0  501    0  0.00000000000E+00  0.00000000000E+00 -0.10519308338E+04  0.10519308338E+04  0.25500000920E-02 0. -1.
    10030    2    1    2    0    0  0.00000000000E+00  0.00000000000E+00 -0.65019560804E+03  0.14536660595E+04  0.13001502543E+04 0.  0.
        5    1    3    3  502    0  0.47022572802E+03 -0.40285627209E+03 -0.10381440604E+03  0.62785741387E+03  0.46999998093E+01 0.  1.
       -5    1    3    3    0  502 -0.47022572802E+03  0.40285627209E+03 -0.54638120200E+03  0.82580864560E+03  0.46999998093E+01 0. -1.
</event>
<event>
 5   0  0.1430636E-04  0.1299831E+04  0.7818609E-02  0.9029699E-01
        1   -1    0    0  501    0  0.00000000000E+00  0.00000000000E+00  0.25265787169E+03  0.25265787174E+03  0.50400001928E-02 0.  1.
       -1   -1    0    0    0  501  0.00000000000E+00  0.00000000000E+00 -0.16717864599E+04  0.16717864599E+04  0.50400001928E-02 0. -1.
    10030    2    1    2    0    0  0.00000000000E+00  0.00000000000E+00 -0.14191285882E+04  0.19244443317E+04  0.12998307720E+04 0.  0.
        4    1    3    3  502    0  0.44068521120E+03 -0.40753681979E+03 -0.34062090992E+03  0.69015500580E+03  0.12699999809E+01 0.  1.
       -4    1    3    3    0  502 -0.44068521120E+03  0.40753681979E+03 -0.10785076783E+04  0.12342893259E+04  0.12699999809E+01 0. -1.
</event>
<event>
 5   0  0.2756984E-04  0.1302200E+04  0.7818609E-02  0.9027823E-01
        2   -1    0    0  501    0  0.00000000000E+00  0.00000000000E+00  0.72762227414E+03  0.72762227415E+03  0.25500000920E-02 0. -1.
       -2   -1    0    0    0  501  0.00000000000E+00  0.00000000000E+00 -0.58262508122E+03  0.58262508123E+03  0.25500000920E-02 0.  1.
    10030    2    1    2    0    0  0.00000000000E+00  0.00000000000E+00  0.14499719292E+03  0.13102473554E+04  0.13021996569E+04 0.  0.
        3    1    3    3  502    0  0.29679161782E+03 -0.18039091830E+03  0.62663333570E+03  0.71644643584E+03  0.10100000352E+00 0. -1.
       -3    1    3    3    0  502 -0.29679161782E+03  0.18039091830E+03 -0.48163614278E+03  0.59380091954E+03  0.10100000352E+00 0.  1.
</event>
<event>
 5   0  0.1476511E-04  0.1302726E+04  0.7818609E-02  0.9027406E-01
       -1   -1    0    0    0  501  0.00000000000E+00  0.00000000000E+00  0.50845862654E+03  0.50845862656E+03  0.50400001928E-02 0.  1.
        1   -1    0    0  501    0  0.00000000000E+00  0.00000000000E+00 -0.83443109183E+03  0.83443109184E+03  0.50400001928E-02 0. -1.
    10030    2    1    2    0    0  0.00000000000E+00  0.00000000000E+00 -0.32597246529E+03  0.13428897184E+04  0.13027258912E+04 0.  0.
        2    1    3    3  502    0  0.64438007890E+03  0.13351457888E+02 -0.26006913114E+03  0.69501071970E+03  0.25500000920E-02 0. -1.
       -2    1    3    3    0  502 -0.64438007890E+03 -0.13351457888E+02 -0.65903334150E+02  0.64787899871E+03  0.25500000920E-02 0.  1.
</event>
<event>
 5   0  0.2723209E-04  0.1305873E+04  0.7818609E-02  0.9024921E-01
        2   -1    0    0  501    0  0.00000000000E+00  0.00000000000E+00  0.60755134947E+03  0.60755134948E+03  0.25500000920E-02 0.  1.
       -2   -1    0    0    0  501  0.00000000000E+00  0.00000000000E+00 -0.70171224479E+03  0.70171224479E+03  0.25500000920E-02 0. -1.
    10030    2    1    2    0    0  0.00000000000E+00  0.00000000000E+00 -0.94160895313E+02  0.13092635943E+04  0.13058732270E+04 0.  0.
        2    1    3    3  502    0  0.31325814847E+03 -0.54692640998E+03  0.12385282026E+03  0.64233845176E+03  0.25500000920E-02 0.  1.
       -2    1    3    3    0  502 -0.31325814847E+03  0.54692640998E+03 -0.21801371557E+03  0.66692514251E+03  0.25500000920E-02 0. -1.
</event>
<event>
 5   0  0.1002887E-04  0.1300463E+04  0.7818609E-02  0.9029198E-01
       -3   -1    0    0    0  501  0.00000000000E+00  0.00000000000E+00  0.27078527064E+03  0.27078528947E+03  0.10100000352E+00 0.  1.
        3   -1    0    0  501    0  0.00000000000E+00  0.00000000000E+00 -0.15613887900E+04  0.15613887933E+04  0.10100000352E+00 0. -1.
    10030    2    1    2    0    0  0.00000000000E+00  0.00000000000E+00 -0.12906035194E+04  0.18321740827E+04  0.13004631580E+04 0.  0.
        4    1    3    3  502    0  0.63757724592E+03 -0.51045951850E+02 -0.81013905924E+03  0.10322002431E+04  0.12699999809E+01 0. -1.
       -4    1    3    3    0  502 -0.63757724592E+03  0.51045951850E+02 -0.48046446013E+03  0.79997383961E+03  0.12699999809E+01 0.  1.
</event>
<event>
 5   0  0.2573071E-04  0.1298496E+04  0.7818609E-02  0.9030759E-01
       -2   -1    0    0    0  501  0.00000000000E+00  0.00000000000E+00  0.69785324918E+03  0.69785324918E+03  0.25500000920E-02 0. -1.
        2   -1    0    0  501    0  0.00000000000E+00  0.00000000000E+00 -0.60402811638E+03  0.60402811639E+03  0.25500000920E-02 0.  1.
    10030    2    1    2    0    0  0.00000000000E+00  0.00000000000E+00  0.93825132798E+02  0.13018813656E+04  0.12984960279E+04 0.  0.
        4    1    3    3  502    0  0.41576358561E+03 -0.28652329993E+03  0.45610208275E+03  0.68043051322E+03  0.12699999809E+01 0. -1.
       -4    1    3    3    0  502 -0.41576358561E+03  0.28652329993E+03 -0.36227694995E+03  0.62145085235E+03  0.12699999809E+01 0.  1.
</event>
<event>
 5   0  0.2661377E-04  0.1299496E+04  0.7818609E-02  0.9029965E-01
       -2   -1    0    0    0  501  0.00000000000E+00  0.00000000000E+00  0.40541608436E+03  0.40541608437E+03  0.25500000920E-02 0. -1.
        2   -1    0    0  501    0  0.00000000000E+00  0.00000000000E+00 -0.10413319916E+04  0.10413319916E+04  0.25500000920E-02 0.  1.
    10030    2    1    2    0    0  0.00000000000E+00  0.00000000000E+00 -0.63591590720E+03  0.14467480759E+04  0.12994964233E+04 0.  0.
        5    1    3    3  502    0 -0.27980073120E+03 -0.23815037052E+03 -0.91453929240E+03  0.98560045429E+03  0.46999998093E+01 0.  1.
       -5    1    3    3    0  502  0.27980073120E+03  0.23815037052E+03  0.27862338520E+03  0.46114762163E+03  0.46999998093E+01 0. -1.
</event>
<event>
 5   0  0.1430636E-04  0.1303629E+04  0.7818609E-02  0.9026693E-01
        1   -1    0    0  501    0  0.00000000000E+00  0.00000000000E+00  0.77082921160E+03  0.77082921161E+03  0.50400001928E-02 0. -1.
       -1   -1    0    0    0  501  0.00000000000E+00  0.00000000000E+00 -0.55117513405E+03  0.55117513407E+03  0.50400001928E-02 0.  1.
    10030    2    1    2    0    0  0.00000000000E+00  0.00000000000E+00  0.21965407755E+03  0.13220043457E+04  0.13036286190E+04 0.  0.
        4    1    3    3  502    0  0.30904145135E+03  0.55259387135E+03 -0.47255311403E+02  0.63490257730E+03  0.12699999809E+01 0. -1.
       -4    1    3    3    0  502 -0.30904145135E+03 -0.55259387135E+03  0.26690938895E+03  0.68710176838E+03  0.12699999809E+01 0.  1.
</event>
<event>
 5   0  0.1476511E-04  0.1298777E+04  0.7818609E-02  0.9030535E-01
        1   -1    0    0  501    0  0.00000000000E+00  0.00000000000E+00  0.11250427433E+04  0.11250427433E+04  0.50400001928E-02 0.  1.
       -1   -1    0    0    0  501  0.00000000000E+00  0.00000000000E+00 -0.37483513780E+03  0.37483513783E+03  0.50400001928E-02 0. -1.
    10030    2    1    2    0    0  0.00000000000E+00  0.00000000000E+00  0.75020760549E+03  0.14998778811E+04  0.12987771968E+04 0.  0.
        2    1    3    3  502    0  0.13276838845E+03  0.33910776013E+03 -0.24581283726E+03  0.43936939916E+03  0.25500000920E-02 0. -1.
       -2    1    3    3    0  502 -0.13276838845E+03 -0.33910776013E+03  0.99602044275E+03  0.10605084820E+04  0.25500000920E-02 0.  1.
</event>
<event>
 5   0  0.2661377E-04  0.1300920E+04  0.7818609E-02  0.9028836E-01
       -2   -1    0    0    0  501  0.00000000000E+00  0.00000000000E+00  0.31263810639E+03  0.31263810640E+03  0.25500000920E-02 0. -1.
        2   -1    0    0  501    0  0.00000000000E+00  0.00000000000E+00 -0.13533161568E+04  0.13533161568E+04  0.25500000920E-02 0.  1.
    10030    2    1    2    0    0  0.00000000000E+00  0.00000000000E+00 -0.10406780504E+04  0.16659542632E+04  0.13009199831E+04 0.  0.
        5    1    3    3  502    0  0.40994473903E+03 -0.50216293036E+03 -0.45192813520E+03  0.79024263810E+03  0.46999998093E+01 0.  1.
       -5    1    3    3    0  502 -0.40994473903E+03  0.50216293036E+03 -0.58874991524E+03  0.87571162513E+03  0.46999998093E+01 0. -1.
</event>
<event>
 5   0  0.1475396E-04  0.1299320E+04  0.7818609E-02  0.9030105E-01
        1   -1    0    0  501    0  0.00000000000E+00  0.00000000000E+00  0.18284671178E+04  0.18284671178E+04  0.50400001928E-02 0.  1.
       -1   -1    0    0    0  501  0.00000000000E+00  0.00000000000E+00 -0.23082619213E+03  0.23082619218E+03  0.50400001928E-02 0. -1.
    10030    2    1    2    0    0  0.00000000000E+00  0.00000000000E+00  0.15976409257E+04  0.20592933100E+04  0.12993199795E+04 0.  0.
        3    1    3    3  502    0  0.21276674488E+03 -0.60449488604E+03  0.62978993803E+03  0.89850939407E+03  0.10100000352E+00 0.  1.
       -3    1    3    3    0  502 -0.21276674488E+03  0.60449488604E+03  0.96785098766E+03  0.11607839159E+04  0.10100000352E+00 0. -1.
</event>
<event>
 5   0  0.2794825E-04  0.1301180E+04  0.7818609E-02  0.9028630E-01
       -2   -1    0    0    0  501  0.00000000000E+00  0.00000000000E+00  0.28139748992E+03  0.28139748993E+03  0.25500000920E-02 0. -1.
        2   -1    0    0  501    0  0.00000000000E+00  0.00000000000E+00 -0.15041616832E+04  0.15041616832E+04  0.25500000920E-02 0.  1.
    10030    2    1    2    0    0  0.00000000000E+00  0.00000000000E+00 -0.12227641933E+04  0.17855591732E+04  0.13011799600E+04 0.  0.
        1    1    3    3  502    0  0.31256008369E+03 -0.35826369281E+03 -0.19671999564E+01  0.47544773573E+03  0.50400001928E-02 0.  1.
       -1    1    3    3    0  502 -0.31256008369E+03  0.35826369281E+03 -0.12207969933E+04  0.13101114374E+04  0.50400001928E-02 0. -1.
</event>
<event>
 5   0  0.1479690E-04  0.1298185E+04  0.7818609E-02  0.9031006E-01
        1   -1    0    0  501    0  0.00000000000E+00  0.00000000000E+00  0.20791688603E+04  0.20791688603E+04  0.50400001928E-02 0.  1.
       -1   -1    0    0    0  501  0.00000000000E+00  0.00000000000E+00 -0.20263903863E+03  0.20263903870E+03  0.50400001928E-02 0. -1.
    10030    2    1    2    0    0  0.00000000000E+00  0.00000000000E+00  0.18765298217E+04  0.22818078990E+04  0.12981845463E+04 0.  0.
        1    1    3    3  502    0 -0.31890786275E+03 -0.38381363984E+02 -0.53150089195E+02  0.32557685119E+03  0.50400001928E-02 0. -1.
       -1    1    3    3    0  502  0.31890786275E+03  0.38381363984E+02  0.19296799109E+04  0.19562310478E+04  0.50400001928E-02 0.  1.
</event>
<event>
 5   0  0.2794825E-04  0.1300307E+04  0.7818609E-02  0.9029322E-01
       -2   -1    0    0    0  501  0.00000000000E+00  0.00000000000E+00  0.57318453928E+03  0.57318453928E+03  0.25500000920E-02 0.  1.
        2   -1    0    0  501    0  0.00000000000E+00  0.00000000000E+00 -0.73745830959E+03  0.73745830959E+03  0.25500000920E-02 0. -1.
    10030    2    1    2    0    0  0.00000000000E+00  0.00000000000E+00 -0.16427377031E+03  0.13106428489E+04  0.13003071967E+04 0.  0.
        1    1    3    3  502    0 -0.60276680906E+03 -0.64012317296E+02  0.15483674199E+03  0.62561954858E+03  0.50400001928E-02 0.  1.
       -1    1    3    3    0  502  0.60276680906E+03  0.64012317296E+02 -0.31911051230E+03  0.68502330030E+03  0.50400001928E-02 0. -1.
</event>
<event>
 5   0  0.2794825E-04  0.1299659E+04  0.7818609E-02  0.9029836E-01
        2   -1    0    0  501    0  0.00000000000E+00  0.00000000000E+00  0.10293059667E+04  0.10293059667E+04  0.25500000920E-02 0.  1.
       -2   -1    0    0    0  501  0.00000000000E+00  0.00000000000E+00 -0.41025514561E+03  0.41025514562E+03  0.25500000920E-02 0. -1.
    10030    2    1    2    0    0  0.00000000000E+00  0.00000000000E+00  0.61905082110E+03  0.14395611123E+04  0.12996585232E+04 0.  0.
        1    1    3    3  502    0  0.42242636678E+03  0.36429382026E+03 -0.59711297723E+02  0.56099862917E+03  0.50400001928E-02 0. -1.
       -1    1    3    3    0  502 -0.42242636678E+03 -0.36429382026E+03  0.67876211883E+03  0.87856248316E+03  0.50400001928E-02 0.  1.
</event>
<event>
 5   0  0.2661377E-04  0.1298528E+04  0.7818609E-02  0.9030734E-01
       -2   -1    0    0    0  501  0.00000000000E+00  0.00000000000E+00  0.86989342677E+03  0.86989342677E+03  0.25500000920E-02 0.  1.
        2   -1    0    0  501    0  0.00000000000E+00  0.00000000000E+00 -0.48459204009E+03  0.48459204010E+03  0.25500000920E-02 0. -1.
    10030    2    1    2    0    0  0.00000000000E+00  0.00000000000E+00  0.38530138667E+03  0.13544854669E+04  0.12985275205E+04 0.  0.
        5    1    3    3  502    0  0.14832751735E+03 -0.43860199622E+03  0.66739981316E+03  0.81229142806E+03  0.46999998093E+01 0.  1.
       -5    1    3    3    0  502 -0.14832751735E+03  0.43860199622E+03 -0.28209842648E+03  0.54219403881E+03  0.46999998093E+01 0. -1.
</event>
<event>
 5   0  0.2756984E-04  0.1300471E+04  0.7818609E-02  0.9029192E-01
       -2   -1    0    0    0  501  0.00000000000E+00  0.00000000000E+00  0.35272683526E+03  0.35272683527E+03  0.25500000920E-02 0. -1.
        2   -1    0    0  501    0  0.00000000000E+00  0.00000000000E+00 -0.11986792691E+04  0.11986792691E+04  0.25500000920E-02 0.  1.
    10030    2    1    2    0    0  0.00000000000E+00  0.00000000000E+00 -0.84595243388E+03  0.15514061044E+04  0.13004712148E+04 0.  0.
        3    1    3    3  502    0 -0.74805339779E+02  0.62179213973E+03 -0.21434503672E+03  0.66194041186E+03  0.10100000352E+00 0. -1.
       -3    1    3    3    0  502  0.74805339779E+02 -0.62179213973E+03 -0.63160739716E+03  0.88946569255E+03  0.10100000352E+00 0.  1.
</event>
<event>
 5   0  0.1476511E-04  0.1301161E+04  0.7818609E-02  0.9028645E-01
       -1   -1    0    0    0  501  0.00000000000E+00  0.00000000000E+00  0.51735717522E+03  0.51735717525E+03  0.50400001928E-02 0. -1.
        1   -1    0    0  501    0  0.00000000000E+00  0.00000000000E+00 -0.81810942867E+03  0.81810942868E+03  0.50400001928E-02 0.  1.
    10030    2    1    2    0    0  0.00000000000E+00  0.00000000000E+00 -0.30075225345E+03  0.13354666039E+04  0.13011606866E+04 0.  0.
        2    1    3    3  502    0  0.13825312650E+03 -0.19047422461E+03 -0.77288225859E+03  0.80792409475E+03  0.25500000920E-02 0.  1.
       -2    1    3    3    0  502 -0.13825312650E+03  0.19047422461E+03  0.47213000515E+03  0.52754250918E+03  0.25500000920E-02 0. -1.
</event>
<event>
 5   0  0.1475396E-04  0.1301580E+04  0.7818609E-02  0.9028313E-01
       -1   -1    0    0    0  501  0.00000000000E+00  0.00000000000E+00  0.33111631313E+03  0.33111631317E+03  0.50400001928E-02 0. -1.
        1   -1    0    0  501    0  0.00000000000E+00  0.00000000000E+00 -0.12790894069E+04  0.12790894069E+04  0.50400001928E-02 0.  1.
    10030    2    1    2    0    0  0.00000000000E+00  0.00000000000E+00 -0.94797309375E+03  0.16102057201E+04  0.13015796074E+04 0.  0.
        3    1    3    3  502    0  0.59548812766E+03 -0.82473432558E+02 -0.78232251538E+03  0.98662885906E+03  0.10100000352E+00 0.  1.
       -3    1    3    3    0  502 -0.59548812766E+03  0.82473432558E+02 -0.16565057837E+03  0.62357686100E+03  0.10100000352E+00 0. -1.
</event>
<event>
 5   0  0.1002887E-04  0.1300671E+04  0.7818609E-02  0.9029034E-01
       -3   -1    0    0    0  501  0.00000000000E+00  0.00000000000E+00  0.20017565283E+04  0.20017565308E+04  0.10100000352E+00 0. -1.
        3   -1    0    0  501    0  0.00000000000E+00  0.00000000000E+00 -0.21128243585E+03  0.21128245999E+03  0.10100000352E+00 0.  1.
    10030    2    1    2    0    0  0.00000000000E+00  0.00000000000E+00  0.17904740924E+04  0.22130389908E+04  0.13006706344E+04 0.  0.
        1    1    3    3  502    0  0.59173623779E+03  0.17309942440E+03  0.54315059244E+03  0.82166157993E+03  0.50400001928E-02 0.  1.
       -1    1    3    3    0  502 -0.59173623779E+03 -0.17309942440E+03  0.12473235000E+04  0.13913774109E+04  0.50400001928E-02 0. -1.
</event>
<event>
 5   0  0.1476511E-04  0.1302803E+04  0.7818609E-02  0.9027345E-01
        1   -1    0    0  501    0  0.00000000000E+00  0.00000000000E+00  0.67248808314E+03  0.67248808316E+03  0.50400001928E-02 0. -1.
       -1   -1    0    0    0  501  0.00000000000E+00  0.00000000000E+00 -0.63097639033E+03  0.63097639035E+03  0.50400001928E-02 0.  1.
    10030    2    1    2    0    0  0.00000000000E+00  0.00000000000E+00  0.41511692814E+02  0.13034644735E+04  0.13028032902E+04 0.  0.
        2    1    3    3  502    0  0.24659571094E+03  0.11948121311E+03 -0.57050845273E+03  0.63290212481E+03  0.25500000920E-02 0.  1.
       -2    1    3    3    0  502 -0.24659571094E+03 -0.11948121311E+03  0.61202014554E+03  0.67056234870E+03  0.25500000920E-02 0. -1.
</event>
<event>
 5   0  0.1479690E-04  0.1305468E+04  0.7818609E-02  0.9025240E-01
        1   -1    0    0  501    0  0.00000000000E+00  0.00000000000E+00  0.15157189131E+04  0.15157189132E+04  0.50400001928E-02 0.  1.
       -1   -1    0    0    0  501  0.00000000000E+00  0.00000000000E+00 -0.28109546812E+03  0.28109546816E+03  0.50400001928E-02 0. -1.
    10030    2    1    2    0    0  0.00000000000E+00  0.00000000000E+00  0.12346234450E+04  0.17968143813E+04  0.13054680654E+04 0.  0.
        1    1    3    3  502    0 -0.16328463157E+03  0.50105751081E+03  0.87199421637E+02  0.53415750412E+03  0.50400001928E-02 0. -1.
       -1    1    3    3    0  502  0.16328463157E+03 -0.50105751081E+03  0.11474240234E+04  0.12626568772E+04  0.50400001928E-02 0.  1.
</event>
<event>
 5   0  0.2794825E-04  0.1300283E+04  0.7818609E-02  0.9029341E-01
       -2   -1    0    0    0  501  0.00000000000E+00  0.00000000000E+00  0.39445385002E+03  0.39445385003E+03  0.25500000920E-02 0. -1.
        2   -1    0    0  501    0  0.00000000000E+00  0.00000000000E+00 -0.10715673734E+04  0.10715673734E+04  0.25500000920E-02 0.  1.
    10030    2    1    2    0    0  0.00000000000E+00  0.00000000000E+00 -0.67711352335E+03  0.14660212234E+04  0.13002828554E+04 0.  0.
        1    1    3    3  502    0 -0.61018867951E+02 -0.16229660676E+03 -0.10450188222E+04  0.10593053524E+04  0.50400001928E-02 0.  1.
       -1    1    3    3    0  502  0.61018867951E+02  0.16229660676E+03  0.36790529884E+03  0.40671587103E+03  0.50400001928E-02 0. -1.
</event>
<event>
 5   0  0.1475396E-04  0.1301260E+04  0.7818609E-02  0.9028567E-01
        1   -1    0    0  501    0  0.00000000000E+00  0.00000000000E+00  0.11339333694E+04  0.11339333694E+04  0.50400001928E-02 0.  1.
       -1   -1    0    0    0  501  0.00000000000E+00  0.00000000000E+00 -0.37331935771E+03  0.37331935774E+03  0.50400001928E-02 0. -1.
    10030    2    1    2    0    0  0.00000000000E+00  0.00000000000E+00  0.76061401164E+03  0.15072527271E+04  0.13012598160E+04 0.  0.
        3    1    3    3  502    0 -0.11104239610E+03  0.42427906605E+03 -0.17637297993E+03  0.47270559323E+03  0.10100000352E+00 0. -1.
       -3    1    3    3    0  502  0.11104239610E+03 -0.42427906605E+03  0.93698699158E+03  0.10345471339E+04  0.10100000352E+00 0.  1.
</event>
<event>
 5   0  0.2723209E-04  0.1300105E+04  0.7818609E-02  0.9029482E-01
        2   -1    0    0  501    0  0.00000000000E+00  0.00000000000E+00  0.49522882003E+03  0.49522882003E+03  0.25500000920E-02 0. -1.
       -2   -1    0    0    0  501  0.00000000000E+00  0.00000000000E+00 -0.85327883132E+03  0.85327883132E+03  0.25500000920E-02 0.  1.
    10030    2    1    2    0    0  0.00000000000E+00  0.00000000000E+00 -0.35805001129E+03  0.13485076514E+04  0.13001050247E+04 0.  0.
        2    1    3    3  502    0  0.87481320306E+02 -0.16771224088E+03  0.46605178000E+03  0.50297578350E+03  0.25500000920E-02 0. -1.
       -2    1    3    3    0  502 -0.87481320306E+02  0.16771224088E+03 -0.82410179129E+03  0.84553186785E+03  0.25500000920E-02 0.  1.
</event>
<event>
 5   0  0.1408341E-04  0.1301699E+04  0.7818609E-02  0.9028219E-01
       -1   -1    0    0    0  501  0.00000000000E+00  0.00000000000E+00  0.34575467512E+03  0.34575467516E+03  0.50400001928E-02 0. -1.
        1   -1    0    0  501    0  0.00000000000E+00  0.00000000000E+00 -0.12251616263E+04  0.12251616263E+04  0.50400001928E-02 0.  1.
    10030    2    1    2    0    0  0.00000000000E+00  0.00000000000E+00 -0.87940695119E+03  0.15709163015E+04  0.13016994432E+04 0.  0.
        5    1    3    3  502    0  0.33299511219E+03  0.36757919083E+03  0.68857579739E+02  0.50076308027E+03  0.46999998093E+01 0. -1.
       -5    1    3    3    0  502 -0.33299511219E+03 -0.36757919083E+03 -0.94826453093E+03  0.10701532212E+04  0.46999998093E+01 0.  1.
</event>
<event>
 5   0  0.2573071E-04  0.1300801E+04  0.7818609E-02  0.9028930E-01
        2   -1    0    0  501    0  0.00000000000E+00  0.00000000000E+00  0.19303358292E+04  0.19303358292E+04  0.25500000920E-02 0.  1.
       -2   -1    0    0    0  501  0.00000000000E+00  0.00000000000E+00 -0.21914353403E+03  0.21914353404E+03  0.25500000920E-02 0. -1.
    10030    2    1    2    0    0  0.00000000000E+00  0.00000000000E+00  0.17111922952E+04  0.21494793632E+04  0.13008007003E+04 0.  0.
        4    1    3    3  502    0  0.44820838011E+03  0.29184109268E+03  0.14671217979E+04  0.15615729116E+04  0.12699999809E+01 0.  1.
       -4    1    3    3    0  502 -0.44820838011E+03 -0.29184109268E+03  0.24407049727E+03  0.58790645167E+03  0.12699999809E+01 0. -1.
</event>
<event>
 5   0  0.2794825E-04  0.1297376E+04  0.7818609E-02  0.9031649E-01
        2   -1    0    0  501    0  0.00000000000E+00  0.00000000000E+00  0.86797770391E+03  0.86797770392E+03  0.25500000920E-02 0.  1.
       -2   -1    0    0    0  501  0.00000000000E+00  0.00000000000E+00 -0.48480041555E+03  0.48480041556E+03  0.25500000920E-02 0. -1.
    10030    2    1    2    0    0  0.00000000000E+00  0.00000000000E+00  0.38317728836E+03  0.13527781195E+04  0.12973757383E+04 0.  0.
        1    1    3    3  502    0  0.14150009568E+03 -0.50958414392E+02  0.84954765117E+03  0.86275735216E+03  0.50400001928E-02 0.  1.
       -1    1    3    3    0  502 -0.14150009568E+03  0.50958414392E+02 -0.46637036280E+03  0.49002076732E+03  0.50400001928E-02 0. -1.
</event>
<event>
 5   0  0.2756984E-04  0.1302278E+04  0.7818609E-02  0.9027761E-01
       -2   -1    0    0    0  501  0.00000000000E+00  0.00000000000E+00  0.56408218027E+03  0.56408218027E+03  0.25500000920E-02 0.  1.
        2   -1    0    0  501    0  0.00000000000E+00  0.00000000000E+00 -0.75163143577E+03  0.75163143577E+03  0.25500000920E-02 0. -1.
    10030    2    1    2    0    0  0.00000000000E+00  0.00000000000E+00 -0.18754925550E+03  0.13157136160E+04  0.13022778491E+04 0.  0.
        3    1    3    3  502    0  0.19219800869E+03 -0.54670503057E+03 -0.39374767476E+03  0.70061666165E+03  0.10100000352E+00 0. -1.
       -3    1    3    3    0  502 -0.19219800869E+03  0.54670503057E+03  0.20619841926E+03  0.61509695439E+03  0.10100000352E+00 0.  1.
</event>
<event>
 5   0  0.1430636E-04  0.1299881E+04  0.7818609E-02  0.9029659E-01
        1   -1    0    0  501    0  0.00000000000E+00  0.00000000000E+00  0.15332050275E+04  0.15332050275E+04  0.50400001928E-02 0. -1.
       -1   -1    0    0    0  501  0.00000000000E+00  0.00000000000E+00 -0.27551623301E+03  0.27551623306E+03  0.50400001928E-02 0.  1.
    10030    2    1    2    0    0  0.00000000000E+00  0.00000000000E+00  0.12576887945E+04  0.18087212606E+04  0.12998813387E+04 0.  0.
        4    1    3    3  502    0 -0.15076385853E+03  0.27642072592E+03 -0.16230670384E+03  0.35423613278E+03  0.12699999809E+01 0.  1.
       -4    1    3    3    0  502  0.15076385853E+03 -0.27642072592E+03  0.14199954984E+04  0.14544851278E+04  0.12699999809E+01 0. -1.
</event>
<event>
 5   0  0.2573071E-04  0.1299463E+04  0.7818609E-02  0.9029991E-01
       -2   -1    0    0    0  501  0.00000000000E+00  0.00000000000E+00  0.31218836298E+03  0.31218836299E+03  0.25500000920E-02 0. -1.
        2   -1    0    0  501    0  0.00000000000E+00  0.00000000000E+00 -0.13522319425E+04  0.13522319425E+04  0.25500000920E-02 0.  1.
    10030    2    1    2    0    0  0.00000000000E+00  0.00000000000E+00 -0.10400435795E+04  0.16644203055E+04  0.12994630837E+04 0.  0.
        4    1    3    3  502    0 -0.55451452561E+03  0.98292921940E+02 -0.93506855170E+03  0.10915597404E+04  0.12699999809E+01 0.  1.
       -4    1    3    3    0  502  0.55451452561E+03 -0.98292921940E+02 -0.10497502778E+03  0.57286056503E+03  0.12699999809E+01 0. -1.
</event>
<event>
 5   0  0.2573071E-04  0.1298116E+04  0.7818609E-02  0.9031060E-01
        2   -1    0    0  501    0  0.00000000000E+00  0.00000000000E+00  0.59813870910E+03  0.59813870910E+03  0.25500000920E-02 0. -1.
       -2   -1    0    0    0  501  0.00000000000E+00  0.00000000000E+00 -0.70431227132E+03  0.70431227132E+03  0.25500000920E-02 0.  1.
    10030    2    1    2    0    0  0.00000000000E+00  0.00000000000E+00 -0.10617356222E+03  0.13024509804E+04  0.12981162240E+04 0.  0.
        4    1    3    3  502    0 -0.41092593103E+03  0.50126513011E+03 -0.87081603639E+02  0.65399668964E+03  0.12699999809E+01 0. -1.
       -4    1    3    3    0  502  0.41092593103E+03 -0.50126513011E+03 -0.19091958583E+02  0.64845429079E+03  0.12699999809E+01 0.  1.
</event>
<event>
 5   0  0.1476511E-04  0.1299714E+04  0.7818609E-02  0.9029792E-01
       -1   -1    0    0    0  501  0.00000000000E+00  0.00000000000E+00  0.65912297725E+03  0.65912297727E+03  0.50400001928E-02 0. -1.
        1   -1    0    0  501    0  0.00000000000E+00  0.00000000000E+00 -0.64072095199E+03  0.64072095201E+03  0.50400001928E-02 0.  1.
    10030    2    1    2    0    0  0.00000000000E+00  0.00000000000E+00  0.18402025258E+02  0.12998439293E+04  0.12997136631E+04 0.  0.
        2    1    3    3  502    0 -0.13296782651E+03 -0.58661459314E+03  0.25522724929E+03  0.65340498358E+03  0.25500000920E-02 0. -1.
       -2    1    3    3    0  502  0.13296782651E+03  0.58661459314E+03 -0.23682522404E+03  0.64643894570E+03  0.25500000920E-02 0.  1.
</event>
<event>
 5   0  0.2794825E-04  0.1300475E+04  0.7818609E-02  0.9029189E-01
        2   -1    0    0  501    0  0.00000000000E+00  0.00000000000E+00  0.36843334225E+03  0.36843334225E+03  0.25500000920E-02 0. -1.
       -2   -1    0    0    0  501  0.00000000000E+00  0.00000000000E+00 -0.11475850651E+04  0.11475850651E+04  0.25500000920E-02 0.  1.
    10030    2    1    2    0    0  0.00000000000E+00  0.00000000000E+00 -0.77915172290E+03  0.15160184074E+04  0.13004746842E+04 0.  0.
        1    1    3    3  502    0 -0.58911560518E+03  0.14273958626E+03 -0.11525012101E+03  0.61702056382E+03  0.50400001928E-02 0. -1.
       -1    1    3    3    0  502  0.58911560518E+03 -0.14273958626E+03 -0.66390160189E+03  0.89899784358E+03  0.50400001928E-02 0.  1.
</event>
<event>
 5   0  0.1408341E-04  0.1299272E+04  0.7818609E-02  0.9030142E-01
       -1   -1    0    0    0  501  0.00000000000E+00  0.00000000000E+00  0.35175122093E+03  0.35175122097E+03  0.50400001928E-02 0.  1.
        1   -1    0    0  501    0  0.00000000000E+00  0.00000000000E+00 -0.11997887862E+04  0.11997887862E+04  0.50400001928E-02 0. -1.
    10030    2    1    2    0    0  0.00000000000E+00  0.00000000000E+00 -0.84803756523E+03  0.15515400071E+04  0.12992723663E+04 0.  0.
        5    1    3    3  502    0  0.21062136765E+03 -0.89663952648E+02  0.30197209610E+03  0.37895939325E+03  0.46999998093E+01 0.  1.
       -5    1    3    3    0  502 -0.21062136765E+03  0.89663952648E+02 -0.11500096613E+04  0.11725806139E+04  0.46999998093E+01 0. -1.
</event>
<event>
 5   0  0.1408341E-04  0.1300000E+04  0.7818609E-02  0.9029565E-01
       -1   -1    0    0    0  501  0.00000000000E+00  0.00000000000E+00  0.47505580760E+03  0.47505580763E+03  0.50400001928E-02 0.  1.
        1   -1    0    0  501    0  0.00000000000E+00  0.00000000000E+00 -0.88936926985E+03  0.88936926987E+03  0.50400001928E-02 0. -1.
    10030    2    1    2    0    0  0.00000000000E+00  0.00000000000E+00 -0.41431346225E+03  0.13644250775E+04  0.13000000566E+04 0.  0.
        5    1    3    3  502    0  0.24345203941E+03 -0.12826755255E+03 -0.82519962659E+03  0.86988388550E+03  0.46999998093E+01 0. -1.
       -5    1    3    3    0  502 -0.24345203941E+03  0.12826755255E+03  0.41088616434E+03  0.49454119199E+03  0.46999998093E+01 0.  1.
</event>
<event>
 5   0  0.1408341E-04  0.1296448E+04  0.7818609E-02  0.9032386E-01
        1   -1    0    0  501    0  0.00000000000E+00  0.00000000000E+00  0.84720205277E+03  0.84720205278E+03  0.50400001928E-02 0. -1.
       -1   -1    0    0    0  501  0.00000000000E+00  0.00000000000E+00 -0.49597917918E+03  0.49597917921E+03  0.50400001928E-02 0.  1.
    10030    2    1    2    0    0  0.00000000000E+00  0.00000000000E+00  0.35122287359E+03  0.13431812320E+04  0.12964483465E+04 0.  0.
        5    1    3    3  502    0  0.31060752937E+03 -0.16037700092E+03 -0.38993604084E+03  0.52370795838E+03  0.46999998093E+01 0.  1.
       -5    1    3    3    0  502 -0.31060752937E+03  0.16037700092E+03  0.74115891443E+03  0.81947327361E+03  0.46999998093E+01 0. -1.
</event>
<event>
 5   0  0.1476511E-04  0.1297059E+04  0.7818609E-02  0.9031901E-01
        1   -1    0    0  501    0  0.00000000000E+00  0.00000000000E+00  0.67841154090E+03  0.67841154091E+03  0.50400001928E-02 0. -1.
       -1   -1    0    0    0  501  0.00000000000E+00  0.00000000000E+00 -0.61996338752E+03  0.61996338754E+03  0.50400001928E-02 0.  1.
    10030    2    1    2    0    0  0.00000000000E+00  0.00000000000E+00  0.58448153379E+02  0.12983749285E+04  0.12970586988E+04 0.  0.
        2    1    3    3  502    0 -0.35836340621E+03  0.16215111531E+03 -0.48692791749E+03  0.62595216427E+03  0.25500000920E-02 0.  1.
       -2    1    3    3    0  502  0.35836340621E+03 -0.16215111531E+03  0.54537607087E+03  0.67242276419E+03  0.25500000920E-02 0. -1.
</event>
<event>
 5   0  0.2756984E-04  0.1304762E+04  0.7818609E-02  0.9025798E-01
        2   -1    0    0  501    0  0.00000000000E+00  0.00000000000E+00  0.64394434038E+03  0.64394434038E+03  0.25500000920E-02 0. -1.
       -2   -1    0    0    0  501  0.00000000000E+00  0.00000000000E+00 -0.66092773436E+03  0.66092773437E+03  0.25500000920E-02 0.  1.
    10030    2    1    2    0    0  0.00000000000E+00  0.00000000000E+00 -0.16983393985E+02  0.13048720747E+04  0.13047615475E+04 0.  0.
        3    1    3    3  502    0  0.30050265159E+03  0.14696886986E+03 -0.56862750284E+03  0.65972641262E+03  0.10100000352E+00 0.  1.
       -3    1    3    3    0  502 -0.30050265159E+03 -0.14696886986E+03  0.55164410886E+03  0.64514566213E+03  0.10100000352E+00 0. -1.
</event>
<event>
 5   0  0.2661377E-04  0.1301540E+04  0.7818609E-02  0.9028345E-01
        2   -1    0    0  501    0  0.00000000000E+00  0.00000000000E+00  0.13515706141E+04  0.13515706141E+04  0.25500000920E-02 0. -1.
       -2   -1    0    0    0  501  0.00000000000E+00  0.00000000000E+00 -0.31334042290E+03  0.31334042291E+03  0.25500000920E-02 0.  1.
    10030    2    1    2    0    0  0.00000000000E+00  0.00000000000E+00  0.10382301912E+04  0.16649110370E+04  0.13015401766E+04 0.  0.
        5    1    3    3  502    0 -0.27652224445E+03  0.58783452666E+03  0.56808693638E+03  0.86299411336E+03  0.46999998093E+01 0. -1.
       -5    1    3    3    0  502  0.27652224445E+03 -0.58783452666E+03  0.47014325486E+03  0.80191692369E+03  0.46999998093E+01 0.  1.
</event>
<event>
 5   0  0.2723209E-04  0.1307989E+04  0.7818609E-02  0.9023254E-01
        2   -1    0    0  501    0  0.00000000000E+00  0.00000000000E+00  0.11981845902E+04  0.11981845902E+04  0.25500000920E-02 0. -1.
       -2   -1    0    0    0  501  0.00000000000E+00  0.00000000000E+00 -0.35696404243E+03  0.35696404244E+03  0.25500000920E-02 0.  1.
    10030    2    1    2    0    0  0.00000000000E+00  0.00000000000E+00  0.84122054776E+03  0.15551486326E+04  0.13079890136E+04 0.  0.
        2    1    3    3  502    0 -0.19427384281E+03  0.58388195638E+03  0.68392794622E+03  0.92000972854E+03  0.25500000920E-02 0. -1.
       -2    1    3    3    0  502  0.19427384281E+03 -0.58388195638E+03  0.15729260155E+03  0.63513890409E+03  0.25500000920E-02 0.  1.
</event>
<event>
 5   0  0.1430636E-04  0.1298060E+04  0.7818609E-02  0.9031105E-01
        1   -1    0    0  501    0  0.00000000000E+00  0.00000000000E+00  0.79626483608E+03  0.79626483610E+03  0.50400001928E-02 0.  1.
       -1   -1    0    0    0  501  0.00000000000E+00  0.00000000000E+00 -0.52901992536E+03  0.52901992538E+03  0.50400001928E-02 0. -1.
    10030    2    1    2    0    0  0.00000000000E+00  0.00000000000E+00  0.26724491073E+03  0.13252847615E+04  0.12980600359E+04 0.  0.
        4    1    3    3  502    0 -0.60820933561E+03 -0.64935912232E+02  0.35520680862E+03  0.70732507266E+03  0.12699999809E+01 0.  1.
       -4    1    3    3    0  502  0.60820933561E+03  0.64935912232E+02 -0.87961897892E+02  0.61795968882E+03  0.12699999809E+01 0. -1.
</event>
<event>
 5   0  0.2794825E-04  0.1302523E+04  0.7818609E-02  0.9027567E-01
       -2   -1    0    0    0  501  0.00000000000E+00  0.00000000000E+00  0.36845917006E+03  0.36845917007E+03  0.25500000920E-02 0.  1.
        2   -1    0    0  501    0  0.00000000000E+00  0.00000000000E+00 -0.11511215844E+04  0.11511215844E+04  0.25500000920E-02 0. -1.
    10030    2    1    2    0    0  0.00000000000E+00  0.00000000000E+00 -0.78266241439E+03  0.15195807545E+04  0.13025226350E+04 0.  0.
        1    1    3    3  502    0 -0.23449319732E+03  0.60746678261E+03 -0.40505364670E+03  0.76685814092E+03  0.50400001928E-02 0. -1.
       -1    1    3    3    0  502  0.23449319732E+03 -0.60746678261E+03 -0.37760876769E+03  0.75272261360E+03  0.50400001928E-02 0.  1.
</event>
<event>
 5   0  0.1002887E-04  0.1300730E+04  0.7818609E-02  0.9028987E-01
       -3   -1    0    0    0  501  0.00000000000E+00  0.00000000000E+00  0.12422444845E+04  0.12422444886E+04  0.10100000352E+00 0. -1.
        3   -1    0    0  501    0  0.00000000000E+00  0.00000000000E+00 -0.34049215069E+03  0.34049216567E+03  0.10100000352E+00 0.  1.
    10030    2    1    2    0    0  0.00000000000E+00  0.00000000000E+00  0.90175233383E+03  0.15827366543E+04  0.13007298126E+04 0.  0.
        1    1    3    3  502    0  0.51119263688E+03  0.32665902770E+03  0.73611411711E+03  0.95388050919E+03  0.50400001928E-02 0. -1.
       -1    1    3    3    0  502 -0.51119263688E+03 -0.32665902770E+03  0.16563821672E+03  0.62885614511E+03  0.50400001928E-02 0.  1.
</event>
<event>
 5   0  0.1476511E-04  0.1294042E+04  0.7818609E-02  0.9034303E-01
        1   -1    0    0  501    0  0.00000000000E+00  0.00000000000E+00  0.64433415225E+03  0.64433415227E+03  0.50400001928E-02 0.  1.
       -1   -1    0    0    0  501  0.00000000000E+00  0.00000000000E+00 -0.64971886383E+03  0.64971886385E+03  0.50400001928E-02 0. -1.
    10030    2    1    2    0    0  0.00000000000E+00  0.00000000000E+00 -0.53847115782E+01  0.12940530161E+04  0.12940418128E+04 0.  0.
        2    1    3    3  502    0 -0.64603725659E+03 -0.11349069795E+02  0.31117921532E+02  0.64688581939E+03  0.25500000920E-02 0.  1.
       -2    1    3    3    0  502  0.64603725659E+03  0.11349069795E+02 -0.36502633110E+02  0.64716719672E+03  0.25500000920E-02 0. -1.
</event>
<event>
 5   0  0.1479690E-04  0.1301678E+04  0.7818609E-02  0.9028235E-01
       -1   -1    0    0    0  501  0.00000000000E+00  0.00000000000E+00  0.57634218235E+03  0.57634218237E+03  0.50400001928E-02 0.  1.
        1   -1    0    0  501    0  0.00000000000E+00  0.00000000000E+00 -0.73496561799E+03  0.73496561801E+03  0.50400001928E-02 0. -1.
    10030    2    1    2    0    0  0.00000000000E+00  0.00000000000E+00 -0.15862343565E+03  0.13113078004E+04  0.13016784369E+04 0.  0.
        1    1    3    3  502    0 -0.16084873215E+03 -0.13675401942E+02 -0.71447762036E+03  0.73248727038E+03  0.50400001928E-02 0. -1.
       -1    1    3    3    0  502  0.16084873215E+03  0.13675401942E+02  0.55585418471E+03  0.57882052999E+03  0.50400001928E-02 0.  1.
</event>
<event>
 5   0  0.1475396E-04  0.1297889E+04  0.7818609E-02  0.9031241E-01
        1   -1    0    0  501    0  0.00000000000E+00  0.00000000000E+00  0.80383563258E+03  0.80383563260E+03  0.50400001928E-02 0.  1.
       -1   -1    0    0    0  501  0.00000000000E+00  0.00000000000E+00 -0.52389963254E+03  0.52389963256E+03  0.50400001928E-02 0. -1.
    10030    2    1    2    0    0  0.00000000000E+00  0.00000000000E+00  0.27993600004E+03  0.13277352652E+04  0.12978893521E+04 0.  0.
        3    1    3    3  502    0 -0.13117151884E+03  0.95843592241E+01 -0.51012252916E+03  0.52680435861E+03  0.10100000352E+00 0. -1.
       -3    1    3    3    0  502  0.13117151884E+03 -0.95843592241E+01  0.79005852920E+03  0.80093090655E+03  0.10100000352E+00 0.  1.
</event>
<event>
 5   0  0.1476511E-04  0.1314183E+04  0.7818609E-02  0.9018393E-01
        1   -1    0    0  501    0  0.00000000000E+00  0.00000000000E+00  0.19740667344E+04  0.19740667345E+04  0.50400001928E-02 0.  1.
       -1   -1    0    0    0  501  0.00000000000E+00  0.00000000000E+00 -0.21872071916E+03  0.21872071922E+03  0.50400001928E-02 0. -1.
    10030    2    1    2    0    0  0.00000000000E+00  0.00000000000E+00  0.17553460153E+04  0.21927874537E+04  0.13141830860E+04 0.  0.
        2    1    3    3  502    0  0.35947350068E+03 -0.32625435902E+03  0.16165741142E+04  0.16878906870E+04  0.25500000920E-02 0.  1.
       -2    1    3    3    0  502 -0.35947350068E+03  0.32625435902E+03  0.13877190106E+03  0.50489676668E+03  0.25500000920E-02 0. -1.
</event>
<event>
 5   0  0.1475396E-04  0.1299649E+04  0.7818609E-02  0.9029844E-01
       -1   -1    0    0    0  501  0.00000000000E+00  0.00000000000E+00  0.50858044733E+03  0.50858044736E+03  0.50400001928E-02 0.  1.
        1   -1    0    0  501    0  0.00000000000E+00  0.00000000000E+00 -0.83029464429E+03  0.83029464430E+03  0.50400001928E-02 0. -1.
    10030    2    1    2    0    0  0.00000000000E+00  0.00000000000E+00 -0.32171419695E+03  0.13388750917E+04  0.12996486012E+04 0.  0.
        3    1    3    3  502    0  0.25425795087E+03  0.34491103449E+03  0.34241718702E+03  0.54850730849E+03  0.10100000352E+00 0.  1.
       -3    1    3    3    0  502 -0.25425795087E+03 -0.34491103449E+03 -0.66413138398E+03  0.79036778317E+03  0.10100000352E+00 0. -1.
</event>
<event>
 5   0  0.1430636E-04  0.1300817E+04  0.7818609E-02  0.9028917E-01
       -1   -1    0    0    0  501  0.00000000000E+00  0.00000000000E+00  0.40642976211E+03  0.40642976214E+03  0.50400001928E-02 0.  1.
        1   -1    0    0  501    0  0.00000000000E+00  0.00000000000E+00 -0.10408475688E+04  0.10408475688E+04  0.50400001928E-02 0. -1.
    10030    2    1    2    0    0  0.00000000000E+00  0.00000000000E+00 -0.63441780665E+03  0.14472773309E+04  0.13008173274E+04 0.  0.
        4    1    3    3  502    0 -0.12069068261E+03 -0.15561107795E+03 -0.10068794648E+04  0.10259575615E+04  0.12699999809E+01 0. -1.
       -4    1    3    3    0  502  0.12069068261E+03  0.15561107795E+03  0.37246165813E+03  0.42131976945E+03  0.12699999809E+01 0.  1.
</event>
<event>
 5   0  0.1476511E-04  0.1298755E+04  0.7818609E-02  0.9030553E-01
       -1   -1    0    0    0  501  0.00000000000E+00  0.00000000000E+00  0.26964409518E+03  0.26964409522E+03  0.50400001928E-02 0.  1.
        1   -1    0    0  501    0  0.00000000000E+00  0.00000000000E+00 -0.15638808970E+04  0.15638808970E+04  0.50400001928E-02 0. -1.
    10030    2    1    2    0    0  0.00000000000E+00  0.00000000000E+00 -0.12942368019E+04  0.18335249923E+04  0.12987551725E+04 0.  0.
        2    1    3    3  502    0 -0.37475306252E+03 -0.97456866926E+02 -0.13830664486E+04  0.14362487598E+04  0.25500000920E-02 0. -1.
       -2    1    3    3    0  502  0.37475306252E+03  0.97456866926E+02  0.88829646694E+02  0.39727623251E+03  0.25500000920E-02 0.  1.
</event>
<event>
 5   0  0.2723209E-04  0.1305710E+04  0.7818609E-02  0.9025050E-01
       -2   -1    0    0    0  501  0.00000000000E+00  0.00000000000E+00  0.19244313488E+03  0.19244313490E+03  0.25500000920E-02 0.  1.
        2   -1    0    0  501    0  0.00000000000E+00  0.00000000000E+00 -0.22147809065E+04  0.22147809065E+04  0.25500000920E-02 0. -1.
    10030    2    1    2    0    0  0.00000000000E+00  0.00000000000E+00 -0.20223377717E+04  0.24072240414E+04  0.13057095860E+04 0.  0.
        2    1    3    3  502    0 -0.60766866968E+02 -0.21728993513E+03 -0.21406164149E+04  0.21524744281E+04  0.25500000920E-02 0. -1.
       -2    1    3    3    0  502  0.60766866968E+02  0.21728993513E+03  0.11827864323E+03  0.25474961331E+03  0.25500000920E-02 0.  1.
</event>
<event>
 5   0  0.1476511E-04  0.1300763E+04  0.7818609E-02  0.9028961E-01
       -1   -1    0    0    0  501  0.00000000000E+00  0.00000000000E+00  0.43558913100E+03  0.43558913103E+03  0.50400001928E-02 0. -1.
        1   -1    0    0  501    0  0.00000000000E+00  0.00000000000E+00 -0.97108905934E+03  0.97108905935E+03  0.50400001928E-02 0.  1.
    10030    2    1    2    0    0  0.00000000000E+00  0.00000000000E+00 -0.53549992834E+03  0.14066781904E+04  0.13007626063E+04 0.  0.
        2    1    3    3  502    0 -0.50285316220E+02 -0.73509814766E+02  0.42896317366E+03  0.43811152720E+03  0.25500000920E-02 0. -1.
       -2    1    3    3    0  502  0.50285316220E+02  0.73509814766E+02 -0.96446310201E+03  0.96856666319E+03  0.25500000920E-02 0.  1.
</event>
<event>
 5   0  0.1408341E-04  0.1300406E+04  0.7818609E-02  0.9029243E-01
        1   -1    0    0  501    0  0.00000000000E+00  0.00000000000E+00  0.44449968499E+03  0.44449968502E+03  0.50400001928E-02 0. -1.
       -1   -1    0    0    0  501  0.00000000000E+00  0.00000000000E+00 -0.95110110865E+03  0.95110110867E+03  0.50400001928E-02 0.  1.
    10030    2    1    2    0    0  0.00000000000E+00  0.00000000000E+00 -0.50660142366E+03  0.13956007937E+04  0.13004063107E+04 0.  0.
        5    1    3    3  502    0  0.42078389862E+03  0.46603522637E+03 -0.72141737674E+02  0.63203990528E+03  0.46999998093E+01 0. -1.
       -5    1    3    3    0  502 -0.42078389862E+03 -0.46603522637E+03 -0.43445968599E+03  0.76356088841E+03  0.46999998093E+01 0.  1.
</event>
<event>
 5   0  0.1002887E-04  0.1295546E+04  0.7818609E-02  0.9033105E-01
       -3   -1    0    0    0  501  0.00000000000E+00  0.00000000000E+00  0.16364440492E+04  0.16364440523E+04  0.10100000352E+00 0. -1.
        3   -1    0    0  501    0  0.00000000000E+00  0.00000000000E+00 -0.25641557142E+03  0.25641559131E+03  0.10100000352E+00 0.  1.
    10030    2    1    2    0    0  0.00000000000E+00  0.00000000000E+00  0.13800284778E+04  0.18928596436E+04  0.12955458429E+04 0.  0.
        4    1    3    3  502    0  0.52182471820E+01  0.57926894762E+03  0.26648960400E+03  0.63765042596E+03  0.12699999809E+01 0.  1.
       -4    1    3    3    0  502 -0.52182471820E+01 -0.57926894762E+03  0.11135388738E+04  0.12552092177E+04  0.12699999809E+01 0. -1.
</event>
<event>
 5   0  0.2756984E-04  0.1299351E+04  0.7818609E-02  0.9030080E-01
        2   -1    0    0  501    0  0.00000000000E+00  0.00000000000E+00  0.10645364900E+04  0.10645364900E+04  0.25500000920E-02 0. -1.
       -2   -1    0    0    0  501  0.00000000000E+00  0.00000000000E+00 -0.39648998044E+03  0.39648998045E+03  0.25500000920E-02 0.  1.
    10030    2    1    2    0    0  0.00000000000E+00  0.00000000000E+00  0.66804650951E+03  0.14610264704E+04  0.12993506872E+04 0.  0.
        3    1    3    3  502    0 -0.45042756807E+03 -0.10720415472E+03  0.84647182252E+03  0.96482759153E+03  0.10100000352E+00 0. -1.
       -3    1    3    3    0  502  0.45042756807E+03  0.10720415472E+03 -0.17842531301E+03  0.49619887887E+03  0.10100000352E+00 0.  1.
</event>
<event>
 5   0  0.2756984E-04  0.1300045E+04  0.7818609E-02  0.9029530E-01
        2   -1    0    0  501    0  0.00000000000E+00  0.00000000000E+00  0.13008677620E+04  0.13008677620E+04  0.25500000920E-02 0. -1.
       -2   -1    0    0    0  501  0.00000000000E+00  0.00000000000E+00 -0.32480549996E+03  0.32480549997E+03  0.25500000920E-02 0.  1.
    10030    2    1    2    0    0  0.00000000000E+00  0.00000000000E+00  0.97606226203E+03  0.16256732620E+04  0.13000446205E+04 0.  0.
        3    1    3    3  502    0 -0.47069310420E+03 -0.20789166556E+03 -0.86421186087E+01  0.51463155690E+03  0.10100000352E+00 0.  1.
       -3    1    3    3    0  502  0.47069310420E+03  0.20789166556E+03  0.98470438064E+03  0.11110417051E+04  0.10100000352E+00 0. -1.
</event>
<event>
 5   0  0.2573071E-04  0.1299360E+04  0.7818609E-02  0.9030073E-01
       -2   -1    0    0    0  501  0.00000000000E+00  0.00000000000E+00  0.72633035691E+03  0.72633035692E+03  0.25500000920E-02 0. -1.
        2   -1    0    0  501    0  0.00000000000E+00  0.00000000000E+00 -0.58111849516E+03  0.58111849517E+03  0.25500000920E-02 0.  1.
    10030    2    1    2    0    0  0.00000000000E+00  0.00000000000E+00  0.14521186175E+03  0.13074488521E+04  0.12993598486E+04 0.  0.
        4    1    3    3  502    0 -0.40309720556E+03  0.43798461395E+03 -0.18933081202E+03  0.62463241068E+03  0.12699999809E+01 0.  1.
       -4    1    3    3    0  502  0.40309720556E+03 -0.43798461395E+03  0.33454267377E+03  0.68281644141E+03  0.12699999809E+01 0. -1.
</event>
<event>
 5   0  0.2756984E-04  0.1303310E+04  0.7818609E-02  0.9026945E-01
        2   -1    0    0  501    0  0.00000000000E+00  0.00000000000E+00  0.84687849155E+03  0.84687849156E+03  0.25500000920E-02 0. -1.
       -2   -1    0    0    0  501  0.00000000000E+00  0.00000000000E+00 -0.50143449915E+03  0.50143449916E+03  0.25500000920E-02 0.  1.
    10030    2    1    2    0    0  0.00000000000E+00  0.00000000000E+00  0.34544399240E+03  0.13483129907E+04  0.13033097748E+04 0.  0.
        3    1    3    3  502    0 -0.49166872340E+03  0.41880039994E+03  0.82996733293E+02  0.65116847014E+03  0.10100000352E+00 0. -1.
       -3    1    3    3    0  502  0.49166872340E+03 -0.41880039994E+03  0.26244725911E+03  0.69714452058E+03  0.10100000352E+00 0.  1.
</event>
<event>
 5   0  0.2794825E-04  0.1300599E+04  0.7818609E-02  0.9029090E-01
        2   -1    0    0  501    0  0.00000000000E+00  0.00000000000E+00  0.13015902807E+04  0.13015902807E+04  0.25500000920E-02 0. -1.
       -2   -1    0    0    0  501  0.00000000000E+00  0.00000000000E+00 -0.32490205282E+03  0.32490205283E+03  0.25500000920E-02 0.  1.
    10030    2    1    2    0    0  0.00000000000E+00  0.00000000000E+00  0.97668822792E+03  0.16264923336E+04  0.13005988685E+04 0.  0.
        1    1    3    3  502    0  0.24919988186E+03  0.15788853693E+03 -0.23640514428E+03  0.37804333545E+03  0.50400001928E-02 0.  1.
       -1    1    3    3    0  502 -0.24919988186E+03 -0.15788853693E+03  0.12130933722E+04  0.12484489981E+04  0.50400001928E-02 0. -1.
</event>
<event>
 5   0  0.2661377E-04  0.1302301E+04  0.7818609E-02  0.9027742E-01
       -2   -1    0    0    0  501  0.00000000000E+00  0.00000000000E+00  0.64443927456E+03  0.64443927456E+03  0.25500000920E-02 0. -1.
        2   -1    0    0  501    0  0.00000000000E+00  0.00000000000E+00 -0.65793154129E+03  0.65793154129E+03  0.25500000920E-02 0.  1.
    10030    2    1    2    0    0  0.00000000000E+00  0.00000000000E+00 -0.13492266732E+02  0.13023708159E+04  0.13023009256E+04 0.  0.
        5    1    3    3  502    0 -0.27364049325E+03  0.22717407602E+03  0.53870742660E+03  0.64553463256E+03  0.46999998093E+01 0. -1.
       -5    1    3    3    0  502  0.27364049325E+03 -0.22717407602E+03 -0.55219969334E+03  0.65683618329E+03  0.46999998093E+01 0.  1.
</event>
<event>
 5   0  0.2661377E-04  0.1300597E+04  0.7818609E-02  0.9029092E-01
       -2   -1    0    0    0  501  0.00000000000E+00  0.00000000000E+00  0.40748142204E+03  0.40748142205E+03  0.25500000920E-02 0.  1.
        2   -1    0    0  501    0  0.00000000000E+00  0.00000000000E+00 -0.10378091386E+04  0.10378091386E+04  0.25500000920E-02 0. -1.
    10030    2    1    2    0    0  0.00000000000E+00  0.00000000000E+00 -0.63032771659E+03  0.14452905607E+04  0.13005966994E+04 0.  0.
        5    1    3    3  502    0 -0.35371481611E+03 -0.20205213019E+03  0.24810672363E+03  0.47698875328E+03  0.46999998093E+01 0.  1.
       -5    1    3    3    0  502  0.35371481611E+03  0.20205213019E+03 -0.87843444023E+03  0.96830180740E+03  0.46999998093E+01 0. -1.
</event>
<event>
 5   0  0.1475396E-04  0.1299101E+04  0.7818609E-02  0.9030278E-01
        1   -1    0    0  501    0  0.00000000000E+00  0.00000000000E+00  0.51094181002E+03  0.51094181004E+03  0.50400001928E-02 0.  1.
       -1   -1    0    0    0  501  0.00000000000E+00  0.00000000000E+00 -0.82576129542E+03  0.82576129544E+03  0.50400001928E-02 0. -1.
    10030    2    1    2    0    0  0.00000000000E+00  0.00000000000E+00 -0.31481948541E+03  0.13367031055E+04  0.12991011831E+04 0.  0.
        3    1    3    3  502    0  0.82469579834E+02 -0.97634659726E+01 -0.82027640864E+03  0.82446949831E+03  0.10100000352E+00 0. -1.
       -3    1    3    3    0  502 -0.82469579834E+02  0.97634659726E+01  0.50545692324E+03  0.51223360717E+03  0.10100000352E+00 0.  1.
</event>
<event>
 5   0  0.1479690E-04  0.1304934E+04  0.7818609E-02  0.9025662E-01
       -1   -1    0    0    0  501  0.00000000000E+00  0.00000000000E+00  0.37307760228E+03  0.37307760232E+03  0.50400001928E-02 0. -1.
        1   -1    0    0  501    0  0.00000000000E+00  0.00000000000E+00 -0.11410844343E+04  0.11410844343E+04  0.50400001928E-02 0.  1.
    10030    2    1    2    0    0  0.00000000000E+00  0.00000000000E+00 -0.76800683198E+03  0.15141620366E+04  0.13049337834E+04 0.  0.
        1    1    3    3  502    0 -0.55674824441E+03 -0.26290494163E+03 -0.63455392987E+03  0.88416418494E+03  0.50400001928E-02 0.  1.
       -1    1    3    3    0  502  0.55674824441E+03  0.26290494163E+03 -0.13345290211E+03  0.62999785166E+03  0.50400001928E-02 0. -1.
</event>
<event>
 5   0  0.1475396E-04  0.1299078E+04  0.7818609E-02  0.9030297E-01
        1   -1    0    0  501    0  0.00000000000E+00  0.00000000000E+00  0.14911432572E+04  0.14911432572E+04  0.50400001928E-02 0.  1.
       -1   -1    0    0    0  501  0.00000000000E+00  0.00000000000E+00 -0.28293792848E+03  0.28293792852E+03  0.50400001928E-02 0. -1.
    10030    2    1    2    0    0  0.00000000000E+00  0.00000000000E+00  0.12082053288E+04  0.17740811858E+04  0.12990781105E+04 0.  0.
        3    1    3    3  502    0  0.88666488480E+02 -0.58692076894E+03  0.24391559088E+03  0.64174181792E+03  0.10100000352E+00 0. -1.
       -3    1    3    3    0  502 -0.88666488480E+02  0.58692076894E+03  0.96428973787E+03  0.11323393678E+04  0.10100000352E+00 0.  1.
</event>
<event>
 5   0  0.1479690E-04  0.1297645E+04  0.7818609E-02  0.9031435E-01
        1   -1    0    0  501    0  0.00000000000E+00  0.00000000000E+00  0.51884865695E+03  0.51884865697E+03  0.50400001928E-02 0.  1.
       -1   -1    0    0    0  501  0.00000000000E+00  0.00000000000E+00 -0.81135571870E+03  0.81135571872E+03  0.50400001928E-02 0. -1.
    10030    2    1    2    0    0  0.00000000000E+00  0.00000000000E+00 -0.29250706175E+03  0.13302043757E+04  0.12976452905E+04 0.  0.
        1    1    3    3  502    0 -0.46875536806E+02 -0.40177632554E+03  0.37377104341E+03  0.55075069190E+03  0.50400001928E-02 0.  1.
       -1    1    3    3    0  502  0.46875536806E+02  0.40177632554E+03 -0.66627810517E+03  0.77945368378E+03  0.50400001928E-02 0. -1.
</event>
<event>
 5   0  0.1430636E-04  0.1309935E+04  0.7818609E-02  0.9021723E-01
       -1   -1    0    0    0  501  0.00000000000E+00  0.00000000000E+00  0.59581617129E+03  0.59581617131E+03  0.50400001928E-02 0.  1.
        1   -1    0    0  501    0  0.00000000000E+00  0.00000000000E+00 -0.71999151233E+03  0.71999151235E+03  0.50400001928E-02 0. -1.
    10030    2    1    2    0    0  0.00000000000E+00  0.00000000000E+00 -0.12417534104E+03  0.13158076837E+04  0.13099352446E+04 0.  0.
        4    1    3    3  502    0  0.13555896795E+02 -0.64254444790E+03  0.64707544505E+02  0.64593792974E+03  0.12699999809E+01 0.  1.
       -4    1    3    3    0  502 -0.13555896795E+02  0.64254444790E+03 -0.18888288554E+03  0.66986975392E+03  0.12699999809E+01 0. -1.
</event>
<event>
 5   0  0.2573071E-04  0.1299928E+04  0.7818609E-02  0.9029622E-01
        2   -1    0    0  501    0  0.00000000000E+00  0.00000000000E+00  0.65143443023E+03  0.65143443024E+03  0.25500000920E-02 0.  1.
       -2   -1    0    0    0  501  0.00000000000E+00  0.00000000000E+00 -0.64849697468E+03  0.64849697468E+03  0.25500000920E-02 0. -1.
    10030    2    1    2    0    0  0.00000000000E+00  0.00000000000E+00  0.29374555579E+01  0.12999314049E+04  0.12999280860E+04 0.  0.
        4    1    3    3  502    0 -0.19160581556E+03 -0.60464677625E+03  0.14338854517E+03  0.65028639873E+03  0.12699999809E+01 0. -1.
       -4    1    3    3    0  502  0.19160581556E+03  0.60464677625E+03 -0.14045108961E+03  0.64964500619E+03  0.12699999809E+01 0.  1.
</event>
<event>
 5   0  0.2661377E-04  0.1304050E+04  0.7818609E-02  0.9026360E-01
        2   -1    0    0  501    0  0.00000000000E+00  0.00000000000E+00  0.47312410353E+03  0.47312410354E+03  0.25500000920E-02 0. -1.
       -2   -1    0    0    0  501  0.00000000000E+00  0.00000000000E+00 -0.89857251589E+03  0.89857251589E+03  0.25500000920E-02 0.  1.
    10030    2    1    2    0    0  0.00000000000E+00  0.00000000000E+00 -0.42544841236E+03  0.13716966194E+04  0.13040495635E+04 0.  0.
        5    1    3    3  502    0  0.12646652826E+03  0.12841541666E+03  0.44638240551E+03  0.48141836686E+03  0.46999998093E+01 0. -1.
       -5    1    3    3    0  502 -0.12646652826E+03 -0.12841541666E+03 -0.87183081787E+03  0.89027825257E+03  0.46999998093E+01 0.  1.
</event>
<event>
 5   0  0.1479690E-04  0.1305437E+04  0.7818609E-02  0.9025264E-01
       -1   -1    0    0    0  501  0.00000000000E+00  0.00000000000E+00  0.37863891541E+03  0.37863891544E+03  0.50400001928E-02 0. -1.
        1   -1    0    0  501    0  0.00000000000E+00  0.00000000000E+00 -0.11251924060E+04  0.11251924061E+04  0.50400001928E-02 0.  1.
    10030    2    1    2    0    0  0.00000000000E+00  0.00000000000E+00 -0.74655349064E+03  0.15038313215E+04  0.13054372942E+04 0.  0.
        1    1    3    3  502    0 -0.50636276105E+03  0.31277337934E+03 -0.68197857342E+03  0.90516584515E+03  0.50400001928E-02 0.  1.
       -1    1    3    3    0  502  0.50636276105E+03 -0.31277337934E+03 -0.64574917218E+02  0.59866547634E+03  0.50400001928E-02 0. -1.
</event>
<event>
 5   0  0.2756984E-04  0.1300619E+04  0.7818609E-02  0.9029074E-01
        2   -1    0    0  501    0  0.00000000000E+00  0.00000000000E+00  0.13348413823E+04  0.13348413823E+04  0.25500000920E-02 0.  1.
       -2   -1    0    0    0  501  0.00000000000E+00  0.00000000000E+00 -0.31681870411E+03  0.31681870412E+03  0.25500000920E-02 0. -1.
    10030    2    1    2    0    0  0.00000000000E+00  0.00000000000E+00  0.10180226782E+04  0.16516600864E+04  0.13006194170E+04 0.  0.
        3    1    3    3  502    0  0.16047769070E+03  0.36747199377E+03  0.11591642469E+04  0.12265604416E+04  0.10100000352E+00 0.  1.
       -3    1    3    3    0  502 -0.16047769070E+03 -0.36747199377E+03 -0.14114156869E+03  0.42509964483E+03  0.10100000352E+00 0. -1.
</event>
<event>
 5   0  0.2794825E-04  0.1296996E+04  0.7818609E-02  0.9031950E-01
       -2   -1    0    0    0  501  0.00000000000E+00  0.00000000000E+00  0.14259186204E+04  0.14259186204E+04  0.25500000920E-02 0. -1.
        2   -1    0    0  501    0  0.00000000000E+00  0.00000000000E+00 -0.29493259592E+03  0.29493259593E+03  0.25500000920E-02 0.  1.
    10030    2    1    2    0    0  0.00000000000E+00  0.00000000000E+00  0.11309860245E+04  0.17208512163E+04  0.12969963459E+04 0.  0.
        1    1    3    3  502    0 -0.22622106894E+01 -0.54640234970E+03  0.10208309428E+03  0.55586113690E+03  0.50400001928E-02 0.  1.
       -1    1    3    3    0  502  0.22622106894E+01  0.54640234970E+03  0.10289029302E+04  0.11649900794E+04  0.50400001928E-02 0. -1.
</event>
<event>
 5   0  0.2723209E-04  0.1299280E+04  0.7818609E-02  0.9030136E-01
        2   -1    0    0  501    0  0.00000000000E+00  0.00000000000E+00  0.72074300928E+03  0.72074300928E+03  0.25500000920E-02 0.  1.
       -2   -1    0    0    0  501  0.00000000000E+00  0.00000000000E+00 -0.58555138984E+03  0.58555138985E+03  0.25500000920E-02 0. -1.
    10030    2    1    2    0    0  0.00000000000E+00  0.00000000000E+00  0.13519161943E+03  0.13062943991E+04  0.12992799095E+04 0.  0.
        2    1    3    3  502    0  0.34297324428E+03  0.51473573210E+03  0.26728468336E+03  0.67381349212E+03  0.25500000920E-02 0.  1.
       -2    1    3    3    0  502 -0.34297324428E+03 -0.51473573210E+03 -0.13209306392E+03  0.63248090701E+03  0.25500000920E-02 0. -1.
</event>
<event>
 5   0  0.1476511E-04  0.1298681E+04  0.7818609E-02  0.9030612E-01
        1   -1    0    0  501    0  0.00000000000E+00  0.00000000000E+00  0.12330239509E+04  0.12330239510E+04  0.50400001928E-02 0.  1.
       -1   -1    0    0    0  501  0.00000000000E+00  0.00000000000E+00 -0.34195847815E+03  0.34195847819E+03  0.50400001928E-02 0. -1.
    10030    2    1    2    0    0  0.00000000000E+00  0.00000000000E+00  0.89106547279E+03  0.15749824291E+04  0.12986808597E+04 0.  0.
        2    1    3    3  502    0  0.55229964553E+03 -0.28191488727E+03  0.21183851136E+03  0.65527586329E+03  0.25500000920E-02 0. -1.
       -2    1    3    3    0  502 -0.55229964553E+03  0.28191488727E+03  0.67922696143E+03  0.91970656584E+03  0.25500000920E-02 0.  1.
</event>
<event>
 5   0  0.1430636E-04  0.1301328E+04  0.7818609E-02  0.9028512E-01
       -1   -1    0    0    0  501  0.00000000000E+00  0.00000000000E+00  0.58469507376E+03  0.58469507378E+03  0.50400001928E-02 0.  1.
        1   -1    0    0  501    0  0.00000000000E+00  0.00000000000E+00 -0.72407629675E+03  0.72407629676E+03  0.50400001928E-02 0. -1.
    10030    2    1    2    0    0  0.00000000000E+00  0.00000000000E+00 -0.13938122299E+03  0.13087713705E+04  0.13013283118E+04 0.  0.
        4    1    3    3  502    0 -0.15315378277E+03 -0.92339734347E+02 -0.69887213063E+03  0.72139210946E+03  0.12699999809E+01 0. -1.
       -4    1    3    3    0  502  0.15315378277E+03  0.92339734347E+02  0.55949090765E+03  0.58737926109E+03  0.12699999809E+01 0.  1.
</event>
<event>
 5   0  0.2661377E-04  0.1298346E+04  0.7818609E-02  0.9030878E-01
        2   -1    0    0  501    0  0.00000000000E+00  0.00000000000E+00  0.14248868181E+04  0.14248868181E+04  0.25500000920E-02 0. -1.
       -2   -1    0    0    0  501  0.00000000000E+00  0.00000000000E+00 -0.29576074234E+03  0.29576074235E+03  0.25500000920E-02 0.  1.
    10030    2    1    2    0    0  0.00000000000E+00  0.00000000000E+00  0.11291260758E+04  0.17206475605E+04  0.12983459987E+04 0.  0.
        5    1    3    3  502    0  0.50555668565E+03  0.30351234471E+03  0.20479383061E+03  0.62423545946E+03  0.46999998093E+01 0.  1.
       -5    1    3    3    0  502 -0.50555668565E+03 -0.30351234471E+03  0.92433224519E+03  0.10964121010E+04  0.46999998093E+01 0. -1.
</event>
<event>
 5   0  0.1476511E-04  0.1299951E+04  0.7818609E-02  0.9029604E-01
        1   -1    0    0  501    0  0.00000000000E+00  0.00000000000E+00  0.85455547241E+03  0.85455547242E+03  0.50400001928E-02 0. -1.
       -1   -1    0    0    0  501  0.00000000000E+00  0.00000000000E+00 -0.49437182881E+03  0.49437182884E+03  0.50400001928E-02 0.  1.
    10030    2    1    2    0    0  0.00000000000E+00  0.00000000000E+00  0.36018364359E+03  0.13489273013E+04  0.12999510018E+04 0.  0.
        2    1    3    3  502    0 -0.56000392363E+03  0.29783994645E+03  0.32774337507E+02  0.63512769220E+03  0.25500000920E-02 0.  1.
       -2    1    3    3    0  502  0.56000392363E+03 -0.29783994645E+03  0.32740930609E+03  0.71379960907E+03  0.25500000920E-02 0. -1.
</event>
<event>
 5   0  0.1408341E-04  0.1305311E+04  0.7818609E-02  0.9025364E-01
        1   -1    0    0  501    0  0.00000000000E+00  0.00000000000E+00  0.55523166875E+03  0.55523166877E+03  0.50400001928E-02 0. -1.
       -1   -1    0    0    0  501  0.00000000000E+00  0.00000000000E+00 -0.76717348319E+03  0.76717348321E+03  0.50400001928E-02 0.  1.
    10030    2    1    2    0    0  0.00000000000E+00  0.00000000000E+00 -0.21194181444E+03  0.13224051520E+04  0.13053107114E+04 0.  0.
        5    1    3    3  502    0 -0.15201453955E+03 -0.45657556846E+03  0.34067378723E+03  0.58961885083E+03  0.46999998093E+01 0. -1.
       -5    1    3    3    0  502  0.15201453955E+03  0.45657556846E+03 -0.55261560167E+03  0.73278630115E+03  0.46999998093E+01 0.  1.
</event>
<event>
 5   0  0.1430636E-04  0.1301219E+04  0.7818609E-02  0.9028599E-01
       -1   -1    0    0    0  501  0.00000000000E+00  0.00000000000E+00  0.59358938580E+03  0.59358938582E+03  0.50400001928E-02 0. -1.
        1   -1    0    0  501    0  0.00000000000E+00  0.00000000000E+00 -0.71310707202E+03  0.71310707204E+03  0.50400001928E-02 0.  1.
    10030    2    1    2    0    0  0.00000000000E+00  0.00000000000E+00 -0.11951768622E+03  0.13066964579E+04  0.13012191036E+04 0.  0.
        4    1    3    3  502    0  0.14548805370E+03  0.21488182225E+03 -0.65888586369E+03  0.70814770039E+03  0.12699999809E+01 0.  1.
       -4    1    3    3    0  502 -0.14548805370E+03 -0.21488182225E+03  0.53936817747E+03  0.59854875747E+03  0.12699999809E+01 0. -1.
</event>
<event>
 5   0  0.1475396E-04  0.1301930E+04  0.7818609E-02  0.9028036E-01
        1   -1    0    0  501    0  0.00000000000E+00  0.00000000000E+00  0.43649775505E+03  0.43649775508E+03  0.50400001928E-02 0. -1.
       -1   -1    0    0    0  501  0.00000000000E+00  0.00000000000E+00 -0.97080716647E+03  0.97080716648E+03  0.50400001928E-02 0.  1.
    10030    2    1    2    0    0  0.00000000000E+00  0.00000000000E+00 -0.53430941141E+03  0.14073049216E+04  0.13019295661E+04 0.  0.
        3    1    3    3  502    0  0.16989895108E+03  0.39080619612E+03  0.26477215642E+03  0.50169656319E+03  0.10100000352E+00 0. -1.
       -3    1    3    3    0  502 -0.16989895108E+03 -0.39080619612E+03 -0.79908156783E+03  0.90560835837E+03  0.10100000352E+00 0.  1.
</event>
<event>
 5   0  0.1002887E-04  0.1290585E+04  0.7818609E-02  0.9037065E-01
       -3   -1    0    0    0  501  0.00000000000E+00  0.00000000000E+00  0.26766979599E+03  0.26766981505E+03  0.10100000352E+00 0.  1.
        3   -1    0    0  501    0  0.00000000000E+00  0.00000000000E+00 -0.15556561530E+04  0.15556561563E+04  0.10100000352E+00 0. -1.
    10030    2    1    2    0    0  0.00000000000E+00  0.00000000000E+00 -0.12879863570E+04  0.18233259713E+04  0.12905846512E+04 0.  0.
        5    1    3    3  502    0 -0.22180705810E+03 -0.60320119254E+03 -0.56246590411E+03  0.85407261576E+03  0.46999998093E+01 0.  1.
       -5    1    3    3    0  502  0.22180705810E+03  0.60320119254E+03 -0.72552045290E+03  0.96925335557E+03  0.46999998093E+01 0. -1.
</event>
<event>
 5   0  0.1408341E-04  0.1296956E+04  0.7818609E-02  0.9031982E-01
       -1   -1    0    0    0  501  0.00000000000E+00  0.00000000000E+00  0.30875698818E+03  0.30875698822E+03  0.50400001928E-02 0.  1.
        1   -1    0    0  501    0  0.00000000000E+00  0.00000000000E+00 -0.13619902204E+04  0.13619902204E+04  0.50400001928E-02 0. -1.
    10030    2    1    2    0    0  0.00000000000E+00  0.00000000000E+00 -0.10532332322E+04  0.16707472087E+04  0.12969564348E+04 0.  0.
        5    1    3    3  502    0 -0.62294142615E+02 -0.41580636265E+03 -0.11625866577E+04  0.12362869077E+04  0.46999998093E+01 0. -1.
       -5    1    3    3    0  502  0.62294142615E+02  0.41580636265E+03  0.10935342551E+03  0.43446030094E+03  0.46999998093E+01 0.  1.
</event>
<event>
 5   0  0.1479690E-04  0.1306395E+04  0.7818609E-02  0.9024509E-01
        1   -1    0    0  501    0  0.00000000000E+00  0.00000000000E+00  0.94742169145E+03  0.94742169146E+03  0.50400001928E-02 0.  1.
       -1   -1    0    0    0  501  0.00000000000E+00  0.00000000000E+00 -0.45034556938E+03  0.45034556941E+03  0.50400001928E-02 0. -1.
    10030    2    1    2    0    0  0.00000000000E+00  0.00000000000E+00  0.49707612207E+03  0.13977672609E+04  0.13063952864E+04 0.  0.
        1    1    3    3  502    0  0.51709461222E+03  0.26034044126E+03 -0.75113978067E+02  0.58378599938E+03  0.50400001928E-02 0.  1.
       -1    1    3    3    0  502 -0.51709461222E+03 -0.26034044126E+03  0.57219010013E+03  0.81398126149E+03  0.50400001928E-02 0. -1.
</event>
<event>
 5   0  0.1002887E-04  0.1296782E+04  0.7818609E-02  0.9032121E-01
        3   -1    0    0  501    0  0.00000000000E+00  0.00000000000E+00  0.58160181874E+03  0.58160182751E+03  0.10100000352E+00 0.  1.
       -3   -1    0    0    0  501  0.00000000000E+00  0.00000000000E+00 -0.72285014347E+03  0.72285015053E+03  0.10100000352E+00 0. -1.
    10030    2    1    2    0    0  0.00000000000E+00  0.00000000000E+00 -0.14124832473E+03  0.13044519780E+04  0.12967821227E+04 0.  0.
        1    1    3    3  502    0 -0.37688719845E+03  0.18031960477E+03  0.42814296187E+03  0.59821861894E+03  0.50400001928E-02 0.  1.
       -1    1    3    3    0  502  0.37688719845E+03 -0.18031960477E+03 -0.56939128661E+03  0.70623335910E+03  0.50400001928E-02 0. -1.
</event>
<event>
 5   0  0.2794825E-04  0.1298499E+04  0.7818609E-02  0.9030756E-01
        2   -1    0    0  501    0  0.00000000000E+00  0.00000000000E+00  0.35561867336E+03  0.35561867337E+03  0.25500000920E-02 0. -1.
       -2   -1    0    0    0  501  0.00000000000E+00  0.00000000000E+00 -0.11853289227E+04  0.11853289227E+04  0.25500000920E-02 0.  1.
    10030    2    1    2    0    0  0.00000000000E+00  0.00000000000E+00 -0.82971024937E+03  0.15409475961E+04  0.12984992861E+04 0.  0.
        1    1    3    3  502    0  0.60862060358E+03  0.84745489347E+02 -0.16614217926E+03  0.63655640820E+03  0.50400001928E-02 0. -1.
       -1    1    3    3    0  502 -0.60862060358E+03 -0.84745489347E+02 -0.66356807012E+03  0.90439118791E+03  0.50400001928E-02 0.  1.
</event>
<event>
 5   0  0.1479690E-04  0.1310867E+04  0.7818609E-02  0.9020991E-01
       -1   -1    0    0    0  501  0.00000000000E+00  0.00000000000E+00  0.28740020424E+03  0.28740020429E+03  0.50400001928E-02 0.  1.
        1   -1    0    0  501    0  0.00000000000E+00  0.00000000000E+00 -0.14947566746E+04  0.14947566746E+04  0.50400001928E-02 0. -1.
    10030    2    1    2    0    0  0.00000000000E+00  0.00000000000E+00 -0.12073564704E+04  0.17821568789E+04  0.13108674588E+04 0.  0.
        1    1    3    3  502    0 -0.27447346838E+03  0.93438542860E+02 -0.14028278562E+04  0.14324777277E+04  0.50400001928E-02 0. -1.
       -1    1    3    3    0  502  0.27447346838E+03 -0.93438542860E+02  0.19547138580E+03  0.34967915126E+03  0.50400001928E-02 0.  1.
</event>
<event>
 5   0  0.2573071E-04  0.1309712E+04  0.7818609E-02  0.9021899E-01
        2   -1    0    0  501    0  0.00000000000E+00  0.00000000000E+00  0.15550870988E+04  0.15550870988E+04  0.25500000920E-02 0.  1.
       -2   -1    0    0    0  501  0.00000000000E+00  0.00000000000E+00 -0.27576364616E+03  0.27576364617E+03  0.25500000920E-02 0. -1.
    10030    2    1    2    0    0  0.00000000000E+00  0.00000000000E+00  0.12793234527E+04  0.18308507450E+04  0.13097121645E+04 0.  0.
        4    1    3    3  502    0 -0.38007870494E+03 -0.43399527881E+03  0.20648505687E+03  0.61273927211E+03  0.12699999809E+01 0. -1.
       -4    1    3    3    0  502  0.38007870494E+03  0.43399527881E+03  0.10728383958E+04  0.12181114729E+04  0.12699999809E+01 0.  1.
</event>
<event>
 5   0  0.2661377E-04  0.1299825E+04  0.7818609E-02  0.9029704E-01
        2   -1    0    0  501    0  0.00000000000E+00  0.00000000000E+00  0.83938266158E+03  0.83938266158E+03  0.25500000920E-02 0.  1.
       -2   -1    0    0    0  501  0.00000000000E+00  0.00000000000E+00 -0.50321022127E+03  0.50321022128E+03  0.25500000920E-02 0. -1.
    10030    2    1    2    0    0  0.00000000000E+00  0.00000000000E+00  0.33617244030E+03  0.13425928829E+04  0.12998245033E+04 0.  0.
        5    1    3    3  502    0 -0.76663252266E+02  0.43219170789E+03  0.66312270156E+03  0.79524885032E+03  0.46999998093E+01 0. -1.
       -5    1    3    3    0  502  0.76663252266E+02 -0.43219170789E+03 -0.32695026126E+03  0.54734403254E+03  0.46999998093E+01 0.  1.
</event>
<event>
 5   0  0.1476511E-04  0.1298995E+04  0.7818609E-02  0.9030363E-01
        1   -1    0    0  501    0  0.00000000000E+00  0.00000000000E+00  0.14765894755E+04  0.14765894755E+04  0.50400001928E-02 0. -1.
       -1   -1    0    0    0  501  0.00000000000E+00  0.00000000000E+00 -0.28569008278E+03  0.28569008282E+03  0.50400001928E-02 0.  1.
    10030    2    1    2    0    0  0.00000000000E+00  0.00000000000E+00  0.11908993928E+04  0.17622795584E+04  0.12989949492E+04 0.  0.
        2    1    3    3  502    0 -0.47048422242E+03 -0.16182806573E+03  0.29053830126E+02  0.49838524402E+03  0.25500000920E-02 0.  1.
       -2    1    3    3    0  502  0.47048422242E+03  0.16182806573E+03  0.11618455626E+04  0.12638943143E+04  0.25500000920E-02 0. -1.
</event>
<event>
 5   0  0.1479690E-04  0.1299732E+04  0.7818609E-02  0.9029778E-01
       -1   -1    0    0    0  501  0.00000000000E+00  0.00000000000E+00  0.70989651352E+03  0.70989651354E+03  0.50400001928E-02 0.  1.
        1   -1    0    0  501    0  0.00000000000E+00  0.00000000000E+00 -0.59491164008E+03  0.59491164010E+03  0.50400001928E-02 0. -1.
    10030    2    1    2    0    0  0.00000000000E+00  0.00000000000E+00  0.11498487344E+03  0.13048081536E+04  0.12997318172E+04 0.  0.
        1    1    3    3  502    0 -0.37659543580E+02 -0.55706161431E+03  0.39134174344E+03  0.68182420281E+03  0.50400001928E-02 0.  1.
       -1    1    3    3    0  502  0.37659543580E+02  0.55706161431E+03 -0.27635686999E+03  0.62298395082E+03  0.50400001928E-02 0. -1.
</event>
<event>
 5   0  0.2723209E-04  0.1299374E+04  0.7818609E-02  0.9030062E-01
        2   -1    0    0  501    0  0.00000000000E+00  0.00000000000E+00  0.49912527643E+03  0.49912527643E+03  0.25500000920E-02 0. -1.
       -2   -1    0    0    0  501  0.00000000000E+00  0.00000000000E+00 -0.84566603125E+03  0.84566603126E+03  0.25500000920E-02 0.  1.
    10030    2    1    2    0    0  0.00000000000E+00  0.00000000000E+00 -0.34654075482E+03  0.13447913077E+04  0.12993741442E+04 0.  0.
        2    1    3    3  502    0 -0.67782523161E+02 -0.30016409608E+03 -0.76545923753E+03  0.82499745415E+03  0.25500000920E-02 0.  1.
       -2    1    3    3    0  502  0.67782523161E+02  0.30016409608E+03  0.41891848271E+03  0.51979385354E+03  0.25500000920E-02 0. -1.
</event>
<event>
 5   0  0.1475396E-04  0.1300236E+04  0.7818609E-02  0.9029378E-01
       -1   -1    0    0    0  501  0.00000000000E+00  0.00000000000E+00  0.58778464929E+03  0.58778464931E+03  0.50400001928E-02 0.  1.
        1   -1    0    0  501    0  0.00000000000E+00  0.00000000000E+00 -0.71906184877E+03  0.71906184879E+03  0.50400001928E-02 0. -1.
    10030    2    1    2    0    0  0.00000000000E+00  0.00000000000E+00 -0.13127719948E+03  0.13068464981E+04  0.13002361580E+04 0.  0.
        3    1    3    3  502    0  0.20023086139E+02 -0.63326015863E+03 -0.21209886626E+03  0.66813568364E+03  0.10100000352E+00 0. -1.
       -3    1    3    3    0  502 -0.20023086139E+02  0.63326015863E+03  0.80821666778E+02  0.63871081446E+03  0.10100000352E+00 0.  1.
</event>
<event>
 5   0  0.1475396E-04  0.1300828E+04  0.7818609E-02  0.9028909E-01
       -1   -1    0    0    0  501  0.00000000000E+00  0.00000000000E+00  0.29447735491E+03  0.29447735495E+03  0.50400001928E-02 0.  1.
        1   -1    0    0  501    0  0.00000000000E+00  0.00000000000E+00 -0.14365729838E+04  0.14365729839E+04  0.50400001928E-02 0. -1.
    10030    2    1    2    0    0  0.00000000000E+00  0.00000000000E+00 -0.11420956289E+04  0.17310503388E+04  0.13008277556E+04 0.  0.
        3    1    3    3  502    0  0.23986157358E+03  0.66718214861E+01  0.23342226387E+03  0.33475969165E+03  0.10100000352E+00 0.  1.
       -3    1    3    3    0  502 -0.23986157358E+03 -0.66718214861E+01 -0.13755178928E+04  0.13962906471E+04  0.10100000352E+00 0. -1.
</event>
<event>
 5   0  0.2723209E-04  0.1297307E+04  0.7818609E-02  0.9031703E-01
        2   -1    0    0  501    0  0.00000000000E+00  0.00000000000E+00  0.80763921416E+03  0.80763921416E+03  0.25500000920E-02 0.  1.
       -2   -1    0    0    0  501  0.00000000000E+00  0.00000000000E+00 -0.52096451175E+03  0.52096451176E+03  0.25500000920E-02 0. -1.
    10030    2    1    2    0    0  0.00000000000E+00  0.00000000000E+00  0.28667470240E+03  0.13286037259E+04  0.12973070090E+04 0.  0.
        2    1    3    3  502    0 -0.56617026366E+03  0.51399122006E+01  0.46747907761E+03  0.73424238107E+03  0.25500000920E-02 0.  1.
       -2    1    3    3    0  502  0.56617026366E+03 -0.51399122006E+01 -0.18080437520E+03  0.59436134485E+03  0.25500000920E-02 0. -1.
</event>
<event>
 5   0  0.1408341E-04  0.1299173E+04  0.7818609E-02  0.9030221E-01
        1   -1    0    0  501    0  0.00000000000E+00  0.00000000000E+00  0.29196854231E+03  0.29196854235E+03  0.50400001928E-02 0.  1.
       -1   -1    0    0    0  501  0.00000000000E+00  0.00000000000E+00 -0.14452328956E+04  0.14452328956E+04  0.50400001928E-02 0. -1.
    10030    2    1    2    0    0  0.00000000000E+00  0.00000000000E+00 -0.11532643533E+04  0.17372014379E+04  0.12991728782E+04 0.  0.
        5    1    3    3  502    0  0.62756558402E+03  0.15748113490E+03 -0.49979980062E+03  0.81759452101E+03  0.46999998093E+01 0. -1.
       -5    1    3    3    0  502 -0.62756558402E+03 -0.15748113490E+03 -0.65346455264E+03  0.91960691692E+03  0.46999998093E+01 0.  1.
</event>
<event>
 5   0  0.2756984E-04  0.1298037E+04  0.7818609E-02  0.9031124E-01
       -2   -1    0    0    0  501  0.00000000000E+00  0.00000000000E+00  0.10000111115E+04  0.10000111115E+04  0.25500000920E-02 0.  1.
        2   -1    0    0  501    0  0.00000000000E+00  0.00000000000E+00 -0.42122000885E+03  0.42122000886E+03  0.25500000920E-02 0. -1.
    10030    2    1    2    0    0  0.00000000000E+00  0.00000000000E+00  0.57879110262E+03  0.14212311203E+04  0.12980365006E+04 0.  0.
        3    1    3    3  502    0  0.21168755928E+03 -0.46391159890E+03  0.72899697409E+03  0.88964160918E+03  0.10100000352E+00 0.  1.
       -3    1    3    3    0  502 -0.21168755928E+03  0.46391159890E+03 -0.15020587147E+03  0.53158951116E+03  0.10100000352E+00 0. -1.
</event>
<event>
 5   0  0.2756984E-04  0.1297814E+04  0.7818609E-02  0.9031300E-01
       -2   -1    0    0    0  501  0.00000000000E+00  0.00000000000E+00  0.83793185420E+03  0.83793185420E+03  0.25500000920E-02 0. -1.
        2   -1    0    0  501    0  0.00000000000E+00  0.00000000000E+00 -0.50252330729E+03  0.50252330730E+03  0.25500000920E-02 0.  1.
    10030    2    1    2    0    0  0.00000000000E+00  0.00000000000E+00  0.33540854690E+03  0.13404551615E+04  0.12978139877E+04 0.  0.
        3    1    3    3  502    0  0.46209033711E+03 -0.33204890993E+03 -0.15446791261E+03  0.58961369087E+03  0.10100000352E+00 0.  1.
       -3    1    3    3    0  502 -0.46209033711E+03  0.33204890993E+03  0.48987645951E+03  0.75084147063E+03  0.10100000352E+00 0. -1.
</event>
<event>
 5   0  0.2723209E-04  0.1299462E+04  0.7818609E-02  0.9029992E-01
       -2   -1    0    0    0  501  0.00000000000E+00  0.00000000000E+00  0.48766740028E+03  0.48766740029E+03  0.25500000920E-02 0.  1.
        2   -1    0    0  501    0  0.00000000000E+00  0.00000000000E+00 -0.86565255743E+03  0.86565255744E+03  0.25500000920E-02 0. -1.
    10030    2    1    2    0    0  0.00000000000E+00  0.00000000000E+00 -0.37798515715E+03  0.13533199577E+04  0.12994622461E+04 0.  0.
        2    1    3    3  502    0  0.16522661464E+03  0.35550162048E+03 -0.72860772599E+03  0.82737564306E+03  0.25500000920E-02 0. -1.
       -2    1    3    3    0  502 -0.16522661464E+03 -0.35550162048E+03  0.35062256883E+03  0.52594431467E+03  0.25500000920E-02 0.  1.
</event>
<event>
 5   0  0.1430636E-04  0.1268129E+04  0.7818609E-02  0.9055228E-01
       -1   -1    0    0    0  501  0.00000000000E+00  0.00000000000E+00  0.43952547668E+03  0.43952547671E+03  0.50400001928E-02 0.  1.
        1   -1    0    0  501    0  0.00000000000E+00  0.00000000000E+00 -0.91470915403E+03  0.91470915404E+03  0.50400001928E-02 0. -1.
    10030    2    1    2    0    0  0.00000000000E+00  0.00000000000E+00 -0.47518367735E+03  0.13542346308E+04  0.12681292946E+04 0.  0.
        4    1    3    3  502    0  0.24144786720E+03 -0.51531216983E+03  0.61024366142E+02  0.57233669384E+03  0.12699999809E+01 0. -1.
       -4    1    3    3    0  502 -0.24144786720E+03  0.51531216983E+03 -0.53620804349E+03  0.78189793691E+03  0.12699999809E+01 0.  1.
</event>
<event>
 5   0  0.2794825E-04  0.1303318E+04  0.7818609E-02  0.9026938E-01
       -2   -1    0    0    0  501  0.00000000000E+00  0.00000000000E+00  0.59505095748E+03  0.59505095749E+03  0.25500000920E-02 0.  1.
        2   -1    0    0  501    0  0.00000000000E+00  0.00000000000E+00 -0.71365258442E+03  0.71365258443E+03  0.25500000920E-02 0. -1.
    10030    2    1    2    0    0  0.00000000000E+00  0.00000000000E+00 -0.11860162694E+03  0.13087035419E+04  0.13033183090E+04 0.  0.
        1    1    3    3  502    0 -0.26497090338E+03 -0.33749909540E+03 -0.55178063203E+03  0.69898289317E+03  0.50400001928E-02 0. -1.
       -1    1    3    3    0  502  0.26497090338E+03  0.33749909540E+03  0.43317900509E+03  0.60972064875E+03  0.50400001928E-02 0.  1.
</event>
<event>
 5   0  0.2723209E-04  0.1299796E+04  0.7818609E-02  0.9029727E-01
        2   -1    0    0  501    0  0.00000000000E+00  0.00000000000E+00  0.62950375633E+03  0.62950375633E+03  0.25500000920E-02 0.  1.
       -2   -1    0    0    0  501  0.00000000000E+00  0.00000000000E+00 -0.67095253929E+03  0.67095253929E+03  0.25500000920E-02 0. -1.
    10030    2    1    2    0    0  0.00000000000E+00  0.00000000000E+00 -0.41448782958E+02  0.13004562956E+04  0.12997955898E+04 0.  0.
        2    1    3    3  502    0 -0.23360820864E+03  0.52396879448E+02  0.58377550912E+03  0.63096122953E+03  0.25500000920E-02 0.  1.
       -2    1    3    3    0  502  0.23360820864E+03 -0.52396879448E+02 -0.62522429208E+03  0.66949506609E+03  0.25500000920E-02 0. -1.
</event>
<event>
 5   0  0.2794825E-04  0.1293682E+04  0.7818609E-02  0.9034591E-01
        2   -1    0    0  501    0  0.00000000000E+00  0.00000000000E+00  0.12816865314E+04  0.12816865314E+04  0.25500000920E-02 0. -1.
       -2   -1    0    0    0  501  0.00000000000E+00  0.00000000000E+00 -0.32644723658E+03  0.32644723659E+03  0.25500000920E-02 0.  1.
    10030    2    1    2    0    0  0.00000000000E+00  0.00000000000E+00  0.95523929481E+03  0.16081337680E+04  0.12936816090E+04 0.  0.
        1    1    3    3  502    0 -0.88269137456E+02 -0.10937989709E+03  0.12624745168E+04  0.12702745011E+04  0.50400001928E-02 0. -1.
       -1    1    3    3    0  502  0.88269137456E+02  0.10937989709E+03 -0.30723522204E+03  0.33785926686E+03  0.50400001928E-02 0.  1.
</event>
<event>
 5   0  0.2756984E-04  0.1299558E+04  0.7818609E-02  0.9029916E-01
       -2   -1    0    0    0  501  0.00000000000E+00  0.00000000000E+00  0.11473568344E+04  0.11473568344E+04  0.25500000920E-02 0.  1.
        2   -1    0    0  501    0  0.00000000000E+00  0.00000000000E+00 -0.36798704956E+03  0.36798704957E+03  0.25500000920E-02 0. -1.
    10030    2    1    2    0    0  0.00000000000E+00  0.00000000000E+00  0.77936978480E+03  0.15153438839E+04  0.12995575497E+04 0.  0.
        3    1    3    3  502    0 -0.13859867071E+03 -0.57272854751E+03  0.70382265106E+02  0.59344861117E+03  0.10100000352E+00 0.  1.
       -3    1    3    3    0  502  0.13859867071E+03  0.57272854751E+03  0.70898751969E+03  0.92189527276E+03  0.10100000352E+00 0. -1.
</event>
<event>
 5   0  0.1476511E-04  0.1300221E+04  0.7818609E-02  0.9029390E-01
        1   -1    0    0  501    0  0.00000000000E+00  0.00000000000E+00  0.10281588038E+04  0.10281588039E+04  0.50400001928E-02 0.  1.
       -1   -1    0    0    0  501  0.00000000000E+00  0.00000000000E+00 -0.41106828901E+03  0.41106828904E+03  0.50400001928E-02 0. -1.
    10030    2    1    2    0    0  0.00000000000E+00  0.00000000000E+00  0.61709051484E+03  0.14392270929E+04  0.13002207203E+04 0.  0.
        2    1    3    3  502    0  0.52680096646E+03 -0.37372818867E+03  0.22681765081E+03  0.68457159157E+03  0.25500000920E-02 0. -1.
       -2    1    3    3    0  502 -0.52680096646E+03  0.37372818867E+03  0.39027286403E+03  0.75465550132E+03  0.25500000920E-02 0.  1.
</event>
<event>
 5   0  0.2756984E-04  0.1298966E+04  0.7818609E-02  0.9030386E-01
       -2   -1    0    0    0  501  0.00000000000E+00  0.00000000000E+00  0.44019038286E+03  0.44019038287E+03  0.25500000920E-02 0. -1.
        2   -1    0    0  501    0  0.00000000000E+00  0.00000000000E+00 -0.95828566959E+03  0.95828566959E+03  0.25500000920E-02 0.  1.
    10030    2    1    2    0    0  0.00000000000E+00  0.00000000000E+00 -0.51809528673E+03  0.13984760525E+04  0.12989659515E+04 0.  0.
        3    1    3    3  502    0 -0.31771244682E+03 -0.27211031007E+02 -0.86820800579E+03  0.92491447745E+03  0.10100000352E+00 0.  1.
       -3    1    3    3    0  502  0.31771244682E+03  0.27211031007E+02  0.35011271906E+03  0.47356157501E+03  0.10100000352E+00 0. -1.
</event>
<event>
 5   0  0.2573071E-04  0.1298915E+04  0.7818609E-02  0.9030426E-01
       -2   -1    0    0    0  501  0.00000000000E+00  0.00000000000E+00  0.17055752198E+03  0.17055752200E+03  0.25500000920E-02 0.  1.
        2   -1    0    0  501    0  0.00000000000E+00  0.00000000000E+00 -0.24730351436E+04  0.24730351436E+04  0.25500000920E-02 0. -1.
    10030    2    1    2    0    0  0.00000000000E+00  0.00000000000E+00 -0.23024776216E+04  0.26435926656E+04  0.12989145405E+04 0.  0.
        4    1    3    3  502    0 -0.18849823980E+03  0.38526006661E+03 -0.15868750801E+03  0.45731853606E+03  0.12699999809E+01 0.  1.
       -4    1    3    3    0  502  0.18849823980E+03 -0.38526006661E+03 -0.21437901136E+04  0.21862741296E+04  0.12699999809E+01 0. -1.
</event>
<event>
 5   0  0.1479690E-04  0.1300881E+04  0.7818609E-02  0.9028866E-01
       -1   -1    0    0    0  501  0.00000000000E+00  0.00000000000E+00  0.26308092308E+03  0.26308092313E+03  0.50400001928E-02 0.  1.
        1   -1    0    0  501    0  0.00000000000E+00  0.00000000000E+00 -0.16081483117E+04  0.16081483118E+04  0.50400001928E-02 0. -1.
    10030    2    1    2    0    0  0.00000000000E+00  0.00000000000E+00 -0.13450673887E+04  0.18712292349E+04  0.13008814586E+04 0.  0.
        1    1    3    3  502    0  0.10284519183E+03  0.48379044012E+03 -0.12801631348E+04  0.13723876913E+04  0.50400001928E-02 0. -1.
       -1    1    3    3    0  502 -0.10284519183E+03 -0.48379044012E+03 -0.64904253863E+02  0.49884154360E+03  0.50400001928E-02 0.  1.
</event>
<event>
 5   0  0.1476511E-04  0.1300325E+04  0.7818609E-02  0.9029307E-01
        1   -1    0    0  501    0  0.00000000000E+00  0.00000000000E+00  0.15209190991E+04  0.15209190991E+04  0.50400001928E-02 0.  1.
       -1   -1    0    0    0  501  0.00000000000E+00  0.00000000000E+00 -0.27793154510E+03  0.27793154515E+03  0.50400001928E-02 0. -1.
    10030    2    1    2    0    0  0.00000000000E+00  0.00000000000E+00  0.12429875540E+04  0.17988506443E+04  0.13003251828E+04 0.  0.
        2    1    3    3  502    0  0.22386383937E+03  0.41244836495E+03 -0.10030166999E+01  0.46928635009E+03  0.25500000920E-02 0. -1.
       -2    1    3    3    0  502 -0.22386383937E+03 -0.41244836495E+03  0.12439905707E+04  0.13295642942E+04  0.25500000920E-02 0.  1.
</event>
<event>
 5   0  0.1408341E-04  0.1304027E+04  0.7818609E-02  0.9026378E-01
       -1   -1    0    0    0  501  0.00000000000E+00  0.00000000000E+00  0.82737430114E+03  0.82737430116E+03  0.50400001928E-02 0. -1.
        1   -1    0    0  501    0  0.00000000000E+00  0.00000000000E+00 -0.51382003280E+03  0.51382003283E+03  0.50400001928E-02 0.  1.
    10030    2    1    2    0    0  0.00000000000E+00  0.00000000000E+00  0.31355426834E+03  0.13411943340E+04  0.13040268258E+04 0.  0.
        5    1    3    3  502    0 -0.23748496224E+03 -0.49875260152E+03 -0.19942647456E+03  0.58732126947E+03  0.46999998093E+01 0.  1.
       -5    1    3    3    0  502  0.23748496224E+03  0.49875260152E+03  0.51298074290E+03  0.75387306451E+03  0.46999998093E+01 0. -1.
</event>
<event>
 5   0  0.1002887E-04  0.1299526E+04  0.7818609E-02  0.9029941E-01
       -3   -1    0    0    0  501  0.00000000000E+00  0.00000000000E+00  0.36916965136E+03  0.36916966518E+03  0.10100000352E+00 0. -1.
        3   -1    0    0  501    0  0.00000000000E+00  0.00000000000E+00 -0.11436252826E+04  0.11436252870E+04  0.10100000352E+00 0.  1.
    10030    2    1    2    0    0  0.00000000000E+00  0.00000000000E+00 -0.77445563121E+03  0.15127949522E+04  0.12995256991E+04 0.  0.
        4    1    3    3  502    0  0.15357295080E+03 -0.37033588953E+03 -0.98247203455E+03  0.10611249850E+04  0.12699999809E+01 0.  1.
       -4    1    3    3    0  502 -0.15357295080E+03  0.37033588953E+03  0.20801640334E+03  0.45166996718E+03  0.12699999809E+01 0. -1.
</event>
<event>
 5   0  0.1475396E-04  0.1301170E+04  0.7818609E-02  0.9028638E-01
       -1   -1    0    0    0  501  0.00000000000E+00  0.00000000000E+00  0.53571907385E+03  0.53571907388E+03  0.50400001928E-02 0.  1.
        1   -1    0    0  501    0  0.00000000000E+00  0.00000000000E+00 -0.79007998539E+03  0.79007998541E+03  0.50400001928E-02 0. -1.
    10030    2    1    2    0    0  0.00000000000E+00  0.00000000000E+00 -0.25436091154E+03  0.13257990593E+04  0.13011701166E+04 0.  0.
        3    1    3    3  502    0  0.57996080320E+03 -0.92805372615E+02  0.15792569315E+03  0.60820054685E+03  0.10100000352E+00 0.  1.
       -3    1    3    3    0  502 -0.57996080320E+03  0.92805372615E+02 -0.41228660469E+03  0.71759851243E+03  0.10100000352E+00 0. -1.
</event>
<event>
 5   0  0.2573071E-04  0.1300119E+04  0.7818609E-02  0.9029471E-01
       -2   -1    0    0    0  501  0.00000000000E+00  0.00000000000E+00  0.81914497254E+03  0.81914497255E+03  0.25500000920E-02 0.  1.
        2   -1    0    0  501    0  0.00000000000E+00  0.00000000000E+00 -0.51587614184E+03  0.51587614185E+03  0.25500000920E-02 0. -1.
    10030    2    1    2    0    0  0.00000000000E+00  0.00000000000E+00  0.30326883070E+03  0.13350211144E+04  0.13001189916E+04 0.  0.
        4    1    3    3  502    0  0.56885069963E+03  0.73339333260E+02 -0.16252984691E+03  0.59614372454E+03  0.12699999809E+01 0. -1.
       -4    1    3    3    0  502 -0.56885069963E+03 -0.73339333260E+02  0.46579867761E+03  0.73887738985E+03  0.12699999809E+01 0.  1.
</event>
<event>
 5   0  0.1479690E-04  0.1299809E+04  0.7818609E-02  0.9029717E-01
        1   -1    0    0  501    0  0.00000000000E+00  0.00000000000E+00  0.97406108055E+03  0.97406108056E+03  0.50400001928E-02 0.  1.
       -1   -1    0    0    0  501  0.00000000000E+00  0.00000000000E+00 -0.43362360568E+03  0.43362360571E+03  0.50400001928E-02 0. -1.
    10030    2    1    2    0    0  0.00000000000E+00  0.00000000000E+00  0.54043747487E+03  0.14076846863E+04  0.12998090289E+04 0.  0.
        1    1    3    3  502    0  0.47164713916E+02 -0.51250806291E+03 -0.15956303167E+03  0.53884077972E+03  0.50400001928E-02 0. -1.
       -1    1    3    3    0  502 -0.47164713916E+02  0.51250806291E+03  0.70000050653E+03  0.86884390655E+03  0.50400001928E-02 0.  1.
</event>
<event>
 5   0  0.2661377E-04  0.1299149E+04  0.7818609E-02  0.9030240E-01
        2   -1    0    0  501    0  0.00000000000E+00  0.00000000000E+00  0.11216234839E+04  0.11216234839E+04  0.25500000920E-02 0.  1.
       -2   -1    0    0    0  501  0.00000000000E+00  0.00000000000E+00 -0.37619301411E+03  0.37619301412E+03  0.25500000920E-02 0. -1.
    10030    2    1    2    0    0  0.00000000000E+00  0.00000000000E+00  0.74543046982E+03  0.14978164980E+04  0.12991488277E+04 0.  0.
        5    1    3    3  502    0 -0.47005681987E+03 -0.36752443054E+03  0.76755103223E+02  0.60161537283E+03  0.46999998093E+01 0. -1.
       -5    1    3    3    0  502  0.47005681987E+03  0.36752443054E+03  0.66867536659E+03  0.89620112522E+03  0.46999998093E+01 0.  1.
</event>
<event>
 5   0  0.2661377E-04  0.1300527E+04  0.7818609E-02  0.9029147E-01
        2   -1    0    0  501    0  0.00000000000E+00  0.00000000000E+00  0.47856277673E+03  0.47856277674E+03  0.25500000920E-02 0. -1.
       -2   -1    0    0    0  501  0.00000000000E+00  0.00000000000E+00 -0.88356766441E+03  0.88356766441E+03  0.25500000920E-02 0.  1.
    10030    2    1    2    0    0  0.00000000000E+00  0.00000000000E+00 -0.40500488768E+03  0.13621304411E+04  0.13005269623E+04 0.  0.
        5    1    3    3  502    0 -0.16468301384E+03  0.32743511573E+03 -0.76505344411E+03  0.84832960128E+03  0.46999998093E+01 0.  1.
       -5    1    3    3    0  502  0.16468301384E+03 -0.32743511573E+03  0.36004855644E+03  0.51380083987E+03  0.46999998093E+01 0. -1.
</event>
<event>
 5   0  0.2661377E-04  0.1299500E+04  0.7818609E-02  0.9029962E-01
       -2   -1    0    0    0  501  0.00000000000E+00  0.00000000000E+00  0.20211997835E+03  0.20211997836E+03  0.25500000920E-02 0. -1.
        2   -1    0    0  501    0  0.00000000000E+00  0.00000000000E+00 -0.20887338717E+04  0.20887338717E+04  0.25500000920E-02 0.  1.
    10030    2    1    2    0    0  0.00000000000E+00  0.00000000000E+00 -0.18866138934E+04  0.22908538501E+04  0.12994996652E+04 0.  0.
        5    1    3    3  502    0  0.29951966530E+03 -0.55934414836E+03 -0.69666302405E+03  0.94230534610E+03  0.46999998093E+01 0. -1.
       -5    1    3    3    0  502 -0.29951966530E+03  0.55934414836E+03 -0.11899508693E+04  0.13485485040E+04  0.46999998093E+01 0.  1.
</event>
<event>
 5   0  0.2723209E-04  0.1299701E+04  0.7818609E-02  0.9029802E-01
       -2   -1    0    0    0  501  0.00000000000E+00  0.00000000000E+00  0.20380155134E+03  0.20380155136E+03  0.25500000920E-02 0.  1.
        2   -1    0    0  501    0  0.00000000000E+00  0.00000000000E+00 -0.20721416525E+04  0.20721416525E+04  0.25500000920E-02 0. -1.
    10030    2    1    2    0    0  0.00000000000E+00  0.00000000000E+00 -0.18683401011E+04  0.22759432038E+04  0.12997010170E+04 0.  0.
        2    1    3    3  502    0 -0.23561796478E+03 -0.60268203327E+03 -0.10387143863E+04  0.12237928888E+04  0.25500000920E-02 0.  1.
       -2    1    3    3    0  502  0.23561796478E+03  0.60268203327E+03 -0.82962571488E+03  0.10521503150E+04  0.25500000920E-02 0. -1.
</event>
<event>
 5   0  0.1430636E-04  0.1299717E+04  0.7818609E-02  0.9029790E-01
        1   -1    0    0  501    0  0.00000000000E+00  0.00000000000E+00  0.15062936623E+04  0.15062936623E+04  0.50400001928E-02 0. -1.
       -1   -1    0    0    0  501  0.00000000000E+00  0.00000000000E+00 -0.28036770564E+03  0.28036770568E+03  0.50400001928E-02 0.  1.
    10030    2    1    2    0    0  0.00000000000E+00  0.00000000000E+00  0.12259259567E+04  0.17866613680E+04  0.12997170433E+04 0.  0.
        4    1    3    3  502    0 -0.60149825412E+03  0.12063764926E+03  0.90766808601E+03  0.10955439559E+04  0.12699999809E+01 0. -1.
       -4    1    3    3    0  502  0.60149825412E+03 -0.12063764926E+03  0.31825787069E+03  0.69111741209E+03  0.12699999809E+01 0.  1.
</event>
<event>
 5   0  0.2794825E-04  0.1302099E+04  0.7818609E-02  0.9027902E-01
       -2   -1    0    0    0  501  0.00000000000E+00  0.00000000000E+00  0.98714608671E+03  0.98714608671E+03  0.25500000920E-02 0. -1.
        2   -1    0    0  501    0  0.00000000000E+00  0.00000000000E+00 -0.42938476283E+03  0.42938476284E+03  0.25500000920E-02 0.  1.
    10030    2    1    2    0    0  0.00000000000E+00  0.00000000000E+00  0.55776132388E+03  0.14165308495E+04  0.13020990566E+04 0.  0.
        1    1    3    3  502    0  0.15886255032E+03 -0.30754729394E+03  0.87873997166E+03  0.94446100275E+03  0.50400001928E-02 0. -1.
       -1    1    3    3    0  502 -0.15886255032E+03  0.30754729394E+03 -0.32097864778E+03  0.47206984680E+03  0.50400001928E-02 0.  1.
</event>
<event>
 5   0  0.2661377E-04  0.1300740E+04  0.7818609E-02  0.9028979E-01
        2   -1    0    0  501    0  0.00000000000E+00  0.00000000000E+00  0.15944723573E+04  0.15944723573E+04  0.25500000920E-02 0. -1.
       -2   -1    0    0    0  501  0.00000000000E+00  0.00000000000E+00 -0.26527964683E+03  0.26527964685E+03  0.25500000920E-02 0.  1.
    10030    2    1    2    0    0  0.00000000000E+00  0.00000000000E+00  0.13291927104E+04  0.18597520041E+04  0.13007398876E+04 0.  0.
        5    1    3    3  502    0 -0.20197849509E+03 -0.52378152774E+03  0.11340658068E+04  0.12654128755E+04  0.46999998093E+01 0. -1.
       -5    1    3    3    0  502  0.20197849509E+03  0.52378152774E+03  0.19512690360E+03  0.59433912860E+03  0.46999998093E+01 0.  1.
</event>
<event>
 5   0  0.2573071E-04  0.1306685E+04  0.7818609E-02  0.9024281E-01
       -2   -1    0    0    0  501  0.00000000000E+00  0.00000000000E+00  0.93964246753E+03  0.93964246753E+03  0.25500000920E-02 0. -1.
        2   -1    0    0  501    0  0.00000000000E+00  0.00000000000E+00 -0.45427518186E+03  0.45427518187E+03  0.25500000920E-02 0.  1.
    10030    2    1    2    0    0  0.00000000000E+00  0.00000000000E+00  0.48536728567E+03  0.13939176494E+04  0.13066847406E+04 0.  0.
        4    1    3    3  502    0  0.99396246521E+02  0.73755645948E+01  0.93148340545E+03  0.93680145191E+03  0.12699999809E+01 0. -1.
       -4    1    3    3    0  502 -0.99396246521E+02 -0.73755645948E+01 -0.44611611979E+03  0.45711619749E+03  0.12699999809E+01 0.  1.
</event>
<event>
 5   0  0.2661377E-04  0.1305982E+04  0.7818609E-02  0.9024835E-01
       -2   -1    0    0    0  501  0.00000000000E+00  0.00000000000E+00  0.51748041054E+03  0.51748041054E+03  0.25500000920E-02 0. -1.
        2   -1    0    0  501    0  0.00000000000E+00  0.00000000000E+00 -0.82398713370E+03  0.82398713370E+03  0.25500000920E-02 0.  1.
    10030    2    1    2    0    0  0.00000000000E+00  0.00000000000E+00 -0.30650672316E+03  0.13414675442E+04  0.13059819298E+04 0.  0.
        5    1    3    3  502    0 -0.54749903890E+03 -0.30828900828E+03 -0.33578322834E+03  0.71243931437E+03  0.46999998093E+01 0.  1.
       -5    1    3    3    0  502  0.54749903890E+03  0.30828900828E+03  0.29276505178E+02  0.62902822987E+03  0.46999998093E+01 0. -1.
</event>
<event>
 5   0  0.2661377E-04  0.1310482E+04  0.7818609E-02  0.9021294E-01
       -2   -1    0    0    0  501  0.00000000000E+00  0.00000000000E+00  0.10463568886E+04  0.10463568886E+04  0.25500000920E-02 0.  1.
        2   -1    0    0  501    0  0.00000000000E+00  0.00000000000E+00 -0.41031958543E+03  0.41031958544E+03  0.25500000920E-02 0. -1.
    10030    2    1    2    0    0  0.00000000000E+00  0.00000000000E+00  0.63603730313E+03  0.14566764740E+04  0.13104819338E+04 0.  0.
        5    1    3    3  502    0  0.44630026835E+03 -0.47373346854E+03  0.40202261601E+03  0.76501738708E+03  0.46999998093E+01 0. -1.
       -5    1    3    3    0  502 -0.44630026835E+03  0.47373346854E+03  0.23401468712E+03  0.69165908693E+03  0.46999998093E+01 0.  1.
</event>
<event>
 5   0  0.1430636E-04  0.1300881E+04  0.7818609E-02  0.9028867E-01
       -1   -1    0    0    0  501  0.00000000000E+00  0.00000000000E+00  0.31756210945E+03  0.31756210949E+03  0.50400001928E-02 0. -1.
        1   -1    0    0  501    0  0.00000000000E+00  0.00000000000E+00 -0.13322513085E+04  0.13322513085E+04  0.50400001928E-02 0.  1.
    10030    2    1    2    0    0  0.00000000000E+00  0.00000000000E+00 -0.10146891991E+04  0.16498134180E+04  0.13008805262E+04 0.  0.
        4    1    3    3  502    0  0.41976997661E+03  0.37564984437E+03 -0.91976509895E+03  0.10785588018E+04  0.12699999809E+01 0.  1.
       -4    1    3    3    0  502 -0.41976997661E+03 -0.37564984437E+03 -0.94924100118E+02  0.57125461619E+03  0.12699999809E+01 0. -1.
</event>
<event>
 5   0  0.1475396E-04  0.1300563E+04  0.7818609E-02  0.9029119E-01
       -1   -1    0    0    0  501  0.00000000000E+00  0.00000000000E+00  0.10163154932E+04  0.10163154933E+04  0.50400001928E-02 0.  1.
        1   -1    0    0  501    0  0.00000000000E+00  0.00000000000E+00 -0.41607720776E+03  0.41607720779E+03  0.50400001928E-02 0. -1.
    10030    2    1    2    0    0  0.00000000000E+00  0.00000000000E+00  0.60023828549E+03  0.14323927011E+04  0.13005625132E+04 0.  0.
        3    1    3    3  502    0 -0.13400127876E+03  0.40297918163E+02 -0.39929939269E+03  0.42310788237E+03  0.10100000352E+00 0. -1.
       -3    1    3    3    0  502  0.13400127876E+03 -0.40297918163E+02  0.99953767818E+03  0.10092848187E+04  0.10100000352E+00 0.  1.
</event>
<event>
 5   0  0.1408341E-04  0.1300958E+04  0.7818609E-02  0.9028806E-01
       -1   -1    0    0    0  501  0.00000000000E+00  0.00000000000E+00  0.41932018994E+03  0.41932018997E+03  0.50400001928E-02 0. -1.
        1   -1    0    0  501    0  0.00000000000E+00  0.00000000000E+00 -0.10090688127E+04  0.10090688128E+04  0.50400001928E-02 0.  1.
    10030    2    1    2    0    0  0.00000000000E+00  0.00000000000E+00 -0.58974862281E+03  0.14283890027E+04  0.13009579951E+04 0.  0.
        5    1    3    3  502    0  0.10901719771E+03  0.43731465272E+03 -0.80982649823E+03  0.92680629158E+03  0.46999998093E+01 0.  1.
       -5    1    3    3    0  502 -0.10901719771E+03 -0.43731465272E+03  0.22007787542E+03  0.50158271115E+03  0.46999998093E+01 0. -1.
</event>
<event>
 5   0  0.2794825E-04  0.1300094E+04  0.7818609E-02  0.9029491E-01
        2   -1    0    0  501    0  0.00000000000E+00  0.00000000000E+00  0.75168467932E+03  0.75168467932E+03  0.25500000920E-02 0. -1.
       -2   -1    0    0    0  501  0.00000000000E+00  0.00000000000E+00 -0.56215177520E+03  0.56215177521E+03  0.25500000920E-02 0.  1.
    10030    2    1    2    0    0  0.00000000000E+00  0.00000000000E+00  0.18953290412E+03  0.13138364545E+04  0.13000936534E+04 0.  0.
        1    1    3    3  502    0 -0.23525270555E+03 -0.59519681318E+03 -0.20269137196E+02  0.64032329322E+03  0.50400001928E-02 0.  1.
       -1    1    3    3    0  502  0.23525270555E+03  0.59519681318E+03  0.20980204131E+03  0.67351316131E+03  0.50400001928E-02 0. -1.
</event>
<event>
 5   0  0.2661377E-04  0.1299777E+04  0.7818609E-02  0.9029742E-01
       -2   -1    0    0    0  501  0.00000000000E+00  0.00000000000E+00  0.24527427040E+03  0.24527427041E+03  0.25500000920E-02 0.  1.
        2   -1    0    0  501    0  0.00000000000E+00  0.00000000000E+00 -0.17219710864E+04  0.17219710864E+04  0.25500000920E-02 0. -1.
    10030    2    1    2    0    0  0.00000000000E+00  0.00000000000E+00 -0.14766968160E+04  0.19672453568E+04  0.12997772145E+04 0.  0.
        5    1    3    3  502    0 -0.25492468531E+03 -0.47930362349E+03 -0.12790276691E+04  0.13894791928E+04  0.46999998093E+01 0. -1.
       -5    1    3    3    0  502  0.25492468531E+03  0.47930362349E+03 -0.19766914682E+03  0.57776616401E+03  0.46999998093E+01 0.  1.
</event>
<event>
 5   0  0.1408341E-04  0.1301376E+04  0.7818609E-02  0.9028475E-01
        1   -1    0    0  501    0  0.00000000000E+00  0.00000000000E+00  0.51609331991E+03  0.51609331993E+03  0.50400001928E-02 0.  1.
       -1   -1    0    0    0  501  0.00000000000E+00  0.00000000000E+00 -0.82038431849E+03  0.82038431851E+03  0.50400001928E-02 0. -1.
    10030    2    1    2    0    0  0.00000000000E+00  0.00000000000E+00 -0.30429099859E+03  0.13364776384E+04  0.13013759896E+04 0.  0.
        5    1    3    3  502    0  0.53237893633E+03 -0.18112266818E+03 -0.48829678460E+03  0.74477418902E+03  0.46999998093E+01 0. -1.
       -5    1    3    3    0  502 -0.53237893633E+03  0.18112266818E+03  0.18400578601E+03  0.59170344943E+03  0.46999998093E+01 0.  1.
</event>
<event>
 5   0  0.1479690E-04  0.1315864E+04  0.7818609E-02  0.9017078E-01
       -1   -1    0    0    0  501  0.00000000000E+00  0.00000000000E+00  0.40256492014E+03  0.40256492018E+03  0.50400001928E-02 0. -1.
        1   -1    0    0  501    0  0.00000000000E+00  0.00000000000E+00 -0.10752919960E+04  0.10752919960E+04  0.50400001928E-02 0.  1.
    10030    2    1    2    0    0  0.00000000000E+00  0.00000000000E+00 -0.67272707581E+03  0.14778569161E+04  0.13158644862E+04 0.  0.
        1    1    3    3  502    0  0.39786655552E+02 -0.59262209007E+03 -0.65420668720E+03  0.88361208073E+03  0.50400001928E-02 0.  1.
       -1    1    3    3    0  502 -0.39786655552E+02  0.59262209007E+03 -0.18520388612E+02  0.59424483542E+03  0.50400001928E-02 0. -1.
</event>
<event>
 5   0  0.2573071E-04  0.1300526E+04  0.7818609E-02  0.9029148E-01
       -2   -1    0    0    0  501  0.00000000000E+00  0.00000000000E+00  0.12547870039E+04  0.12547870039E+04  0.25500000920E-02 0.  1.
        2   -1    0    0  501    0  0.00000000000E+00  0.00000000000E+00 -0.33698326706E+03  0.33698326707E+03  0.25500000920E-02 0. -1.
    10030    2    1    2    0    0  0.00000000000E+00  0.00000000000E+00  0.91780373682E+03  0.15917702709E+04  0.13005263919E+04 0.  0.
        4    1    3    3  502    0  0.17254814898E+03 -0.24255412306E+03 -0.24869734478E+03  0.38788831967E+03  0.12699999809E+01 0. -1.
       -4    1    3    3    0  502 -0.17254814898E+03  0.24255412306E+03  0.11665010816E+04  0.12038819513E+04  0.12699999809E+01 0.  1.
</event>
<event>
 5   0  0.1479690E-04  0.1299725E+04  0.7818609E-02  0.9029784E-01
       -1   -1    0    0    0  501  0.00000000000E+00  0.00000000000E+00  0.74855977039E+03  0.74855977040E+03  0.50400001928E-02 0.  1.
        1   -1    0    0  501    0  0.00000000000E+00  0.00000000000E+00 -0.56417816233E+03  0.56417816235E+03  0.50400001928E-02 0. -1.
    10030    2    1    2    0    0  0.00000000000E+00  0.00000000000E+00  0.18438160805E+03  0.13127379328E+04  0.12997247027E+04 0.  0.
        1    1    3    3  502    0  0.53198210342E+03  0.35719633855E+03  0.20156582346E+03  0.67173131819E+03  0.50400001928E-02 0.  1.
       -1    1    3    3    0  502 -0.53198210342E+03 -0.35719633855E+03 -0.17184215409E+02  0.64100661456E+03  0.50400001928E-02 0. -1.
</event>
<event>
 5   0  0.2573071E-04  0.1302194E+04  0.7818609E-02  0.9027827E-01
        2   -1    0    0  501    0  0.00000000000E+00  0.00000000000E+00  0.62948683843E+03  0.62948683844E+03  0.25500000920E-02 0.  1.
       -2   -1    0    0    0  501  0.00000000000E+00  0.00000000000E+00 -0.67344913504E+03  0.67344913504E+03  0.25500000920E-02 0. -1.
    10030    2    1    2    0    0  0.00000000000E+00  0.00000000000E+00 -0.43962296606E+02  0.13029359735E+04  0.13021940975E+04 0.  0.
        4    1    3    3  502    0  0.44047954985E+03 -0.17095001880E+03  0.42624684684E+03  0.63634434869E+03  0.12699999809E+01 0.  1.
       -4    1    3    3    0  502 -0.44047954985E+03  0.17095001880E+03 -0.47020914345E+03  0.66659162479E+03  0.12699999809E+01 0. -1.
</event>
<event>
 5   0  0.2794825E-04  0.1299319E+04  0.7818609E-02  0.9030105E-01
       -2   -1    0    0    0  501  0.00000000000E+00  0.00000000000E+00  0.58453946238E+03  0.58453946239E+03  0.25500000920E-02 0.  1.
        2   -1    0    0  501    0  0.00000000000E+00  0.00000000000E+00 -0.72203441924E+03  0.72203441924E+03  0.25500000920E-02 0. -1.
    10030    2    1    2    0    0  0.00000000000E+00  0.00000000000E+00 -0.13749495686E+03  0.13065738816E+04  0.12993192237E+04 0.  0.
        1    1    3    3  502    0 -0.40594841292E+01  0.54412479922E+03  0.28815579092E+03  0.61572886598E+03  0.50400001928E-02 0.  1.
       -1    1    3    3    0  502  0.40594841292E+01 -0.54412479922E+03 -0.42565074777E+03  0.69084501565E+03  0.50400001928E-02 0. -1.
</event>
<event>
 5   0  0.1002887E-04  0.1326103E+04  0.7818609E-02  0.9009118E-01
       -4   -1    0    0    0  501  0.00000000000E+00  0.00000000000E+00  0.60802758763E+03  0.60802891397E+03  0.12699999809E+01 0.  1.
        4   -1    0    0  501    0  0.00000000000E+00  0.00000000000E+00 -0.72305190046E+03  0.72305301580E+03  0.12699999809E+01 0. -1.
    10030    2    1    2    0    0  0.00000000000E+00  0.00000000000E+00 -0.11502431283E+03  0.13310819298E+04  0.13261027529E+04 0.  0.
        5    1    3    3  502    0 -0.56695113776E+03 -0.25275023541E+03  0.17638372889E+03  0.64532905089E+03  0.46999998093E+01 0.  1.
       -5    1    3    3    0  502  0.56695113776E+03  0.25275023541E+03 -0.29140804172E+03  0.68575287887E+03  0.46999998093E+01 0. -1.
</event>
<event>
 5   0  0.1479690E-04  0.1291782E+04  0.7818609E-02  0.9036108E-01
       -1   -1    0    0    0  501  0.00000000000E+00  0.00000000000E+00  0.93191202009E+03  0.93191202011E+03  0.50400001928E-02 0.  1.
        1   -1    0    0  501    0  0.00000000000E+00  0.00000000000E+00 -0.44765498922E+03  0.44765498925E+03  0.50400001928E-02 0. -1.
    10030    2    1    2    0    0  0.00000000000E+00  0.00000000000E+00  0.48425703087E+03  0.13795670094E+04  0.12917818165E+04 0.  0.
        1    1    3    3  502    0 -0.16711124393E+03  0.28226506482E+02 -0.42348541803E+03  0.45613901699E+03  0.50400001928E-02 0. -1.
       -1    1    3    3    0  502  0.16711124393E+03 -0.28226506482E+02  0.90774244890E+03  0.92342799236E+03  0.50400001928E-02 0.  1.
</event>
<event>
 5   0  0.1002887E-04  0.1298667E+04  0.7818609E-02  0.9030623E-01
       -3   -1    0    0    0  501  0.00000000000E+00  0.00000000000E+00  0.51247132938E+03  0.51247133933E+03  0.10100000352E+00 0. -1.
        3   -1    0    0  501    0  0.00000000000E+00  0.00000000000E+00 -0.82274678423E+03  0.82274679043E+03  0.10100000352E+00 0.  1.
    10030    2    1    2    0    0  0.00000000000E+00  0.00000000000E+00 -0.31027545485E+03  0.13352181298E+04  0.12986672384E+04 0.  0.
        2    1    3    3  502    0  0.11529426142E+03  0.45778507614E+03  0.30325144434E+03  0.56108945913E+03  0.25500000920E-02 0. -1.
       -2    1    3    3    0  502 -0.11529426142E+03 -0.45778507614E+03 -0.61352689919E+03  0.77412867063E+03  0.25500000920E-02 0.  1.
</event>
<event>
 5   0  0.2573071E-04  0.1295958E+04  0.7818609E-02  0.9032777E-01
        2   -1    0    0  501    0  0.00000000000E+00  0.00000000000E+00  0.90371043521E+03  0.90371043522E+03  0.25500000920E-02 0. -1.
       -2   -1    0    0    0  501  0.00000000000E+00  0.00000000000E+00 -0.46461405075E+03  0.46461405076E+03  0.25500000920E-02 0.  1.
    10030    2    1    2    0    0  0.00000000000E+00  0.00000000000E+00  0.43909638446E+03  0.13683244860E+04  0.12959576629E+04 0.  0.
        4    1    3    3  502    0 -0.32917850477E+03 -0.49768611962E+03 -0.47195198426E+02  0.59856408289E+03  0.12699999809E+01 0.  1.
       -4    1    3    3    0  502  0.32917850477E+03  0.49768611962E+03  0.48629158289E+03  0.76976040309E+03  0.12699999809E+01 0. -1.
</event>
<event>
 5   0  0.1430636E-04  0.1298001E+04  0.7818609E-02  0.9031152E-01
        1   -1    0    0  501    0  0.00000000000E+00  0.00000000000E+00  0.14926328551E+04  0.14926328551E+04  0.50400001928E-02 0.  1.
       -1   -1    0    0    0  501  0.00000000000E+00  0.00000000000E+00 -0.28218700294E+03  0.28218700299E+03  0.50400001928E-02 0. -1.
    10030    2    1    2    0    0  0.00000000000E+00  0.00000000000E+00  0.12104458521E+04  0.17748198581E+04  0.12980009120E+04 0.  0.
        4    1    3    3  502    0 -0.14980788161E+03 -0.46358657076E+03  0.11915031900E+04  0.12872592492E+04  0.12699999809E+01 0.  1.
       -4    1    3    3    0  502  0.14980788161E+03  0.46358657076E+03  0.18942662143E+02  0.48756060888E+03  0.12699999809E+01 0. -1.
</event>
<event>
 5   0  0.2573071E-04  0.1301876E+04  0.7818609E-02  0.9028079E-01
        2   -1    0    0  501    0  0.00000000000E+00  0.00000000000E+00  0.79405537116E+03  0.79405537116E+03  0.25500000920E-02 0. -1.
       -2   -1    0    0    0  501  0.00000000000E+00  0.00000000000E+00 -0.53361558077E+03  0.53361558078E+03  0.25500000920E-02 0.  1.
    10030    2    1    2    0    0  0.00000000000E+00  0.00000000000E+00  0.26043979039E+03  0.13276709519E+04  0.13018760587E+04 0.  0.
        4    1    3    3  502    0  0.13067392198E+03 -0.59098527918E+03  0.37450609406E+03  0.71175536631E+03  0.12699999809E+01 0. -1.
       -4    1    3    3    0  502 -0.13067392198E+03  0.59098527918E+03 -0.11406630367E+03  0.61591558563E+03  0.12699999809E+01 0.  1.
</event>
<event>
 5   0  0.1476511E-04  0.1300905E+04  0.7818609E-02  0.9028848E-01
        1   -1    0    0  501    0  0.00000000000E+00  0.00000000000E+00  0.66447461709E+03  0.66447461711E+03  0.50400001928E-02 0.  1.
       -1   -1    0    0    0  501  0.00000000000E+00  0.00000000000E+00 -0.63672629822E+03  0.63672629824E+03  0.50400001928E-02 0. -1.
    10030    2    1    2    0    0  0.00000000000E+00  0.00000000000E+00  0.27748318867E+02  0.13012009153E+04  0.13009050130E+04 0.  0.
        2    1    3    3  502    0  0.44779338241E+03 -0.12358684092E+03 -0.44152693400E+03  0.64088895609E+03  0.25500000920E-02 0. -1.
       -2    1    3    3    0  502 -0.44779338241E+03  0.12358684092E+03  0.46927525287E+03  0.66031195926E+03  0.25500000920E-02 0.  1.
</event>
<event>
 5   0  0.2794825E-04  0.1296191E+04  0.7818609E-02  0.9032592E-01
        2   -1    0    0  501    0  0.00000000000E+00  0.00000000000E+00  0.19451576430E+04  0.19451576430E+04  0.25500000920E-02 0. -1.
       -2   -1    0    0    0  501  0.00000000000E+00  0.00000000000E+00 -0.21593493541E+03  0.21593493543E+03  0.25500000920E-02 0.  1.
    10030    2    1    2    0    0  0.00000000000E+00  0.00000000000E+00  0.17292227076E+04  0.21610925784E+04  0.12961905570E+04 0.  0.
        1    1    3    3  502    0 -0.29340690871E+03 -0.39718980210E+03  0.16479676730E+03  0.52058172031E+03  0.50400001928E-02 0.  1.
       -1    1    3    3    0  502  0.29340690871E+03  0.39718980210E+03  0.15644259403E+04  0.16405108581E+04  0.50400001928E-02 0. -1.
</event>
<event>
 5   0  0.1475396E-04  0.1304724E+04  0.7818609E-02  0.9025827E-01
       -1   -1    0    0    0  501  0.00000000000E+00  0.00000000000E+00  0.34616434668E+03  0.34616434672E+03  0.50400001928E-02 0. -1.
        1   -1    0    0  501    0  0.00000000000E+00  0.00000000000E+00 -0.12294050751E+04  0.12294050751E+04  0.50400001928E-02 0.  1.
    10030    2    1    2    0    0  0.00000000000E+00  0.00000000000E+00 -0.88324072838E+03  0.15755694218E+04  0.13047240393E+04 0.  0.
        3    1    3    3  502    0  0.43376731105E+03 -0.48560556673E+03 -0.39317593467E+03  0.76062748594E+03  0.10100000352E+00 0. -1.
       -3    1    3    3    0  502 -0.43376731105E+03  0.48560556673E+03 -0.49006479372E+03  0.81494193585E+03  0.10100000352E+00 0.  1.
</event>
<event>
 5   0  0.1479690E-04  0.1302550E+04  0.7818609E-02  0.9027545E-01
       -1   -1    0    0    0  501  0.00000000000E+00  0.00000000000E+00  0.78731474656E+03  0.78731474657E+03  0.50400001928E-02 0. -1.
        1   -1    0    0  501    0  0.00000000000E+00  0.00000000000E+00 -0.53874169642E+03  0.53874169645E+03  0.50400001928E-02 0.  1.
    10030    2    1    2    0    0  0.00000000000E+00  0.00000000000E+00  0.24857305014E+03  0.13260564430E+04  0.13025502404E+04 0.  0.
        1    1    3    3  502    0 -0.49671064058E+02  0.86449788478E+02  0.77949917459E+03  0.78584969539E+03  0.50400001928E-02 0. -1.
       -1    1    3    3    0  502  0.49671064058E+02 -0.86449788478E+02 -0.53092612445E+03  0.54020674763E+03  0.50400001928E-02 0.  1.
</event>
<event>
 5   0  0.1475396E-04  0.1306309E+04  0.7818609E-02  0.9024577E-01
        1   -1    0    0  501    0  0.00000000000E+00  0.00000000000E+00  0.69569410088E+03  0.69569410090E+03  0.50400001928E-02 0.  1.
       -1   -1    0    0    0  501  0.00000000000E+00  0.00000000000E+00 -0.61321593603E+03  0.61321593605E+03  0.50400001928E-02 0. -1.
    10030    2    1    2    0    0  0.00000000000E+00  0.00000000000E+00  0.82478164853E+02  0.13089100369E+04  0.13063088598E+04 0.  0.
        3    1    3    3  502    0  0.46889627031E+03  0.32880924420E+03  0.35592091704E+03  0.67428402085E+03  0.10100000352E+00 0.  1.
       -3    1    3    3    0  502 -0.46889627031E+03 -0.32880924420E+03 -0.27344275218E+03  0.63462601610E+03  0.10100000352E+00 0. -1.
</event>
<event>
 5   0  0.2756984E-04  0.1299592E+04  0.7818609E-02  0.9029889E-01
        2   -1    0    0  501    0  0.00000000000E+00  0.00000000000E+00  0.13448010566E+04  0.13448010566E+04  0.25500000920E-02 0. -1.
       -2   -1    0    0    0  501  0.00000000000E+00  0.00000000000E+00 -0.31397581903E+03  0.31397581904E+03  0.25500000920E-02 0.  1.
    10030    2    1    2    0    0  0.00000000000E+00  0.00000000000E+00  0.10308252375E+04  0.16587768756E+04  0.12995922640E+04 0.  0.
        3    1    3    3  502    0 -0.14131355479E+03  0.14609811732E+03  0.13031803942E+04  0.13189364392E+04  0.10100000352E+00 0. -1.
       -3    1    3    3    0  502  0.14131355479E+03 -0.14609811732E+03 -0.27235515666E+03  0.33984043640E+03  0.10100000352E+00 0.  1.
</event>
<event>
 5   0  0.2723209E-04  0.1299776E+04  0.7818609E-02  0.9029742E-01
       -2   -1    0    0    0  501  0.00000000000E+00  0.00000000000E+00  0.11771675886E+04  0.11771675886E+04  0.25500000920E-02 0. -1.
        2   -1    0    0  501    0  0.00000000000E+00  0.00000000000E+00 -0.35878893022E+03  0.35878893023E+03  0.25500000920E-02 0.  1.
    10030    2    1    2    0    0  0.00000000000E+00  0.00000000000E+00  0.81837865837E+03  0.15359565188E+04  0.12997764420E+04 0.  0.
        2    1    3    3  502    0  0.37506302083E+03  0.41861248196E+03  0.23644418670E+02  0.56255465351E+03  0.25500000920E-02 0.  1.
       -2    1    3    3    0  502 -0.37506302083E+03 -0.41861248196E+03  0.79473423970E+03  0.97340186532E+03  0.25500000920E-02 0. -1.
</event>
<event>
 5   0  0.1430636E-04  0.1302600E+04  0.7818609E-02  0.9027506E-01
       -1   -1    0    0    0  501  0.00000000000E+00  0.00000000000E+00  0.67509643445E+03  0.67509643447E+03  0.50400001928E-02 0. -1.
        1   -1    0    0  501    0  0.00000000000E+00  0.00000000000E+00 -0.62834212634E+03  0.62834212636E+03  0.50400001928E-02 0.  1.
    10030    2    1    2    0    0  0.00000000000E+00  0.00000000000E+00  0.46754308109E+02  0.13034385608E+04  0.13025997530E+04 0.  0.
        4    1    3    3  502    0  0.13477262536E+03 -0.23142183879E+03 -0.57069715109E+03  0.63040985016E+03  0.12699999809E+01 0.  1.
       -4    1    3    3    0  502 -0.13477262536E+03  0.23142183879E+03  0.61745145920E+03  0.67302871067E+03  0.12699999809E+01 0. -1.
</event>
<event>
 5   0  0.2794825E-04  0.1298499E+04  0.7818609E-02  0.9030757E-01
        2   -1    0    0  501    0  0.00000000000E+00  0.00000000000E+00  0.13388170277E+04  0.13388170277E+04  0.25500000920E-02 0.  1.
       -2   -1    0    0    0  501  0.00000000000E+00  0.00000000000E+00 -0.31484862203E+03  0.31484862204E+03  0.25500000920E-02 0. -1.
    10030    2    1    2    0    0  0.00000000000E+00  0.00000000000E+00  0.10239684056E+04  0.16536656497E+04  0.12984986659E+04 0.  0.
        1    1    3    3  502    0 -0.39077977922E+03  0.37342303231E+03  0.53921604894E+02  0.54319530227E+03  0.50400001928E-02 0. -1.
       -1    1    3    3    0  502  0.39077977922E+03 -0.37342303231E+03  0.97004680074E+03  0.11104703474E+04  0.50400001928E-02 0.  1.
</event>
<event>
 5   0  0.1002887E-04  0.1297222E+04  0.7818609E-02  0.9031771E-01
       -4   -1    0    0    0  501  0.00000000000E+00  0.00000000000E+00  0.65925504463E+03  0.65925626791E+03  0.12699999809E+01 0.  1.
        4   -1    0    0  501    0  0.00000000000E+00  0.00000000000E+00 -0.63813632887E+03  0.63813759263E+03  0.12699999809E+01 0. -1.
    10030    2    1    2    0    0  0.00000000000E+00  0.00000000000E+00  0.21118715764E+02  0.12973938605E+04  0.12972219660E+04 0.  0.
        4    1    3    3  502    0  0.14398802200E+02  0.22968837652E+03 -0.59592887841E+03  0.63882463700E+03  0.12699999809E+01 0. -1.
       -4    1    3    3    0  502 -0.14398802200E+02 -0.22968837652E+03  0.61704759418E+03  0.65856922354E+03  0.12699999809E+01 0.  1.
</event>
<event>
 5   0  0.1430636E-04  0.1300653E+04  0.7818609E-02  0.9029047E-01
       -1   -1    0    0    0  501  0.00000000000E+00  0.00000000000E+00  0.50623521393E+03  0.50623521396E+03  0.50400001928E-02 0.  1.
        1   -1    0    0  501    0  0.00000000000E+00  0.00000000000E+00 -0.83543125366E+03  0.83543125367E+03  0.50400001928E-02 0. -1.
    10030    2    1    2    0    0  0.00000000000E+00  0.00000000000E+00 -0.32919603972E+03  0.13416664676E+04  0.13006532504E+04 0.  0.
        4    1    3    3  502    0 -0.17252706541E+03 -0.53470437769E+03 -0.50241318962E+03  0.75372076117E+03  0.12699999809E+01 0. -1.
       -4    1    3    3    0  502  0.17252706541E+03  0.53470437769E+03  0.17321714989E+03  0.58794570646E+03  0.12699999809E+01 0.  1.
</event>
<event>
 5   0  0.2794825E-04  0.1298532E+04  0.7818609E-02  0.9030730E-01
       -2   -1    0    0    0  501  0.00000000000E+00  0.00000000000E+00  0.83774656860E+03  0.83774656860E+03  0.25500000920E-02 0. -1.
        2   -1    0    0  501    0  0.00000000000E+00  0.00000000000E+00 -0.50319094149E+03  0.50319094150E+03  0.25500000920E-02 0.  1.
    10030    2    1    2    0    0  0.00000000000E+00  0.00000000000E+00  0.33455562710E+03  0.13409375101E+04  0.12985322246E+04 0.  0.
        1    1    3    3  502    0  0.62736334991E+03  0.14323922201E+03  0.78180234335E+02  0.64823945931E+03  0.50400001928E-02 0.  1.
       -1    1    3    3    0  502 -0.62736334991E+03 -0.14323922201E+03  0.25637539277E+03  0.69269805080E+03  0.50400001928E-02 0. -1.
</event>
<event>
 5   0  0.1479690E-04  0.1294427E+04  0.7818609E-02  0.9033996E-01
       -1   -1    0    0    0  501  0.00000000000E+00  0.00000000000E+00  0.26830037802E+03  0.26830037806E+03  0.50400001928E-02 0. -1.
        1   -1    0    0  501    0  0.00000000000E+00  0.00000000000E+00 -0.15612557687E+04  0.15612557687E+04  0.50400001928E-02 0.  1.
    10030    2    1    2    0    0  0.00000000000E+00  0.00000000000E+00 -0.12929553906E+04  0.18295561467E+04  0.12944273065E+04 0.  0.
        1    1    3    3  502    0 -0.15622856124E+03 -0.59919578415E+03 -0.91256896691E+03  0.11028259475E+04  0.50400001928E-02 0.  1.
       -1    1    3    3    0  502  0.15622856124E+03  0.59919578415E+03 -0.38038642373E+03  0.72673019923E+03  0.50400001928E-02 0. -1.
</event>
<event>
 5   0  0.2794825E-04  0.1299702E+04  0.7818609E-02  0.9029802E-01
       -2   -1    0    0    0  501  0.00000000000E+00  0.00000000000E+00  0.40574729978E+03  0.40574729979E+03  0.25500000920E-02 0. -1.
        2   -1    0    0  501    0  0.00000000000E+00  0.00000000000E+00 -0.10408109968E+04  0.10408109968E+04  0.25500000920E-02 0.  1.
    10030    2    1    2    0    0  0.00000000000E+00  0.00000000000E+00 -0.63506369701E+03  0.14465582966E+04  0.12997018913E+04 0.  0.
        1    1    3    3  502    0 -0.59642683611E+03  0.81828184239E+02 -0.45165924291E+02  0.60370587484E+03  0.50400001928E-02 0. -1.
       -1    1    3    3    0  502  0.59642683611E+03 -0.81828184239E+02 -0.58989777272E+03  0.84285242176E+03  0.50400001928E-02 0.  1.
</event>
<event>
 5   0  0.1430636E-04  0.1301955E+04  0.7818609E-02  0.9028016E-01
        1   -1    0    0  501    0  0.00000000000E+00  0.00000000000E+00  0.83134056302E+03  0.83134056303E+03  0.50400001928E-02 0. -1.
       -1   -1    0    0    0  501  0.00000000000E+00  0.00000000000E+00 -0.50974482543E+03  0.50974482545E+03  0.50400001928E-02 0.  1.
    10030    2    1    2    0    0  0.00000000000E+00  0.00000000000E+00  0.32159573759E+03  0.13410853885E+04  0.13019547614E+04 0.  0.
        4    1    3    3  502    0  0.26241629418E+03  0.21171456062E+03 -0.41279086834E+03  0.53299463460E+03  0.12699999809E+01 0.  1.
       -4    1    3    3    0  502 -0.26241629418E+03 -0.21171456062E+03  0.73438660593E+03  0.80809075388E+03  0.12699999809E+01 0. -1.
</event>
<event>
 5   0  0.2723209E-04  0.1298578E+04  0.7818609E-02  0.9030693E-01
        2   -1    0    0  501    0  0.00000000000E+00  0.00000000000E+00  0.35439764004E+03  0.35439764005E+03  0.25500000920E-02 0.  1.
       -2   -1    0    0    0  501  0.00000000000E+00  0.00000000000E+00 -0.11895578060E+04  0.11895578060E+04  0.25500000920E-02 0. -1.
    10030    2    1    2    0    0  0.00000000000E+00  0.00000000000E+00 -0.83516016599E+03  0.15439554461E+04  0.12985784214E+04 0.  0.
        2    1    3    3  502    0  0.98215231964E+02  0.60047028395E+03 -0.68704555572E+03  0.91773764733E+03  0.25500000920E-02 0. -1.
       -2    1    3    3    0  502 -0.98215231964E+02 -0.60047028395E+03 -0.14811461027E+03  0.62621779875E+03  0.25500000920E-02 0.  1.
</event>
<event>
 5   0  0.2723209E-04  0.1303532E+04  0.7818609E-02  0.9026769E-01
       -2   -1    0    0    0  501  0.00000000000E+00  0.00000000000E+00  0.75023836122E+03  0.75023836122E+03  0.25500000920E-02 0.  1.
        2   -1    0    0  501    0  0.00000000000E+00  0.00000000000E+00 -0.56621900918E+03  0.56621900919E+03  0.25500000920E-02 0. -1.
    10030    2    1    2    0    0  0.00000000000E+00  0.00000000000E+00  0.18401935203E+03  0.13164573704E+04  0.13035324646E+04 0.  0.
        2    1    3    3  502    0 -0.42153197133E+03 -0.16193316779E+02  0.59377376379E+03  0.72836715257E+03  0.25500000920E-02 0.  1.
       -2    1    3    3    0  502  0.42153197133E+03  0.16193316779E+02 -0.40975441176E+03  0.58809021785E+03  0.25500000920E-02 0. -1.
</event>
<event>
 5   0  0.1430636E-04  0.1295771E+04  0.7818609E-02  0.9032925E-01
        1   -1    0    0  501    0  0.00000000000E+00  0.00000000000E+00  0.63069995492E+03  0.63069995494E+03  0.50400001928E-02 0. -1.
       -1   -1    0    0    0  501  0.00000000000E+00  0.00000000000E+00 -0.66553965846E+03  0.66553965848E+03  0.50400001928E-02 0.  1.
    10030    2    1    2    0    0  0.00000000000E+00  0.00000000000E+00 -0.34839703538E+02  0.12962396134E+04  0.12957713264E+04 0.  0.
        4    1    3    3  502    0 -0.30551627767E+03  0.65808566396E+02 -0.58514874644E+03  0.66337895029E+03  0.12699999809E+01 0.  1.
       -4    1    3    3    0  502  0.30551627767E+03 -0.65808566396E+02  0.55030904290E+03  0.63286066312E+03  0.12699999809E+01 0. -1.
</event>
<event>
 5   0  0.1408341E-04  0.1299785E+04  0.7818609E-02  0.9029736E-01
        1   -1    0    0  501    0  0.00000000000E+00  0.00000000000E+00  0.33222544608E+03  0.33222544612E+03  0.50400001928E-02 0.  1.
       -1   -1    0    0    0  501  0.00000000000E+00  0.00000000000E+00 -0.12713060605E+04  0.12713060605E+04  0.50400001928E-02 0. -1.
    10030    2    1    2    0    0  0.00000000000E+00  0.00000000000E+00 -0.93908061440E+03  0.16035315066E+04  0.12997849408E+04 0.  0.
        5    1    3    3  502    0  0.47439752047E+03  0.41657444581E+03 -0.27941250117E+03  0.69042067766E+03  0.46999998093E+01 0. -1.
       -5    1    3    3    0  502 -0.47439752047E+03 -0.41657444581E+03 -0.65966811323E+03  0.91311082895E+03  0.46999998093E+01 0.  1.
</event>
<event>
 5   0  0.1476511E-04  0.1300428E+04  0.7818609E-02  0.9029226E-01
        1   -1    0    0  501    0  0.00000000000E+00  0.00000000000E+00  0.50329619135E+03  0.50329619137E+03  0.50400001928E-02 0.  1.
       -1   -1    0    0    0  501  0.00000000000E+00  0.00000000000E+00 -0.84001849639E+03  0.84001849641E+03  0.50400001928E-02 0. -1.
    10030    2    1    2    0    0  0.00000000000E+00  0.00000000000E+00 -0.33672230505E+03  0.13433146878E+04  0.13004277910E+04 0.  0.
        2    1    3    3  502    0  0.66861033908E+02  0.18748054439E+03 -0.80777332461E+03  0.83193575253E+03  0.25500000920E-02 0. -1.
       -2    1    3    3    0  502 -0.66861033908E+02 -0.18748054439E+03  0.47105101956E+03  0.51137893525E+03  0.25500000920E-02 0.  1.
</event>
<event>
 5   0  0.2756984E-04  0.1299653E+04  0.7818609E-02  0.9029840E-01
        2   -1    0    0  501    0  0.00000000000E+00  0.00000000000E+00  0.79232857092E+03  0.79232857092E+03  0.25500000920E-02 0. -1.
       -2   -1    0    0    0  501  0.00000000000E+00  0.00000000000E+00 -0.53295407123E+03  0.53295407124E+03  0.25500000920E-02 0.  1.
    10030    2    1    2    0    0  0.00000000000E+00  0.00000000000E+00  0.25937449968E+03  0.13252826422E+04  0.12996533963E+04 0.  0.
        3    1    3    3  502    0 -0.94577572233E+02 -0.36849299687E+03  0.66689947238E+03  0.76778051706E+03  0.10100000352E+00 0. -1.
       -3    1    3    3    0  502  0.94577572233E+02  0.36849299687E+03 -0.40752497270E+03  0.55750212510E+03  0.10100000352E+00 0.  1.
</event>
<event>
 5   0  0.1476511E-04  0.1299917E+04  0.7818609E-02  0.9029631E-01
       -1   -1    0    0    0  501  0.00000000000E+00  0.00000000000E+00  0.51262694902E+03  0.51262694904E+03  0.50400001928E-02 0. -1.
        1   -1    0    0  501    0  0.00000000000E+00  0.00000000000E+00 -0.82408108360E+03  0.82408108361E+03  0.50400001928E-02 0.  1.
    10030    2    1    2    0    0  0.00000000000E+00  0.00000000000E+00 -0.31145413458E+03  0.13367080327E+04  0.12999171845E+04 0.  0.
        2    1    3    3  502    0 -0.34827196292E+02 -0.62583465394E+03  0.21081829646E+02  0.62715738951E+03  0.25500000920E-02 0. -1.
       -2    1    3    3    0  502  0.34827196292E+02  0.62583465394E+03 -0.33253596422E+03  0.70955064314E+03  0.25500000920E-02 0.  1.
</event>
<event>
 5   0  0.1479690E-04  0.1300252E+04  0.7818609E-02  0.9029365E-01
        1   -1    0    0  501    0  0.00000000000E+00  0.00000000000E+00  0.90504653526E+03  0.90504653528E+03  0.50400001928E-02 0.  1.
       -1   -1    0    0    0  501  0.00000000000E+00  0.00000000000E+00 -0.46700787358E+03  0.46700787361E+03  0.50400001928E-02 0. -1.
    10030    2    1    2    0    0  0.00000000000E+00  0.00000000000E+00  0.43803866168E+03  0.13720544089E+04  0.13002520647E+04 0.  0.
        1    1    3    3  502    0  0.23337182863E+03  0.34509243338E+03  0.74569309046E+03  0.85417175273E+03  0.50400001928E-02 0.  1.
       -1    1    3    3    0  502 -0.23337182863E+03 -0.34509243338E+03 -0.30765442878E+03  0.51788265616E+03  0.50400001928E-02 0. -1.
</event>
<event>
 5   0  0.2794825E-04  0.1302145E+04  0.7818609E-02  0.9027866E-01
        2   -1    0    0  501    0  0.00000000000E+00  0.00000000000E+00  0.93940597944E+03  0.93940597944E+03  0.25500000920E-02 0.  1.
       -2   -1    0    0    0  501  0.00000000000E+00  0.00000000000E+00 -0.45123793470E+03  0.45123793471E+03  0.25500000920E-02 0. -1.
    10030    2    1    2    0    0  0.00000000000E+00  0.00000000000E+00  0.48816804473E+03  0.13906439141E+04  0.13021453283E+04 0.  0.
        1    1    3    3  502    0  0.60489364110E+03  0.68302496564E+02  0.49072136303E+03  0.78190089157E+03  0.50400001928E-02 0.  1.
       -1    1    3    3    0  502 -0.60489364110E+03 -0.68302496564E+02 -0.25533182969E+01  0.60874302258E+03  0.50400001928E-02 0. -1.
</event>
<event>
 5   0  0.1408341E-04  0.1300764E+04  0.7818609E-02  0.9028960E-01
       -1   -1    0    0    0  501  0.00000000000E+00  0.00000000000E+00  0.28138199338E+03  0.28138199343E+03  0.50400001928E-02 0. -1.
        1   -1    0    0  501    0  0.00000000000E+00  0.00000000000E+00 -0.15032828171E+04  0.15032828171E+04  0.50400001928E-02 0.  1.
    10030    2    1    2    0    0  0.00000000000E+00  0.00000000000E+00 -0.12219008237E+04  0.17846648106E+04  0.13007639536E+04 0.  0.
        5    1    3    3  502    0 -0.38025624070E+02 -0.46943966325E+03  0.44016635826E+01  0.47102124173E+03  0.46999998093E+01 0. -1.
       -5    1    3    3    0  502  0.38025624070E+02  0.46943966325E+03 -0.12263024873E+04  0.13136435688E+04  0.46999998093E+01 0.  1.
</event>
<event>
 5   0  0.1408341E-04  0.1301637E+04  0.7818609E-02  0.9028268E-01
        1   -1    0    0  501    0  0.00000000000E+00  0.00000000000E+00  0.15768941621E+04  0.15768941621E+04  0.50400001928E-02 0.  1.
       -1   -1    0    0    0  501  0.00000000000E+00  0.00000000000E+00 -0.26860686884E+03  0.26860686888E+03  0.50400001928E-02 0. -1.
    10030    2    1    2    0    0  0.00000000000E+00  0.00000000000E+00  0.13082872933E+04  0.18455010310E+04  0.13016368210E+04 0.  0.
        5    1    3    3  502    0  0.27128127830E+03 -0.45639110309E+01  0.14928576774E+04  0.15173201694E+04  0.46999998093E+01 0.  1.
       -5    1    3    3    0  502 -0.27128127830E+03  0.45639110309E+01 -0.18457038417E+03  0.32818086165E+03  0.46999998093E+01 0. -1.
</event>
<event>
 5   0  0.2723209E-04  0.1300400E+04  0.7818609E-02  0.9029248E-01
       -2   -1    0    0    0  501  0.00000000000E+00  0.00000000000E+00  0.29676171357E+03  0.29676171358E+03  0.25500000920E-02 0.  1.
        2   -1    0    0  501    0  0.00000000000E+00  0.00000000000E+00 -0.14245777863E+04  0.14245777863E+04  0.25500000920E-02 0. -1.
    10030    2    1    2    0    0  0.00000000000E+00  0.00000000000E+00 -0.11278160727E+04  0.17213394998E+04  0.13004001614E+04 0.  0.
        2    1    3    3  502    0 -0.19804620787E+03 -0.39963439727E+03  0.62343572482E+02  0.45035172140E+03  0.25500000920E-02 0.  1.
       -2    1    3    3    0  502  0.19804620787E+03  0.39963439727E+03 -0.11901596452E+04  0.12709877784E+04  0.25500000920E-02 0. -1.
</event>
<event>
 5   0  0.2723209E-04  0.1299047E+04  0.7818609E-02  0.9030321E-01
        2   -1    0    0  501    0  0.00000000000E+00  0.00000000000E+00  0.69967012034E+03  0.69967012035E+03  0.25500000920E-02 0.  1.
       -2   -1    0    0    0  501  0.00000000000E+00  0.00000000000E+00 -0.60297105340E+03  0.60297105340E+03  0.25500000920E-02 0. -1.
    10030    2    1    2    0    0  0.00000000000E+00  0.00000000000E+00  0.96699066948E+02  0.13026411738E+04  0.12990470807E+04 0.  0.
        2    1    3    3  502    0 -0.14280808694E+02  0.49288432059E+03  0.47229806656E+03  0.68279159241E+03  0.25500000920E-02 0.  1.
       -2    1    3    3    0  502  0.14280808694E+02 -0.49288432059E+03 -0.37559899961E+03  0.61984958135E+03  0.25500000920E-02 0. -1.
</event>
<event>
 5   0  0.1475396E-04  0.1299699E+04  0.7818609E-02  0.9029804E-01
       -1   -1    0    0    0  501  0.00000000000E+00  0.00000000000E+00  0.40992771417E+03  0.40992771420E+03  0.50400001928E-02 0. -1.
        1   -1    0    0  501    0  0.00000000000E+00  0.00000000000E+00 -0.10301919981E+04  0.10301919981E+04  0.50400001928E-02 0.  1.
    10030    2    1    2    0    0  0.00000000000E+00  0.00000000000E+00 -0.62026428392E+03  0.14401197123E+04  0.12996988128E+04 0.  0.
        3    1    3    3  502    0  0.64214560138E+03  0.39080819226E+02 -0.20842171182E+03  0.67625284026E+03  0.10100000352E+00 0. -1.
       -3    1    3    3    0  502 -0.64214560138E+03 -0.39080819226E+02 -0.41184257210E+03  0.76386687204E+03  0.10100000352E+00 0.  1.
</event>
<event>
 5   0  0.2661377E-04  0.1300113E+04  0.7818609E-02  0.9029476E-01
        2   -1    0    0  501    0  0.00000000000E+00  0.00000000000E+00  0.59725321897E+03  0.59725321898E+03  0.25500000920E-02 0.  1.
       -2   -1    0    0    0  501  0.00000000000E+00  0.00000000000E+00 -0.70752776384E+03  0.70752776384E+03  0.25500000920E-02 0. -1.
    10030    2    1    2    0    0  0.00000000000E+00  0.00000000000E+00 -0.11027454487E+03  0.13047809828E+04  0.13001126635E+04 0.  0.
        5    1    3    3  502    0 -0.18011943642E+03  0.48226672643E+03 -0.45345904412E+03  0.68605495515E+03  0.46999998093E+01 0. -1.
       -5    1    3    3    0  502  0.18011943642E+03 -0.48226672643E+03  0.34318449925E+03  0.61872602767E+03  0.46999998093E+01 0.  1.
</event>
<event>
 5   0  0.1430636E-04  0.1300529E+04  0.7818609E-02  0.9029146E-01
       -1   -1    0    0    0  501  0.00000000000E+00  0.00000000000E+00  0.34554449524E+03  0.34554449528E+03  0.50400001928E-02 0. -1.
        1   -1    0    0  501    0  0.00000000000E+00  0.00000000000E+00 -0.12237026117E+04  0.12237026117E+04  0.50400001928E-02 0.  1.
    10030    2    1    2    0    0  0.00000000000E+00  0.00000000000E+00 -0.87815811648E+03  0.15692471070E+04  0.13005286638E+04 0.  0.
        4    1    3    3  502    0  0.48990101617E+02 -0.63418012235E+03 -0.60211885239E+03  0.87586139482E+03  0.12699999809E+01 0. -1.
       -4    1    3    3    0  502 -0.48990101617E+02  0.63418012235E+03 -0.27603926409E+03  0.69338571218E+03  0.12699999809E+01 0.  1.
</event>
<event>
 5   0  0.2723209E-04  0.1297993E+04  0.7818609E-02  0.9031158E-01
       -2   -1    0    0    0  501  0.00000000000E+00  0.00000000000E+00  0.40184800753E+03  0.40184800754E+03  0.25500000920E-02 0. -1.
        2   -1    0    0  501    0  0.00000000000E+00  0.00000000000E+00 -0.10481482931E+04  0.10481482931E+04  0.25500000920E-02 0.  1.
    10030    2    1    2    0    0  0.00000000000E+00  0.00000000000E+00 -0.64630028558E+03  0.14499963007E+04  0.12979927630E+04 0.  0.
        2    1    3    3  502    0  0.99237409266E+02  0.27144567731E+03  0.32598923962E+03  0.43566019267E+03  0.25500000920E-02 0. -1.
       -2    1    3    3    0  502 -0.99237409266E+02 -0.27144567731E+03 -0.97228952520E+03  0.10143361080E+04  0.25500000920E-02 0.  1.
</event>
<event>
 5   0  0.1408341E-04  0.1300065E+04  0.7818609E-02  0.9029514E-01
        1   -1    0    0  501    0  0.00000000000E+00  0.00000000000E+00  0.49522388595E+03  0.49522388598E+03  0.50400001928E-02 0. -1.
       -1   -1    0    0    0  501  0.00000000000E+00  0.00000000000E+00 -0.85323495930E+03  0.85323495931E+03  0.50400001928E-02 0.  1.
    10030    2    1    2    0    0  0.00000000000E+00  0.00000000000E+00 -0.35801107334E+03  0.13484588453E+04  0.13000651248E+04 0.  0.
        5    1    3    3  502    0  0.48439376137E+03 -0.22026956506E+03 -0.56621705807E+03  0.77703271759E+03  0.46999998093E+01 0.  1.
       -5    1    3    3    0  502 -0.48439376137E+03  0.22026956506E+03  0.20820598473E+03  0.57142612771E+03  0.46999998093E+01 0. -1.
</event>
<event>
 5   0  0.1408341E-04  0.1302256E+04  0.7818609E-02  0.9027778E-01
        1   -1    0    0  501    0  0.00000000000E+00  0.00000000000E+00  0.72581071167E+03  0.72581071169E+03  0.50400001928E-02 0.  1.
       -1   -1    0    0    0  501  0.00000000000E+00  0.00000000000E+00 -0.58413012744E+03  0.58413012746E+03  0.50400001928E-02 0. -1.
    10030    2    1    2    0    0  0.00000000000E+00  0.00000000000E+00  0.14168058423E+03  0.13099408391E+04  0.13022563550E+04 0.  0.
        5    1    3    3  502    0 -0.43000268846E+03 -0.43533871074E+03  0.29469270265E+03  0.67918184910E+03  0.46999998093E+01 0.  1.
       -5    1    3    3    0  502  0.43000268846E+03  0.43533871074E+03 -0.15301211842E+03  0.63075899005E+03  0.46999998093E+01 0. -1.
</event>
<event>
 5   0  0.1476511E-04  0.1299583E+04  0.7818609E-02  0.9029896E-01
       -1   -1    0    0    0  501  0.00000000000E+00  0.00000000000E+00  0.55685152979E+03  0.55685152981E+03  0.50400001928E-02 0.  1.
        1   -1    0    0  501    0  0.00000000000E+00  0.00000000000E+00 -0.75824378048E+03  0.75824378050E+03  0.50400001928E-02 0. -1.
    10030    2    1    2    0    0  0.00000000000E+00  0.00000000000E+00 -0.20139225069E+03  0.13150953103E+04  0.12995833319E+04 0.  0.
        2    1    3    3  502    0 -0.35585681131E+02  0.46697742528E+03  0.35511898522E+03  0.58774463000E+03  0.25500000920E-02 0.  1.
       -2    1    3    3    0  502  0.35585681131E+02 -0.46697742528E+03 -0.55651123592E+03  0.72735068030E+03  0.25500000920E-02 0. -1.
</event>
<event>
 5   0  0.1408341E-04  0.1298883E+04  0.7818609E-02  0.9030451E-01
       -1   -1    0    0    0  501  0.00000000000E+00  0.00000000000E+00  0.31328886101E+03  0.31328886105E+03  0.50400001928E-02 0.  1.
        1   -1    0    0  501    0  0.00000000000E+00  0.00000000000E+00 -0.13462799718E+04  0.13462799718E+04  0.50400001928E-02 0. -1.
    10030    2    1    2    0    0  0.00000000000E+00  0.00000000000E+00 -0.10329911108E+04  0.16595688328E+04  0.12988833959E+04 0.  0.
        5    1    3    3  502    0 -0.41212784945E+03 -0.34241597860E+03 -0.47644045691E+02  0.53794991568E+03  0.46999998093E+01 0.  1.
       -5    1    3    3    0  502  0.41212784945E+03  0.34241597860E+03 -0.98534706507E+03  0.11216189172E+04  0.46999998093E+01 0. -1.
</event>
<event>
 5   0  0.2723209E-04  0.1299630E+04  0.7818609E-02  0.9029858E-01
        2   -1    0    0  501    0  0.00000000000E+00  0.00000000000E+00  0.15477573984E+04  0.15477573984E+04  0.25500000920E-02 0. -1.
       -2   -1    0    0    0  501  0.00000000000E+00  0.00000000000E+00 -0.27282032524E+03  0.27282032526E+03  0.25500000920E-02 0.  1.
    10030    2    1    2    0    0  0.00000000000E+00  0.00000000000E+00  0.12749370732E+04  0.18205777237E+04  0.12996302195E+04 0.  0.
        2    1    3    3  502    0 -0.63475150894E+03 -0.10103012157E+03  0.50352046256E+03  0.81648601935E+03  0.25500000920E-02 0.  1.
       -2    1    3    3    0  502  0.63475150894E+03  0.10103012157E+03  0.77141661061E+03  0.10040917043E+04  0.25500000920E-02 0. -1.
</event>
<event>
 5   0  0.2723209E-04  0.1301289E+04  0.7818609E-02  0.9028543E-01
        2   -1    0    0  501    0  0.00000000000E+00  0.00000000000E+00  0.18940546925E+04  0.18940546925E+04  0.25500000920E-02 0.  1.
       -2   -1    0    0    0  501  0.00000000000E+00  0.00000000000E+00 -0.22350916557E+03  0.22350916558E+03  0.25500000920E-02 0. -1.
    10030    2    1    2    0    0  0.00000000000E+00  0.00000000000E+00  0.16705455269E+04  0.21175638580E+04  0.13012894895E+04 0.  0.
        2    1    3    3  502    0  0.85430523701E+02 -0.17886547782E+03 -0.17317865343E+03  0.26321489233E+03  0.25500000920E-02 0. -1.
       -2    1    3    3    0  502 -0.85430523701E+02  0.17886547782E+03  0.18437241803E+04  0.18543489657E+04  0.25500000920E-02 0.  1.
</event>
<event>
 5   0  0.1430636E-04  0.1301631E+04  0.7818609E-02  0.9028273E-01
       -1   -1    0    0    0  501  0.00000000000E+00  0.00000000000E+00  0.26754756426E+03  0.26754756431E+03  0.50400001928E-02 0.  1.
        1   -1    0    0  501    0  0.00000000000E+00  0.00000000000E+00 -0.15831229409E+04  0.15831229409E+04  0.50400001928E-02 0. -1.
    10030    2    1    2    0    0  0.00000000000E+00  0.00000000000E+00 -0.13155753766E+04  0.18506705052E+04  0.13016308030E+04 0.  0.
        4    1    3    3  502    0 -0.36862275295E+02  0.61549755904E+03 -0.95386215327E+03  0.11358039852E+04  0.12699999809E+01 0. -1.
       -4    1    3    3    0  502  0.36862275295E+02 -0.61549755904E+03 -0.36171322333E+03  0.71486651996E+03  0.12699999809E+01 0.  1.
</event>
<event>
 5   0  0.2573071E-04  0.1298989E+04  0.7818609E-02  0.9030368E-01
       -2   -1    0    0    0  501  0.00000000000E+00  0.00000000000E+00  0.25070810909E+03  0.25070810910E+03  0.25500000920E-02 0.  1.
        2   -1    0    0  501    0  0.00000000000E+00  0.00000000000E+00 -0.16826052578E+04  0.16826052578E+04  0.25500000920E-02 0. -1.
    10030    2    1    2    0    0  0.00000000000E+00  0.00000000000E+00 -0.14318971487E+04  0.19333133669E+04  0.12989885027E+04 0.  0.
        4    1    3    3  502    0  0.22922084624E+03  0.51855022986E+03 -0.24434854688E+03  0.61736890309E+03  0.12699999809E+01 0.  1.
       -4    1    3    3    0  502 -0.22922084624E+03 -0.51855022986E+03 -0.11875486018E+04  0.13159444638E+04  0.12699999809E+01 0. -1.
</event>
<event>
 5   0  0.1002887E-04  0.1299055E+04  0.7818609E-02  0.9030315E-01
        3   -1    0    0  501    0  0.00000000000E+00  0.00000000000E+00  0.19391381775E+03  0.19391384405E+03  0.10100000352E+00 0.  1.
       -3   -1    0    0    0  501  0.00000000000E+00  0.00000000000E+00 -0.21756357327E+04  0.21756357350E+04  0.10100000352E+00 0. -1.
    10030    2    1    2    0    0  0.00000000000E+00  0.00000000000E+00 -0.19817219149E+04  0.23695495791E+04  0.12990548332E+04 0.  0.
        4    1    3    3  502    0 -0.22992481333E+03  0.49020648562E+03 -0.16452790778E+04  0.17320833338E+04  0.12699999809E+01 0. -1.
       -4    1    3    3    0  502  0.22992481333E+03 -0.49020648562E+03 -0.33644283708E+03  0.63746624527E+03  0.12699999809E+01 0.  1.
</event>
<event>
 5   0  0.1408341E-04  0.1297405E+04  0.7818609E-02  0.9031626E-01
        1   -1    0    0  501    0  0.00000000000E+00  0.00000000000E+00  0.53364571439E+03  0.53364571441E+03  0.50400001928E-02 0.  1.
       -1   -1    0    0    0  501  0.00000000000E+00  0.00000000000E+00 -0.78856614574E+03  0.78856614576E+03  0.50400001928E-02 0. -1.
    10030    2    1    2    0    0  0.00000000000E+00  0.00000000000E+00 -0.25492043135E+03  0.13222118602E+04  0.12974050165E+04 0.  0.
        5    1    3    3  502    0 -0.12078418837E+03  0.14880779163E+03  0.50411513227E+03  0.53933916564E+03  0.46999998093E+01 0.  1.
       -5    1    3    3    0  502  0.12078418837E+03 -0.14880779163E+03 -0.75903556362E+03  0.78287269453E+03  0.46999998093E+01 0. -1.
</event>
<event>
 5   0  0.1475396E-04  0.1297637E+04  0.7818609E-02  0.9031441E-01
       -1   -1    0    0    0  501  0.00000000000E+00  0.00000000000E+00  0.20093828634E+03  0.20093828640E+03  0.50400001928E-02 0.  1.
        1   -1    0    0  501    0  0.00000000000E+00  0.00000000000E+00 -0.20950002224E+04  0.20950002224E+04  0.50400001928E-02 0. -1.
    10030    2    1    2    0    0  0.00000000000E+00  0.00000000000E+00 -0.18940619360E+04  0.22959385088E+04  0.12976374758E+04 0.  0.
        3    1    3    3  502    0 -0.42101764704E+03 -0.88989915164E+02 -0.18061833344E+04  0.18567372759E+04  0.10100000352E+00 0. -1.
       -3    1    3    3    0  502  0.42101764704E+03  0.88989915164E+02 -0.87878601626E+02  0.43920123285E+03  0.10100000352E+00 0.  1.
</event>
<event>
 5   0  0.2723209E-04  0.1292456E+04  0.7818609E-02  0.9035569E-01
        2   -1    0    0  501    0  0.00000000000E+00  0.00000000000E+00  0.36508902533E+03  0.36508902534E+03  0.25500000920E-02 0.  1.
       -2   -1    0    0    0  501  0.00000000000E+00  0.00000000000E+00 -0.11438605365E+04  0.11438605365E+04  0.25500000920E-02 0. -1.
    10030    2    1    2    0    0  0.00000000000E+00  0.00000000000E+00 -0.77877151112E+03  0.15089495618E+04  0.12924564648E+04 0.  0.
        2    1    3    3  502    0 -0.49313755288E+03 -0.21878062424E+03 -0.80473105446E+03  0.96883521696E+03  0.25500000920E-02 0.  1.
       -2    1    3    3    0  502  0.49313755288E+03  0.21878062424E+03  0.25959543340E+02  0.54011434483E+03  0.25500000920E-02 0. -1.
</event>
<event>
 5   0  0.1479690E-04  0.1299801E+04  0.7818609E-02  0.9029723E-01
        1   -1    0    0  501    0  0.00000000000E+00  0.00000000000E+00  0.82184819402E+03  0.82184819404E+03  0.50400001928E-02 0.  1.
       -1   -1    0    0    0  501  0.00000000000E+00  0.00000000000E+00 -0.51392752025E+03  0.51392752027E+03  0.50400001928E-02 0. -1.
    10030    2    1    2    0    0  0.00000000000E+00  0.00000000000E+00  0.30792067377E+03  0.13357757143E+04  0.12998006069E+04 0.  0.
        1    1    3    3  502    0 -0.19002044088E+03 -0.34166974661E+03 -0.37956600713E+03  0.54490030051E+03  0.50400001928E-02 0. -1.
       -1    1    3    3    0  502  0.19002044088E+03  0.34166974661E+03  0.68748668090E+03  0.79087541380E+03  0.50400001928E-02 0.  1.
</event>
<event>
 5   0  0.2723209E-04  0.1278596E+04  0.7818609E-02  0.9046713E-01
        2   -1    0    0  501    0  0.00000000000E+00  0.00000000000E+00  0.90050362825E+03  0.90050362825E+03  0.25500000920E-02 0.  1.
       -2   -1    0    0    0  501  0.00000000000E+00  0.00000000000E+00 -0.45385898427E+03  0.45385898428E+03  0.25500000920E-02 0. -1.
    10030    2    1    2    0    0  0.00000000000E+00  0.00000000000E+00  0.44664464397E+03  0.13543626125E+04  0.12785955765E+04 0.  0.
        2    1    3    3  502    0  0.17808244155E+03  0.52871314216E+03 -0.10734728833E+03  0.56813236397E+03  0.25500000920E-02 0. -1.
       -2    1    3    3    0  502 -0.17808244155E+03 -0.52871314216E+03  0.55399193230E+03  0.78623024855E+03  0.25500000920E-02 0.  1.
</event>
<event>
 5   0  0.2723209E-04  0.1299101E+04  0.7818609E-02  0.9030279E-01
       -2   -1    0    0    0  501  0.00000000000E+00  0.00000000000E+00  0.50606497773E+03  0.50606497773E+03  0.25500000920E-02 0. -1.
        2   -1    0    0  501    0  0.00000000000E+00  0.00000000000E+00 -0.83371835649E+03  0.83371835649E+03  0.25500000920E-02 0.  1.
    10030    2    1    2    0    0  0.00000000000E+00  0.00000000000E+00 -0.32765337876E+03  0.13397833342E+04  0.12991007067E+04 0.  0.
        2    1    3    3  502    0 -0.17290405792E+03  0.28067910937E+03 -0.74103121311E+03  0.81105106774E+03  0.25500000920E-02 0.  1.
       -2    1    3    3    0  502  0.17290405792E+03 -0.28067910937E+03  0.41337783435E+03  0.52873226648E+03  0.25500000920E-02 0. -1.
</event>
<event>
 5   0  0.1475396E-04  0.1299848E+04  0.7818609E-02  0.9029686E-01
        1   -1    0    0  501    0  0.00000000000E+00  0.00000000000E+00  0.83625602551E+03  0.83625602552E+03  0.50400001928E-02 0. -1.
       -1   -1    0    0    0  501  0.00000000000E+00  0.00000000000E+00 -0.50510996327E+03  0.50510996329E+03  0.50400001928E-02 0.  1.
    10030    2    1    2    0    0  0.00000000000E+00  0.00000000000E+00  0.33114606224E+03  0.13413659888E+04  0.12998480686E+04 0.  0.
        3    1    3    3  502    0  0.53384577446E+03 -0.67131575062E+02  0.54177628556E+03  0.76355714460E+03  0.10100000352E+00 0. -1.
       -3    1    3    3    0  502 -0.53384577446E+03  0.67131575062E+02 -0.21063022332E+03  0.57780884421E+03  0.10100000352E+00 0.  1.
</event>
<event>
 5   0  0.1479690E-04  0.1300830E+04  0.7818609E-02  0.9028907E-01
       -1   -1    0    0    0  501  0.00000000000E+00  0.00000000000E+00  0.51702039259E+03  0.51702039261E+03  0.50400001928E-02 0.  1.
        1   -1    0    0  501    0  0.00000000000E+00  0.00000000000E+00 -0.81822619219E+03  0.81822619220E+03  0.50400001928E-02 0. -1.
    10030    2    1    2    0    0  0.00000000000E+00  0.00000000000E+00 -0.30120579960E+03  0.13352465848E+04  0.13008299307E+04 0.  0.
        1    1    3    3  502    0  0.47018581047E+03  0.42083403049E+03  0.11251083706E+02  0.63111216475E+03  0.50400001928E-02 0.  1.
       -1    1    3    3    0  502 -0.47018581047E+03 -0.42083403049E+03 -0.31245688330E+03  0.70413442007E+03  0.50400001928E-02 0. -1.
</event>
<event>
 5   0  0.1475396E-04  0.1291412E+04  0.7818609E-02  0.9036404E-01
        1   -1    0    0  501    0  0.00000000000E+00  0.00000000000E+00  0.32964825368E+03  0.32964825371E+03  0.50400001928E-02 0.  1.
       -1   -1    0    0    0  501  0.00000000000E+00  0.00000000000E+00 -0.12647903428E+04  0.12647903428E+04  0.50400001928E-02 0. -1.
    10030    2    1    2    0    0  0.00000000000E+00  0.00000000000E+00 -0.93514208910E+03  0.15944385965E+04  0.12914115189E+04 0.  0.
        3    1    3    3  502    0 -0.21146820876E+03  0.38404034781E+03  0.11772257548E+03  0.45394317600E+03  0.10100000352E+00 0.  1.
       -3    1    3    3    0  502  0.21146820876E+03 -0.38404034781E+03 -0.10528646646E+04  0.11404954205E+04  0.10100000352E+00 0. -1.
</event>
<event>
 5   0  0.1002887E-04  0.1296470E+04  0.7818609E-02  0.9032369E-01
       -3   -1    0    0    0  501  0.00000000000E+00  0.00000000000E+00  0.79985013963E+03  0.79985014600E+03  0.10100000352E+00 0. -1.
        3   -1    0    0  501    0  0.00000000000E+00  0.00000000000E+00 -0.52535949166E+03  0.52535950137E+03  0.10100000352E+00 0.  1.
    10030    2    1    2    0    0  0.00000000000E+00  0.00000000000E+00  0.27449064796E+03  0.13252096474E+04  0.12964703983E+04 0.  0.
        2    1    3    3  502    0  0.21865009478E+02 -0.42594818195E+03  0.63622521048E+03  0.76595851768E+03  0.25500000920E-02 0. -1.
       -2    1    3    3    0  502 -0.21865009478E+02  0.42594818195E+03 -0.36173456252E+03  0.55925112970E+03  0.25500000920E-02 0.  1.
</event>
<event>
 5   0  0.1430636E-04  0.1300759E+04  0.7818609E-02  0.9028964E-01
        1   -1    0    0  501    0  0.00000000000E+00  0.00000000000E+00  0.77370209439E+03  0.77370209440E+03  0.50400001928E-02 0. -1.
       -1   -1    0    0    0  501  0.00000000000E+00  0.00000000000E+00 -0.54671362404E+03  0.54671362406E+03  0.50400001928E-02 0.  1.
    10030    2    1    2    0    0  0.00000000000E+00  0.00000000000E+00  0.22698847035E+03  0.13204157185E+04  0.13007589723E+04 0.  0.
        4    1    3    3  502    0  0.41415226992E+03 -0.36389238192E+03  0.46374764833E+03  0.72041881051E+03  0.12699999809E+01 0.  1.
       -4    1    3    3    0  502 -0.41415226992E+03  0.36389238192E+03 -0.23675917798E+03  0.59999690796E+03  0.12699999809E+01 0. -1.
</event>
<event>
 5   0  0.1430636E-04  0.1300100E+04  0.7818609E-02  0.9029486E-01
        1   -1    0    0  501    0  0.00000000000E+00  0.00000000000E+00  0.66503167945E+03  0.66503167947E+03  0.50400001928E-02 0. -1.
       -1   -1    0    0    0  501  0.00000000000E+00  0.00000000000E+00 -0.63540578485E+03  0.63540578487E+03  0.50400001928E-02 0.  1.
    10030    2    1    2    0    0  0.00000000000E+00  0.00000000000E+00  0.29625894593E+02  0.13004374643E+04  0.13000999596E+04 0.  0.
        4    1    3    3  502    0 -0.50783041390E+03  0.18058548559E+03 -0.34868270734E+03  0.64193776192E+03  0.12699999809E+01 0.  1.
       -4    1    3    3    0  502  0.50783041390E+03 -0.18058548559E+03  0.37830860194E+03  0.65849970242E+03  0.12699999809E+01 0. -1.
</event>
<event>
 5   0  0.2794825E-04  0.1302362E+04  0.7818609E-02  0.9027694E-01
       -2   -1    0    0    0  501  0.00000000000E+00  0.00000000000E+00  0.65084531426E+03  0.65084531426E+03  0.25500000920E-02 0. -1.
        2   -1    0    0  501    0  0.00000000000E+00  0.00000000000E+00 -0.65151680706E+03  0.65151680707E+03  0.25500000920E-02 0.  1.
    10030    2    1    2    0    0  0.00000000000E+00  0.00000000000E+00 -0.67149280616E+00  0.13023621213E+04  0.13023619482E+04 0.  0.
        1    1    3    3  502    0 -0.34092925463E+03  0.47829551747E+03 -0.28147152023E+03  0.65132601317E+03  0.50400001928E-02 0.  1.
       -1    1    3    3    0  502  0.34092925463E+03 -0.47829551747E+03  0.28080002742E+03  0.65103610816E+03  0.50400001928E-02 0. -1.
</event>
<event>
 5   0  0.2756984E-04  0.1300727E+04  0.7818609E-02  0.9028989E-01
       -2   -1    0    0    0  501  0.00000000000E+00  0.00000000000E+00  0.39568943554E+03  0.39568943555E+03  0.25500000920E-02 0. -1.
        2   -1    0    0  501    0  0.00000000000E+00  0.00000000000E+00 -0.10689510659E+04  0.10689510659E+04  0.25500000920E-02 0.  1.
    10030    2    1    2    0    0  0.00000000000E+00  0.00000000000E+00 -0.67326163035E+03  0.14646405014E+04  0.13007269412E+04 0.  0.
        3    1    3    3  502    0  0.37799739479E+03 -0.40075580690E+03  0.52595594401E+02  0.55340180157E+03  0.10100000352E+00 0. -1.
       -3    1    3    3    0  502 -0.37799739479E+03  0.40075580690E+03 -0.72585722475E+03  0.91123869988E+03  0.10100000352E+00 0.  1.
</event>
<event>
 5   0  0.1408341E-04  0.1302222E+04  0.7818609E-02  0.9027805E-01
       -1   -1    0    0    0  501  0.00000000000E+00  0.00000000000E+00  0.31232423512E+03  0.31232423516E+03  0.50400001928E-02 0.  1.
        1   -1    0    0  501    0  0.00000000000E+00  0.00000000000E+00 -0.13573893287E+04  0.13573893287E+04  0.50400001928E-02 0. -1.
    10030    2    1    2    0    0  0.00000000000E+00  0.00000000000E+00 -0.10450650935E+04  0.16697135638E+04  0.13022220761E+04 0.  0.
        5    1    3    3  502    0  0.10677866018E+03  0.26191584542E+03 -0.12744788668E+04  0.13054960989E+04  0.46999998093E+01 0. -1.
       -5    1    3    3    0  502 -0.10677866018E+03 -0.26191584542E+03  0.22941377330E+03  0.36421746489E+03  0.46999998093E+01 0.  1.
</event>
<event>
 5   0  0.2723209E-04  0.1300147E+04  0.7818609E-02  0.9029449E-01
       -2   -1    0    0    0  501  0.00000000000E+00  0.00000000000E+00  0.20468013478E+03  0.20468013480E+03  0.25500000920E-02 0. -1.
        2   -1    0    0  501    0  0.00000000000E+00  0.00000000000E+00 -0.20646617546E+04  0.20646617546E+04  0.25500000920E-02 0.  1.
    10030    2    1    2    0    0  0.00000000000E+00  0.00000000000E+00 -0.18599816198E+04  0.22693418894E+04  0.13001465244E+04 0.  0.
        2    1    3    3  502    0 -0.54616226513E+03 -0.21210141396E+03 -0.14215607755E+04  0.15375679719E+04  0.25500000920E-02 0.  1.
       -2    1    3    3    0  502  0.54616226513E+03  0.21210141396E+03 -0.43842084434E+03  0.73177391756E+03  0.25500000920E-02 0. -1.
</event>
<event>
 5   0  0.2573071E-04  0.1324997E+04  0.7818609E-02  0.9009974E-01
        2   -1    0    0  501    0  0.00000000000E+00  0.00000000000E+00  0.13390035591E+04  0.13390035591E+04  0.25500000920E-02 0. -1.
       -2   -1    0    0    0  501  0.00000000000E+00  0.00000000000E+00 -0.32778405840E+03  0.32778405841E+03  0.25500000920E-02 0.  1.
    10030    2    1    2    0    0  0.00000000000E+00  0.00000000000E+00  0.10112195007E+04  0.16667876175E+04  0.13249966352E+04 0.  0.
        4    1    3    3  502    0  0.17319334643E+03 -0.15320693506E+03  0.12865909184E+04  0.13072054561E+04  0.12699999809E+01 0. -1.
       -4    1    3    3    0  502 -0.17319334643E+03  0.15320693506E+03 -0.27537141773E+03  0.35958216140E+03  0.12699999809E+01 0.  1.
</event>
<event>
 5   0  0.1430636E-04  0.1300080E+04  0.7818609E-02  0.9029502E-01
       -1   -1    0    0    0  501  0.00000000000E+00  0.00000000000E+00  0.37316291253E+03  0.37316291256E+03  0.50400001928E-02 0. -1.
        1   -1    0    0  501    0  0.00000000000E+00  0.00000000000E+00 -0.11323523414E+04  0.11323523414E+04  0.50400001928E-02 0.  1.
    10030    2    1    2    0    0  0.00000000000E+00  0.00000000000E+00 -0.75918942891E+03  0.15055152540E+04  0.13000798403E+04 0.  0.
        4    1    3    3  502    0  0.49589197929E+03  0.39413254838E+03 -0.21058379438E+03  0.66753012530E+03  0.12699999809E+01 0. -1.
       -4    1    3    3    0  502 -0.49589197929E+03 -0.39413254838E+03 -0.54860563453E+03  0.83798512872E+03  0.12699999809E+01 0.  1.
</event>
<event>
 5   0  0.2661377E-04  0.1299263E+04  0.7818609E-02  0.9030150E-01
        2   -1    0    0  501    0  0.00000000000E+00  0.00000000000E+00  0.11192385446E+04  0.11192385446E+04  0.25500000920E-02 0. -1.
       -2   -1    0    0    0  501  0.00000000000E+00  0.00000000000E+00 -0.37706107737E+03  0.37706107738E+03  0.25500000920E-02 0.  1.
    10030    2    1    2    0    0  0.00000000000E+00  0.00000000000E+00  0.74217746727E+03  0.14962996220E+04  0.12992633166E+04 0.  0.
        5    1    3    3  502    0 -0.23722102099E+03 -0.30765977421E+03 -0.22851288958E+03  0.45074225470E+03  0.46999998093E+01 0.  1.
       -5    1    3    3    0  502  0.23722102099E+03  0.30765977421E+03  0.97069035686E+03  0.10455573673E+04  0.46999998093E+01 0. -1.
</event>
<event>
 5   0  0.2756984E-04  0.1303259E+04  0.7818609E-02  0.9026985E-01
       -2   -1    0    0    0  501  0.00000000000E+00  0.00000000000E+00  0.28713740680E+03  0.28713740681E+03  0.25500000920E-02 0.  1.
        2   -1    0    0  501    0  0.00000000000E+00  0.00000000000E+00 -0.14788075924E+04  0.14788075924E+04  0.25500000920E-02 0. -1.
    10030    2    1    2    0    0  0.00000000000E+00  0.00000000000E+00 -0.11916701856E+04  0.17659449992E+04  0.13032589570E+04 0.  0.
        3    1    3    3  502    0 -0.46196200790E+03  0.11384975712E+03 -0.11991629591E+04  0.12901017311E+04  0.10100000352E+00 0. -1.
       -3    1    3    3    0  502  0.46196200790E+03 -0.11384975712E+03  0.74927734894E+01  0.47584326810E+03  0.10100000352E+00 0.  1.
</event>
<event>
 5   0  0.1430636E-04  0.1298368E+04  0.7818609E-02  0.9030861E-01
       -1   -1    0    0    0  501  0.00000000000E+00  0.00000000000E+00  0.34776791655E+03  0.34776791658E+03  0.50400001928E-02 0.  1.
        1   -1    0    0  501    0  0.00000000000E+00  0.00000000000E+00 -0.12118417345E+04  0.12118417345E+04  0.50400001928E-02 0. -1.
    10030    2    1    2    0    0  0.00000000000E+00  0.00000000000E+00 -0.86407381798E+03  0.15596096511E+04  0.12983677064E+04 0.  0.
        4    1    3    3  502    0 -0.60702188077E+03 -0.22994802675E+03 -0.44320256183E+03  0.78599095571E+03  0.12699999809E+01 0.  1.
       -4    1    3    3    0  502  0.60702188077E+03  0.22994802675E+03 -0.42087125616E+03  0.77361869542E+03  0.12699999809E+01 0. -1.
</event>
<event>
 5   0  0.1475396E-04  0.1299755E+04  0.7818609E-02  0.9029759E-01
       -1   -1    0    0    0  501  0.00000000000E+00  0.00000000000E+00  0.44003505886E+03  0.44003505889E+03  0.50400001928E-02 0. -1.
        1   -1    0    0  501    0  0.00000000000E+00  0.00000000000E+00 -0.95978933412E+03  0.95978933413E+03  0.50400001928E-02 0.  1.
    10030    2    1    2    0    0  0.00000000000E+00  0.00000000000E+00 -0.51975427526E+03  0.13998243930E+04  0.12997552941E+04 0.  0.
        3    1    3    3  502    0 -0.40350942890E+03 -0.50803600917E+03 -0.30046840406E+03  0.71498371860E+03  0.10100000352E+00 0. -1.
       -3    1    3    3    0  502  0.40350942890E+03  0.50803600917E+03 -0.21928587120E+03  0.68484067442E+03  0.10100000352E+00 0.  1.
</event>
<event>
 5   0  0.2573071E-04  0.1298905E+04  0.7818609E-02  0.9030434E-01
        2   -1    0    0  501    0  0.00000000000E+00  0.00000000000E+00  0.77142326138E+03  0.77142326138E+03  0.25500000920E-02 0.  1.
       -2   -1    0    0    0  501  0.00000000000E+00  0.00000000000E+00 -0.54676632248E+03  0.54676632249E+03  0.25500000920E-02 0. -1.
    10030    2    1    2    0    0  0.00000000000E+00  0.00000000000E+00  0.22465693890E+03  0.13181895839E+04  0.12989045534E+04 0.  0.
        4    1    3    3  502    0  0.58793202880E+03  0.62751361583E+02  0.38498985938E+03  0.70556403579E+03  0.12699999809E+01 0.  1.
       -4    1    3    3    0  502 -0.58793202880E+03 -0.62751361583E+02 -0.16033292048E+03  0.61262554808E+03  0.12699999809E+01 0. -1.
</event>
<event>
 5   0  0.2661377E-04  0.1301369E+04  0.7818609E-02  0.9028481E-01
       -2   -1    0    0    0  501  0.00000000000E+00  0.00000000000E+00  0.23791319738E+03  0.23791319739E+03  0.25500000920E-02 0. -1.
        2   -1    0    0  501    0  0.00000000000E+00  0.00000000000E+00 -0.17795988511E+04  0.17795988511E+04  0.25500000920E-02 0.  1.
    10030    2    1    2    0    0  0.00000000000E+00  0.00000000000E+00 -0.15416856537E+04  0.20175120485E+04  0.13013685915E+04 0.  0.
        5    1    3    3  502    0 -0.41708205799E+03  0.37200472516E+02 -0.15429275956E+04  0.15987460629E+04  0.46999998093E+01 0.  1.
       -5    1    3    3    0  502  0.41708205799E+03 -0.37200472516E+02  0.12419419361E+01  0.41876598557E+03  0.46999998093E+01 0. -1.
</event>
<event>
 5   0  0.2723209E-04  0.1306043E+04  0.7818609E-02  0.9024786E-01
       -2   -1    0    0    0  501  0.00000000000E+00  0.00000000000E+00  0.31407070218E+03  0.31407070219E+03  0.25500000920E-02 0.  1.
        2   -1    0    0  501    0  0.00000000000E+00  0.00000000000E+00 -0.13577747101E+04  0.13577747101E+04  0.25500000920E-02 0. -1.
    10030    2    1    2    0    0  0.00000000000E+00  0.00000000000E+00 -0.10437040079E+04  0.16718454123E+04  0.13060432713E+04 0.  0.
        2    1    3    3  502    0 -0.53301532937E+03  0.98846018388E+01 -0.10046223480E+04  0.11373078338E+04  0.25500000920E-02 0. -1.
       -2    1    3    3    0  502  0.53301532937E+03 -0.98846018388E+01 -0.39081659928E+02  0.53453757852E+03  0.25500000920E-02 0.  1.
</event>
<event>
 5   0  0.2723209E-04  0.1300611E+04  0.7818609E-02  0.9029081E-01
       -2   -1    0    0    0  501  0.00000000000E+00  0.00000000000E+00  0.25340830615E+03  0.25340830616E+03  0.25500000920E-02 0.  1.
        2   -1    0    0  501    0  0.00000000000E+00  0.00000000000E+00 -0.16688376571E+04  0.16688376571E+04  0.25500000920E-02 0. -1.
    10030    2    1    2    0    0  0.00000000000E+00  0.00000000000E+00 -0.14154293509E+04  0.19222459633E+04  0.13006111240E+04 0.  0.
        2    1    3    3  502    0  0.26036750789E+03  0.42361582557E+03 -0.13271452502E+04  0.14172353799E+04  0.25500000920E-02 0. -1.
       -2    1    3    3    0  502 -0.26036750789E+03 -0.42361582557E+03 -0.88284100700E+02  0.50501058334E+03  0.25500000920E-02 0.  1.
</event>
<event>
 5   0  0.2573071E-04  0.1301394E+04  0.7818609E-02  0.9028460E-01
       -2   -1    0    0    0  501  0.00000000000E+00  0.00000000000E+00  0.48814447374E+03  0.48814447374E+03  0.25500000920E-02 0.  1.
        2   -1    0    0  501    0  0.00000000000E+00  0.00000000000E+00 -0.86737997971E+03  0.86737997971E+03  0.25500000920E-02 0. -1.
    10030    2    1    2    0    0  0.00000000000E+00  0.00000000000E+00 -0.37923550597E+03  0.13555244535E+04  0.13013942427E+04 0.  0.
        4    1    3    3  502    0 -0.27861719274E+03 -0.58495852980E+03 -0.12711248540E+03  0.66027510820E+03  0.12699999809E+01 0. -1.
       -4    1    3    3    0  502  0.27861719274E+03  0.58495852980E+03 -0.25212302057E+03  0.69524934525E+03  0.12699999809E+01 0.  1.
</event>
<event>
 5   0  0.2661377E-04  0.1297527E+04  0.7818609E-02  0.9031528E-01
        2   -1    0    0  501    0  0.00000000000E+00  0.00000000000E+00  0.10859748700E+04  0.10859748700E+04  0.25500000920E-02 0.  1.
       -2   -1    0    0    0  501  0.00000000000E+00  0.00000000000E+00 -0.38757280294E+03  0.38757280295E+03  0.25500000920E-02 0. -1.
    10030    2    1    2    0    0  0.00000000000E+00  0.00000000000E+00  0.69840206710E+03  0.14735476730E+04  0.12975273782E+04 0.  0.
        5    1    3    3  502    0 -0.53043563395E+03  0.18231496946E+03  0.71941782777E+03  0.91224164056E+03  0.46999998093E+01 0.  1.
       -5    1    3    3    0  502  0.53043563395E+03 -0.18231496946E+03 -0.21015760669E+02  0.56130603244E+03  0.46999998093E+01 0. -1.
</event>
<event>
 5   0  0.2661377E-04  0.1298272E+04  0.7818609E-02  0.9030936E-01
        2   -1    0    0  501    0  0.00000000000E+00  0.00000000000E+00  0.15295786471E+04  0.15295786471E+04  0.25500000920E-02 0.  1.
       -2   -1    0    0    0  501  0.00000000000E+00  0.00000000000E+00 -0.27548615172E+03  0.27548615173E+03  0.25500000920E-02 0. -1.
    10030    2    1    2    0    0  0.00000000000E+00  0.00000000000E+00  0.12540924954E+04  0.18050647989E+04  0.12982722908E+04 0.  0.
        5    1    3    3  502    0 -0.42873967911E+03  0.48641937494E+03  0.66954042165E+03  0.93205578534E+03  0.46999998093E+01 0.  1.
       -5    1    3    3    0  502  0.42873967911E+03 -0.48641937494E+03  0.58455207374E+03  0.87300901351E+03  0.46999998093E+01 0. -1.
</event>
<event>
 5   0  0.2756984E-04  0.1291745E+04  0.7818609E-02  0.9036137E-01
       -2   -1    0    0    0  501  0.00000000000E+00  0.00000000000E+00  0.41038898549E+03  0.41038898550E+03  0.25500000920E-02 0. -1.
        2   -1    0    0  501    0  0.00000000000E+00  0.00000000000E+00 -0.10164781524E+04  0.10164781524E+04  0.25500000920E-02 0.  1.
    10030    2    1    2    0    0  0.00000000000E+00  0.00000000000E+00 -0.60608916688E+03  0.14268671379E+04  0.12917452345E+04 0.  0.
        3    1    3    3  502    0  0.26520395684E+03  0.57999165294E+03 -0.41584392954E+03  0.76134725332E+03  0.10100000352E+00 0.  1.
       -3    1    3    3    0  502 -0.26520395684E+03 -0.57999165294E+03 -0.19024523733E+03  0.66551988455E+03  0.10100000352E+00 0. -1.
</event>
<event>
 5   0  0.1479690E-04  0.1324306E+04  0.7818609E-02  0.9010509E-01
        1   -1    0    0  501    0  0.00000000000E+00  0.00000000000E+00  0.21611917961E+04  0.21611917961E+04  0.50400001928E-02 0.  1.
       -1   -1    0    0    0  501  0.00000000000E+00  0.00000000000E+00 -0.20287257912E+03  0.20287257918E+03  0.50400001928E-02 0. -1.
    10030    2    1    2    0    0  0.00000000000E+00  0.00000000000E+00  0.19583192170E+04  0.23640643753E+04  0.13243059370E+04 0.  0.
        1    1    3    3  502    0 -0.80922159989E+02 -0.52001065150E+03  0.26179513766E+03  0.58778922053E+03  0.50400001928E-02 0. -1.
       -1    1    3    3    0  502  0.80922159989E+02  0.52001065150E+03  0.16965240793E+04  0.17762751547E+04  0.50400001928E-02 0.  1.
</event>
<event>
 5   0  0.1479690E-04  0.1289853E+04  0.7818609E-02  0.9037651E-01
       -1   -1    0    0    0  501  0.00000000000E+00  0.00000000000E+00  0.38134948515E+03  0.38134948518E+03  0.50400001928E-02 0. -1.
        1   -1    0    0  501    0  0.00000000000E+00  0.00000000000E+00 -0.10906794568E+04  0.10906794568E+04  0.50400001928E-02 0.  1.
    10030    2    1    2    0    0  0.00000000000E+00  0.00000000000E+00 -0.70932997168E+03  0.14720289420E+04  0.12898527813E+04 0.  0.
        1    1    3    3  502    0 -0.40157555212E+03  0.48057274230E+03 -0.17891076758E+03  0.65132338165E+03  0.50400001928E-02 0. -1.
       -1    1    3    3    0  502  0.40157555212E+03 -0.48057274230E+03 -0.53041920410E+03  0.82070556036E+03  0.50400001928E-02 0.  1.
</event>
<event>
 5   0  0.2723209E-04  0.1299787E+04  0.7818609E-02  0.9029734E-01
       -2   -1    0    0    0  501  0.00000000000E+00  0.00000000000E+00  0.11379509130E+04  0.11379509130E+04  0.25500000920E-02 0.  1.
        2   -1    0    0  501    0  0.00000000000E+00  0.00000000000E+00 -0.37115992705E+03  0.37115992705E+03  0.25500000920E-02 0. -1.
    10030    2    1    2    0    0  0.00000000000E+00  0.00000000000E+00  0.76679098595E+03  0.15091108401E+04  0.12997873332E+04 0.  0.
        2    1    3    3  502    0  0.40371228779E+02  0.16299218357E+02  0.11362558394E+04  0.11370896329E+04  0.25500000920E-02 0.  1.
       -2    1    3    3    0  502 -0.40371228779E+02 -0.16299218357E+02 -0.36946485346E+03  0.37202120716E+03  0.25500000920E-02 0. -1.
</event>
<event>
 5   0  0.2573071E-04  0.1302787E+04  0.7818609E-02  0.9027358E-01
        2   -1    0    0  501    0  0.00000000000E+00  0.00000000000E+00  0.10413364508E+04  0.10413364508E+04  0.25500000920E-02 0.  1.
       -2   -1    0    0    0  501  0.00000000000E+00  0.00000000000E+00 -0.40747005781E+03  0.40747005782E+03  0.25500000920E-02 0. -1.
    10030    2    1    2    0    0  0.00000000000E+00  0.00000000000E+00  0.63386639295E+03  0.14488065086E+04  0.13027868955E+04 0.  0.
        4    1    3    3  502    0  0.43856076045E+02  0.64971981122E+03  0.29925764626E+03  0.71667003582E+03  0.12699999809E+01 0.  1.
       -4    1    3    3    0  502 -0.43856076045E+02 -0.64971981122E+03  0.33460874669E+03  0.73213647277E+03  0.12699999809E+01 0. -1.
</event>
<event>
 5   0  0.1408341E-04  0.1292593E+04  0.7818609E-02  0.9035460E-01
       -1   -1    0    0    0  501  0.00000000000E+00  0.00000000000E+00  0.67341640869E+03  0.67341640871E+03  0.50400001928E-02 0.  1.
        1   -1    0    0  501    0  0.00000000000E+00  0.00000000000E+00 -0.62026873319E+03  0.62026873321E+03  0.50400001928E-02 0. -1.
    10030    2    1    2    0    0  0.00000000000E+00  0.00000000000E+00  0.53147675502E+02  0.12936851419E+04  0.12925929642E+04 0.  0.
        5    1    3    3  502    0 -0.40037193547E+03  0.35927960093E+03  0.38506293977E+03  0.66157015950E+03  0.46999998093E+01 0.  1.
       -5    1    3    3    0  502  0.40037193547E+03 -0.35927960093E+03 -0.33191526427E+03  0.63211498243E+03  0.46999998093E+01 0. -1.
</event>
<event>
 5   0  0.1002887E-04  0.1315259E+04  0.7818609E-02  0.9017552E-01
        3   -1    0    0  501    0  0.00000000000E+00  0.00000000000E+00  0.85156651694E+03  0.85156652293E+03  0.10100000352E+00 0. -1.
       -3   -1    0    0    0  501  0.00000000000E+00  0.00000000000E+00 -0.50785964307E+03  0.50785965311E+03  0.10100000352E+00 0.  1.
    10030    2    1    2    0    0  0.00000000000E+00  0.00000000000E+00  0.34370687388E+03  0.13594261760E+04  0.13152585727E+04 0.  0.
        3    1    3    3  502    0  0.32147179300E+03 -0.38233606642E+02 -0.41979409419E+03  0.53012547014E+03  0.10100000352E+00 0.  1.
       -3    1    3    3    0  502 -0.32147179300E+03  0.38233606642E+02  0.76350096807E+03  0.82930070590E+03  0.10100000352E+00 0. -1.
</event>
<event>
 5   0  0.2794825E-04  0.1299589E+04  0.7818609E-02  0.9029891E-01
        2   -1    0    0  501    0  0.00000000000E+00  0.00000000000E+00  0.16436766998E+04  0.16436766998E+04  0.25500000920E-02 0.  1.
       -2   -1    0    0    0  501  0.00000000000E+00  0.00000000000E+00 -0.25688301436E+03  0.25688301437E+03  0.25500000920E-02 0. -1.
    10030    2    1    2    0    0  0.00000000000E+00  0.00000000000E+00  0.13867936854E+04  0.19005597142E+04  0.12995885892E+04 0.  0.
        1    1    3    3  502    0  0.94484876687E+02 -0.49370174755E+03  0.12955988837E+04  0.13896925109E+04  0.50400001928E-02 0.  1.
       -1    1    3    3    0  502 -0.94484876687E+02  0.49370174755E+03  0.91194801733E+02  0.51086720324E+03  0.50400001928E-02 0. -1.
</event>
<event>
 5   0  0.1408341E-04  0.1299281E+04  0.7818609E-02  0.9030136E-01
       -1   -1    0    0    0  501  0.00000000000E+00  0.00000000000E+00  0.52867574339E+03  0.52867574342E+03  0.50400001928E-02 0. -1.
        1   -1    0    0  501    0  0.00000000000E+00  0.00000000000E+00 -0.79828287768E+03  0.79828287769E+03  0.50400001928E-02 0.  1.
    10030    2    1    2    0    0  0.00000000000E+00  0.00000000000E+00 -0.26960713428E+03  0.13269586211E+04  0.12992810224E+04 0.  0.
        5    1    3    3  502    0 -0.74025021358E+02 -0.22906677694E+03  0.48142299830E+03  0.53827640239E+03  0.46999998093E+01 0. -1.
       -5    1    3    3    0  502  0.74025021358E+02  0.22906677694E+03 -0.75103013258E+03  0.78868221872E+03  0.46999998093E+01 0.  1.
</event>
<event>
 5   0  0.1430636E-04  0.1300772E+04  0.7818609E-02  0.9028953E-01
       -1   -1    0    0    0  501  0.00000000000E+00  0.00000000000E+00  0.22917894635E+03  0.22917894641E+03  0.50400001928E-02 0. -1.
        1   -1    0    0  501    0  0.00000000000E+00  0.00000000000E+00 -0.18457268650E+04  0.18457268650E+04  0.50400001928E-02 0.  1.
    10030    2    1    2    0    0  0.00000000000E+00  0.00000000000E+00 -0.16165479187E+04  0.20749058115E+04  0.13007716760E+04 0.  0.
        4    1    3    3  502    0 -0.62459087282E+02 -0.25923330570E+02 -0.18401015807E+04  0.18413442364E+04  0.12699999809E+01 0.  1.
       -4    1    3    3    0  502  0.62459087282E+02  0.25923330570E+02  0.22355366201E+03  0.23356157507E+03  0.12699999809E+01 0. -1.
</event>
<event>
 5   0  0.1479690E-04  0.1300763E+04  0.7818609E-02  0.9028960E-01
       -1   -1    0    0    0  501  0.00000000000E+00  0.00000000000E+00  0.39608198308E+03  0.39608198311E+03  0.50400001928E-02 0.  1.
        1   -1    0    0  501    0  0.00000000000E+00  0.00000000000E+00 -0.10679510180E+04  0.10679510180E+04  0.50400001928E-02 0. -1.
    10030    2    1    2    0    0  0.00000000000E+00  0.00000000000E+00 -0.67186903490E+03  0.14640330011E+04  0.13007630946E+04 0.  0.
        1    1    3    3  502    0 -0.20330202830E+03 -0.61108489716E+03 -0.23376811131E+03  0.68513064166E+03  0.50400001928E-02 0.  1.
       -1    1    3    3    0  502  0.20330202830E+03  0.61108489716E+03 -0.43810092359E+03  0.77890235943E+03  0.50400001928E-02 0. -1.
</event>
<event>
 5   0  0.1479690E-04  0.1300742E+04  0.7818609E-02  0.9028977E-01
        1   -1    0    0  501    0  0.00000000000E+00  0.00000000000E+00  0.32962035849E+03  0.32962035853E+03  0.50400001928E-02 0.  1.
       -1   -1    0    0    0  501  0.00000000000E+00  0.00000000000E+00 -0.12832416062E+04  0.12832416062E+04  0.50400001928E-02 0. -1.
    10030    2    1    2    0    0  0.00000000000E+00  0.00000000000E+00 -0.95362124770E+03  0.16128619647E+04  0.13007421855E+04 0.  0.
        1    1    3    3  502    0  0.52197364150E+03 -0.77801581698E+02 -0.94811264797E+03  0.10850931581E+04  0.50400001928E-02 0. -1.
       -1    1    3    3    0  502 -0.52197364150E+03  0.77801581698E+02 -0.55085997286E+01  0.52776880661E+03  0.50400001928E-02 0.  1.
</event>
<event>
 5   0  0.1479690E-04  0.1286306E+04  0.7818609E-02  0.9040496E-01
        1   -1    0    0  501    0  0.00000000000E+00  0.00000000000E+00  0.74767986932E+03  0.74767986933E+03  0.50400001928E-02 0. -1.
       -1   -1    0    0    0  501  0.00000000000E+00  0.00000000000E+00 -0.55323875565E+03  0.55323875567E+03  0.50400001928E-02 0.  1.
    10030    2    1    2    0    0  0.00000000000E+00  0.00000000000E+00  0.19444111367E+03  0.13009186250E+04  0.12863055322E+04 0.  0.
        1    1    3    3  502    0 -0.14828317309E+03 -0.42039203088E+03  0.56609073984E+03  0.72053874622E+03  0.50400001928E-02 0. -1.
       -1    1    3    3    0  502  0.14828317309E+03  0.42039203088E+03 -0.37164962617E+03  0.58037987879E+03  0.50400001928E-02 0.  1.
</event>
<event>
 5   0  0.1476511E-04  0.1300360E+04  0.7818609E-02  0.9029280E-01
        1   -1    0    0  501    0  0.00000000000E+00  0.00000000000E+00  0.49311001339E+03  0.49311001342E+03  0.50400001928E-02 0.  1.
       -1   -1    0    0    0  501  0.00000000000E+00  0.00000000000E+00 -0.85728088244E+03  0.85728088245E+03  0.50400001928E-02 0. -1.
    10030    2    1    2    0    0  0.00000000000E+00  0.00000000000E+00 -0.36417086905E+03  0.13503908959E+04  0.13003596233E+04 0.  0.
        2    1    3    3  502    0 -0.23654587301E+03  0.60255434807E+03 -0.11884840620E+03  0.65814180544E+03  0.25500000920E-02 0.  1.
       -2    1    3    3    0  502  0.23654587301E+03 -0.60255434807E+03 -0.24532246285E+03  0.69224909043E+03  0.25500000920E-02 0. -1.
</event>
<event>
 5   0  0.1408341E-04  0.1297075E+04  0.7818609E-02  0.9031888E-01
       -1   -1    0    0    0  501  0.00000000000E+00  0.00000000000E+00  0.81626280979E+03  0.81626280980E+03  0.50400001928E-02 0. -1.
        1   -1    0    0  501    0  0.00000000000E+00  0.00000000000E+00 -0.51527644140E+03  0.51527644143E+03  0.50400001928E-02 0.  1.
    10030    2    1    2    0    0  0.00000000000E+00  0.00000000000E+00  0.30098636838E+03  0.13315392512E+04  0.12970751650E+04 0.  0.
        5    1    3    3  502    0  0.21162119148E+03 -0.32553259392E+03 -0.38275457949E+03  0.54523220421E+03  0.46999998093E+01 0.  1.
       -5    1    3    3    0  502 -0.21162119148E+03  0.32553259392E+03  0.68374094788E+03  0.78630704702E+03  0.46999998093E+01 0. -1.
</event>
<event>
 5   0  0.2756984E-04  0.1298659E+04  0.7818609E-02  0.9030629E-01
        2   -1    0    0  501    0  0.00000000000E+00  0.00000000000E+00  0.26983309491E+03  0.26983309492E+03  0.25500000920E-02 0.  1.
       -2   -1    0    0    0  501  0.00000000000E+00  0.00000000000E+00 -0.15625542745E+04  0.15625542745E+04  0.25500000920E-02 0. -1.
    10030    2    1    2    0    0  0.00000000000E+00  0.00000000000E+00 -0.12927211796E+04  0.18323873694E+04  0.12986590867E+04 0.  0.
        3    1    3    3  502    0 -0.64831958985E+02 -0.43654335950E+03 -0.13184032511E+04  0.13903094729E+04  0.10100000352E+00 0. -1.
       -3    1    3    3    0  502  0.64831958985E+02  0.43654335950E+03  0.25682071507E+02  0.44207789656E+03  0.10100000352E+00 0.  1.
</event>
<event>
 5   0  0.1475396E-04  0.1324461E+04  0.7818609E-02  0.9010389E-01
        1   -1    0    0  501    0  0.00000000000E+00  0.00000000000E+00  0.43543939710E+03  0.43543939713E+03  0.50400001928E-02 0.  1.
       -1   -1    0    0    0  501  0.00000000000E+00  0.00000000000E+00 -0.10071415998E+04  0.10071415998E+04  0.50400001928E-02 0. -1.
    10030    2    1    2    0    0  0.00000000000E+00  0.00000000000E+00 -0.57170220267E+03  0.14425809969E+04  0.13244608428E+04 0.  0.
        3    1    3    3  502    0  0.52933269855E+03 -0.26256156326E+03 -0.61154693362E+03  0.85036541703E+03  0.10100000352E+00 0. -1.
       -3    1    3    3    0  502 -0.52933269855E+03  0.26256156326E+03  0.39844730956E+02  0.59221557987E+03  0.10100000352E+00 0.  1.
</event>
<event>
 5   0  0.1476511E-04  0.1301946E+04  0.7818609E-02  0.9028023E-01
        1   -1    0    0  501    0  0.00000000000E+00  0.00000000000E+00  0.65389386408E+03  0.65389386410E+03  0.50400001928E-02 0. -1.
       -1   -1    0    0    0  501  0.00000000000E+00  0.00000000000E+00 -0.64806515266E+03  0.64806515268E+03  0.50400001928E-02 0.  1.
    10030    2    1    2    0    0  0.00000000000E+00  0.00000000000E+00  0.58287114196E+01  0.13019590168E+04  0.13019459695E+04 0.  0.
        2    1    3    3  502    0  0.25409337814E+03  0.19736010560E+03 -0.56299887927E+03  0.64844598399E+03  0.25500000920E-02 0.  1.
       -2    1    3    3    0  502 -0.25409337814E+03 -0.19736010560E+03  0.56882759069E+03  0.65351303279E+03  0.25500000920E-02 0. -1.
</event>
<event>
 5   0  0.2661377E-04  0.1301869E+04  0.7818609E-02  0.9028084E-01
       -2   -1    0    0    0  501  0.00000000000E+00  0.00000000000E+00  0.57908569589E+03  0.57908569590E+03  0.25500000920E-02 0. -1.
        2   -1    0    0  501    0  0.00000000000E+00  0.00000000000E+00 -0.73169823133E+03  0.73169823133E+03  0.25500000920E-02 0.  1.
    10030    2    1    2    0    0  0.00000000000E+00  0.00000000000E+00 -0.15261253544E+03  0.13107839272E+04  0.13018693936E+04 0.  0.
        5    1    3    3  502    0 -0.25574883367E+03  0.31870915114E+03  0.43382958310E+03  0.59599763935E+03  0.46999998093E+01 0. -1.
       -5    1    3    3    0  502  0.25574883367E+03 -0.31870915114E+03 -0.58644211854E+03  0.71478628788E+03  0.46999998093E+01 0.  1.
</event>
<event>
 5   0  0.2756984E-04  0.1296824E+04  0.7818609E-02  0.9032087E-01
       -2   -1    0    0    0  501  0.00000000000E+00  0.00000000000E+00  0.48181828253E+03  0.48181828254E+03  0.25500000920E-02 0.  1.
        2   -1    0    0  501    0  0.00000000000E+00  0.00000000000E+00 -0.87260761040E+03  0.87260761040E+03  0.25500000920E-02 0. -1.
    10030    2    1    2    0    0  0.00000000000E+00  0.00000000000E+00 -0.39078932787E+03  0.13544258929E+04  0.12968242752E+04 0.  0.
        3    1    3    3  502    0  0.15866578529E+03  0.54995445221E+03  0.12279042941E+03  0.58540774737E+03  0.10100000352E+00 0. -1.
       -3    1    3    3    0  502 -0.15866578529E+03 -0.54995445221E+03 -0.51357975728E+03  0.76901814557E+03  0.10100000352E+00 0.  1.
</event>
<event>
 5   0  0.1479690E-04  0.1298254E+04  0.7818609E-02  0.9030951E-01
        1   -1    0    0  501    0  0.00000000000E+00  0.00000000000E+00  0.34267005896E+03  0.34267005899E+03  0.50400001928E-02 0. -1.
       -1   -1    0    0    0  501  0.00000000000E+00  0.00000000000E+00 -0.12296550290E+04  0.12296550290E+04  0.50400001928E-02 0.  1.
    10030    2    1    2    0    0  0.00000000000E+00  0.00000000000E+00 -0.88698497003E+03  0.15723250880E+04  0.12982541528E+04 0.  0.
        1    1    3    3  502    0 -0.14131916318E+03 -0.15398582482E+03  0.30080485913E+03  0.36628718709E+03  0.50400001928E-02 0. -1.
       -1    1    3    3    0  502  0.14131916318E+03  0.15398582482E+03 -0.11877898292E+04  0.12060379009E+04  0.50400001928E-02 0.  1.
</event>
<event>
 5   0  0.2573071E-04  0.1298832E+04  0.7818609E-02  0.9030492E-01
        2   -1    0    0  501    0  0.00000000000E+00  0.00000000000E+00  0.16692399005E+04  0.16692399005E+04  0.25500000920E-02 0. -1.
       -2   -1    0    0    0  501  0.00000000000E+00  0.00000000000E+00 -0.25265453068E+03  0.25265453069E+03  0.25500000920E-02 0.  1.
    10030    2    1    2    0    0  0.00000000000E+00  0.00000000000E+00  0.14165853698E+04  0.19218944312E+04  0.12988318192E+04 0.  0.
        4    1    3    3  502    0 -0.21414790254E+03  0.36021110327E+03  0.14423959610E+04  0.15020383099E+04  0.12699999809E+01 0. -1.
       -4    1    3    3    0  502  0.21414790254E+03 -0.36021110327E+03 -0.25810591208E+02  0.41985612131E+03  0.12699999809E+01 0.  1.
</event>
<event>
 5   0  0.2794825E-04  0.1300964E+04  0.7818609E-02  0.9028801E-01
        2   -1    0    0  501    0  0.00000000000E+00  0.00000000000E+00  0.51999463486E+03  0.51999463486E+03  0.25500000920E-02 0.  1.
       -2   -1    0    0    0  501  0.00000000000E+00  0.00000000000E+00 -0.81371344238E+03  0.81371344239E+03  0.25500000920E-02 0. -1.
    10030    2    1    2    0    0  0.00000000000E+00  0.00000000000E+00 -0.29371880753E+03  0.13337080772E+04  0.13009636803E+04 0.  0.
        1    1    3    3  502    0 -0.84057132285E+02  0.26941137891E+03 -0.74768082456E+03  0.79917126326E+03  0.50400001928E-02 0. -1.
       -1    1    3    3    0  502  0.84057132285E+02 -0.26941137891E+03  0.45396201704E+03  0.53453681399E+03  0.50400001928E-02 0.  1.
</event>
<event>
 5   0  0.2756984E-04  0.1301866E+04  0.7818609E-02  0.9028087E-01
        2   -1    0    0  501    0  0.00000000000E+00  0.00000000000E+00  0.17710684276E+04  0.17710684276E+04  0.25500000920E-02 0. -1.
       -2   -1    0    0    0  501  0.00000000000E+00  0.00000000000E+00 -0.23924195333E+03  0.23924195334E+03  0.25500000920E-02 0.  1.
    10030    2    1    2    0    0  0.00000000000E+00  0.00000000000E+00  0.15318264743E+04  0.20103103810E+04  0.13018661531E+04 0.  0.
        3    1    3    3  502    0  0.18123972171E+03  0.16272281076E+03  0.16980473487E+04  0.17154274565E+04  0.10100000352E+00 0. -1.
       -3    1    3    3    0  502 -0.18123972171E+03 -0.16272281076E+03 -0.16622087439E+03  0.29488292448E+03  0.10100000352E+00 0.  1.
</event>
<event>
 5   0  0.1408341E-04  0.1303239E+04  0.7818609E-02  0.9027000E-01
        1   -1    0    0  501    0  0.00000000000E+00  0.00000000000E+00  0.64886896564E+03  0.64886896566E+03  0.50400001928E-02 0.  1.
       -1   -1    0    0    0  501  0.00000000000E+00  0.00000000000E+00 -0.65438193619E+03  0.65438193621E+03  0.50400001928E-02 0. -1.
    10030    2    1    2    0    0  0.00000000000E+00  0.00000000000E+00 -0.55129705553E+01  0.13032509019E+04  0.13032392414E+04 0.  0.
        5    1    3    3  502    0 -0.55477049193E+03  0.29241805290E+03 -0.17969710794E+03  0.65237393953E+03  0.46999998093E+01 0. -1.
       -5    1    3    3    0  502  0.55477049193E+03 -0.29241805290E+03  0.17418413738E+03  0.65087696233E+03  0.46999998093E+01 0.  1.
</event>
<event>
 5   0  0.1476511E-04  0.1299444E+04  0.7818609E-02  0.9030006E-01
        1   -1    0    0  501    0  0.00000000000E+00  0.00000000000E+00  0.10977992530E+04  0.10977992530E+04  0.50400001928E-02 0.  1.
       -1   -1    0    0    0  501  0.00000000000E+00  0.00000000000E+00 -0.38453194578E+03  0.38453194582E+03  0.50400001928E-02 0. -1.
    10030    2    1    2    0    0  0.00000000000E+00  0.00000000000E+00  0.71326730722E+03  0.14823311988E+04  0.12994443164E+04 0.  0.
        2    1    3    3  502    0 -0.17262681155E+03 -0.40885439953E+03  0.89794800152E+03  0.10016349382E+04  0.25500000920E-02 0.  1.
       -2    1    3    3    0  502  0.17262681155E+03  0.40885439953E+03 -0.18468069430E+03  0.48069626058E+03  0.25500000920E-02 0. -1.
</event>
<event>
 5   0  0.1479690E-04  0.1293463E+04  0.7818609E-02  0.9034765E-01
       -1   -1    0    0    0  501  0.00000000000E+00  0.00000000000E+00  0.30894238672E+03  0.30894238676E+03  0.50400001928E-02 0.  1.
        1   -1    0    0  501    0  0.00000000000E+00  0.00000000000E+00 -0.13538505496E+04  0.13538505496E+04  0.50400001928E-02 0. -1.
    10030    2    1    2    0    0  0.00000000000E+00  0.00000000000E+00 -0.10449081628E+04  0.16627929363E+04  0.12934632891E+04 0.  0.
        1    1    3    3  502    0 -0.10100364698E+03 -0.62929269985E+03 -0.66357508805E+03  0.92007767949E+03  0.50400001928E-02 0. -1.
       -1    1    3    3    0  502  0.10100364698E+03  0.62929269985E+03 -0.38133307479E+03  0.74271525684E+03  0.50400001928E-02 0.  1.
</event>
<event>
 5   0  0.2723209E-04  0.1302382E+04  0.7818609E-02  0.9027678E-01
       -2   -1    0    0    0  501  0.00000000000E+00  0.00000000000E+00  0.60956555474E+03  0.60956555474E+03  0.25500000920E-02 0.  1.
        2   -1    0    0  501    0  0.00000000000E+00  0.00000000000E+00 -0.69565944052E+03  0.69565944053E+03  0.25500000920E-02 0. -1.
    10030    2    1    2    0    0  0.00000000000E+00  0.00000000000E+00 -0.86093885781E+02  0.13052249953E+04  0.13023824826E+04 0.  0.
        2    1    3    3  502    0 -0.51985291420E+03  0.36925771139E+03 -0.17544023779E+03  0.66134528566E+03  0.25500000920E-02 0. -1.
       -2    1    3    3    0  502  0.51985291420E+03 -0.36925771139E+03  0.89346352008E+02  0.64387970961E+03  0.25500000920E-02 0.  1.
</event>
<event>
 5   0  0.2573071E-04  0.1299059E+04  0.7818609E-02  0.9030312E-01
        2   -1    0    0  501    0  0.00000000000E+00  0.00000000000E+00  0.71370084681E+03  0.71370084681E+03  0.25500000920E-02 0.  1.
       -2   -1    0    0    0  501  0.00000000000E+00  0.00000000000E+00 -0.59112807377E+03  0.59112807377E+03  0.25500000920E-02 0. -1.
    10030    2    1    2    0    0  0.00000000000E+00  0.00000000000E+00  0.12257277304E+03  0.13048289206E+04  0.12990590546E+04 0.  0.
        4    1    3    3  502    0 -0.53361666116E+03  0.29578688591E+03 -0.16252693299E+03  0.63138992690E+03  0.12699999809E+01 0. -1.
       -4    1    3    3    0  502  0.53361666116E+03 -0.29578688591E+03  0.28509970603E+03  0.67343899369E+03  0.12699999809E+01 0.  1.
</event>
<event>
 5   0  0.1476511E-04  0.1266242E+04  0.7818609E-02  0.9056773E-01
       -1   -1    0    0    0  501  0.00000000000E+00  0.00000000000E+00  0.42364719553E+03  0.42364719556E+03  0.50400001928E-02 0.  1.
        1   -1    0    0  501    0  0.00000000000E+00  0.00000000000E+00 -0.94616941267E+03  0.94616941268E+03  0.50400001928E-02 0. -1.
    10030    2    1    2    0    0  0.00000000000E+00  0.00000000000E+00 -0.52252221714E+03  0.13698166082E+04  0.12662417118E+04 0.  0.
        2    1    3    3  502    0 -0.10343279369E+03 -0.58167327182E+03 -0.15048556605E+02  0.59098950670E+03  0.25500000920E-02 0.  1.
       -2    1    3    3    0  502  0.10343279369E+03  0.58167327182E+03 -0.50747366053E+03  0.77882710154E+03  0.25500000920E-02 0. -1.
</event>
<event>
 5   0  0.1408341E-04  0.1299146E+04  0.7818609E-02  0.9030243E-01
       -1   -1    0    0    0  501  0.00000000000E+00  0.00000000000E+00  0.54088618907E+03  0.54088618910E+03  0.50400001928E-02 0. -1.
        1   -1    0    0  501    0  0.00000000000E+00  0.00000000000E+00 -0.78009905426E+03  0.78009905427E+03  0.50400001928E-02 0.  1.
    10030    2    1    2    0    0  0.00000000000E+00  0.00000000000E+00 -0.23921286518E+03  0.13209852434E+04  0.12991455724E+04 0.  0.
        5    1    3    3  502    0 -0.18186767898E+03 -0.51806133911E+03  0.23330061857E+03  0.59658584659E+03  0.46999998093E+01 0. -1.
       -5    1    3    3    0  502  0.18186767898E+03  0.51806133911E+03 -0.47251348375E+03  0.72439939678E+03  0.46999998093E+01 0.  1.
</event>
<event>
 5   0  0.1476511E-04  0.1301207E+04  0.7818609E-02  0.9028609E-01
       -1   -1    0    0    0  501  0.00000000000E+00  0.00000000000E+00  0.41664237256E+03  0.41664237259E+03  0.50400001928E-02 0.  1.
        1   -1    0    0  501    0  0.00000000000E+00  0.00000000000E+00 -0.10159425094E+04  0.10159425094E+04  0.50400001928E-02 0. -1.
    10030    2    1    2    0    0  0.00000000000E+00  0.00000000000E+00 -0.59930013688E+03  0.14325848820E+04  0.13012066670E+04 0.  0.
        2    1    3    3  502    0 -0.50563977768E+03  0.20716118809E+03  0.89128847641E+02  0.55365268365E+03  0.25500000920E-02 0.  1.
       -2    1    3    3    0  502  0.50563977768E+03 -0.20716118809E+03 -0.68842898452E+03  0.87893219839E+03  0.25500000920E-02 0. -1.
</event>
<event>
 5   0  0.1002887E-04  0.1299133E+04  0.7818609E-02  0.9030253E-01
       -3   -1    0    0    0  501  0.00000000000E+00  0.00000000000E+00  0.93693530364E+03  0.93693530909E+03  0.10100000352E+00 0.  1.
        3   -1    0    0  501    0  0.00000000000E+00  0.00000000000E+00 -0.45033716521E+03  0.45033717654E+03  0.10100000352E+00 0. -1.
    10030    2    1    2    0    0  0.00000000000E+00  0.00000000000E+00  0.48659813843E+03  0.13872724856E+04  0.12991332499E+04 0.  0.
        1    1    3    3  502    0  0.59774465096E+03  0.23172542805E+03  0.13160099563E+03  0.65445715202E+03  0.50400001928E-02 0. -1.
       -1    1    3    3    0  502 -0.59774465096E+03 -0.23172542805E+03  0.35499714280E+03  0.73281533361E+03  0.50400001928E-02 0.  1.
</event>
<event>
 5   0  0.2723209E-04  0.1298763E+04  0.7818609E-02  0.9030547E-01
        2   -1    0    0  501    0  0.00000000000E+00  0.00000000000E+00  0.56300963764E+03  0.56300963765E+03  0.25500000920E-02 0. -1.
       -2   -1    0    0    0  501  0.00000000000E+00  0.00000000000E+00 -0.74900363677E+03  0.74900363678E+03  0.25500000920E-02 0.  1.
    10030    2    1    2    0    0  0.00000000000E+00  0.00000000000E+00 -0.18599399913E+03  0.13120132744E+04  0.12987628977E+04 0.  0.
        2    1    3    3  502    0  0.19484981513E+03 -0.60765334185E+03  0.28593896887E+02  0.63876963395E+03  0.25500000920E-02 0. -1.
       -2    1    3    3    0  502 -0.19484981513E+03  0.60765334185E+03 -0.21458789601E+03  0.67324364047E+03  0.25500000920E-02 0.  1.
</event>
<event>
 5   0  0.2756984E-04  0.1300739E+04  0.7818609E-02  0.9028979E-01
       -2   -1    0    0    0  501  0.00000000000E+00  0.00000000000E+00  0.31242407443E+03  0.31242407445E+03  0.25500000920E-02 0.  1.
        2   -1    0    0  501    0  0.00000000000E+00  0.00000000000E+00 -0.13538672637E+04  0.13538672637E+04  0.25500000920E-02 0. -1.
    10030    2    1    2    0    0  0.00000000000E+00  0.00000000000E+00 -0.10414431892E+04  0.16662913381E+04  0.13007393694E+04 0.  0.
        3    1    3    3  502    0 -0.61787574885E+03 -0.70075034495E+02 -0.76479055923E+03  0.98569039823E+03  0.10100000352E+00 0. -1.
       -3    1    3    3    0  502  0.61787574885E+03  0.70075034495E+02 -0.27665263000E+03  0.68060093988E+03  0.10100000352E+00 0.  1.
</event>
<event>
 5   0  0.2723209E-04  0.1298645E+04  0.7818609E-02  0.9030641E-01
       -2   -1    0    0    0  501  0.00000000000E+00  0.00000000000E+00  0.31838471053E+03  0.31838471054E+03  0.25500000920E-02 0.  1.
        2   -1    0    0  501    0  0.00000000000E+00  0.00000000000E+00 -0.13242452634E+04  0.13242452634E+04  0.25500000920E-02 0. -1.
    10030    2    1    2    0    0  0.00000000000E+00  0.00000000000E+00 -0.10058605529E+04  0.16426299739E+04  0.12986445932E+04 0.  0.
        2    1    3    3  502    0 -0.15796099337E+03  0.57370056027E+03 -0.83164207110E+03  0.10226008717E+04  0.25500000920E-02 0. -1.
       -2    1    3    3    0  502  0.15796099337E+03 -0.57370056027E+03 -0.17421848175E+03  0.62002910227E+03  0.25500000920E-02 0.  1.
</event>
<event>
 5   0  0.1475396E-04  0.1301651E+04  0.7818609E-02  0.9028257E-01
       -1   -1    0    0    0  501  0.00000000000E+00  0.00000000000E+00  0.37936423554E+03  0.37936423557E+03  0.50400001928E-02 0. -1.
        1   -1    0    0  501    0  0.00000000000E+00  0.00000000000E+00 -0.11165355000E+04  0.11165355000E+04  0.50400001928E-02 0.  1.
    10030    2    1    2    0    0  0.00000000000E+00  0.00000000000E+00 -0.73717126447E+03  0.14958997356E+04  0.13016507004E+04 0.  0.
        3    1    3    3  502    0  0.29991293766E+02  0.61179686217E+03 -0.62136134370E+03  0.87251636541E+03  0.10100000352E+00 0.  1.
       -3    1    3    3    0  502 -0.29991293766E+02 -0.61179686217E+03 -0.11580992077E+03  0.62338337017E+03  0.10100000352E+00 0. -1.
</event>
<event>
 5   0  0.1408341E-04  0.1298457E+04  0.7818609E-02  0.9030790E-01
        1   -1    0    0  501    0  0.00000000000E+00  0.00000000000E+00  0.11745962940E+04  0.11745962940E+04  0.50400001928E-02 0. -1.
       -1   -1    0    0    0  501  0.00000000000E+00  0.00000000000E+00 -0.35884445346E+03  0.35884445349E+03  0.50400001928E-02 0.  1.
    10030    2    1    2    0    0  0.00000000000E+00  0.00000000000E+00  0.81575184058E+03  0.15334407475E+04  0.12984565687E+04 0.  0.
        5    1    3    3  502    0 -0.54642503091E+03  0.34774362710E+02 -0.40881610417E+01  0.54756586249E+03  0.46999998093E+01 0.  1.
       -5    1    3    3    0  502  0.54642503091E+03 -0.34774362710E+02  0.81984000162E+03  0.98587488505E+03  0.46999998093E+01 0. -1.
</event>
<event>
 5   0  0.2661377E-04  0.1303140E+04  0.7818609E-02  0.9027079E-01
        2   -1    0    0  501    0  0.00000000000E+00  0.00000000000E+00  0.85550461321E+03  0.85550461322E+03  0.25500000920E-02 0. -1.
       -2   -1    0    0    0  501  0.00000000000E+00  0.00000000000E+00 -0.49624897289E+03  0.49624897290E+03  0.25500000920E-02 0.  1.
    10030    2    1    2    0    0  0.00000000000E+00  0.00000000000E+00  0.35925564032E+03  0.13517535861E+04  0.13031397249E+04 0.  0.
        5    1    3    3  502    0 -0.13555195187E+03 -0.59329036740E+03 -0.61762264220E+02  0.61172253431E+03  0.46999998093E+01 0.  1.
       -5    1    3    3    0  502  0.13555195187E+03  0.59329036740E+03  0.42101790454E+03  0.74003105181E+03  0.46999998093E+01 0. -1.
</event>
<event>
 5   0  0.1408341E-04  0.1288124E+04  0.7818609E-02  0.9039037E-01
        1   -1    0    0  501    0  0.00000000000E+00  0.00000000000E+00  0.10468637738E+04  0.10468637738E+04  0.50400001928E-02 0. -1.
       -1   -1    0    0    0  501  0.00000000000E+00  0.00000000000E+00 -0.39624596978E+03  0.39624596981E+03  0.50400001928E-02 0.  1.
    10030    2    1    2    0    0  0.00000000000E+00  0.00000000000E+00  0.65061780404E+03  0.14431097436E+04  0.12881235210E+04 0.  0.
        5    1    3    3  502    0 -0.17415886606E+03  0.47521806682E+03  0.77151389742E+03  0.92272385120E+03  0.46999998093E+01 0. -1.
       -5    1    3    3    0  502  0.17415886606E+03 -0.47521806682E+03 -0.12089609338E+03  0.52038589244E+03  0.46999998093E+01 0.  1.
</event>
<event>
 5   0  0.1476511E-04  0.1301686E+04  0.7818609E-02  0.9028230E-01
       -1   -1    0    0    0  501  0.00000000000E+00  0.00000000000E+00  0.36491269980E+03  0.36491269984E+03  0.50400001928E-02 0.  1.
        1   -1    0    0  501    0  0.00000000000E+00  0.00000000000E+00 -0.11608154272E+04  0.11608154272E+04  0.50400001928E-02 0. -1.
    10030    2    1    2    0    0  0.00000000000E+00  0.00000000000E+00 -0.79590272739E+03  0.15257281270E+04  0.13016855097E+04 0.  0.
        2    1    3    3  502    0 -0.50365372924E+02 -0.23760119058E+03 -0.11057057474E+04  0.11320672225E+04  0.25500000920E-02 0. -1.
       -2    1    3    3    0  502  0.50365372924E+02  0.23760119058E+03  0.30980301997E+03  0.39366090452E+03  0.25500000920E-02 0.  1.
</event>
<event>
 5   0  0.2661377E-04  0.1302388E+04  0.7818609E-02  0.9027674E-01
        2   -1    0    0  501    0  0.00000000000E+00  0.00000000000E+00  0.48061889855E+03  0.48061889855E+03  0.25500000920E-02 0. -1.
       -2   -1    0    0    0  501  0.00000000000E+00  0.00000000000E+00 -0.88230751695E+03  0.88230751696E+03  0.25500000920E-02 0.  1.
    10030    2    1    2    0    0  0.00000000000E+00  0.00000000000E+00 -0.40168861841E+03  0.13629264155E+04  0.13023880635E+04 0.  0.
        5    1    3    3  502    0 -0.17255375779E+03  0.78028088640E+02 -0.85283604001E+03  0.87362153309E+03  0.46999998093E+01 0.  1.
       -5    1    3    3    0  502  0.17255375779E+03 -0.78028088640E+02  0.45114742160E+03  0.48930488242E+03  0.46999998093E+01 0. -1.
</event>
<event>
 5   0  0.1479690E-04  0.1297998E+04  0.7818609E-02  0.9031154E-01
       -1   -1    0    0    0  501  0.00000000000E+00  0.00000000000E+00  0.50542869575E+03  0.50542869578E+03  0.50400001928E-02 0. -1.
        1   -1    0    0  501    0  0.00000000000E+00  0.00000000000E+00 -0.83335154563E+03  0.83335154565E+03  0.50400001928E-02 0.  1.
    10030    2    1    2    0    0  0.00000000000E+00  0.00000000000E+00 -0.32792284988E+03  0.13387802414E+04  0.12979981276E+04 0.  0.
        1    1    3    3  502    0  0.47252379585E+03  0.42666545273E+03 -0.29392695568E+03  0.70122407367E+03  0.50400001928E-02 0.  1.
       -1    1    3    3    0  502 -0.47252379585E+03 -0.42666545273E+03 -0.33995894201E+02  0.63755616775E+03  0.50400001928E-02 0. -1.
</event>
<event>
 5   0  0.2756984E-04  0.1298486E+04  0.7818609E-02  0.9030767E-01
        2   -1    0    0  501    0  0.00000000000E+00  0.00000000000E+00  0.19722534868E+04  0.19722534868E+04  0.25500000920E-02 0. -1.
       -2   -1    0    0    0  501  0.00000000000E+00  0.00000000000E+00 -0.21372327913E+03  0.21372327915E+03  0.25500000920E-02 0.  1.
    10030    2    1    2    0    0  0.00000000000E+00  0.00000000000E+00  0.17585302077E+04  0.21859767659E+04  0.12984860145E+04 0.  0.
        3    1    3    3  502    0  0.27052660615E+03  0.41564139691E+03  0.17386026033E+03  0.52551861602E+03  0.10100000352E+00 0.  1.
       -3    1    3    3    0  502 -0.27052660615E+03 -0.41564139691E+03  0.15846699473E+04  0.16604581499E+04  0.10100000352E+00 0. -1.
</event>
<event>
 5   0  0.2794825E-04  0.1299075E+04  0.7818609E-02  0.9030299E-01
        2   -1    0    0  501    0  0.00000000000E+00  0.00000000000E+00  0.12014709321E+04  0.12014709321E+04  0.25500000920E-02 0. -1.
       -2   -1    0    0    0  501  0.00000000000E+00  0.00000000000E+00 -0.35115198806E+03  0.35115198806E+03  0.25500000920E-02 0.  1.
    10030    2    1    2    0    0  0.00000000000E+00  0.00000000000E+00  0.85031894407E+03  0.15526229202E+04  0.12990749115E+04 0.  0.
        1    1    3    3  502    0 -0.20556232694E+03  0.49304965678E+03  0.86680090777E+03  0.10181835041E+04  0.50400001928E-02 0. -1.
       -1    1    3    3    0  502  0.20556232694E+03 -0.49304965678E+03 -0.16481963702E+02  0.53443941608E+03  0.50400001928E-02 0.  1.
</event>
<event>
 5   0  0.2756984E-04  0.1299969E+04  0.7818609E-02  0.9029590E-01
        2   -1    0    0  501    0  0.00000000000E+00  0.00000000000E+00  0.24870302135E+04  0.24870302135E+04  0.25500000920E-02 0.  1.
       -2   -1    0    0    0  501  0.00000000000E+00  0.00000000000E+00 -0.16987330586E+03  0.16987330588E+03  0.25500000920E-02 0. -1.
    10030    2    1    2    0    0  0.00000000000E+00  0.00000000000E+00  0.23171569076E+04  0.26569035194E+04  0.12999692984E+04 0.  0.
        3    1    3    3  502    0 -0.42338318595E+03 -0.26892674654E+03  0.31364944444E+03  0.59156648092E+03  0.10100000352E+00 0. -1.
       -3    1    3    3    0  502  0.42338318595E+03  0.26892674654E+03  0.20035074632E+04  0.20653370385E+04  0.10100000352E+00 0.  1.
</event>
<event>
 5   0  0.1476511E-04  0.1300002E+04  0.7818609E-02  0.9029564E-01
       -1   -1    0    0    0  501  0.00000000000E+00  0.00000000000E+00  0.39766492601E+03  0.39766492604E+03  0.50400001928E-02 0.  1.
        1   -1    0    0  501    0  0.00000000000E+00  0.00000000000E+00 -0.10624554237E+04  0.10624554238E+04  0.50400001928E-02 0. -1.
    10030    2    1    2    0    0  0.00000000000E+00  0.00000000000E+00 -0.66479049774E+03  0.14601203498E+04  0.13000019346E+04 0.  0.
        2    1    3    3  502    0  0.49337178253E+03 -0.31790198014E+03 -0.18663546135E+02  0.58721862431E+03  0.25500000920E-02 0.  1.
       -2    1    3    3    0  502 -0.49337178253E+03  0.31790198014E+03 -0.64612695161E+03  0.87290172549E+03  0.25500000920E-02 0. -1.
</event>
<event>
 5   0  0.2573071E-04  0.1300245E+04  0.7818609E-02  0.9029371E-01
       -2   -1    0    0    0  501  0.00000000000E+00  0.00000000000E+00  0.38619533971E+03  0.38619533972E+03  0.25500000920E-02 0. -1.
        2   -1    0    0  501    0  0.00000000000E+00  0.00000000000E+00 -0.10944183043E+04  0.10944183043E+04  0.25500000920E-02 0.  1.
    10030    2    1    2    0    0  0.00000000000E+00  0.00000000000E+00 -0.70822296460E+03  0.14806136440E+04  0.13002449751E+04 0.  0.
        4    1    3    3  502    0 -0.42601867626E+03  0.13169911235E+03  0.18461341141E+03  0.48261816511E+03  0.12699999809E+01 0. -1.
       -4    1    3    3    0  502  0.42601867626E+03 -0.13169911235E+03 -0.89283637601E+03  0.99799547892E+03  0.12699999809E+01 0.  1.
</event>
<event>
 5   0  0.1408341E-04  0.1300172E+04  0.7818609E-02  0.9029428E-01
       -1   -1    0    0    0  501  0.00000000000E+00  0.00000000000E+00  0.36721818259E+03  0.36721818262E+03  0.50400001928E-02 0. -1.
        1   -1    0    0  501    0  0.00000000000E+00  0.00000000000E+00 -0.11508473422E+04  0.11508473423E+04  0.50400001928E-02 0.  1.
    10030    2    1    2    0    0  0.00000000000E+00  0.00000000000E+00 -0.78362915966E+03  0.15180655249E+04  0.13001724032E+04 0.  0.
        5    1    3    3  502    0  0.46926044083E+03  0.17548911950E+03 -0.87546689030E+03  0.10086952753E+04  0.46999998093E+01 0.  1.
       -5    1    3    3    0  502 -0.46926044083E+03 -0.17548911950E+03  0.91837730640E+02  0.50937024959E+03  0.46999998093E+01 0. -1.
</event>
<event>
 5   0  0.1476511E-04  0.1305324E+04  0.7818609E-02  0.9025354E-01
       -1   -1    0    0    0  501  0.00000000000E+00  0.00000000000E+00  0.36519185597E+03  0.36519185600E+03  0.50400001928E-02 0. -1.
        1   -1    0    0  501    0  0.00000000000E+00  0.00000000000E+00 -0.11664218641E+04  0.11664218641E+04  0.50400001928E-02 0.  1.
    10030    2    1    2    0    0  0.00000000000E+00  0.00000000000E+00 -0.80123000812E+03  0.15316137201E+04  0.13053241213E+04 0.  0.
        2    1    3    3  502    0 -0.10943869165E+03 -0.54056243791E+03 -0.81008733011E+03  0.98001329527E+03  0.25500000920E-02 0.  1.
       -2    1    3    3    0  502  0.10943869165E+03  0.54056243791E+03  0.88573219851E+01  0.55160042482E+03  0.25500000920E-02 0. -1.
</event>
<event>
 5   0  0.1002887E-04  0.1304253E+04  0.7818609E-02  0.9026199E-01
        3   -1    0    0  501    0  0.00000000000E+00  0.00000000000E+00  0.19268306956E+04  0.19268306983E+04  0.10100000352E+00 0.  1.
       -3   -1    0    0    0  501  0.00000000000E+00  0.00000000000E+00 -0.22070898955E+03  0.22070901266E+03  0.10100000352E+00 0. -1.
    10030    2    1    2    0    0  0.00000000000E+00  0.00000000000E+00  0.17061217061E+04  0.21475397109E+04  0.13042528643E+04 0.  0.
        4    1    3    3  502    0 -0.47206477747E+02 -0.17292340474E+03  0.18854679599E+04  0.18939699037E+04  0.12699999809E+01 0.  1.
       -4    1    3    3    0  502  0.47206477747E+02  0.17292340474E+03 -0.17934625385E+03  0.25356980719E+03  0.12699999809E+01 0. -1.
</event>
<event>
 5   0  0.1476511E-04  0.1300966E+04  0.7818609E-02  0.9028799E-01
        1   -1    0    0  501    0  0.00000000000E+00  0.00000000000E+00  0.81058885473E+03  0.81058885474E+03  0.50400001928E-02 0. -1.
       -1   -1    0    0    0  501  0.00000000000E+00  0.00000000000E+00 -0.52200096238E+03  0.52200096241E+03  0.50400001928E-02 0.  1.
    10030    2    1    2    0    0  0.00000000000E+00  0.00000000000E+00  0.28858789234E+03  0.13325898172E+04  0.13009660446E+04 0.  0.
        2    1    3    3  502    0  0.11277583161E+03  0.11491113212E+03 -0.50126810772E+03  0.52649090429E+03  0.25500000920E-02 0.  1.
       -2    1    3    3    0  502 -0.11277583161E+03 -0.11491113212E+03  0.78985600006E+03  0.80609891286E+03  0.25500000920E-02 0. -1.
</event>
<event>
 5   0  0.1475396E-04  0.1299277E+04  0.7818609E-02  0.9030139E-01
        1   -1    0    0  501    0  0.00000000000E+00  0.00000000000E+00  0.60653024944E+03  0.60653024946E+03  0.50400001928E-02 0. -1.
       -1   -1    0    0    0  501  0.00000000000E+00  0.00000000000E+00 -0.69581061804E+03  0.69581061806E+03  0.50400001928E-02 0.  1.
    10030    2    1    2    0    0  0.00000000000E+00  0.00000000000E+00 -0.89280368603E+02  0.13023408675E+04  0.12992770109E+04 0.  0.
        3    1    3    3  502    0 -0.47994181566E+02 -0.64569411141E+03  0.84550063195E+01  0.64753055859E+03  0.10100000352E+00 0. -1.
       -3    1    3    3    0  502  0.47994181566E+02  0.64569411141E+03 -0.97735374923E+02  0.65481030894E+03  0.10100000352E+00 0.  1.
</event>
<event>
 5   0  0.1408341E-04  0.1299544E+04  0.7818609E-02  0.9029926E-01
       -1   -1    0    0    0  501  0.00000000000E+00  0.00000000000E+00  0.16897672695E+04  0.16897672695E+04  0.50400001928E-02 0.  1.
        1   -1    0    0  501    0  0.00000000000E+00  0.00000000000E+00 -0.24985922544E+03  0.24985922549E+03  0.50400001928E-02 0. -1.
    10030    2    1    2    0    0  0.00000000000E+00  0.00000000000E+00  0.14399080441E+04  0.19396264950E+04  0.12995444451E+04 0.  0.
        5    1    3    3  502    0  0.62966156848E+03  0.15689037395E+03  0.67059682942E+03  0.93317226592E+03  0.46999998093E+01 0.  1.
       -5    1    3    3    0  502 -0.62966156848E+03 -0.15689037395E+03  0.76931121465E+03  0.10064542291E+04  0.46999998093E+01 0. -1.
</event>
<event>
 5   0  0.2661377E-04  0.1300752E+04  0.7818609E-02  0.9028969E-01
        2   -1    0    0  501    0  0.00000000000E+00  0.00000000000E+00  0.98539155449E+03  0.98539155450E+03  0.25500000920E-02 0. -1.
       -2   -1    0    0    0  501  0.00000000000E+00  0.00000000000E+00 -0.42925955930E+03  0.42925955931E+03  0.25500000920E-02 0.  1.
    10030    2    1    2    0    0  0.00000000000E+00  0.00000000000E+00  0.55613199519E+03  0.14146511138E+04  0.13007516972E+04 0.  0.
        5    1    3    3  502    0 -0.63620044149E+03  0.68701604665E+02  0.40440962201E+03  0.75699415098E+03  0.46999998093E+01 0. -1.
       -5    1    3    3    0  502  0.63620044149E+03 -0.68701604665E+02  0.15172237317E+03  0.65765696283E+03  0.46999998093E+01 0.  1.
</event>
<event>
 5   0  0.1479690E-04  0.1290484E+04  0.7818609E-02  0.9037146E-01
        1   -1    0    0  501    0  0.00000000000E+00  0.00000000000E+00  0.10841316534E+04  0.10841316534E+04  0.50400001928E-02 0.  1.
       -1   -1    0    0    0  501  0.00000000000E+00  0.00000000000E+00 -0.38402814758E+03  0.38402814761E+03  0.50400001928E-02 0. -1.
    10030    2    1    2    0    0  0.00000000000E+00  0.00000000000E+00  0.70010350582E+03  0.14681598010E+04  0.12904837397E+04 0.  0.
        1    1    3    3  502    0 -0.15134069228E+03 -0.58492169272E+03  0.60773021217E+03  0.85695589301E+03  0.50400001928E-02 0. -1.
       -1    1    3    3    0  502  0.15134069228E+03  0.58492169272E+03  0.92373293653E+02  0.61120390801E+03  0.50400001928E-02 0.  1.
</event>
<event>
 5   0  0.1408341E-04  0.1282649E+04  0.7818609E-02  0.9043439E-01
        1   -1    0    0  501    0  0.00000000000E+00  0.00000000000E+00  0.43640089214E+03  0.43640089217E+03  0.50400001928E-02 0.  1.
       -1   -1    0    0    0  501  0.00000000000E+00  0.00000000000E+00 -0.94247484397E+03  0.94247484399E+03  0.50400001928E-02 0. -1.
    10030    2    1    2    0    0  0.00000000000E+00  0.00000000000E+00 -0.50607395184E+03  0.13788757362E+04  0.12826486078E+04 0.  0.
        5    1    3    3  502    0 -0.21712378539E+03  0.41993836459E+03  0.21281345569E+03  0.51846178756E+03  0.46999998093E+01 0.  1.
       -5    1    3    3    0  502  0.21712378539E+03 -0.41993836459E+03 -0.71888740753E+03  0.86041394860E+03  0.46999998093E+01 0. -1.
</event>
<event>
 5   0  0.1430636E-04  0.1301485E+04  0.7818609E-02  0.9028388E-01
       -1   -1    0    0    0  501  0.00000000000E+00  0.00000000000E+00  0.43560527567E+03  0.43560527569E+03  0.50400001928E-02 0.  1.
        1   -1    0    0  501    0  0.00000000000E+00  0.00000000000E+00 -0.97213171730E+03  0.97213171732E+03  0.50400001928E-02 0. -1.
    10030    2    1    2    0    0  0.00000000000E+00  0.00000000000E+00 -0.53652644164E+03  0.14077369930E+04  0.13014848516E+04 0.  0.
        4    1    3    3  502    0 -0.47252487937E+03  0.18441387886E+03  0.17266344275E+03  0.53581948238E+03  0.12699999809E+01 0.  1.
       -4    1    3    3    0  502  0.47252487937E+03 -0.18441387886E+03 -0.70918988438E+03  0.87191751063E+03  0.12699999809E+01 0. -1.
</event>
<event>
 5   0  0.1476511E-04  0.1300587E+04  0.7818609E-02  0.9029100E-01
        1   -1    0    0  501    0  0.00000000000E+00  0.00000000000E+00  0.64728043568E+03  0.64728043570E+03  0.50400001928E-02 0. -1.
       -1   -1    0    0    0  501  0.00000000000E+00  0.00000000000E+00 -0.65332033771E+03  0.65332033773E+03  0.50400001928E-02 0.  1.
    10030    2    1    2    0    0  0.00000000000E+00  0.00000000000E+00 -0.60399020364E+01  0.13006007734E+04  0.13005867489E+04 0.  0.
        2    1    3    3  502    0  0.11364592728E+03  0.23782591129E+03 -0.59750505068E+03  0.65306113531E+03  0.25500000920E-02 0.  1.
       -2    1    3    3    0  502 -0.11364592728E+03 -0.23782591129E+03  0.59146514864E+03  0.64753963811E+03  0.25500000920E-02 0. -1.
</event>
<event>
 5   0  0.2723209E-04  0.1297189E+04  0.7818609E-02  0.9031798E-01
       -2   -1    0    0    0  501  0.00000000000E+00  0.00000000000E+00  0.81317314435E+03  0.81317314436E+03  0.25500000920E-02 0.  1.
        2   -1    0    0  501    0  0.00000000000E+00  0.00000000000E+00 -0.51732464551E+03  0.51732464552E+03  0.25500000920E-02 0. -1.
    10030    2    1    2    0    0  0.00000000000E+00  0.00000000000E+00  0.29584849884E+03  0.13304977899E+04  0.12971885116E+04 0.  0.
        2    1    3    3  502    0 -0.56852747867E+02  0.37727324354E+03 -0.39005066001E+03  0.54562519426E+03  0.25500000920E-02 0. -1.
       -2    1    3    3    0  502  0.56852747867E+02 -0.37727324354E+03  0.68589915885E+03  0.78487259562E+03  0.25500000920E-02 0.  1.
</event>
<event>
 5   0  0.2756984E-04  0.1299490E+04  0.7818609E-02  0.9029969E-01
        2   -1    0    0  501    0  0.00000000000E+00  0.00000000000E+00  0.24096342255E+04  0.24096342255E+04  0.25500000920E-02 0.  1.
       -2   -1    0    0    0  501  0.00000000000E+00  0.00000000000E+00 -0.17520036802E+03  0.17520036803E+03  0.25500000920E-02 0. -1.
    10030    2    1    2    0    0  0.00000000000E+00  0.00000000000E+00  0.22344338575E+04  0.25848345936E+04  0.12994903664E+04 0.  0.
        3    1    3    3  502    0  0.11290772232E+03  0.47839547545E+03  0.19624345676E+04  0.20230570499E+04  0.10100000352E+00 0.  1.
       -3    1    3    3    0  502 -0.11290772232E+03 -0.47839547545E+03  0.27199928990E+03  0.56177754369E+03  0.10100000352E+00 0. -1.
</event>
<event>
 5   0  0.2573071E-04  0.1296794E+04  0.7818609E-02  0.9032112E-01
       -2   -1    0    0    0  501  0.00000000000E+00  0.00000000000E+00  0.93464497740E+03  0.93464497740E+03  0.25500000920E-02 0.  1.
        2   -1    0    0  501    0  0.00000000000E+00  0.00000000000E+00 -0.44981627975E+03  0.44981627976E+03  0.25500000920E-02 0. -1.
    10030    2    1    2    0    0  0.00000000000E+00  0.00000000000E+00  0.48482869765E+03  0.13844612572E+04  0.12967937795E+04 0.  0.
        4    1    3    3  502    0  0.32066374177E+03  0.20588530686E+03 -0.31764803713E+03  0.49610067855E+03  0.12699999809E+01 0. -1.
       -4    1    3    3    0  502 -0.32066374177E+03 -0.20588530686E+03  0.80247673478E+03  0.88836057861E+03  0.12699999809E+01 0.  1.
</event>
<event>
 5   0  0.1408341E-04  0.1295868E+04  0.7818609E-02  0.9032849E-01
        1   -1    0    0  501    0  0.00000000000E+00  0.00000000000E+00  0.76422980733E+03  0.76422980734E+03  0.50400001928E-02 0. -1.
       -1   -1    0    0    0  501  0.00000000000E+00  0.00000000000E+00 -0.54933499031E+03  0.54933499033E+03  0.50400001928E-02 0.  1.
    10030    2    1    2    0    0  0.00000000000E+00  0.00000000000E+00  0.21489481702E+03  0.13135647977E+04  0.12958675454E+04 0.  0.
        5    1    3    3  502    0 -0.49438738468E+03 -0.95977839933E-01  0.53194715944E+03  0.72622914137E+03  0.46999998093E+01 0. -1.
       -5    1    3    3    0  502  0.49438738468E+03  0.95977839933E-01 -0.31705234242E+03  0.58733565631E+03  0.46999998093E+01 0.  1.
</event>
<event>
 5   0  0.2794825E-04  0.1298021E+04  0.7818609E-02  0.9031136E-01
       -2   -1    0    0    0  501  0.00000000000E+00  0.00000000000E+00  0.27312445073E+03  0.27312445074E+03  0.25500000920E-02 0.  1.
        2   -1    0    0  501    0  0.00000000000E+00  0.00000000000E+00 -0.15422080943E+04  0.15422080943E+04  0.25500000920E-02 0. -1.
    10030    2    1    2    0    0  0.00000000000E+00  0.00000000000E+00 -0.12690836435E+04  0.18153325450E+04  0.12980211688E+04 0.  0.
        1    1    3    3  502    0 -0.13367662766E+03  0.47567648838E+03 -0.12230543499E+04  0.13190904083E+04  0.50400001928E-02 0. -1.
       -1    1    3    3    0  502  0.13367662766E+03 -0.47567648838E+03 -0.46029293655E+02  0.49624213675E+03  0.50400001928E-02 0.  1.
</event>
<event>
 5   0  0.2661377E-04  0.1299484E+04  0.7818609E-02  0.9029975E-01
       -2   -1    0    0    0  501  0.00000000000E+00  0.00000000000E+00  0.47271964612E+03  0.47271964612E+03  0.25500000920E-02 0. -1.
        2   -1    0    0  501    0  0.00000000000E+00  0.00000000000E+00 -0.89305456262E+03  0.89305456262E+03  0.25500000920E-02 0.  1.
    10030    2    1    2    0    0  0.00000000000E+00  0.00000000000E+00 -0.42033491650E+03  0.13657742087E+04  0.12994836464E+04 0.  0.
        5    1    3    3  502    0  0.57437632874E+03  0.52218184132E+02  0.10427244893E+03  0.58611410099E+03  0.46999998093E+01 0. -1.
       -5    1    3    3    0  502 -0.57437632874E+03 -0.52218184132E+02 -0.52460736543E+03  0.77966010776E+03  0.46999998093E+01 0.  1.
</event>
<event>
 5   0  0.1430636E-04  0.1302380E+04  0.7818609E-02  0.9027680E-01
       -1   -1    0    0    0  501  0.00000000000E+00  0.00000000000E+00  0.54525631192E+03  0.54525631195E+03  0.50400001928E-02 0.  1.
        1   -1    0    0  501    0  0.00000000000E+00  0.00000000000E+00 -0.77770469779E+03  0.77770469781E+03  0.50400001928E-02 0. -1.
    10030    2    1    2    0    0  0.00000000000E+00  0.00000000000E+00 -0.23244838587E+03  0.13229610098E+04  0.13023799681E+04 0.  0.
        4    1    3    3  502    0  0.42473215855E+03  0.27509187687E+03  0.30009856917E+03  0.58833129387E+03  0.12699999809E+01 0.  1.
       -4    1    3    3    0  502 -0.42473215855E+03 -0.27509187687E+03 -0.53254695504E+03  0.73462971588E+03  0.12699999809E+01 0. -1.
</event>
<event>
 5   0  0.1476511E-04  0.1301274E+04  0.7818609E-02  0.9028556E-01
        1   -1    0    0  501    0  0.00000000000E+00  0.00000000000E+00  0.15768987719E+04  0.15768987719E+04  0.50400001928E-02 0. -1.
       -1   -1    0    0    0  501  0.00000000000E+00  0.00000000000E+00 -0.26845621787E+03  0.26845621791E+03  0.50400001928E-02 0.  1.
    10030    2    1    2    0    0  0.00000000000E+00  0.00000000000E+00  0.13084425540E+04  0.18453549898E+04  0.13012736535E+04 0.  0.
        2    1    3    3  502    0  0.17141082488E+03  0.36169099383E+03  0.13816548851E+04  0.14384617712E+04  0.25500000920E-02 0. -1.
       -2    1    3    3    0  502 -0.17141082488E+03 -0.36169099383E+03 -0.73212331030E+02  0.40689321858E+03  0.25500000920E-02 0.  1.
</event>
<event>
 5   0  0.1476511E-04  0.1262915E+04  0.7818609E-02  0.9059502E-01
        1   -1    0    0  501    0  0.00000000000E+00  0.00000000000E+00  0.69060644191E+03  0.69060644192E+03  0.50400001928E-02 0. -1.
       -1   -1    0    0    0  501  0.00000000000E+00  0.00000000000E+00 -0.57737494003E+03  0.57737494006E+03  0.50400001928E-02 0.  1.
    10030    2    1    2    0    0  0.00000000000E+00  0.00000000000E+00  0.11323150187E+03  0.12679813820E+04  0.12629154414E+04 0.  0.
        2    1    3    3  502    0 -0.18670745559E+03  0.12689098177E+03 -0.53547675933E+03  0.58111647285E+03  0.25500000920E-02 0.  1.
       -2    1    3    3    0  502  0.18670745559E+03 -0.12689098177E+03  0.64870826121E+03  0.68686490913E+03  0.25500000920E-02 0. -1.
</event>
<event>
 5   0  0.1408341E-04  0.1295536E+04  0.7818609E-02  0.9033113E-01
       -1   -1    0    0    0  501  0.00000000000E+00  0.00000000000E+00  0.67503824096E+03  0.67503824098E+03  0.50400001928E-02 0.  1.
        1   -1    0    0  501    0  0.00000000000E+00  0.00000000000E+00 -0.62159938687E+03  0.62159938689E+03  0.50400001928E-02 0. -1.
    10030    2    1    2    0    0  0.00000000000E+00  0.00000000000E+00  0.53438854090E+02  0.12966376279E+04  0.12955359613E+04 0.  0.
        5    1    3    3  502    0  0.41126201620E+03 -0.44734536593E+03  0.25124686936E+03  0.65757235477E+03  0.46999998093E+01 0.  1.
       -5    1    3    3    0  502 -0.41126201620E+03  0.44734536593E+03 -0.19780801527E+03  0.63906527311E+03  0.46999998093E+01 0. -1.
</event>
<event>
 5   0  0.1476511E-04  0.1296137E+04  0.7818609E-02  0.9032634E-01
       -1   -1    0    0    0  501  0.00000000000E+00  0.00000000000E+00  0.17651830415E+04  0.17651830415E+04  0.50400001928E-02 0. -1.
        1   -1    0    0  501    0  0.00000000000E+00  0.00000000000E+00 -0.23793165247E+03  0.23793165252E+03  0.50400001928E-02 0.  1.
    10030    2    1    2    0    0  0.00000000000E+00  0.00000000000E+00  0.15272513890E+04  0.20031146940E+04  0.12961372119E+04 0.  0.
        2    1    3    3  502    0 -0.55186355574E+02 -0.98123224871E+02  0.17499557962E+04  0.17535732063E+04  0.25500000920E-02 0. -1.
       -2    1    3    3    0  502  0.55186355574E+02  0.98123224871E+02 -0.22270440720E+03  0.24954148772E+03  0.25500000920E-02 0.  1.
</event>
<event>
 5   0  0.2723209E-04  0.1300547E+04  0.7818609E-02  0.9029131E-01
       -2   -1    0    0    0  501  0.00000000000E+00  0.00000000000E+00  0.44024226397E+03  0.44024226398E+03  0.25500000920E-02 0. -1.
        2   -1    0    0  501    0  0.00000000000E+00  0.00000000000E+00 -0.96050678586E+03  0.96050678586E+03  0.25500000920E-02 0.  1.
    10030    2    1    2    0    0  0.00000000000E+00  0.00000000000E+00 -0.52026452189E+03  0.14007490498E+04  0.13005470879E+04 0.  0.
        2    1    3    3  502    0 -0.87071423506E+02  0.47043841361E+03  0.21421077006E+03  0.52419460871E+03  0.25500000920E-02 0. -1.
       -2    1    3    3    0  502  0.87071423506E+02 -0.47043841361E+03 -0.73447529194E+03  0.87655444113E+03  0.25500000920E-02 0.  1.
</event>
<event>
 5   0  0.2723209E-04  0.1301706E+04  0.7818609E-02  0.9028213E-01
       -2   -1    0    0    0  501  0.00000000000E+00  0.00000000000E+00  0.24144164804E+03  0.24144164805E+03  0.25500000920E-02 0.  1.
        2   -1    0    0  501    0  0.00000000000E+00  0.00000000000E+00 -0.17545012652E+04  0.17545012652E+04  0.25500000920E-02 0. -1.
    10030    2    1    2    0    0  0.00000000000E+00  0.00000000000E+00 -0.15130596172E+04  0.19959429133E+04  0.13017060758E+04 0.  0.
        2    1    3    3  502    0 -0.53101266761E+03 -0.37609001267E+03 -0.77774999781E+03  0.10140577942E+04  0.25500000920E-02 0. -1.
       -2    1    3    3    0  502  0.53101266761E+03  0.37609001267E+03 -0.73530961935E+03  0.98188511910E+03  0.25500000920E-02 0.  1.
</event>
<event>
 5   0  0.2756984E-04  0.1300433E+04  0.7818609E-02  0.9029222E-01
        2   -1    0    0  501    0  0.00000000000E+00  0.00000000000E+00  0.13524624501E+04  0.13524624501E+04  0.25500000920E-02 0.  1.
       -2   -1    0    0    0  501  0.00000000000E+00  0.00000000000E+00 -0.31260119934E+03  0.31260119935E+03  0.25500000920E-02 0. -1.
    10030    2    1    2    0    0  0.00000000000E+00  0.00000000000E+00  0.10398612508E+04  0.16650636495E+04  0.13004328264E+04 0.  0.
        3    1    3    3  502    0  0.84038454354E+02 -0.14164168320E+03 -0.28545169798E+03  0.32955653583E+03  0.10100000352E+00 0. -1.
       -3    1    3    3    0  502 -0.84038454354E+02  0.14164168320E+03  0.13253129487E+04  0.13355071136E+04  0.10100000352E+00 0.  1.
</event>
<event>
 5   0  0.1479690E-04  0.1305819E+04  0.7818609E-02  0.9024963E-01
       -1   -1    0    0    0  501  0.00000000000E+00  0.00000000000E+00  0.44975832248E+03  0.44975832251E+03  0.50400001928E-02 0. -1.
        1   -1    0    0  501    0  0.00000000000E+00  0.00000000000E+00 -0.94782200423E+03  0.94782200424E+03  0.50400001928E-02 0.  1.
    10030    2    1    2    0    0  0.00000000000E+00  0.00000000000E+00 -0.49806368175E+03  0.13975803267E+04  0.13058190298E+04 0.  0.
        1    1    3    3  502    0  0.58352326605E+03 -0.20358381516E+03 -0.47441238470E+03  0.77911031478E+03  0.50400001928E-02 0. -1.
       -1    1    3    3    0  502 -0.58352326605E+03  0.20358381516E+03 -0.23651297047E+02  0.61847001196E+03  0.50400001928E-02 0.  1.
</event>
<event>
 5   0  0.1476511E-04  0.1298532E+04  0.7818609E-02  0.9030730E-01
        1   -1    0    0  501    0  0.00000000000E+00  0.00000000000E+00  0.14950392688E+04  0.14950392688E+04  0.50400001928E-02 0. -1.
       -1   -1    0    0    0  501  0.00000000000E+00  0.00000000000E+00 -0.28196342462E+03  0.28196342466E+03  0.50400001928E-02 0.  1.
    10030    2    1    2    0    0  0.00000000000E+00  0.00000000000E+00  0.12130758442E+04  0.17770026935E+04  0.12985320823E+04 0.  0.
        2    1    3    3  502    0  0.61792605677E+03  0.30133759414E+02  0.33696059018E+03  0.70447362934E+03  0.25500000920E-02 0.  1.
       -2    1    3    3    0  502 -0.61792605677E+03 -0.30133759414E+02  0.87611525402E+03  0.10725290641E+04  0.25500000920E-02 0. -1.
</event>
<event>
 5   0  0.1476511E-04  0.1298412E+04  0.7818609E-02  0.9030826E-01
       -1   -1    0    0    0  501  0.00000000000E+00  0.00000000000E+00  0.58793026770E+03  0.58793026772E+03  0.50400001928E-02 0. -1.
        1   -1    0    0  501    0  0.00000000000E+00  0.00000000000E+00 -0.71686757288E+03  0.71686757289E+03  0.50400001928E-02 0.  1.
    10030    2    1    2    0    0  0.00000000000E+00  0.00000000000E+00 -0.12893730518E+03  0.13047978406E+04  0.12984115589E+04 0.  0.
        2    1    3    3  502    0  0.79360553405E+02  0.21500169652E+03  0.54592677099E+03  0.59208096257E+03  0.25500000920E-02 0. -1.
       -2    1    3    3    0  502 -0.79360553405E+02 -0.21500169652E+03 -0.67486407617E+03  0.71271687805E+03  0.25500000920E-02 0.  1.
</event>
<event>
 5   0  0.2756984E-04  0.1300084E+04  0.7818609E-02  0.9029498E-01
       -2   -1    0    0    0  501  0.00000000000E+00  0.00000000000E+00  0.28978271398E+03  0.28978271399E+03  0.25500000920E-02 0. -1.
        2   -1    0    0  501    0  0.00000000000E+00  0.00000000000E+00 -0.14581780106E+04  0.14581780106E+04  0.25500000920E-02 0.  1.
    10030    2    1    2    0    0  0.00000000000E+00  0.00000000000E+00 -0.11683952966E+04  0.17479607246E+04  0.13000842763E+04 0.  0.
        3    1    3    3  502    0 -0.23120799078E+03 -0.41433074380E+03  0.13200917138E+02  0.47465921951E+03  0.10100000352E+00 0. -1.
       -3    1    3    3    0  502  0.23120799078E+03  0.41433074380E+03 -0.11815962137E+04  0.12733015050E+04  0.10100000352E+00 0.  1.
</event>
<event>
 5   0  0.2723209E-04  0.1300799E+04  0.7818609E-02  0.9028932E-01
       -2   -1    0    0    0  501  0.00000000000E+00  0.00000000000E+00  0.44479784133E+03  0.44479784134E+03  0.25500000920E-02 0.  1.
        2   -1    0    0  501    0  0.00000000000E+00  0.00000000000E+00 -0.95103797265E+03  0.95103797265E+03  0.25500000920E-02 0. -1.
    10030    2    1    2    0    0  0.00000000000E+00  0.00000000000E+00 -0.50624013132E+03  0.13958358140E+04  0.13007991963E+04 0.  0.
        2    1    3    3  502    0  0.33937303311E+03  0.16798677193E+03  0.31431069139E+03  0.49212277114E+03  0.25500000920E-02 0.  1.
       -2    1    3    3    0  502 -0.33937303311E+03 -0.16798677193E+03 -0.82055082271E+03  0.90371304284E+03  0.25500000920E-02 0. -1.
</event>
<event>
 5   0  0.2723209E-04  0.1277364E+04  0.7818609E-02  0.9047711E-01
       -2   -1    0    0    0  501  0.00000000000E+00  0.00000000000E+00  0.44928384403E+03  0.44928384404E+03  0.25500000920E-02 0. -1.
        2   -1    0    0  501    0  0.00000000000E+00  0.00000000000E+00 -0.90792188731E+03  0.90792188731E+03  0.25500000920E-02 0.  1.
    10030    2    1    2    0    0  0.00000000000E+00  0.00000000000E+00 -0.45863804328E+03  0.13572057314E+04  0.12773639037E+04 0.  0.
        2    1    3    3  502    0 -0.20529239234E+03 -0.11179513870E+03 -0.86083647335E+03  0.89201039974E+03  0.25500000920E-02 0.  1.
       -2    1    3    3    0  502  0.20529239234E+03  0.11179513870E+03  0.40219843007E+03  0.46519533161E+03  0.25500000920E-02 0. -1.
</event>
<event>
 5   0  0.1430636E-04  0.1280637E+04  0.7818609E-02  0.9045063E-01
       -1   -1    0    0    0  501  0.00000000000E+00  0.00000000000E+00  0.48214214570E+03  0.48214214573E+03  0.50400001928E-02 0. -1.
        1   -1    0    0  501    0  0.00000000000E+00  0.00000000000E+00 -0.85038767118E+03  0.85038767120E+03  0.50400001928E-02 0.  1.
    10030    2    1    2    0    0  0.00000000000E+00  0.00000000000E+00 -0.36824552548E+03  0.13325298169E+04  0.12806369298E+04 0.  0.
        4    1    3    3  502    0  0.42729224661E+03  0.34246158672E+03 -0.52945591920E+03  0.76169796223E+03  0.12699999809E+01 0.  1.
       -4    1    3    3    0  502 -0.42729224661E+03 -0.34246158672E+03  0.16121039373E+03  0.57083185470E+03  0.12699999809E+01 0. -1.
</event>
<event>
 5   0  0.1002887E-04  0.1295501E+04  0.7818609E-02  0.9033140E-01
        3   -1    0    0  501    0  0.00000000000E+00  0.00000000000E+00  0.53760468360E+03  0.53760469309E+03  0.10100000352E+00 0. -1.
       -3   -1    0    0    0  501  0.00000000000E+00  0.00000000000E+00 -0.78046337454E+03  0.78046338108E+03  0.10100000352E+00 0.  1.
    10030    2    1    2    0    0  0.00000000000E+00  0.00000000000E+00 -0.24285869094E+03  0.13180680742E+04  0.12955011017E+04 0.  0.
        2    1    3    3  502    0  0.23969239696E+03  0.54427889274E+03 -0.38258889571E+03  0.70715360522E+03  0.25500000920E-02 0.  1.
       -2    1    3    3    0  502 -0.23969239696E+03 -0.54427889274E+03  0.13973020477E+03  0.61091446895E+03  0.25500000920E-02 0. -1.
</event>
<event>
 5   0  0.2794825E-04  0.1299989E+04  0.7818609E-02  0.9029574E-01
       -2   -1    0    0    0  501  0.00000000000E+00  0.00000000000E+00  0.76875108730E+03  0.76875108730E+03  0.25500000920E-02 0. -1.
        2   -1    0    0  501    0  0.00000000000E+00  0.00000000000E+00 -0.54958350506E+03  0.54958350507E+03  0.25500000920E-02 0.  1.
    10030    2    1    2    0    0  0.00000000000E+00  0.00000000000E+00  0.21916758223E+03  0.13183345924E+04  0.12999891032E+04 0.  0.
        1    1    3    3  502    0  0.31244693130E+03  0.19183306064E+03 -0.43471188419E+03  0.56868042899E+03  0.50400001928E-02 0.  1.
       -1    1    3    3    0  502 -0.31244693130E+03 -0.19183306064E+03  0.65387946643E+03  0.74965416338E+03  0.50400001928E-02 0. -1.
</event>
<event>
 5   0  0.2756984E-04  0.1320650E+04  0.7818609E-02  0.9013348E-01
       -2   -1    0    0    0  501  0.00000000000E+00  0.00000000000E+00  0.72215833882E+03  0.72215833882E+03  0.25500000920E-02 0.  1.
        2   -1    0    0  501    0  0.00000000000E+00  0.00000000000E+00 -0.60378604909E+03  0.60378604909E+03  0.25500000920E-02 0. -1.
    10030    2    1    2    0    0  0.00000000000E+00  0.00000000000E+00  0.11837228973E+03  0.13259443879E+04  0.13206500372E+04 0.  0.
        3    1    3    3  502    0  0.67162287426E+02  0.65585109595E+03  0.21920138184E+02  0.65964531043E+03  0.10100000352E+00 0. -1.
       -3    1    3    3    0  502 -0.67162287426E+02 -0.65585109595E+03  0.96452151548E+02  0.66629907748E+03  0.10100000352E+00 0.  1.
</event>
<event>
 5   0  0.1476511E-04  0.1294830E+04  0.7818609E-02  0.9033675E-01
       -1   -1    0    0    0  501  0.00000000000E+00  0.00000000000E+00  0.62090069058E+03  0.62090069060E+03  0.50400001928E-02 0. -1.
        1   -1    0    0  501    0  0.00000000000E+00  0.00000000000E+00 -0.67506133687E+03  0.67506133689E+03  0.50400001928E-02 0.  1.
    10030    2    1    2    0    0  0.00000000000E+00  0.00000000000E+00 -0.54160646289E+02  0.12959620275E+04  0.12948297962E+04 0.  0.
        2    1    3    3  502    0 -0.17341959672E+03  0.26610790533E+03  0.53755682200E+03  0.62438378477E+03  0.25500000920E-02 0. -1.
       -2    1    3    3    0  502  0.17341959672E+03 -0.26610790533E+03 -0.59171746828E+03  0.67157824271E+03  0.25500000920E-02 0.  1.
</event>
<event>
 5   0  0.2756984E-04  0.1300766E+04  0.7818609E-02  0.9028958E-01
       -2   -1    0    0    0  501  0.00000000000E+00  0.00000000000E+00  0.30180535728E+03  0.30180535729E+03  0.25500000920E-02 0. -1.
        2   -1    0    0  501    0  0.00000000000E+00  0.00000000000E+00 -0.14015601426E+04  0.14015601427E+04  0.25500000920E-02 0.  1.
    10030    2    1    2    0    0  0.00000000000E+00  0.00000000000E+00 -0.10997547854E+04  0.17033654999E+04  0.13007664811E+04 0.  0.
        3    1    3    3  502    0 -0.18498239808E+03 -0.39702076538E+03 -0.11794699234E+04  0.12581706110E+04  0.10100000352E+00 0.  1.
       -3    1    3    3    0  502  0.18498239808E+03  0.39702076538E+03  0.79715138076E+02  0.44519488899E+03  0.10100000352E+00 0. -1.
</event>
<event>
 5   0  0.2723209E-04  0.1299204E+04  0.7818609E-02  0.9030197E-01
       -2   -1    0    0    0  501  0.00000000000E+00  0.00000000000E+00  0.33818059691E+03  0.33818059692E+03  0.25500000920E-02 0. -1.
        2   -1    0    0  501    0  0.00000000000E+00  0.00000000000E+00 -0.12478022388E+04  0.12478022388E+04  0.25500000920E-02 0.  1.
    10030    2    1    2    0    0  0.00000000000E+00  0.00000000000E+00 -0.90962164192E+03  0.15859828357E+04  0.12992036114E+04 0.  0.
        2    1    3    3  502    0  0.62095840901E+03  0.18540321526E+03 -0.50965982844E+03  0.82444941548E+03  0.25500000920E-02 0. -1.
       -2    1    3    3    0  502 -0.62095840901E+03 -0.18540321526E+03 -0.39996181347E+03  0.76153342027E+03  0.25500000920E-02 0.  1.
</event>
<event>
 5   0  0.2661377E-04  0.1300009E+04  0.7818609E-02  0.9029558E-01
        2   -1    0    0  501    0  0.00000000000E+00  0.00000000000E+00  0.12179831836E+04  0.12179831836E+04  0.25500000920E-02 0. -1.
       -2   -1    0    0    0  501  0.00000000000E+00  0.00000000000E+00 -0.34688951578E+03  0.34688951579E+03  0.25500000920E-02 0.  1.
    10030    2    1    2    0    0  0.00000000000E+00  0.00000000000E+00  0.87109366783E+03  0.15648726994E+04  0.13000086104E+04 0.  0.
        5    1    3    3  502    0  0.36208368751E+03  0.47226010145E+03  0.12084458842E+03  0.60725588077E+03  0.46999998093E+01 0.  1.
       -5    1    3    3    0  502 -0.36208368751E+03 -0.47226010145E+03  0.75024907940E+03  0.95761681863E+03  0.46999998093E+01 0. -1.
</event>
<event>
 5   0  0.1408341E-04  0.1298319E+04  0.7818609E-02  0.9030899E-01
       -1   -1    0    0    0  501  0.00000000000E+00  0.00000000000E+00  0.88928987136E+03  0.88928987138E+03  0.50400001928E-02 0. -1.
        1   -1    0    0  501    0  0.00000000000E+00  0.00000000000E+00 -0.47387049165E+03  0.47387049168E+03  0.50400001928E-02 0.  1.
    10030    2    1    2    0    0  0.00000000000E+00  0.00000000000E+00  0.41541937971E+03  0.13631603631E+04  0.12983192652E+04 0.  0.
        5    1    3    3  502    0 -0.42528760328E+03 -0.23365263100E+03  0.66043216497E+03  0.81954611341E+03  0.46999998093E+01 0. -1.
       -5    1    3    3    0  502  0.42528760328E+03  0.23365263100E+03 -0.24501278526E+03  0.54361424965E+03  0.46999998093E+01 0.  1.
</event>
<event>
 5   0  0.1408341E-04  0.1294760E+04  0.7818609E-02  0.9033731E-01
        1   -1    0    0  501    0  0.00000000000E+00  0.00000000000E+00  0.16861560525E+04  0.16861560525E+04  0.50400001928E-02 0.  1.
       -1   -1    0    0    0  501  0.00000000000E+00  0.00000000000E+00 -0.24855392180E+03  0.24855392185E+03  0.50400001928E-02 0. -1.
    10030    2    1    2    0    0  0.00000000000E+00  0.00000000000E+00  0.14376021307E+04  0.19347099743E+04  0.12947597455E+04 0.  0.
        5    1    3    3  502    0  0.52231882730E+03 -0.17272019984E+03  0.20893279809E+03  0.58849318510E+03  0.46999998093E+01 0. -1.
       -5    1    3    3    0  502 -0.52231882730E+03  0.17272019984E+03  0.12286693326E+04  0.13462167892E+04  0.46999998093E+01 0.  1.
</event>
<event>
 5   0  0.2794825E-04  0.1299134E+04  0.7818609E-02  0.9030252E-01
       -2   -1    0    0    0  501  0.00000000000E+00  0.00000000000E+00  0.47714749269E+03  0.47714749270E+03  0.25500000920E-02 0. -1.
        2   -1    0    0  501    0  0.00000000000E+00  0.00000000000E+00 -0.88429159085E+03  0.88429159085E+03  0.25500000920E-02 0.  1.
    10030    2    1    2    0    0  0.00000000000E+00  0.00000000000E+00 -0.40714409816E+03  0.13614390836E+04  0.12991343509E+04 0.  0.
        1    1    3    3  502    0 -0.25578190143E+03  0.19873838178E+03 -0.79361668794E+03  0.85717487883E+03  0.50400001928E-02 0.  1.
       -1    1    3    3    0  502  0.25578190143E+03 -0.19873838178E+03  0.38647258978E+03  0.50426420473E+03  0.50400001928E-02 0. -1.
</event>
<event>
 5   0  0.1430636E-04  0.1286391E+04  0.7818609E-02  0.9040427E-01
        1   -1    0    0  501    0  0.00000000000E+00  0.00000000000E+00  0.13372682850E+04  0.13372682850E+04  0.50400001928E-02 0.  1.
       -1   -1    0    0    0  501  0.00000000000E+00  0.00000000000E+00 -0.30936247345E+03  0.30936247350E+03  0.50400001928E-02 0. -1.
    10030    2    1    2    0    0  0.00000000000E+00  0.00000000000E+00  0.10279058115E+04  0.16466307585E+04  0.12863912692E+04 0.  0.
        4    1    3    3  502    0  0.12256199445E+03 -0.20432221091E+03  0.12786944218E+04  0.13007036732E+04  0.12699999809E+01 0.  1.
       -4    1    3    3    0  502 -0.12256199445E+03  0.20432221091E+03 -0.25078861028E+03  0.34592708524E+03  0.12699999809E+01 0. -1.
</event>
<event>
 5   0  0.2723209E-04  0.1299381E+04  0.7818609E-02  0.9030056E-01
       -2   -1    0    0    0  501  0.00000000000E+00  0.00000000000E+00  0.23832693592E+03  0.23832693594E+03  0.25500000920E-02 0.  1.
        2   -1    0    0  501    0  0.00000000000E+00  0.00000000000E+00 -0.17710863739E+04  0.17710863739E+04  0.25500000920E-02 0. -1.
    10030    2    1    2    0    0  0.00000000000E+00  0.00000000000E+00 -0.15327594379E+04  0.20094133098E+04  0.12993807583E+04 0.  0.
        2    1    3    3  502    0  0.37740996664E+03 -0.32582523164E+03 -0.14105179983E+04  0.14960485914E+04  0.25500000920E-02 0. -1.
       -2    1    3    3    0  502 -0.37740996664E+03  0.32582523164E+03 -0.12224143968E+03  0.51336471838E+03  0.25500000920E-02 0.  1.
</event>
<event>
 5   0  0.1479690E-04  0.1300144E+04  0.7818609E-02  0.9029451E-01
        1   -1    0    0  501    0  0.00000000000E+00  0.00000000000E+00  0.38779679423E+03  0.38779679426E+03  0.50400001928E-02 0.  1.
       -1   -1    0    0    0  501  0.00000000000E+00  0.00000000000E+00 -0.10897297152E+04  0.10897297152E+04  0.50400001928E-02 0. -1.
    10030    2    1    2    0    0  0.00000000000E+00  0.00000000000E+00 -0.70193292094E+03  0.14775265094E+04  0.13001441307E+04 0.  0.
        1    1    3    3  502    0  0.12168949343E+03 -0.26846710746E+03  0.30748902287E+03  0.42594884647E+03  0.50400001928E-02 0.  1.
       -1    1    3    3    0  502 -0.12168949343E+03  0.26846710746E+03 -0.10094219438E+04  0.10515776630E+04  0.50400001928E-02 0. -1.
</event>
<event>
 5   0  0.2573071E-04  0.1300129E+04  0.7818609E-02  0.9029463E-01
       -2   -1    0    0    0  501  0.00000000000E+00  0.00000000000E+00  0.44284876436E+03  0.44284876437E+03  0.25500000920E-02 0.  1.
        2   -1    0    0  501    0  0.00000000000E+00  0.00000000000E+00 -0.95423962069E+03  0.95423962069E+03  0.25500000920E-02 0. -1.
    10030    2    1    2    0    0  0.00000000000E+00  0.00000000000E+00 -0.51139085633E+03  0.13970883851E+04  0.13001289735E+04 0.  0.
        4    1    3    3  502    0 -0.46229538311E+03  0.11715368640E+03 -0.73038625218E+03  0.87230023373E+03  0.12699999809E+01 0. -1.
       -4    1    3    3    0  502  0.46229538311E+03 -0.11715368640E+03  0.21899539586E+03  0.52478815134E+03  0.12699999809E+01 0.  1.
</event>
<event>
 5   0  0.1430636E-04  0.1301119E+04  0.7818609E-02  0.9028679E-01
       -1   -1    0    0    0  501  0.00000000000E+00  0.00000000000E+00  0.66227363117E+03  0.66227363119E+03  0.50400001928E-02 0. -1.
        1   -1    0    0  501    0  0.00000000000E+00  0.00000000000E+00 -0.63905208182E+03  0.63905208184E+03  0.50400001928E-02 0.  1.
    10030    2    1    2    0    0  0.00000000000E+00  0.00000000000E+00  0.23221549344E+02  0.13013257130E+04  0.13011185077E+04 0.  0.
        4    1    3    3  502    0  0.43436539050E+03  0.48151568984E+03  0.63533181148E+02  0.65158938760E+03  0.12699999809E+01 0. -1.
       -4    1    3    3    0  502 -0.43436539050E+03 -0.48151568984E+03 -0.40311631804E+02  0.64973632543E+03  0.12699999809E+01 0.  1.
</event>
<event>
 5   0  0.1002887E-04  0.1298674E+04  0.7818609E-02  0.9030618E-01
       -4   -1    0    0    0  501  0.00000000000E+00  0.00000000000E+00  0.43618293487E+03  0.43618478375E+03  0.12699999809E+01 0.  1.
        4   -1    0    0  501    0  0.00000000000E+00  0.00000000000E+00 -0.96665067599E+03  0.96665151026E+03  0.12699999809E+01 0. -1.
    10030    2    1    2    0    0  0.00000000000E+00  0.00000000000E+00 -0.53046774112E+03  0.14028362940E+04  0.12986738018E+04 0.  0.
        1    1    3    3  502    0 -0.30022087858E+02 -0.59380779116E+03  0.16717474756E+02  0.59480122107E+03  0.50400001928E-02 0.  1.
       -1    1    3    3    0  502  0.30022087858E+02  0.59380779116E+03 -0.54718521587E+03  0.80803507294E+03  0.50400001928E-02 0. -1.
</event>
<event>
 5   0  0.1430636E-04  0.1299929E+04  0.7818609E-02  0.9029622E-01
        1   -1    0    0  501    0  0.00000000000E+00  0.00000000000E+00  0.11430486058E+04  0.11430486058E+04  0.50400001928E-02 0. -1.
       -1   -1    0    0    0  501  0.00000000000E+00  0.00000000000E+00 -0.36958501935E+03  0.36958501938E+03  0.50400001928E-02 0.  1.
    10030    2    1    2    0    0  0.00000000000E+00  0.00000000000E+00  0.77346358647E+03  0.15126336252E+04  0.12999286767E+04 0.  0.
        4    1    3    3  502    0  0.59903558531E+03 -0.25197413224E+03  0.39934159560E+03  0.76276465483E+03  0.12699999809E+01 0. -1.
       -4    1    3    3    0  502 -0.59903558531E+03  0.25197413224E+03  0.37412199087E+03  0.74986897038E+03  0.12699999809E+01 0.  1.
</event>
<event>
 5   0  0.1408341E-04  0.1299775E+04  0.7818609E-02  0.9029744E-01
       -1   -1    0    0    0  501  0.00000000000E+00  0.00000000000E+00  0.35333921557E+03  0.35333921561E+03  0.50400001928E-02 0.  1.
        1   -1    0    0  501    0  0.00000000000E+00  0.00000000000E+00 -0.11953202574E+04  0.11953202574E+04  0.50400001928E-02 0. -1.
    10030    2    1    2    0    0  0.00000000000E+00  0.00000000000E+00 -0.84198104183E+03  0.15486594730E+04  0.12997746299E+04 0.  0.
        5    1    3    3  502    0  0.25894898151E+03 -0.30027285486E+03  0.19249377048E+03  0.44078827577E+03  0.46999998093E+01 0.  1.
       -5    1    3    3    0  502 -0.25894898151E+03  0.30027285486E+03 -0.10344748123E+04  0.11078711973E+04  0.46999998093E+01 0. -1.
</event>
<event>
 5   0  0.2794825E-04  0.1300630E+04  0.7818609E-02  0.9029066E-01
        2   -1    0    0  501    0  0.00000000000E+00  0.00000000000E+00  0.10787907477E+04  0.10787907477E+04  0.25500000920E-02 0. -1.
       -2   -1    0    0    0  501  0.00000000000E+00  0.00000000000E+00 -0.39202165465E+03  0.39202165465E+03  0.25500000920E-02 0.  1.
    10030    2    1    2    0    0  0.00000000000E+00  0.00000000000E+00  0.68676909301E+03  0.14708124023E+04  0.13006295920E+04 0.  0.
        1    1    3    3  502    0  0.37857095440E+03  0.13879262448E+03  0.92037116319E+03  0.10048196048E+04  0.50400001928E-02 0. -1.
       -1    1    3    3    0  502 -0.37857095440E+03 -0.13879262448E+03 -0.23360207018E+03  0.46599279752E+03  0.50400001928E-02 0.  1.
</event>
<event>
 5   0  0.1475396E-04  0.1304686E+04  0.7818609E-02  0.9025857E-01
        1   -1    0    0  501    0  0.00000000000E+00  0.00000000000E+00  0.52833341072E+03  0.52833341074E+03  0.50400001928E-02 0. -1.
       -1   -1    0    0    0  501  0.00000000000E+00  0.00000000000E+00 -0.80545989179E+03  0.80545989181E+03  0.50400001928E-02 0.  1.
    10030    2    1    2    0    0  0.00000000000E+00  0.00000000000E+00 -0.27712648108E+03  0.13337933025E+04  0.13046859727E+04 0.  0.
        3    1    3    3  502    0  0.33075236065E+03  0.31732460570E+03  0.33596842031E+03  0.56830169726E+03  0.10100000352E+00 0. -1.
       -3    1    3    3    0  502 -0.33075236065E+03 -0.31732460570E+03 -0.61309490139E+03  0.76549160529E+03  0.10100000352E+00 0.  1.
</event>
<event>
 5   0  0.2794825E-04  0.1300452E+04  0.7818609E-02  0.9029207E-01
        2   -1    0    0  501    0  0.00000000000E+00  0.00000000000E+00  0.66476845295E+03  0.66476845295E+03  0.25500000920E-02 0. -1.
       -2   -1    0    0    0  501  0.00000000000E+00  0.00000000000E+00 -0.63600144239E+03  0.63600144240E+03  0.25500000920E-02 0.  1.
    10030    2    1    2    0    0  0.00000000000E+00  0.00000000000E+00  0.28767010558E+02  0.13007698954E+04  0.13004517599E+04 0.  0.
        1    1    3    3  502    0  0.97059985502E+01  0.38156929750E+03  0.54091931120E+03  0.66202948307E+03  0.50400001928E-02 0. -1.
       -1    1    3    3    0  502 -0.97059985502E+01 -0.38156929750E+03 -0.51215230064E+03  0.63874041228E+03  0.50400001928E-02 0.  1.
</event>
<event>
 5   0  0.1475396E-04  0.1301662E+04  0.7818609E-02  0.9028248E-01
        1   -1    0    0  501    0  0.00000000000E+00  0.00000000000E+00  0.82782483948E+03  0.82782483949E+03  0.50400001928E-02 0. -1.
       -1   -1    0    0    0  501  0.00000000000E+00  0.00000000000E+00 -0.51167948782E+03  0.51167948784E+03  0.50400001928E-02 0.  1.
    10030    2    1    2    0    0  0.00000000000E+00  0.00000000000E+00  0.31614535166E+03  0.13395043273E+04  0.13016619990E+04 0.  0.
        3    1    3    3  502    0  0.46980236346E+03  0.15522207205E+03  0.59318025578E+03  0.77244480606E+03  0.10100000352E+00 0. -1.
       -3    1    3    3    0  502 -0.46980236346E+03 -0.15522207205E+03 -0.27703490412E+03  0.56705952127E+03  0.10100000352E+00 0.  1.
</event>
<event>
 5   0  0.1408341E-04  0.1300270E+04  0.7818609E-02  0.9029351E-01
        1   -1    0    0  501    0  0.00000000000E+00  0.00000000000E+00  0.13317731402E+04  0.13317731402E+04  0.50400001928E-02 0.  1.
       -1   -1    0    0    0  501  0.00000000000E+00  0.00000000000E+00 -0.31737792297E+03  0.31737792301E+03  0.50400001928E-02 0. -1.
    10030    2    1    2    0    0  0.00000000000E+00  0.00000000000E+00  0.10143952173E+04  0.16491510633E+04  0.13002698076E+04 0.  0.
        5    1    3    3  502    0  0.91453933205E+02 -0.74770519594E+02 -0.30363026329E+03  0.32583412848E+03  0.46999998093E+01 0. -1.
       -5    1    3    3    0  502 -0.91453933205E+02  0.74770519594E+02  0.13180254805E+04  0.13233169348E+04  0.46999998093E+01 0.  1.
</event>
<event>
 5   0  0.2573071E-04  0.1299575E+04  0.7818609E-02  0.9029902E-01
        2   -1    0    0  501    0  0.00000000000E+00  0.00000000000E+00  0.55053420362E+03  0.55053420362E+03  0.25500000920E-02 0. -1.
       -2   -1    0    0    0  501  0.00000000000E+00  0.00000000000E+00 -0.76693474128E+03  0.76693474129E+03  0.25500000920E-02 0.  1.
    10030    2    1    2    0    0  0.00000000000E+00  0.00000000000E+00 -0.21640053766E+03  0.13174689449E+04  0.12995750183E+04 0.  0.
        4    1    3    3  502    0  0.12823537654E+03 -0.75439089399E+01 -0.75393294119E+03  0.76479913381E+03  0.12699999809E+01 0.  1.
       -4    1    3    3    0  502 -0.12823537654E+03  0.75439089399E+01  0.53753240353E+03  0.55266981110E+03  0.12699999809E+01 0. -1.
</event>
<event>
 5   0  0.2723209E-04  0.1305294E+04  0.7818609E-02  0.9025378E-01
        2   -1    0    0  501    0  0.00000000000E+00  0.00000000000E+00  0.84563468540E+03  0.84563468540E+03  0.25500000920E-02 0.  1.
       -2   -1    0    0    0  501  0.00000000000E+00  0.00000000000E+00 -0.50370221483E+03  0.50370221484E+03  0.25500000920E-02 0. -1.
    10030    2    1    2    0    0  0.00000000000E+00  0.00000000000E+00  0.34193247057E+03  0.13493369002E+04  0.13052939347E+04 0.  0.
        2    1    3    3  502    0  0.16916674332E+03  0.30865312354E+03  0.73911426996E+03  0.81864158323E+03  0.25500000920E-02 0.  1.
       -2    1    3    3    0  502 -0.16916674332E+03 -0.30865312354E+03 -0.39718179940E+03  0.53069531701E+03  0.25500000920E-02 0. -1.
</event>
<event>
 5   0  0.1430636E-04  0.1300192E+04  0.7818609E-02  0.9029413E-01
        1   -1    0    0  501    0  0.00000000000E+00  0.00000000000E+00  0.38133992761E+03  0.38133992764E+03  0.50400001928E-02 0. -1.
       -1   -1    0    0    0  501  0.00000000000E+00  0.00000000000E+00 -0.11082634080E+04  0.11082634080E+04  0.50400001928E-02 0.  1.
    10030    2    1    2    0    0  0.00000000000E+00  0.00000000000E+00 -0.72692348038E+03  0.14896033356E+04  0.13001924285E+04 0.  0.
        4    1    3    3  502    0 -0.31381128749E+03 -0.23735913090E+03  0.22942759218E+03  0.45547284675E+03  0.12699999809E+01 0. -1.
       -4    1    3    3    0  502  0.31381128749E+03  0.23735913090E+03 -0.95635107256E+03  0.10341304889E+04  0.12699999809E+01 0.  1.
</event>
<event>
 5   0  0.2661377E-04  0.1297075E+04  0.7818609E-02  0.9031888E-01
        2   -1    0    0  501    0  0.00000000000E+00  0.00000000000E+00  0.19097698611E+04  0.19097698611E+04  0.25500000920E-02 0. -1.
       -2   -1    0    0    0  501  0.00000000000E+00  0.00000000000E+00 -0.22023645700E+03  0.22023645702E+03  0.25500000920E-02 0.  1.
    10030    2    1    2    0    0  0.00000000000E+00  0.00000000000E+00  0.16895334041E+04  0.21300063181E+04  0.12970750910E+04 0.  0.
        5    1    3    3  502    0 -0.60949315072E+03  0.19823994847E+03  0.68221862728E+03  0.93606908044E+03  0.46999998093E+01 0.  1.
       -5    1    3    3    0  502  0.60949315072E+03 -0.19823994847E+03  0.10073147768E+04  0.11939372377E+04  0.46999998093E+01 0. -1.
</event>
<event>
 5   0  0.1479690E-04  0.1294644E+04  0.7818609E-02  0.9033823E-01
       -1   -1    0    0    0  501  0.00000000000E+00  0.00000000000E+00  0.31485043661E+03  0.31485043665E+03  0.50400001928E-02 0.  1.
        1   -1    0    0  501    0  0.00000000000E+00  0.00000000000E+00 -0.13308723722E+04  0.13308723722E+04  0.50400001928E-02 0. -1.
    10030    2    1    2    0    0  0.00000000000E+00  0.00000000000E+00 -0.10160219356E+04  0.16457228088E+04  0.12946439626E+04 0.  0.
        1    1    3    3  502    0 -0.36155608769E+03 -0.11407039336E+03  0.15895282233E+03  0.41109714051E+03  0.50400001928E-02 0.  1.
       -1    1    3    3    0  502  0.36155608769E+03  0.11407039336E+03 -0.11749747579E+04  0.12346256683E+04  0.50400001928E-02 0. -1.
</event>
<event>
 5   0  0.2573071E-04  0.1300095E+04  0.7818609E-02  0.9029490E-01
        2   -1    0    0  501    0  0.00000000000E+00  0.00000000000E+00  0.12945539848E+04  0.12945539848E+04  0.25500000920E-02 0.  1.
       -2   -1    0    0    0  501  0.00000000000E+00  0.00000000000E+00 -0.32641483383E+03  0.32641483384E+03  0.25500000920E-02 0. -1.
    10030    2    1    2    0    0  0.00000000000E+00  0.00000000000E+00  0.96813915097E+03  0.16209688186E+04  0.13000948025E+04 0.  0.
        4    1    3    3  502    0  0.13454165366E+03  0.47755095953E+03  0.10077344020E+04  0.11232482421E+04  0.12699999809E+01 0.  1.
       -4    1    3    3    0  502 -0.13454165366E+03 -0.47755095953E+03 -0.39595251021E+02  0.49772057655E+03  0.12699999809E+01 0. -1.
</event>
<event>
 5   0  0.1476511E-04  0.1296997E+04  0.7818609E-02  0.9031950E-01
        1   -1    0    0  501    0  0.00000000000E+00  0.00000000000E+00  0.88285959396E+03  0.88285959397E+03  0.50400001928E-02 0.  1.
       -1   -1    0    0    0  501  0.00000000000E+00  0.00000000000E+00 -0.47635031907E+03  0.47635031909E+03  0.50400001928E-02 0. -1.
    10030    2    1    2    0    0  0.00000000000E+00  0.00000000000E+00  0.40650927489E+03  0.13592099131E+04  0.12969972233E+04 0.  0.
        2    1    3    3  502    0 -0.91523368480E+02 -0.30706059483E+03  0.79411432190E+03  0.85631786863E+03  0.25500000920E-02 0.  1.
       -2    1    3    3    0  502  0.91523368480E+02  0.30706059483E+03 -0.38760504702E+03  0.50289204443E+03  0.25500000920E-02 0. -1.
</event>
<event>
 5   0  0.1476511E-04  0.1301081E+04  0.7818609E-02  0.9028708E-01
       -1   -1    0    0    0  501  0.00000000000E+00  0.00000000000E+00  0.54647284828E+03  0.54647284830E+03  0.50400001928E-02 0.  1.
        1   -1    0    0  501    0  0.00000000000E+00  0.00000000000E+00 -0.77442658933E+03  0.77442658935E+03  0.50400001928E-02 0. -1.
    10030    2    1    2    0    0  0.00000000000E+00  0.00000000000E+00 -0.22795374106E+03  0.13208994377E+04  0.13010812489E+04 0.  0.
        2    1    3    3  502    0 -0.36968980473E+03 -0.45747954459E+03  0.16818646366E+03  0.61175548383E+03  0.25500000920E-02 0.  1.
       -2    1    3    3    0  502  0.36968980473E+03  0.45747954459E+03 -0.39614020471E+03  0.70914395382E+03  0.25500000920E-02 0. -1.
</event>
<event>
 5   0  0.2723209E-04  0.1299195E+04  0.7818609E-02  0.9030203E-01
        2   -1    0    0  501    0  0.00000000000E+00  0.00000000000E+00  0.11878323763E+04  0.11878323763E+04  0.25500000920E-02 0.  1.
       -2   -1    0    0    0  501  0.00000000000E+00  0.00000000000E+00 -0.35524974611E+03  0.35524974612E+03  0.25500000920E-02 0. -1.
    10030    2    1    2    0    0  0.00000000000E+00  0.00000000000E+00  0.83258263016E+03  0.15430821224E+04  0.12991953665E+04 0.  0.
        2    1    3    3  502    0  0.13391095390E+03  0.28612011298E+03  0.10904529886E+04  0.11352905281E+04  0.25500000920E-02 0.  1.
       -2    1    3    3    0  502 -0.13391095390E+03 -0.28612011298E+03 -0.25787035849E+03  0.40779159435E+03  0.25500000920E-02 0. -1.
</event>
<event>
 5   0  0.1408341E-04  0.1298078E+04  0.7818609E-02  0.9031091E-01
       -1   -1    0    0    0  501  0.00000000000E+00  0.00000000000E+00  0.44108532403E+03  0.44108532406E+03  0.50400001928E-02 0.  1.
        1   -1    0    0  501    0  0.00000000000E+00  0.00000000000E+00 -0.95503420589E+03  0.95503420591E+03  0.50400001928E-02 0. -1.
    10030    2    1    2    0    0  0.00000000000E+00  0.00000000000E+00 -0.51394888187E+03  0.13961195300E+04  0.12980779209E+04 0.  0.
        5    1    3    3  502    0 -0.16269030875E+03 -0.62257785654E+03 -0.34797047926E+03  0.73155783671E+03  0.46999998093E+01 0.  1.
       -5    1    3    3    0  502  0.16269030875E+03  0.62257785654E+03 -0.16597840261E+03  0.66456169326E+03  0.46999998093E+01 0. -1.
</event>
<event>
 5   0  0.1430636E-04  0.1296520E+04  0.7818609E-02  0.9032329E-01
        1   -1    0    0  501    0  0.00000000000E+00  0.00000000000E+00  0.82862616507E+03  0.82862616509E+03  0.50400001928E-02 0. -1.
       -1   -1    0    0    0  501  0.00000000000E+00  0.00000000000E+00 -0.50715420781E+03  0.50715420783E+03  0.50400001928E-02 0.  1.
    10030    2    1    2    0    0  0.00000000000E+00  0.00000000000E+00  0.32147195726E+03  0.13357803729E+04  0.12965203374E+04 0.  0.
        4    1    3    3  502    0  0.33444611283E+03 -0.53558227178E+03  0.95369693337E+01  0.63150228734E+03  0.12699999809E+01 0.  1.
       -4    1    3    3    0  502 -0.33444611283E+03  0.53558227178E+03  0.31193498793E+03  0.70427808558E+03  0.12699999809E+01 0. -1.
</event>
<event>
 5   0  0.1408341E-04  0.1299258E+04  0.7818609E-02  0.9030153E-01
       -1   -1    0    0    0  501  0.00000000000E+00  0.00000000000E+00  0.37476954631E+03  0.37476954634E+03  0.50400001928E-02 0. -1.
        1   -1    0    0  501    0  0.00000000000E+00  0.00000000000E+00 -0.11260737459E+04  0.11260737459E+04  0.50400001928E-02 0.  1.
    10030    2    1    2    0    0  0.00000000000E+00  0.00000000000E+00 -0.75130419962E+03  0.15008432923E+04  0.12992584761E+04 0.  0.
        5    1    3    3  502    0 -0.60235793102E+03  0.21228141815E+03 -0.51280723219E+03  0.81907986481E+03  0.46999998093E+01 0.  1.
       -5    1    3    3    0  502  0.60235793102E+03 -0.21228141815E+03 -0.23849696744E+03  0.68176342747E+03  0.46999998093E+01 0. -1.
</event>
<event>
 5   0  0.2723209E-04  0.1294771E+04  0.7818609E-02  0.9033722E-01
        2   -1    0    0  501    0  0.00000000000E+00  0.00000000000E+00  0.99081261861E+03  0.99081261861E+03  0.25500000920E-02 0.  1.
       -2   -1    0    0    0  501  0.00000000000E+00  0.00000000000E+00 -0.42299422197E+03  0.42299422197E+03  0.25500000920E-02 0. -1.
    10030    2    1    2    0    0  0.00000000000E+00  0.00000000000E+00  0.56781839664E+03  0.14138068406E+04  0.12947710419E+04 0.  0.
        2    1    3    3  502    0  0.14637544763E+03 -0.26817434295E+03 -0.33932195465E+03  0.45659899124E+03  0.25500000920E-02 0. -1.
       -2    1    3    3    0  502 -0.14637544763E+03  0.26817434295E+03  0.90714035130E+03  0.95720784935E+03  0.25500000920E-02 0.  1.
</event>
<event>
 5   0  0.2723209E-04  0.1296739E+04  0.7818609E-02  0.9032155E-01
       -2   -1    0    0    0  501  0.00000000000E+00  0.00000000000E+00  0.23707763075E+03  0.23707763077E+03  0.25500000920E-02 0.  1.
        2   -1    0    0  501    0  0.00000000000E+00  0.00000000000E+00 -0.17731880319E+04  0.17731880319E+04  0.25500000920E-02 0. -1.
    10030    2    1    2    0    0  0.00000000000E+00  0.00000000000E+00 -0.15361104012E+04  0.20102656627E+04  0.12967393223E+04 0.  0.
        2    1    3    3  502    0 -0.32047294804E+03 -0.21275995576E+03  0.41068818693E+02  0.38685443913E+03  0.25500000920E-02 0.  1.
       -2    1    3    3    0  502  0.32047294804E+03  0.21275995576E+03 -0.15771792198E+04  0.16234112235E+04  0.25500000920E-02 0. -1.
</event>
<event>
 5   0  0.1479690E-04  0.1289788E+04  0.7818609E-02  0.9037703E-01
       -1   -1    0    0    0  501  0.00000000000E+00  0.00000000000E+00  0.39314718074E+03  0.39314718077E+03  0.50400001928E-02 0. -1.
        1   -1    0    0  501    0  0.00000000000E+00  0.00000000000E+00 -0.10578432455E+04  0.10578432455E+04  0.50400001928E-02 0.  1.
    10030    2    1    2    0    0  0.00000000000E+00  0.00000000000E+00 -0.66469606477E+03  0.14509904263E+04  0.12897877185E+04 0.  0.
        1    1    3    3  502    0 -0.16375804273E+03 -0.11966071997E+03  0.35633391366E+03  0.41001127120E+03  0.50400001928E-02 0. -1.
       -1    1    3    3    0  502  0.16375804273E+03  0.11966071997E+03 -0.10210299784E+04  0.10409791551E+04  0.50400001928E-02 0.  1.
</event>
<event>
 5   0  0.2756984E-04  0.1301089E+04  0.7818609E-02  0.9028702E-01
       -2   -1    0    0    0  501  0.00000000000E+00  0.00000000000E+00  0.11724876026E+04  0.11724876026E+04  0.25500000920E-02 0.  1.
        2   -1    0    0  501    0  0.00000000000E+00  0.00000000000E+00 -0.36094906166E+03  0.36094906167E+03  0.25500000920E-02 0. -1.
    10030    2    1    2    0    0  0.00000000000E+00  0.00000000000E+00  0.81153854093E+03  0.15334366643E+04  0.13010892359E+04 0.  0.
        3    1    3    3  502    0 -0.14204772120E+03 -0.62642598525E+03  0.28430572478E+03  0.70243634974E+03  0.10100000352E+00 0. -1.
       -3    1    3    3    0  502  0.14204772120E+03  0.62642598525E+03  0.52723281615E+03  0.83100031451E+03  0.10100000352E+00 0.  1.
</event>
<event>
 5   0  0.2756984E-04  0.1299972E+04  0.7818609E-02  0.9029587E-01
       -2   -1    0    0    0  501  0.00000000000E+00  0.00000000000E+00  0.16229771582E+03  0.16229771584E+03  0.25500000920E-02 0. -1.
        2   -1    0    0  501    0  0.00000000000E+00  0.00000000000E+00 -0.26031280186E+04  0.26031280186E+04  0.25500000920E-02 0.  1.
    10030    2    1    2    0    0  0.00000000000E+00  0.00000000000E+00 -0.24408303028E+04  0.27654257345E+04  0.12999718942E+04 0.  0.
        3    1    3    3  502    0  0.59789276609E+03 -0.65428002545E+02 -0.17446335898E+04  0.18454004866E+04  0.10100000352E+00 0.  1.
       -3    1    3    3    0  502 -0.59789276609E+03  0.65428002545E+02 -0.69619671306E+03  0.92002524788E+03  0.10100000352E+00 0. -1.
</event>
<event>
 5   0  0.2573071E-04  0.1303402E+04  0.7818609E-02  0.9026872E-01
       -2   -1    0    0    0  501  0.00000000000E+00  0.00000000000E+00  0.32293384559E+03  0.32293384560E+03  0.25500000920E-02 0.  1.
        2   -1    0    0  501    0  0.00000000000E+00  0.00000000000E+00 -0.13151744387E+04  0.13151744387E+04  0.25500000920E-02 0. -1.
    10030    2    1    2    0    0  0.00000000000E+00  0.00000000000E+00 -0.99224059308E+03  0.16381082843E+04  0.13034022236E+04 0.  0.
        4    1    3    3  502    0  0.11499972763E+03  0.57975468579E+03 -0.84116074801E+03  0.10280532330E+04  0.12699999809E+01 0. -1.
       -4    1    3    3    0  502 -0.11499972763E+03 -0.57975468579E+03 -0.15107984507E+03  0.61005505124E+03  0.12699999809E+01 0.  1.
</event>
<event>
 5   0  0.1430636E-04  0.1282261E+04  0.7818609E-02  0.9043752E-01
       -1   -1    0    0    0  501  0.00000000000E+00  0.00000000000E+00  0.38030047300E+03  0.38030047303E+03  0.50400001928E-02 0.  1.
        1   -1    0    0  501    0  0.00000000000E+00  0.00000000000E+00 -0.10808519403E+04  0.10808519403E+04  0.50400001928E-02 0. -1.
    10030    2    1    2    0    0  0.00000000000E+00  0.00000000000E+00 -0.70055146729E+03  0.14611524133E+04  0.12822612903E+04 0.  0.
        4    1    3    3  502    0 -0.42231083422E+03  0.37847000365E+03 -0.69110402414E+03  0.89398678371E+03  0.12699999809E+01 0. -1.
       -4    1    3    3    0  502  0.42231083422E+03 -0.37847000365E+03 -0.94474431501E+01  0.56716562963E+03  0.12699999809E+01 0.  1.
</event>
<event>
 5   0  0.1430636E-04  0.1293990E+04  0.7818609E-02  0.9034345E-01
        1   -1    0    0  501    0  0.00000000000E+00  0.00000000000E+00  0.67958299201E+03  0.67958299203E+03  0.50400001928E-02 0.  1.
       -1   -1    0    0    0  501  0.00000000000E+00  0.00000000000E+00 -0.61596929404E+03  0.61596929406E+03  0.50400001928E-02 0. -1.
    10030    2    1    2    0    0  0.00000000000E+00  0.00000000000E+00  0.63613697974E+02  0.12955522861E+04  0.12939895762E+04 0.  0.
        4    1    3    3  502    0 -0.20003394738E+03  0.58304825392E+03  0.22861941397E+03  0.65743995608E+03  0.12699999809E+01 0.  1.
       -4    1    3    3    0  502  0.20003394738E+03 -0.58304825392E+03 -0.16500571600E+03  0.63811233001E+03  0.12699999809E+01 0. -1.
</event>
<event>
 5   0  0.2661377E-04  0.1300763E+04  0.7818609E-02  0.9028961E-01
        2   -1    0    0  501    0  0.00000000000E+00  0.00000000000E+00  0.10380846462E+04  0.10380846462E+04  0.25500000920E-02 0.  1.
       -2   -1    0    0    0  501  0.00000000000E+00  0.00000000000E+00 -0.40747721191E+03  0.40747721192E+03  0.25500000920E-02 0. -1.
    10030    2    1    2    0    0  0.00000000000E+00  0.00000000000E+00  0.63060743433E+03  0.14455618582E+04  0.13007626031E+04 0.  0.
        5    1    3    3  502    0 -0.16884546194E+03  0.88049069322E+02 -0.37578315238E+03  0.42130333043E+03  0.46999998093E+01 0. -1.
       -5    1    3    3    0  502  0.16884546194E+03 -0.88049069322E+02  0.10063905867E+04  0.10242585277E+04  0.46999998093E+01 0.  1.
</event>
<event>
 5   0  0.1430636E-04  0.1300131E+04  0.7818609E-02  0.9029461E-01
        1   -1    0    0  501    0  0.00000000000E+00  0.00000000000E+00  0.49739761551E+03  0.49739761553E+03  0.50400001928E-02 0. -1.
       -1   -1    0    0    0  501  0.00000000000E+00  0.00000000000E+00 -0.84959225133E+03  0.84959225134E+03  0.50400001928E-02 0.  1.
    10030    2    1    2    0    0  0.00000000000E+00  0.00000000000E+00 -0.35219463582E+03  0.13469898669E+04  0.13001310088E+04 0.  0.
        4    1    3    3  502    0  0.30636270831E+03  0.16478179506E+03 -0.74504588346E+03  0.82225673022E+03  0.12699999809E+01 0.  1.
       -4    1    3    3    0  502 -0.30636270831E+03 -0.16478179506E+03  0.39285124764E+03  0.52473313665E+03  0.12699999809E+01 0. -1.
</event>
<event>
 5   0  0.2756984E-04  0.1299646E+04  0.7818609E-02  0.9029846E-01
       -2   -1    0    0    0  501  0.00000000000E+00  0.00000000000E+00  0.88634228867E+03  0.88634228868E+03  0.25500000920E-02 0. -1.
        2   -1    0    0  501    0  0.00000000000E+00  0.00000000000E+00 -0.47641862831E+03  0.47641862831E+03  0.25500000920E-02 0.  1.
    10030    2    1    2    0    0  0.00000000000E+00  0.00000000000E+00  0.40992366037E+03  0.13627609170E+04  0.12996460709E+04 0.  0.
        3    1    3    3  502    0 -0.16680055871E+03 -0.72736612466E+02 -0.44915745541E+03  0.48461889267E+03  0.10100000352E+00 0.  1.
       -3    1    3    3    0  502  0.16680055871E+03  0.72736612466E+02  0.85908111578E+03  0.87814202432E+03  0.10100000352E+00 0. -1.
</event>
<event>
 5   0  0.2661377E-04  0.1298627E+04  0.7818609E-02  0.9030655E-01
       -2   -1    0    0    0  501  0.00000000000E+00  0.00000000000E+00  0.20953804674E+03  0.20953804675E+03  0.25500000920E-02 0. -1.
        2   -1    0    0  501    0  0.00000000000E+00  0.00000000000E+00 -0.20120820030E+04  0.20120820030E+04  0.25500000920E-02 0.  1.
    10030    2    1    2    0    0  0.00000000000E+00  0.00000000000E+00 -0.18025439563E+04  0.22216200498E+04  0.12986265557E+04 0.  0.
        5    1    3    3  502    0 -0.26274657856E+03 -0.56286939322E+03 -0.57790966691E+03  0.84844527901E+03  0.46999998093E+01 0.  1.
       -5    1    3    3    0  502  0.26274657856E+03  0.56286939322E+03 -0.12246342894E+04  0.13731747708E+04  0.46999998093E+01 0. -1.
</event>
<event>
 5   0  0.1430636E-04  0.1298861E+04  0.7818609E-02  0.9030469E-01
       -1   -1    0    0    0  501  0.00000000000E+00  0.00000000000E+00  0.61226969197E+03  0.61226969199E+03  0.50400001928E-02 0.  1.
        1   -1    0    0  501    0  0.00000000000E+00  0.00000000000E+00 -0.68884692037E+03  0.68884692039E+03  0.50400001928E-02 0. -1.
    10030    2    1    2    0    0  0.00000000000E+00  0.00000000000E+00 -0.76577228401E+02  0.13011166124E+04  0.12988611808E+04 0.  0.
        4    1    3    3  502    0  0.22452910326E+03  0.51391923659E+03  0.28974326363E+03  0.63125198745E+03  0.12699999809E+01 0.  1.
       -4    1    3    3    0  502 -0.22452910326E+03 -0.51391923659E+03 -0.36632049203E+03  0.66986462493E+03  0.12699999809E+01 0. -1.
</event>
<event>
 5   0  0.1475396E-04  0.1302637E+04  0.7818609E-02  0.9027476E-01
       -1   -1    0    0    0  501  0.00000000000E+00  0.00000000000E+00  0.21851310233E+03  0.21851310239E+03  0.50400001928E-02 0.  1.
        1   -1    0    0  501    0  0.00000000000E+00  0.00000000000E+00 -0.19413758016E+04  0.19413758016E+04  0.50400001928E-02 0. -1.
    10030    2    1    2    0    0  0.00000000000E+00  0.00000000000E+00 -0.17228626993E+04  0.21598889040E+04  0.13026374005E+04 0.  0.
        3    1    3    3  502    0  0.45275763578E+03  0.90762723303E+02 -0.99812895753E+02  0.47242986047E+03  0.10100000352E+00 0.  1.
       -3    1    3    3    0  502 -0.45275763578E+03 -0.90762723303E+02 -0.16230498035E+04  0.16874590435E+04  0.10100000352E+00 0. -1.
</event>
<event>
 5   0  0.1430636E-04  0.1302302E+04  0.7818609E-02  0.9027742E-01
        1   -1    0    0  501    0  0.00000000000E+00  0.00000000000E+00  0.84516282412E+03  0.84516282414E+03  0.50400001928E-02 0.  1.
       -1   -1    0    0    0  501  0.00000000000E+00  0.00000000000E+00 -0.50167566410E+03  0.50167566412E+03  0.50400001928E-02 0. -1.
    10030    2    1    2    0    0  0.00000000000E+00  0.00000000000E+00  0.34348716002E+03  0.13468384883E+04  0.13023019943E+04 0.  0.
        4    1    3    3  502    0 -0.38976796075E+03 -0.52160967233E+03  0.17118215521E+03  0.67327606274E+03  0.12699999809E+01 0. -1.
       -4    1    3    3    0  502  0.38976796075E+03  0.52160967233E+03  0.17230500482E+03  0.67356242552E+03  0.12699999809E+01 0.  1.
</event>
<event>
 5   0  0.2661377E-04  0.1298239E+04  0.7818609E-02  0.9030962E-01
       -2   -1    0    0    0  501  0.00000000000E+00  0.00000000000E+00  0.59297253100E+03  0.59297253101E+03  0.25500000920E-02 0.  1.
        2   -1    0    0  501    0  0.00000000000E+00  0.00000000000E+00 -0.71058332801E+03  0.71058332802E+03  0.25500000920E-02 0. -1.
    10030    2    1    2    0    0  0.00000000000E+00  0.00000000000E+00 -0.11761079701E+03  0.13035558590E+04  0.12982394148E+04 0.  0.
        5    1    3    3  502    0 -0.33514636841E+03  0.44358043661E+03  0.27760035271E+03  0.62142637362E+03  0.46999998093E+01 0.  1.
       -5    1    3    3    0  502  0.33514636841E+03 -0.44358043661E+03 -0.39521114972E+03  0.68212948541E+03  0.46999998093E+01 0. -1.
</event>
<event>
 5   0  0.1430636E-04  0.1288749E+04  0.7818609E-02  0.9038535E-01
       -1   -1    0    0    0  501  0.00000000000E+00  0.00000000000E+00  0.11427300372E+04  0.11427300372E+04  0.50400001928E-02 0.  1.
        1   -1    0    0  501    0  0.00000000000E+00  0.00000000000E+00 -0.36335647981E+03  0.36335647985E+03  0.50400001928E-02 0. -1.
    10030    2    1    2    0    0  0.00000000000E+00  0.00000000000E+00  0.77937355739E+03  0.15060865171E+04  0.12887487943E+04 0.  0.
        4    1    3    3  502    0  0.52551537191E+03 -0.26872675171E+03  0.87561004860E+02  0.59669842942E+03  0.12699999809E+01 0. -1.
       -4    1    3    3    0  502 -0.52551537191E+03  0.26872675171E+03  0.69181255253E+03  0.90938808764E+03  0.12699999809E+01 0.  1.
</event>
<event>
 5   0  0.1002887E-04  0.1306653E+04  0.7818609E-02  0.9024306E-01
       -3   -1    0    0    0  501  0.00000000000E+00  0.00000000000E+00  0.10830869946E+04  0.10830869993E+04  0.10100000352E+00 0. -1.
        3   -1    0    0  501    0  0.00000000000E+00  0.00000000000E+00 -0.39409141579E+03  0.39409142873E+03  0.10100000352E+00 0.  1.
    10030    2    1    2    0    0  0.00000000000E+00  0.00000000000E+00  0.68899557883E+03  0.14771784281E+04  0.13066526703E+04 0.  0.
        3    1    3    3  502    0 -0.41487535597E+03  0.81385932384E+02 -0.21859177361E+03  0.47594916186E+03  0.10100000352E+00 0.  1.
       -3    1    3    3    0  502  0.41487535597E+03 -0.81385932384E+02  0.90758735244E+03  0.10012292662E+04  0.10100000352E+00 0. -1.
</event>
<event>
 5   0  0.1476511E-04  0.1300149E+04  0.7818609E-02  0.9029447E-01
        1   -1    0    0  501    0  0.00000000000E+00  0.00000000000E+00  0.84567414624E+03  0.84567414626E+03  0.50400001928E-02 0. -1.
       -1   -1    0    0    0  501  0.00000000000E+00  0.00000000000E+00 -0.49971614140E+03  0.49971614143E+03  0.50400001928E-02 0.  1.
    10030    2    1    2    0    0  0.00000000000E+00  0.00000000000E+00  0.34595800484E+03  0.13453902877E+04  0.13001492549E+04 0.  0.
        2    1    3    3  502    0  0.17927827894E+03 -0.27399373045E+03  0.75411093087E+03  0.82212928526E+03  0.25500000920E-02 0. -1.
       -2    1    3    3    0  502 -0.17927827894E+03  0.27399373045E+03 -0.40815292602E+03  0.52326100242E+03  0.25500000920E-02 0.  1.
</event>
<event>
 5   0  0.1408341E-04  0.1300172E+04  0.7818609E-02  0.9029428E-01
        1   -1    0    0  501    0  0.00000000000E+00  0.00000000000E+00  0.99410948178E+03  0.99410948179E+03  0.50400001928E-02 0. -1.
       -1   -1    0    0    0  501  0.00000000000E+00  0.00000000000E+00 -0.42511626766E+03  0.42511626769E+03  0.50400001928E-02 0.  1.
    10030    2    1    2    0    0  0.00000000000E+00  0.00000000000E+00  0.56899321412E+03  0.14192257495E+04  0.13001724694E+04 0.  0.
        5    1    3    3  502    0  0.30663287407E+03 -0.32280949112E+03 -0.23254269507E+03  0.50232248809E+03  0.46999998093E+01 0.  1.
       -5    1    3    3    0  502 -0.30663287407E+03  0.32280949112E+03  0.80153590919E+03  0.91690326138E+03  0.46999998093E+01 0. -1.
</event>
<event>
 5   0  0.2723209E-04  0.1301736E+04  0.7818609E-02  0.9028190E-01
       -2   -1    0    0    0  501  0.00000000000E+00  0.00000000000E+00  0.34166447745E+03  0.34166447745E+03  0.25500000920E-02 0. -1.
        2   -1    0    0  501    0  0.00000000000E+00  0.00000000000E+00 -0.12398982359E+04  0.12398982359E+04  0.25500000920E-02 0.  1.
    10030    2    1    2    0    0  0.00000000000E+00  0.00000000000E+00 -0.89823375846E+03  0.15815627134E+04  0.13017360452E+04 0.  0.
        2    1    3    3  502    0 -0.19850994855E+03 -0.47780419881E+03 -0.92887566651E+03  0.10632558751E+04  0.25500000920E-02 0. -1.
       -2    1    3    3    0  502  0.19850994855E+03  0.47780419881E+03  0.30641908043E+02  0.51830683828E+03  0.25500000920E-02 0.  1.
</event>
<event>
 5   0  0.2573071E-04  0.1299490E+04  0.7818609E-02  0.9029970E-01
       -2   -1    0    0    0  501  0.00000000000E+00  0.00000000000E+00  0.28761885644E+03  0.28761885645E+03  0.25500000920E-02 0. -1.
        2   -1    0    0  501    0  0.00000000000E+00  0.00000000000E+00 -0.14678058475E+04  0.14678058475E+04  0.25500000920E-02 0.  1.
    10030    2    1    2    0    0  0.00000000000E+00  0.00000000000E+00 -0.11801869910E+04  0.17554247039E+04  0.12994901144E+04 0.  0.
        4    1    3    3  502    0 -0.51971977928E+03  0.25156559920E+03 -0.18760823165E+03  0.60711807843E+03  0.12699999809E+01 0. -1.
       -4    1    3    3    0  502  0.51971977928E+03 -0.25156559920E+03 -0.99257875940E+03  0.11483066255E+04  0.12699999809E+01 0.  1.
</event>
<event>
 5   0  0.2756984E-04  0.1298652E+04  0.7818609E-02  0.9030635E-01
        2   -1    0    0  501    0  0.00000000000E+00  0.00000000000E+00  0.62756973893E+03  0.62756973894E+03  0.25500000920E-02 0. -1.
       -2   -1    0    0    0  501  0.00000000000E+00  0.00000000000E+00 -0.67183632052E+03  0.67183632053E+03  0.25500000920E-02 0.  1.
    10030    2    1    2    0    0  0.00000000000E+00  0.00000000000E+00 -0.44266581590E+02  0.12994060595E+04  0.12986518306E+04 0.  0.
        3    1    3    3  502    0  0.45681476828E+03 -0.18839080154E+03  0.39936343445E+03  0.63534399312E+03  0.10100000352E+00 0. -1.
       -3    1    3    3    0  502 -0.45681476828E+03  0.18839080154E+03 -0.44363001604E+03  0.66406206634E+03  0.10100000352E+00 0.  1.
</event>
<event>
 5   0  0.1479690E-04  0.1327440E+04  0.7818609E-02  0.9008083E-01
       -1   -1    0    0    0  501  0.00000000000E+00  0.00000000000E+00  0.10610781972E+04  0.10610781972E+04  0.50400001928E-02 0.  1.
        1   -1    0    0  501    0  0.00000000000E+00  0.00000000000E+00 -0.41516688310E+03  0.41516688313E+03  0.50400001928E-02 0. -1.
    10030    2    1    2    0    0  0.00000000000E+00  0.00000000000E+00  0.64591131413E+03  0.14762450804E+04  0.13274404362E+04 0.  0.
        1    1    3    3  502    0  0.39845725491E+03 -0.14667297449E+03 -0.24437110137E+03  0.48989629581E+03  0.50400001928E-02 0. -1.
       -1    1    3    3    0  502 -0.39845725491E+03  0.14667297449E+03  0.89028241550E+03  0.98634878456E+03  0.50400001928E-02 0.  1.
</event>
<event>
 5   0  0.1475396E-04  0.1300704E+04  0.7818609E-02  0.9029007E-01
       -1   -1    0    0    0  501  0.00000000000E+00  0.00000000000E+00  0.25786001836E+03  0.25786001841E+03  0.50400001928E-02 0. -1.
        1   -1    0    0  501    0  0.00000000000E+00  0.00000000000E+00 -0.16402608497E+04  0.16402608497E+04  0.50400001928E-02 0.  1.
    10030    2    1    2    0    0  0.00000000000E+00  0.00000000000E+00 -0.13824008314E+04  0.18981208681E+04  0.13007039523E+04 0.  0.
        3    1    3    3  502    0  0.58359834521E+03  0.28247667638E+03 -0.61711177922E+03  0.89510170343E+03  0.10100000352E+00 0.  1.
       -3    1    3    3    0  502 -0.58359834521E+03 -0.28247667638E+03 -0.76528905214E+03  0.10030191647E+04  0.10100000352E+00 0. -1.
</event>
<event>
 5   0  0.1408341E-04  0.1301213E+04  0.7818609E-02  0.9028604E-01
        1   -1    0    0  501    0  0.00000000000E+00  0.00000000000E+00  0.10796516298E+04  0.10796516298E+04  0.50400001928E-02 0. -1.
       -1   -1    0    0    0  501  0.00000000000E+00  0.00000000000E+00 -0.39206039750E+03  0.39206039753E+03  0.50400001928E-02 0.  1.
    10030    2    1    2    0    0  0.00000000000E+00  0.00000000000E+00  0.68759123226E+03  0.14717120273E+04  0.13012127377E+04 0.  0.
        5    1    3    3  502    0  0.79362369435E+01 -0.17855054879E+03 -0.36373033325E+03  0.40529634548E+03  0.46999998093E+01 0.  1.
       -5    1    3    3    0  502 -0.79362369435E+01  0.17855054879E+03  0.10513215655E+04  0.10664156818E+04  0.46999998093E+01 0. -1.
</event>
<event>
 5   0  0.1408341E-04  0.1303435E+04  0.7818609E-02  0.9026845E-01
       -1   -1    0    0    0  501  0.00000000000E+00  0.00000000000E+00  0.43795507167E+03  0.43795507170E+03  0.50400001928E-02 0. -1.
        1   -1    0    0  501    0  0.00000000000E+00  0.00000000000E+00 -0.96981621456E+03  0.96981621457E+03  0.50400001928E-02 0.  1.
    10030    2    1    2    0    0  0.00000000000E+00  0.00000000000E+00 -0.53186114288E+03  0.14077712863E+04  0.13034353529E+04 0.  0.
        5    1    3    3  502    0 -0.26294006678E+02 -0.63195845676E+03 -0.96356421776E+02  0.63981990893E+03  0.46999998093E+01 0. -1.
       -5    1    3    3    0  502  0.26294006678E+02  0.63195845676E+03 -0.43550472111E+03  0.76795137734E+03  0.46999998093E+01 0.  1.
</event>
<event>
 5   0  0.2723209E-04  0.1296359E+04  0.7818609E-02  0.9032458E-01
       -2   -1    0    0    0  501  0.00000000000E+00  0.00000000000E+00  0.36905913344E+03  0.36905913345E+03  0.25500000920E-02 0.  1.
        2   -1    0    0  501    0  0.00000000000E+00  0.00000000000E+00 -0.11383990922E+04  0.11383990922E+04  0.25500000920E-02 0. -1.
    10030    2    1    2    0    0  0.00000000000E+00  0.00000000000E+00 -0.76933995876E+03  0.15074582257E+04  0.12963588739E+04 0.  0.
        2    1    3    3  502    0 -0.87770390235E+02  0.51205351522E+03 -0.83538741289E+03  0.98375534228E+03  0.25500000920E-02 0. -1.
       -2    1    3    3    0  502  0.87770390235E+02 -0.51205351522E+03  0.66047454126E+02  0.52370288337E+03  0.25500000920E-02 0.  1.
</event>
<event>
 5   0  0.2723209E-04  0.1299565E+04  0.7818609E-02  0.9029910E-01
       -2   -1    0    0    0  501  0.00000000000E+00  0.00000000000E+00  0.54657268852E+03  0.54657268853E+03  0.25500000920E-02 0.  1.
        2   -1    0    0  501    0  0.00000000000E+00  0.00000000000E+00 -0.77248166693E+03  0.77248166694E+03  0.25500000920E-02 0. -1.
    10030    2    1    2    0    0  0.00000000000E+00  0.00000000000E+00 -0.22590897841E+03  0.13190543555E+04  0.12995651296E+04 0.  0.
        2    1    3    3  502    0 -0.45148487859E+02 -0.44710934694E+03 -0.58932461087E+03  0.74111311624E+03  0.25500000920E-02 0. -1.
       -2    1    3    3    0  502  0.45148487859E+02  0.44710934694E+03  0.36341563246E+03  0.57794123923E+03  0.25500000920E-02 0.  1.
</event>
<event>
 5   0  0.1475396E-04  0.1307468E+04  0.7818609E-02  0.9023664E-01
       -1   -1    0    0    0  501  0.00000000000E+00  0.00000000000E+00  0.38442291368E+03  0.38442291372E+03  0.50400001928E-02 0. -1.
        1   -1    0    0  501    0  0.00000000000E+00  0.00000000000E+00 -0.11117126613E+04  0.11117126613E+04  0.50400001928E-02 0.  1.
    10030    2    1    2    0    0  0.00000000000E+00  0.00000000000E+00 -0.72728974759E+03  0.14961355750E+04  0.13074675070E+04 0.  0.
        3    1    3    3  502    0 -0.10638103878E+03  0.53651239597E+03  0.46080718722E+02  0.54889518059E+03  0.10100000352E+00 0. -1.
       -3    1    3    3    0  502  0.10638103878E+03 -0.53651239597E+03 -0.77337046631E+03  0.94724039441E+03  0.10100000352E+00 0.  1.
</event>
<event>
 5   0  0.1479690E-04  0.1288919E+04  0.7818609E-02  0.9038399E-01
       -1   -1    0    0    0  501  0.00000000000E+00  0.00000000000E+00  0.37762264660E+03  0.37762264663E+03  0.50400001928E-02 0. -1.
        1   -1    0    0  501    0  0.00000000000E+00  0.00000000000E+00 -0.10998498051E+04  0.10998498052E+04  0.50400001928E-02 0.  1.
    10030    2    1    2    0    0  0.00000000000E+00  0.00000000000E+00 -0.72222715855E+03  0.14774724518E+04  0.12889192284E+04 0.  0.
        1    1    3    3  502    0 -0.12432269832E+03  0.60081207612E+03 -0.58718790347E+03  0.84924726560E+03  0.50400001928E-02 0. -1.
       -1    1    3    3    0  502  0.12432269832E+03 -0.60081207612E+03 -0.13503925508E+03  0.62822518619E+03  0.50400001928E-02 0.  1.
</event>
<event>
 5   0  0.2756984E-04  0.1302455E+04  0.7818609E-02  0.9027620E-01
        2   -1    0    0  501    0  0.00000000000E+00  0.00000000000E+00  0.81395293439E+03  0.81395293440E+03  0.25500000920E-02 0.  1.
       -2   -1    0    0    0  501  0.00000000000E+00  0.00000000000E+00 -0.52103438843E+03  0.52103438844E+03  0.25500000920E-02 0. -1.
    10030    2    1    2    0    0  0.00000000000E+00  0.00000000000E+00  0.29291854596E+03  0.13349873228E+04  0.13024553265E+04 0.  0.
        3    1    3    3  502    0 -0.29227669776E+03  0.13933292144E+03 -0.43268302754E+03  0.54042015467E+03  0.10100000352E+00 0. -1.
       -3    1    3    3    0  502  0.29227669776E+03 -0.13933292144E+03  0.72560157351E+03  0.79456716816E+03  0.10100000352E+00 0.  1.
</event>
<event>
 5   0  0.2661377E-04  0.1300895E+04  0.7818609E-02  0.9028856E-01
       -2   -1    0    0    0  501  0.00000000000E+00  0.00000000000E+00  0.47591964162E+03  0.47591964163E+03  0.25500000920E-02 0.  1.
        2   -1    0    0  501    0  0.00000000000E+00  0.00000000000E+00 -0.88897728746E+03  0.88897728746E+03  0.25500000920E-02 0. -1.
    10030    2    1    2    0    0  0.00000000000E+00  0.00000000000E+00 -0.41305764584E+03  0.13648969291E+04  0.13008946953E+04 0.  0.
        5    1    3    3  502    0  0.55136193299E+03  0.23569355110E+03  0.57878038738E+02  0.60243123138E+03  0.46999998093E+01 0.  1.
       -5    1    3    3    0  502 -0.55136193299E+03 -0.23569355110E+03 -0.47093568457E+03  0.76246569771E+03  0.46999998093E+01 0. -1.
</event>
<event>
 5   0  0.1476511E-04  0.1298367E+04  0.7818609E-02  0.9030861E-01
       -1   -1    0    0    0  501  0.00000000000E+00  0.00000000000E+00  0.74888227387E+03  0.74888227389E+03  0.50400001928E-02 0. -1.
        1   -1    0    0  501    0  0.00000000000E+00  0.00000000000E+00 -0.56275731232E+03  0.56275731234E+03  0.50400001928E-02 0.  1.
    10030    2    1    2    0    0  0.00000000000E+00  0.00000000000E+00  0.18612496155E+03  0.13116395862E+04  0.12983666288E+04 0.  0.
        2    1    3    3  502    0  0.34721666416E+03 -0.11178768850E+03  0.63556537106E+03  0.73280231991E+03  0.25500000920E-02 0. -1.
       -2    1    3    3    0  502 -0.34721666416E+03  0.11178768850E+03 -0.44944040951E+03  0.57883726632E+03  0.25500000920E-02 0.  1.
</event>
<event>
 5   0  0.1476511E-04  0.1298760E+04  0.7818609E-02  0.9030549E-01
        1   -1    0    0  501    0  0.00000000000E+00  0.00000000000E+00  0.15771585034E+04  0.15771585034E+04  0.50400001928E-02 0. -1.
       -1   -1    0    0    0  501  0.00000000000E+00  0.00000000000E+00 -0.26737606885E+03  0.26737606890E+03  0.50400001928E-02 0.  1.
    10030    2    1    2    0    0  0.00000000000E+00  0.00000000000E+00  0.13097824345E+04  0.18445345723E+04  0.12987600866E+04 0.  0.
        2    1    3    3  502    0  0.26763436772E+03  0.58412912048E+03  0.52121276604E+03  0.82734378082E+03  0.25500000920E-02 0.  1.
       -2    1    3    3    0  502 -0.26763436772E+03 -0.58412912048E+03  0.78856966847E+03  0.10171907915E+04  0.25500000920E-02 0. -1.
</event>
<event>
 5   0  0.1475396E-04  0.1274473E+04  0.7818609E-02  0.9050056E-01
       -1   -1    0    0    0  501  0.00000000000E+00  0.00000000000E+00  0.51388987624E+03  0.51388987626E+03  0.50400001928E-02 0.  1.
        1   -1    0    0  501    0  0.00000000000E+00  0.00000000000E+00 -0.79019001453E+03  0.79019001455E+03  0.50400001928E-02 0. -1.
    10030    2    1    2    0    0  0.00000000000E+00  0.00000000000E+00 -0.27630013829E+03  0.13040798908E+04  0.12744734580E+04 0.  0.
        3    1    3    3  502    0  0.46750852542E+03 -0.41333281078E+03 -0.60684928898E+01  0.62405534259E+03  0.10100000352E+00 0. -1.
       -3    1    3    3    0  502 -0.46750852542E+03  0.41333281078E+03 -0.27023164540E+03  0.68002454822E+03  0.10100000352E+00 0.  1.
</event>
<event>
 5   0  0.2756984E-04  0.1299361E+04  0.7818609E-02  0.9030072E-01
       -2   -1    0    0    0  501  0.00000000000E+00  0.00000000000E+00  0.32927629175E+03  0.32927629176E+03  0.25500000920E-02 0. -1.
        2   -1    0    0  501    0  0.00000000000E+00  0.00000000000E+00 -0.12818566142E+04  0.12818566142E+04  0.25500000920E-02 0.  1.
    10030    2    1    2    0    0  0.00000000000E+00  0.00000000000E+00 -0.95258032242E+03  0.16111329059E+04  0.12993613700E+04 0.  0.
        3    1    3    3  502    0  0.34564020222E+03  0.17760776086E+03 -0.11218623327E+04  0.11872601947E+04  0.10100000352E+00 0.  1.
       -3    1    3    3    0  502 -0.34564020222E+03 -0.17760776086E+03  0.16928201031E+03  0.42387271123E+03  0.10100000352E+00 0. -1.
</event>
<event>
 5   0  0.1408341E-04  0.1300548E+04  0.7818609E-02  0.9029131E-01
        1   -1    0    0  501    0  0.00000000000E+00  0.00000000000E+00  0.79800088837E+03  0.79800088838E+03  0.50400001928E-02 0. -1.
       -1   -1    0    0    0  501  0.00000000000E+00  0.00000000000E+00 -0.52989461058E+03  0.52989461060E+03  0.50400001928E-02 0.  1.
    10030    2    1    2    0    0  0.00000000000E+00  0.00000000000E+00  0.26810627779E+03  0.13278954990E+04  0.13005481460E+04 0.  0.
        5    1    3    3  502    0 -0.14341114287E+03  0.46030207294E+03 -0.31145843454E+03  0.57399756157E+03  0.46999998093E+01 0.  1.
       -5    1    3    3    0  502  0.14341114287E+03 -0.46030207294E+03  0.57956471233E+03  0.75389793741E+03  0.46999998093E+01 0. -1.
</event>
<event>
 5   0  0.1476511E-04  0.1302446E+04  0.7818609E-02  0.9027628E-01
       -1   -1    0    0    0  501  0.00000000000E+00  0.00000000000E+00  0.73983913676E+03  0.73983913678E+03  0.50400001928E-02 0.  1.
        1   -1    0    0  501    0  0.00000000000E+00  0.00000000000E+00 -0.57322118236E+03  0.57322118238E+03  0.50400001928E-02 0. -1.
    10030    2    1    2    0    0  0.00000000000E+00  0.00000000000E+00  0.16661795440E+03  0.13130603192E+04  0.13024461060E+04 0.  0.
        2    1    3    3  502    0  0.10983440640E+03  0.95049943429E+02  0.72329998122E+03  0.73774043635E+03  0.25500000920E-02 0.  1.
       -2    1    3    3    0  502 -0.10983440640E+03 -0.95049943429E+02 -0.55668202682E+03  0.57531988282E+03  0.25500000920E-02 0. -1.
</event>
<event>
 5   0  0.2756984E-04  0.1298372E+04  0.7818609E-02  0.9030857E-01
        2   -1    0    0  501    0  0.00000000000E+00  0.00000000000E+00  0.17670269267E+04  0.17670269267E+04  0.25500000920E-02 0.  1.
       -2   -1    0    0    0  501  0.00000000000E+00  0.00000000000E+00 -0.23850377592E+03  0.23850377593E+03  0.25500000920E-02 0. -1.
    10030    2    1    2    0    0  0.00000000000E+00  0.00000000000E+00  0.15285231508E+04  0.20055307027E+04  0.12983722027E+04 0.  0.
        3    1    3    3  502    0  0.42876463604E+03 -0.43772512913E+03  0.43297038917E+03  0.75027046450E+03  0.10100000352E+00 0. -1.
       -3    1    3    3    0  502 -0.42876463604E+03  0.43772512913E+03  0.10955527616E+04  0.12552602382E+04  0.10100000352E+00 0.  1.
</event>
<event>
 5   0  0.2661377E-04  0.1270053E+04  0.7818609E-02  0.9053657E-01
       -2   -1    0    0    0  501  0.00000000000E+00  0.00000000000E+00  0.24424918354E+03  0.24424918355E+03  0.25500000920E-02 0. -1.
        2   -1    0    0  501    0  0.00000000000E+00  0.00000000000E+00 -0.16510127681E+04  0.16510127681E+04  0.25500000920E-02 0.  1.
    10030    2    1    2    0    0  0.00000000000E+00  0.00000000000E+00 -0.14067635846E+04  0.18952619517E+04  0.12700527873E+04 0.  0.
        5    1    3    3  502    0  0.21233134685E+03 -0.29768905905E+03  0.71353763692E+02  0.37258130164E+03  0.46999998093E+01 0. -1.
       -5    1    3    3    0  502 -0.21233134685E+03  0.29768905905E+03 -0.14781173483E+04  0.15226806500E+04  0.46999998093E+01 0.  1.
</event>
<event>
 5   0  0.2661377E-04  0.1297772E+04  0.7818609E-02  0.9031334E-01
        2   -1    0    0  501    0  0.00000000000E+00  0.00000000000E+00  0.98068151005E+03  0.98068151006E+03  0.25500000920E-02 0.  1.
       -2   -1    0    0    0  501  0.00000000000E+00  0.00000000000E+00 -0.42934751193E+03  0.42934751194E+03  0.25500000920E-02 0. -1.
    10030    2    1    2    0    0  0.00000000000E+00  0.00000000000E+00  0.55133399812E+03  0.14100290220E+04  0.12977721932E+04 0.  0.
        5    1    3    3  502    0  0.38934520349E+03 -0.37991668112E+03 -0.10862948179E+03  0.55475113915E+03  0.46999998093E+01 0. -1.
       -5    1    3    3    0  502 -0.38934520349E+03  0.37991668112E+03  0.65996347991E+03  0.85527788285E+03  0.46999998093E+01 0.  1.
</event>
<event>
 5   0  0.2661377E-04  0.1299435E+04  0.7818609E-02  0.9030013E-01
       -2   -1    0    0    0  501  0.00000000000E+00  0.00000000000E+00  0.59758377387E+03  0.59758377388E+03  0.25500000920E-02 0.  1.
        2   -1    0    0  501    0  0.00000000000E+00  0.00000000000E+00 -0.70639949568E+03  0.70639949568E+03  0.25500000920E-02 0. -1.
    10030    2    1    2    0    0  0.00000000000E+00  0.00000000000E+00 -0.10881572181E+03  0.13039832696E+04  0.12994350719E+04 0.  0.
        5    1    3    3  502    0  0.11910908423E+03  0.53883722172E+03 -0.39850491259E+03  0.68070608989E+03  0.46999998093E+01 0. -1.
       -5    1    3    3    0  502 -0.11910908423E+03 -0.53883722172E+03  0.28968919078E+03  0.62327717968E+03  0.46999998093E+01 0.  1.
</event>
<event>
 5   0  0.2723209E-04  0.1300431E+04  0.7818609E-02  0.9029224E-01
       -2   -1    0    0    0  501  0.00000000000E+00  0.00000000000E+00  0.62776230018E+03  0.62776230019E+03  0.25500000920E-02 0.  1.
        2   -1    0    0  501    0  0.00000000000E+00  0.00000000000E+00 -0.67347134296E+03  0.67347134296E+03  0.25500000920E-02 0. -1.
    10030    2    1    2    0    0  0.00000000000E+00  0.00000000000E+00 -0.45709042775E+02  0.13012336431E+04  0.13004305739E+04 0.  0.
        2    1    3    3  502    0  0.18169956976E+03  0.14279312168E+00  0.60184277006E+03  0.62867278764E+03  0.25500000920E-02 0.  1.
       -2    1    3    3    0  502 -0.18169956976E+03 -0.14279312168E+00 -0.64755181284E+03  0.67256085550E+03  0.25500000920E-02 0. -1.
</event>
<event>
 5   0  0.2573071E-04  0.1298975E+04  0.7818609E-02  0.9030378E-01
       -2   -1    0    0    0  501  0.00000000000E+00  0.00000000000E+00  0.16336212092E+03  0.16336212094E+03  0.25500000920E-02 0. -1.
        2   -1    0    0  501    0  0.00000000000E+00  0.00000000000E+00 -0.25822016424E+04  0.25822016424E+04  0.25500000920E-02 0.  1.
    10030    2    1    2    0    0  0.00000000000E+00  0.00000000000E+00 -0.24188395214E+04  0.27455637633E+04  0.12989748835E+04 0.  0.
        4    1    3    3  502    0  0.25070935507E+02 -0.56969038721E+03 -0.18665426820E+04  0.19517066598E+04  0.12699999809E+01 0.  1.
       -4    1    3    3    0  502 -0.25070935507E+02  0.56969038721E+03 -0.55229683939E+03  0.79385710351E+03  0.12699999809E+01 0. -1.
</event>
<event>
 5   0  0.2661377E-04  0.1295639E+04  0.7818609E-02  0.9033031E-01
        2   -1    0    0  501    0  0.00000000000E+00  0.00000000000E+00  0.18049913979E+04  0.18049913979E+04  0.25500000920E-02 0.  1.
       -2   -1    0    0    0  501  0.00000000000E+00  0.00000000000E+00 -0.23250529719E+03  0.23250529721E+03  0.25500000920E-02 0. -1.
    10030    2    1    2    0    0  0.00000000000E+00  0.00000000000E+00  0.15724861007E+04  0.20374966951E+04  0.12956389334E+04 0.  0.
        5    1    3    3  502    0 -0.43094798599E+03  0.30848318552E+02  0.27189498276E+02  0.43293087693E+03  0.46999998093E+01 0. -1.
       -5    1    3    3    0  502  0.43094798599E+03 -0.30848318552E+02  0.15452966024E+04  0.16045658182E+04  0.46999998093E+01 0.  1.
</event>
<event>
 5   0  0.2661377E-04  0.1299596E+04  0.7818609E-02  0.9029886E-01
        2   -1    0    0  501    0  0.00000000000E+00  0.00000000000E+00  0.82735357859E+03  0.82735357860E+03  0.25500000920E-02 0.  1.
       -2   -1    0    0    0  501  0.00000000000E+00  0.00000000000E+00 -0.51034680037E+03  0.51034680037E+03  0.25500000920E-02 0. -1.
    10030    2    1    2    0    0  0.00000000000E+00  0.00000000000E+00  0.31700677823E+03  0.13377003790E+04  0.12995957089E+04 0.  0.
        5    1    3    3  502    0 -0.98947479677E+02 -0.55357985648E+03  0.49358457276E+03  0.74825736328E+03  0.46999998093E+01 0.  1.
       -5    1    3    3    0  502  0.98947479677E+02  0.55357985648E+03 -0.17657779453E+03  0.58944301570E+03  0.46999998093E+01 0. -1.
</event>
<event>
 5   0  0.2794825E-04  0.1298014E+04  0.7818609E-02  0.9031141E-01
        2   -1    0    0  501    0  0.00000000000E+00  0.00000000000E+00  0.21474922479E+04  0.21474922479E+04  0.25500000920E-02 0.  1.
       -2   -1    0    0    0  501  0.00000000000E+00  0.00000000000E+00 -0.19614052137E+03  0.19614052139E+03  0.25500000920E-02 0. -1.
    10030    2    1    2    0    0  0.00000000000E+00  0.00000000000E+00  0.19513517265E+04  0.23436327692E+04  0.12980142513E+04 0.  0.
        1    1    3    3  502    0 -0.51796447378E+03  0.20052963995E+03  0.36950774353E+03  0.66710966501E+03  0.50400001928E-02 0. -1.
       -1    1    3    3    0  502  0.51796447378E+03 -0.20052963995E+03  0.15818439830E+04  0.16765231042E+04  0.50400001928E-02 0.  1.
</event>
<event>
 5   0  0.1002887E-04  0.1298006E+04  0.7818609E-02  0.9031148E-01
        3   -1    0    0  501    0  0.00000000000E+00  0.00000000000E+00  0.22614284938E+03  0.22614287193E+03  0.10100000352E+00 0.  1.
       -3   -1    0    0    0  501  0.00000000000E+00  0.00000000000E+00 -0.18625620890E+04  0.18625620918E+04  0.10100000352E+00 0. -1.
    10030    2    1    2    0    0  0.00000000000E+00  0.00000000000E+00 -0.16364192397E+04  0.20887049637E+04  0.12980063549E+04 0.  0.
        4    1    3    3  502    0 -0.62954893442E+03  0.15650515403E+03 -0.84948654239E+03  0.10688567363E+04  0.12699999809E+01 0. -1.
       -4    1    3    3    0  502  0.62954893442E+03 -0.15650515403E+03 -0.78693269728E+03  0.10198482274E+04  0.12699999809E+01 0.  1.
</event>
<event>
 5   0  0.2794825E-04  0.1299163E+04  0.7818609E-02  0.9030230E-01
        2   -1    0    0  501    0  0.00000000000E+00  0.00000000000E+00  0.96800576386E+03  0.96800576386E+03  0.25500000920E-02 0.  1.
       -2   -1    0    0    0  501  0.00000000000E+00  0.00000000000E+00 -0.43590220072E+03  0.43590220073E+03  0.25500000920E-02 0. -1.
    10030    2    1    2    0    0  0.00000000000E+00  0.00000000000E+00  0.53210356314E+03  0.14039079646E+04  0.12991625653E+04 0.  0.
        1    1    3    3  502    0  0.25176952073E+03 -0.56925269987E+03  0.65278358527E+02  0.62585764516E+03  0.50400001928E-02 0. -1.
       -1    1    3    3    0  502 -0.25176952073E+03  0.56925269987E+03  0.46682520461E+03  0.77805031943E+03  0.50400001928E-02 0.  1.
</event>
<event>
 5   0  0.1476511E-04  0.1296485E+04  0.7818609E-02  0.9032357E-01
        1   -1    0    0  501    0  0.00000000000E+00  0.00000000000E+00  0.89308364393E+03  0.89308364394E+03  0.50400001928E-02 0.  1.
       -1   -1    0    0    0  501  0.00000000000E+00  0.00000000000E+00 -0.47052495872E+03  0.47052495875E+03  0.50400001928E-02 0. -1.
    10030    2    1    2    0    0  0.00000000000E+00  0.00000000000E+00  0.42255868521E+03  0.13636086027E+04  0.12964847006E+04 0.  0.
        2    1    3    3  502    0 -0.24077003777E+03 -0.58529861727E+03  0.35880336126E+03  0.72751943928E+03  0.25500000920E-02 0.  1.
       -2    1    3    3    0  502  0.24077003777E+03  0.58529861727E+03  0.63755323943E+02  0.63608916341E+03  0.25500000920E-02 0. -1.
</event>
<event>
 5   0  0.2756984E-04  0.1301027E+04  0.7818609E-02  0.9028751E-01
       -2   -1    0    0    0  501  0.00000000000E+00  0.00000000000E+00  0.72995896882E+03  0.72995896883E+03  0.25500000920E-02 0. -1.
        2   -1    0    0  501    0  0.00000000000E+00  0.00000000000E+00 -0.57971421063E+03  0.57971421064E+03  0.25500000920E-02 0.  1.
    10030    2    1    2    0    0  0.00000000000E+00  0.00000000000E+00  0.15024475819E+03  0.13096731795E+04  0.13010266522E+04 0.  0.
        3    1    3    3  502    0  0.61263676587E+03  0.11310050251E+03  0.26358856034E+03  0.67645729348E+03  0.10100000352E+00 0. -1.
       -3    1    3    3    0  502 -0.61263676587E+03 -0.11310050251E+03 -0.11334380215E+03  0.63321588598E+03  0.10100000352E+00 0.  1.
</event>
<event>
 5   0  0.1430636E-04  0.1299703E+04  0.7818609E-02  0.9029801E-01
        1   -1    0    0  501    0  0.00000000000E+00  0.00000000000E+00  0.10432017520E+04  0.10432017520E+04  0.50400001928E-02 0.  1.
       -1   -1    0    0    0  501  0.00000000000E+00  0.00000000000E+00 -0.40481820631E+03  0.40481820634E+03  0.50400001928E-02 0. -1.
    10030    2    1    2    0    0  0.00000000000E+00  0.00000000000E+00  0.63838354572E+03  0.14480199584E+04  0.12997031386E+04 0.  0.
        4    1    3    3  502    0  0.58971332885E+03  0.21402705894E+03  0.13033004066E+03  0.64074716120E+03  0.12699999809E+01 0.  1.
       -4    1    3    3    0  502 -0.58971332885E+03 -0.21402705894E+03  0.50805350506E+03  0.80727279719E+03  0.12699999809E+01 0. -1.
</event>
<event>
 5   0  0.1479690E-04  0.1303856E+04  0.7818609E-02  0.9026513E-01
       -1   -1    0    0    0  501  0.00000000000E+00  0.00000000000E+00  0.44799240335E+03  0.44799240338E+03  0.50400001928E-02 0.  1.
        1   -1    0    0  501    0  0.00000000000E+00  0.00000000000E+00 -0.94869965133E+03  0.94869965134E+03  0.50400001928E-02 0. -1.
    10030    2    1    2    0    0  0.00000000000E+00  0.00000000000E+00 -0.50070724798E+03  0.13966920547E+04  0.13038561836E+04 0.  0.
        1    1    3    3  502    0 -0.45039074815E+02  0.97903812046E+02 -0.93909218985E+03  0.94525542355E+03  0.50400001928E-02 0. -1.
       -1    1    3    3    0  502  0.45039074815E+02 -0.97903812046E+02  0.43838494187E+03  0.45143663117E+03  0.50400001928E-02 0.  1.
</event>
<event>
 5   0  0.1408341E-04  0.1301161E+04  0.7818609E-02  0.9028645E-01
        1   -1    0    0  501    0  0.00000000000E+00  0.00000000000E+00  0.16940096332E+04  0.16940096332E+04  0.50400001928E-02 0.  1.
       -1   -1    0    0    0  501  0.00000000000E+00  0.00000000000E+00 -0.24985409488E+03  0.24985409493E+03  0.50400001928E-02 0. -1.
    10030    2    1    2    0    0  0.00000000000E+00  0.00000000000E+00  0.14441555383E+04  0.19438637281E+04  0.13011613946E+04 0.  0.
        5    1    3    3  502    0  0.32307864529E+03 -0.71655404439E+02  0.15588455524E+04  0.15935921230E+04  0.46999998093E+01 0.  1.
       -5    1    3    3    0  502 -0.32307864529E+03  0.71655404439E+02 -0.11469001415E+03  0.35027160515E+03  0.46999998093E+01 0. -1.
</event>
<event>
 5   0  0.2573071E-04  0.1299688E+04  0.7818609E-02  0.9029812E-01
       -2   -1    0    0    0  501  0.00000000000E+00  0.00000000000E+00  0.44388642280E+03  0.44388642281E+03  0.25500000920E-02 0.  1.
        2   -1    0    0  501    0  0.00000000000E+00  0.00000000000E+00 -0.95136357185E+03  0.95136357185E+03  0.25500000920E-02 0. -1.
    10030    2    1    2    0    0  0.00000000000E+00  0.00000000000E+00 -0.50747714904E+03  0.13952499947E+04  0.12996882283E+04 0.  0.
        4    1    3    3  502    0 -0.41685846737E+03 -0.31369819456E+03  0.16220033439E+03  0.54634064508E+03  0.12699999809E+01 0.  1.
       -4    1    3    3    0  502  0.41685846737E+03  0.31369819456E+03 -0.66967748343E+03  0.84890934958E+03  0.12699999809E+01 0. -1.
</event>
<event>
 5   0  0.1476511E-04  0.1304098E+04  0.7818609E-02  0.9026322E-01
        1   -1    0    0  501    0  0.00000000000E+00  0.00000000000E+00  0.67486414564E+03  0.67486414566E+03  0.50400001928E-02 0.  1.
       -1   -1    0    0    0  501  0.00000000000E+00  0.00000000000E+00 -0.63000496275E+03  0.63000496277E+03  0.50400001928E-02 0. -1.
    10030    2    1    2    0    0  0.00000000000E+00  0.00000000000E+00  0.44859182889E+02  0.13048691084E+04  0.13040977892E+04 0.  0.
        2    1    3    3  502    0 -0.50118989615E+03  0.24954500488E+03 -0.31198918007E+03  0.64093780505E+03  0.25500000920E-02 0. -1.
       -2    1    3    3    0  502  0.50118989615E+03 -0.24954500488E+03  0.35684836296E+03  0.66393130338E+03  0.25500000920E-02 0.  1.
</event>
<event>
 5   0  0.2723209E-04  0.1304720E+04  0.7818609E-02  0.9025830E-01
        2   -1    0    0  501    0  0.00000000000E+00  0.00000000000E+00  0.10693651097E+04  0.10693651097E+04  0.25500000920E-02 0.  1.
       -2   -1    0    0    0  501  0.00000000000E+00  0.00000000000E+00 -0.39796845701E+03  0.39796845702E+03  0.25500000920E-02 0. -1.
    10030    2    1    2    0    0  0.00000000000E+00  0.00000000000E+00  0.67139665273E+03  0.14673335668E+04  0.13047200201E+04 0.  0.
        2    1    3    3  502    0  0.52409363953E+03 -0.22741270194E+03 -0.18486485063E+02  0.57160513480E+03  0.25500000920E-02 0. -1.
       -2    1    3    3    0  502 -0.52409363953E+03  0.22741270194E+03  0.68988313779E+03  0.89572843196E+03  0.25500000920E-02 0.  1.
</event>
<event>
 5   0  0.2794825E-04  0.1305278E+04  0.7818609E-02  0.9025390E-01
       -2   -1    0    0    0  501  0.00000000000E+00  0.00000000000E+00  0.45136583990E+03  0.45136583991E+03  0.25500000920E-02 0.  1.
        2   -1    0    0  501    0  0.00000000000E+00  0.00000000000E+00 -0.94366321504E+03  0.94366321504E+03  0.25500000920E-02 0. -1.
    10030    2    1    2    0    0  0.00000000000E+00  0.00000000000E+00 -0.49229737514E+03  0.13950290550E+04  0.13052775025E+04 0.  0.
        1    1    3    3  502    0 -0.26384391445E+03 -0.51487794542E+03 -0.56895051073E+03  0.81142935217E+03  0.50400001928E-02 0.  1.
       -1    1    3    3    0  502  0.26384391445E+03  0.51487794542E+03  0.76653135593E+02  0.58359970279E+03  0.50400001928E-02 0. -1.
</event>
<event>
 5   0  0.2661377E-04  0.1300367E+04  0.7818609E-02  0.9029274E-01
       -2   -1    0    0    0  501  0.00000000000E+00  0.00000000000E+00  0.36982440302E+03  0.36982440302E+03  0.25500000920E-02 0.  1.
        2   -1    0    0  501    0  0.00000000000E+00  0.00000000000E+00 -0.11430786695E+04  0.11430786695E+04  0.25500000920E-02 0. -1.
    10030    2    1    2    0    0  0.00000000000E+00  0.00000000000E+00 -0.77325426652E+03  0.15129030726E+04  0.13003666969E+04 0.  0.
        5    1    3    3  502    0  0.53019908352E+02 -0.57681813231E+03 -0.73016033189E+03  0.93203351265E+03  0.46999998093E+01 0.  1.
       -5    1    3    3    0  502 -0.53019908352E+02  0.57681813231E+03 -0.43093934634E+02  0.58086955992E+03  0.46999998093E+01 0. -1.
</event>
<event>
 5   0  0.1476511E-04  0.1300000E+04  0.7818609E-02  0.9029565E-01
       -1   -1    0    0    0  501  0.00000000000E+00  0.00000000000E+00  0.41711211892E+03  0.41711211895E+03  0.50400001928E-02 0. -1.
        1   -1    0    0  501    0  0.00000000000E+00  0.00000000000E+00 -0.10129177992E+04  0.10129177992E+04  0.50400001928E-02 0.  1.
    10030    2    1    2    0    0  0.00000000000E+00  0.00000000000E+00 -0.59580568031E+03  0.14300299182E+04  0.13000004455E+04 0.  0.
        2    1    3    3  502    0  0.19124701818E+03 -0.59014738953E+03 -0.51134954503E+03  0.80394509796E+03  0.25500000920E-02 0.  1.
       -2    1    3    3    0  502 -0.19124701818E+03  0.59014738953E+03 -0.84456135282E+02  0.62608482023E+03  0.25500000920E-02 0. -1.
</event>
<event>
 5   0  0.1430636E-04  0.1299508E+04  0.7818609E-02  0.9029955E-01
       -1   -1    0    0    0  501  0.00000000000E+00  0.00000000000E+00  0.39498541549E+03  0.39498541553E+03  0.50400001928E-02 0.  1.
        1   -1    0    0  501    0  0.00000000000E+00  0.00000000000E+00 -0.10688503329E+04  0.10688503329E+04  0.50400001928E-02 0. -1.
    10030    2    1    2    0    0  0.00000000000E+00  0.00000000000E+00 -0.67386491740E+03  0.14638357484E+04  0.12995080498E+04 0.  0.
        4    1    3    3  502    0  0.33510900512E+03 -0.23225803787E+02  0.28958366960E+03  0.44350625461E+03  0.12699999809E+01 0.  1.
       -4    1    3    3    0  502 -0.33510900512E+03  0.23225803787E+02 -0.96344858700E+03  0.10203294938E+04  0.12699999809E+01 0. -1.
</event>
<event>
 5   0  0.2573071E-04  0.1299864E+04  0.7818609E-02  0.9029673E-01
        2   -1    0    0  501    0  0.00000000000E+00  0.00000000000E+00  0.45900048511E+03  0.45900048511E+03  0.25500000920E-02 0.  1.
       -2   -1    0    0    0  501  0.00000000000E+00  0.00000000000E+00 -0.92028541698E+03  0.92028541698E+03  0.25500000920E-02 0. -1.
    10030    2    1    2    0    0  0.00000000000E+00  0.00000000000E+00 -0.46128493187E+03  0.13792859021E+04  0.12998637665E+04 0.  0.
        4    1    3    3  502    0  0.58775164218E+03 -0.18739799494E+03 -0.13596629526E+02  0.61705468366E+03  0.12699999809E+01 0.  1.
       -4    1    3    3    0  502 -0.58775164218E+03  0.18739799494E+03 -0.44768830234E+03  0.76223121843E+03  0.12699999809E+01 0. -1.
</event>
<event>
 5   0  0.2756984E-04  0.1301890E+04  0.7818609E-02  0.9028068E-01
       -2   -1    0    0    0  501  0.00000000000E+00  0.00000000000E+00  0.42758525622E+03  0.42758525623E+03  0.25500000920E-02 0.  1.
        2   -1    0    0  501    0  0.00000000000E+00  0.00000000000E+00 -0.99098236622E+03  0.99098236622E+03  0.25500000920E-02 0. -1.
    10030    2    1    2    0    0  0.00000000000E+00  0.00000000000E+00 -0.56339711000E+03  0.14185676224E+04  0.13018900860E+04 0.  0.
        3    1    3    3  502    0 -0.11573162849E+03  0.19519851821E+03 -0.94648668649E+03  0.97331049992E+03  0.10100000352E+00 0. -1.
       -3    1    3    3    0  502  0.11573162849E+03 -0.19519851821E+03  0.38308957650E+03  0.44525712253E+03  0.10100000352E+00 0.  1.
</event>
<event>
 5   0  0.1479690E-04  0.1301299E+04  0.7818609E-02  0.9028536E-01
       -1   -1    0    0    0  501  0.00000000000E+00  0.00000000000E+00  0.64880827549E+03  0.64880827551E+03  0.50400001928E-02 0. -1.
        1   -1    0    0  501    0  0.00000000000E+00  0.00000000000E+00 -0.65249592919E+03  0.65249592921E+03  0.50400001928E-02 0.  1.
    10030    2    1    2    0    0  0.00000000000E+00  0.00000000000E+00 -0.36876537007E+01  0.13013042047E+04  0.13012989797E+04 0.  0.
        1    1    3    3  502    0  0.25599861014E+03 -0.29005777466E+03 -0.52498640332E+03  0.65213459097E+03  0.50400001928E-02 0.  1.
       -1    1    3    3    0  502 -0.25599861014E+03  0.29005777466E+03  0.52129874962E+03  0.64916961375E+03  0.50400001928E-02 0. -1.
</event>
<event>
 5   0  0.1475396E-04  0.1297997E+04  0.7818609E-02  0.9031155E-01
        1   -1    0    0  501    0  0.00000000000E+00  0.00000000000E+00  0.17049478057E+04  0.17049478058E+04  0.50400001928E-02 0.  1.
       -1   -1    0    0    0  501  0.00000000000E+00  0.00000000000E+00 -0.24704515021E+03  0.24704515027E+03  0.50400001928E-02 0. -1.
    10030    2    1    2    0    0  0.00000000000E+00  0.00000000000E+00  0.14579026555E+04  0.19519929560E+04  0.12979970521E+04 0.  0.
        3    1    3    3  502    0 -0.48710738348E+03 -0.40803894490E+03  0.53041069152E+03  0.82771063511E+03  0.10100000352E+00 0. -1.
       -3    1    3    3    0  502  0.48710738348E+03  0.40803894490E+03  0.92749196401E+03  0.11242823209E+04  0.10100000352E+00 0.  1.
</event>
<event>
 5   0  0.1476511E-04  0.1297166E+04  0.7818609E-02  0.9031815E-01
        1   -1    0    0  501    0  0.00000000000E+00  0.00000000000E+00  0.14655119207E+04  0.14655119207E+04  0.50400001928E-02 0. -1.
       -1   -1    0    0    0  501  0.00000000000E+00  0.00000000000E+00 -0.28703977257E+03  0.28703977262E+03  0.50400001928E-02 0.  1.
    10030    2    1    2    0    0  0.00000000000E+00  0.00000000000E+00  0.11784721481E+04  0.17525516933E+04  0.12971664634E+04 0.  0.
        2    1    3    3  502    0  0.33123296646E+03 -0.21168613782E+03 -0.10775181468E+03  0.40759876421E+03  0.25500000920E-02 0.  1.
       -2    1    3    3    0  502 -0.33123296646E+03  0.21168613782E+03  0.12862239628E+04  0.13449529291E+04  0.25500000920E-02 0. -1.
</event>
<event>
 5   0  0.1476511E-04  0.1302062E+04  0.7818609E-02  0.9027932E-01
        1   -1    0    0  501    0  0.00000000000E+00  0.00000000000E+00  0.61780455422E+03  0.61780455424E+03  0.50400001928E-02 0.  1.
       -1   -1    0    0    0  501  0.00000000000E+00  0.00000000000E+00 -0.68604440649E+03  0.68604440650E+03  0.50400001928E-02 0. -1.
    10030    2    1    2    0    0  0.00000000000E+00  0.00000000000E+00 -0.68239852264E+02  0.13038489607E+04  0.13020619935E+04 0.  0.
        2    1    3    3  502    0  0.11278108823E+03 -0.50747368707E+03  0.35832639527E+03  0.63138492418E+03  0.25500000920E-02 0.  1.
       -2    1    3    3    0  502 -0.11278108823E+03  0.50747368707E+03 -0.42656624754E+03  0.67246403657E+03  0.25500000920E-02 0. -1.
</event>
<event>
 5   0  0.2661377E-04  0.1301925E+04  0.7818609E-02  0.9028040E-01
       -2   -1    0    0    0  501  0.00000000000E+00  0.00000000000E+00  0.65515743271E+03  0.65515743271E+03  0.25500000920E-02 0. -1.
        2   -1    0    0  501    0  0.00000000000E+00  0.00000000000E+00 -0.64679450462E+03  0.64679450462E+03  0.25500000920E-02 0.  1.
    10030    2    1    2    0    0  0.00000000000E+00  0.00000000000E+00  0.83629280925E+01  0.13019519373E+04  0.13019250779E+04 0.  0.
        5    1    3    3  502    0  0.23431730513E+03 -0.39103851313E+03 -0.46049404408E+03  0.64799118271E+03  0.46999998093E+01 0.  1.
       -5    1    3    3    0  502 -0.23431730513E+03  0.39103851313E+03  0.46885697218E+03  0.65396075462E+03  0.46999998093E+01 0. -1.
</event>
<event>
 5   0  0.1408341E-04  0.1301727E+04  0.7818609E-02  0.9028197E-01
        1   -1    0    0  501    0  0.00000000000E+00  0.00000000000E+00  0.11554739591E+04  0.11554739591E+04  0.50400001928E-02 0.  1.
       -1   -1    0    0    0  501  0.00000000000E+00  0.00000000000E+00 -0.36662292771E+03  0.36662292774E+03  0.50400001928E-02 0. -1.
    10030    2    1    2    0    0  0.00000000000E+00  0.00000000000E+00  0.78885103142E+03  0.15220968869E+04  0.13017269235E+04 0.  0.
        5    1    3    3  502    0  0.25095119862E+03  0.53792720952E+03  0.70656030607E+03  0.92281728578E+03  0.46999998093E+01 0.  1.
       -5    1    3    3    0  502 -0.25095119862E+03 -0.53792720952E+03  0.82290725357E+02  0.59927960111E+03  0.46999998093E+01 0. -1.
</event>
<event>
 5   0  0.1475396E-04  0.1299870E+04  0.7818609E-02  0.9029669E-01
        1   -1    0    0  501    0  0.00000000000E+00  0.00000000000E+00  0.88202814028E+03  0.88202814030E+03  0.50400001928E-02 0. -1.
       -1   -1    0    0    0  501  0.00000000000E+00  0.00000000000E+00 -0.47891361581E+03  0.47891361583E+03  0.50400001928E-02 0.  1.
    10030    2    1    2    0    0  0.00000000000E+00  0.00000000000E+00  0.40311452447E+03  0.13609417561E+04  0.12998696641E+04 0.  0.
        3    1    3    3  502    0  0.26858916600E+03 -0.54247806750E+03  0.44930252882E+03  0.75385367706E+03  0.10100000352E+00 0. -1.
       -3    1    3    3    0  502 -0.26858916600E+03  0.54247806750E+03 -0.46188004347E+02  0.60708807907E+03  0.10100000352E+00 0.  1.
</event>
<event>
 5   0  0.1408341E-04  0.1292616E+04  0.7818609E-02  0.9035441E-01
       -1   -1    0    0    0  501  0.00000000000E+00  0.00000000000E+00  0.78934466846E+03  0.78934466848E+03  0.50400001928E-02 0.  1.
        1   -1    0    0  501    0  0.00000000000E+00  0.00000000000E+00 -0.52919099242E+03  0.52919099245E+03  0.50400001928E-02 0. -1.
    10030    2    1    2    0    0  0.00000000000E+00  0.00000000000E+00  0.26015367604E+03  0.13185356609E+04  0.12926160892E+04 0.  0.
        5    1    3    3  502    0 -0.54534176490E+03 -0.11999893862E+03 -0.20186290696E+03  0.59377445972E+03  0.46999998093E+01 0. -1.
       -5    1    3    3    0  502  0.54534176490E+03  0.11999893862E+03  0.46201658299E+03  0.72476120121E+03  0.46999998093E+01 0.  1.
</event>
<event>
 5   0  0.1479690E-04  0.1296281E+04  0.7818609E-02  0.9032519E-01
       -1   -1    0    0    0  501  0.00000000000E+00  0.00000000000E+00  0.58994406720E+03  0.58994406722E+03  0.50400001928E-02 0. -1.
        1   -1    0    0  501    0  0.00000000000E+00  0.00000000000E+00 -0.71207812681E+03  0.71207812683E+03  0.50400001928E-02 0.  1.
    10030    2    1    2    0    0  0.00000000000E+00  0.00000000000E+00 -0.12213405961E+03  0.13020221940E+04  0.12962812447E+04 0.  0.
        1    1    3    3  502    0 -0.55869306876E+03 -0.15935219296E+02 -0.39068865026E+03  0.68193071331E+03  0.50400001928E-02 0. -1.
       -1    1    3    3    0  502  0.55869306876E+03  0.15935219296E+02  0.26855459064E+03  0.62009148073E+03  0.50400001928E-02 0.  1.
</event>
<event>
 5   0  0.2723209E-04  0.1301063E+04  0.7818609E-02  0.9028722E-01
       -2   -1    0    0    0  501  0.00000000000E+00  0.00000000000E+00  0.76376602020E+03  0.76376602020E+03  0.25500000920E-02 0.  1.
        2   -1    0    0  501    0  0.00000000000E+00  0.00000000000E+00 -0.55408525796E+03  0.55408525797E+03  0.25500000920E-02 0. -1.
    10030    2    1    2    0    0  0.00000000000E+00  0.00000000000E+00  0.20968076223E+03  0.13178512782E+04  0.13010633994E+04 0.  0.
        2    1    3    3  502    0  0.28412403540E+03  0.16272716241E+03 -0.46453817131E+03  0.56833292134E+03  0.25500000920E-02 0. -1.
       -2    1    3    3    0  502 -0.28412403540E+03 -0.16272716241E+03  0.67421893354E+03  0.74951835683E+03  0.25500000920E-02 0.  1.
</event>
<event>
 5   0  0.2794825E-04  0.1309875E+04  0.7818609E-02  0.9021771E-01
        2   -1    0    0  501    0  0.00000000000E+00  0.00000000000E+00  0.12681071347E+04  0.12681071347E+04  0.25500000920E-02 0. -1.
       -2   -1    0    0    0  501  0.00000000000E+00  0.00000000000E+00 -0.33825462608E+03  0.33825462609E+03  0.25500000920E-02 0.  1.
    10030    2    1    2    0    0  0.00000000000E+00  0.00000000000E+00  0.92985250860E+03  0.16063617608E+04  0.13098749630E+04 0.  0.
        1    1    3    3  502    0  0.13967314131E+03 -0.42379226685E+03 -0.12299783052E+03  0.46285736268E+03  0.50400001928E-02 0.  1.
       -1    1    3    3    0  502 -0.13967314131E+03  0.42379226685E+03  0.10528503391E+04  0.11435043981E+04  0.50400001928E-02 0. -1.
</event>
<event>
 5   0  0.1408341E-04  0.1303167E+04  0.7818609E-02  0.9027058E-01
       -1   -1    0    0    0  501  0.00000000000E+00  0.00000000000E+00  0.77798781210E+03  0.77798781212E+03  0.50400001928E-02 0. -1.
        1   -1    0    0  501    0  0.00000000000E+00  0.00000000000E+00 -0.54571646069E+03  0.54571646071E+03  0.50400001928E-02 0.  1.
    10030    2    1    2    0    0  0.00000000000E+00  0.00000000000E+00  0.23227135141E+03  0.13237042728E+04  0.13031665363E+04 0.  0.
        5    1    3    3  502    0 -0.61751650935E+03  0.20318398312E+03  0.71531266937E+02  0.65402536837E+03  0.46999998093E+01 0.  1.
       -5    1    3    3    0  502  0.61751650935E+03 -0.20318398312E+03  0.16074008448E+03  0.66967890446E+03  0.46999998093E+01 0. -1.
</event>
<event>
 5   0  0.1476511E-04  0.1300881E+04  0.7818609E-02  0.9028866E-01
       -1   -1    0    0    0  501  0.00000000000E+00  0.00000000000E+00  0.82791427403E+03  0.82791427405E+03  0.50400001928E-02 0. -1.
        1   -1    0    0  501    0  0.00000000000E+00  0.00000000000E+00 -0.51101080743E+03  0.51101080746E+03  0.50400001928E-02 0.  1.
    10030    2    1    2    0    0  0.00000000000E+00  0.00000000000E+00  0.31690346660E+03  0.13389250815E+04  0.13008814576E+04 0.  0.
        2    1    3    3  502    0  0.16355939781E+03  0.61442033238E+03  0.29960885520E+03  0.70287231243E+03  0.25500000920E-02 0. -1.
       -2    1    3    3    0  502 -0.16355939781E+03 -0.61442033238E+03  0.17294611397E+02  0.63605276907E+03  0.25500000920E-02 0.  1.
</event>
<event>
 5   0  0.1475396E-04  0.1301804E+04  0.7818609E-02  0.9028136E-01
        1   -1    0    0  501    0  0.00000000000E+00  0.00000000000E+00  0.20922032031E+04  0.20922032031E+04  0.50400001928E-02 0. -1.
       -1   -1    0    0    0  501  0.00000000000E+00  0.00000000000E+00 -0.20250108739E+03  0.20250108745E+03  0.50400001928E-02 0.  1.
    10030    2    1    2    0    0  0.00000000000E+00  0.00000000000E+00  0.18897021157E+04  0.22947042905E+04  0.13018040156E+04 0.  0.
        3    1    3    3  502    0 -0.24620093757E+03  0.13670326341E+02 -0.11698539607E+03  0.27292374865E+03  0.10100000352E+00 0.  1.
       -3    1    3    3    0  502  0.24620093757E+03 -0.13670326341E+02  0.20066875117E+04  0.20217805419E+04  0.10100000352E+00 0. -1.
</event>
<event>
 5   0  0.2723209E-04  0.1303886E+04  0.7818609E-02  0.9026489E-01
        2   -1    0    0  501    0  0.00000000000E+00  0.00000000000E+00  0.45236114546E+03  0.45236114546E+03  0.25500000920E-02 0. -1.
       -2   -1    0    0    0  501  0.00000000000E+00  0.00000000000E+00 -0.93958002977E+03  0.93958002977E+03  0.25500000920E-02 0.  1.
    10030    2    1    2    0    0  0.00000000000E+00  0.00000000000E+00 -0.48721888431E+03  0.13919411752E+04  0.13038857289E+04 0.  0.
        2    1    3    3  502    0 -0.29046593099E+03  0.56754285627E+03 -0.98196903955E+02  0.64507207561E+03  0.25500000920E-02 0. -1.
       -2    1    3    3    0  502  0.29046593099E+03 -0.56754285627E+03 -0.38902198036E+03  0.74686909963E+03  0.25500000920E-02 0.  1.
</event>
<event>
 5   0  0.2756984E-04  0.1297701E+04  0.7818609E-02  0.9031390E-01
       -2   -1    0    0    0  501  0.00000000000E+00  0.00000000000E+00  0.39451228309E+03  0.39451228310E+03  0.25500000920E-02 0.  1.
        2   -1    0    0  501    0  0.00000000000E+00  0.00000000000E+00 -0.10671583464E+04  0.10671583464E+04  0.25500000920E-02 0. -1.
    10030    2    1    2    0    0  0.00000000000E+00  0.00000000000E+00 -0.67264606326E+03  0.14616706295E+04  0.12977011607E+04 0.  0.
        3    1    3    3  502    0 -0.15490223126E+03 -0.18226936869E+03 -0.10156836219E+04  0.10434701980E+04  0.10100000352E+00 0. -1.
       -3    1    3    3    0  502  0.15490223126E+03  0.18226936869E+03  0.34303755868E+03  0.41820043146E+03  0.10100000352E+00 0.  1.
</event>
<event>
 5   0  0.1479690E-04  0.1301731E+04  0.7818609E-02  0.9028194E-01
        1   -1    0    0  501    0  0.00000000000E+00  0.00000000000E+00  0.42219965479E+03  0.42219965482E+03  0.50400001928E-02 0. -1.
       -1   -1    0    0    0  501  0.00000000000E+00  0.00000000000E+00 -0.10033782088E+04  0.10033782089E+04  0.50400001928E-02 0.  1.
    10030    2    1    2    0    0  0.00000000000E+00  0.00000000000E+00 -0.58117855405E+03  0.14255778637E+04  0.13017310528E+04 0.  0.
        1    1    3    3  502    0 -0.40575740417E+03  0.24911100079E+03 -0.77657806366E+03  0.91091648944E+03  0.50400001928E-02 0.  1.
       -1    1    3    3    0  502  0.40575740417E+03 -0.24911100079E+03  0.19539950960E+03  0.51466137424E+03  0.50400001928E-02 0. -1.
</event>
<event>
 5   0  0.2723209E-04  0.1299344E+04  0.7818609E-02  0.9030086E-01
       -2   -1    0    0    0  501  0.00000000000E+00  0.00000000000E+00  0.91136109004E+03  0.91136109005E+03  0.25500000920E-02 0. -1.
        2   -1    0    0  501    0  0.00000000000E+00  0.00000000000E+00 -0.46312423850E+03  0.46312423851E+03  0.25500000920E-02 0.  1.
    10030    2    1    2    0    0  0.00000000000E+00  0.00000000000E+00  0.44823685154E+03  0.13744853286E+04  0.12993435432E+04 0.  0.
        2    1    3    3  502    0 -0.35002253497E+03 -0.30152755670E+03 -0.25906677166E+03  0.52966992988E+03  0.25500000920E-02 0.  1.
       -2    1    3    3    0  502  0.35002253497E+03  0.30152755670E+03  0.70730362320E+03  0.84481539867E+03  0.25500000920E-02 0. -1.
</event>
<event>
 5   0  0.1430636E-04  0.1298272E+04  0.7818609E-02  0.9030936E-01
        1   -1    0    0  501    0  0.00000000000E+00  0.00000000000E+00  0.11376088057E+04  0.11376088057E+04  0.50400001928E-02 0. -1.
       -1   -1    0    0    0  501  0.00000000000E+00  0.00000000000E+00 -0.37040664161E+03  0.37040664165E+03  0.50400001928E-02 0.  1.
    10030    2    1    2    0    0  0.00000000000E+00  0.00000000000E+00  0.76720216410E+03  0.15080154474E+04  0.12982724787E+04 0.  0.
        4    1    3    3  502    0  0.23535264631E+03  0.21192360422E+03 -0.27457538157E+03  0.41916075105E+03  0.12699999809E+01 0.  1.
       -4    1    3    3    0  502 -0.23535264631E+03 -0.21192360422E+03  0.10417775457E+04  0.10888546963E+04  0.12699999809E+01 0. -1.
</event>
<event>
 5   0  0.1002887E-04  0.1298576E+04  0.7818609E-02  0.9030695E-01
       -3   -1    0    0    0  501  0.00000000000E+00  0.00000000000E+00  0.18103422405E+03  0.18103425223E+03  0.10100000352E+00 0. -1.
        3   -1    0    0  501    0  0.00000000000E+00  0.00000000000E+00 -0.23287019359E+04  0.23287019381E+04  0.10100000352E+00 0.  1.
    10030    2    1    2    0    0  0.00000000000E+00  0.00000000000E+00 -0.21476677119E+04  0.25097361903E+04  0.12985758139E+04 0.  0.
        5    1    3    3  502    0 -0.44799347146E+02 -0.63255767617E+03 -0.13431399911E+04  0.14853226319E+04  0.46999998093E+01 0. -1.
       -5    1    3    3    0  502  0.44799347146E+02  0.63255767617E+03 -0.80452772074E+03  0.10244135584E+04  0.46999998093E+01 0.  1.
</event>
<event>
 5   0  0.1475396E-04  0.1298771E+04  0.7818609E-02  0.9030540E-01
        1   -1    0    0  501    0  0.00000000000E+00  0.00000000000E+00  0.14993216830E+04  0.14993216830E+04  0.50400001928E-02 0. -1.
       -1   -1    0    0    0  501  0.00000000000E+00  0.00000000000E+00 -0.28126169461E+03  0.28126169465E+03  0.50400001928E-02 0.  1.
    10030    2    1    2    0    0  0.00000000000E+00  0.00000000000E+00  0.12180599884E+04  0.17805833777E+04  0.12987713538E+04 0.  0.
        3    1    3    3  502    0  0.53383941752E+03  0.34431940992E+03  0.79378826379E+03  0.10166809714E+04  0.10100000352E+00 0. -1.
       -3    1    3    3    0  502 -0.53383941752E+03 -0.34431940992E+03  0.42427172462E+03  0.76390240624E+03  0.10100000352E+00 0.  1.
</event>
<event>
 5   0  0.2661377E-04  0.1299656E+04  0.7818609E-02  0.9029838E-01
        2   -1    0    0  501    0  0.00000000000E+00  0.00000000000E+00  0.91395743898E+03  0.91395743898E+03  0.25500000920E-02 0. -1.
       -2   -1    0    0    0  501  0.00000000000E+00  0.00000000000E+00 -0.46203089085E+03  0.46203089086E+03  0.25500000920E-02 0.  1.
    10030    2    1    2    0    0  0.00000000000E+00  0.00000000000E+00  0.45192654812E+03  0.13759883298E+04  0.12996562157E+04 0.  0.
        5    1    3    3  502    0  0.21932500589E+03  0.16921484428E+03 -0.39636738570E+03  0.48359726652E+03  0.46999998093E+01 0.  1.
       -5    1    3    3    0  502 -0.21932500589E+03 -0.16921484428E+03  0.84829393383E+03  0.89239106332E+03  0.46999998093E+01 0. -1.
</event>
<event>
 5   0  0.2723209E-04  0.1298395E+04  0.7818609E-02  0.9030839E-01
        2   -1    0    0  501    0  0.00000000000E+00  0.00000000000E+00  0.15648321339E+04  0.15648321339E+04  0.25500000920E-02 0. -1.
       -2   -1    0    0    0  501  0.00000000000E+00  0.00000000000E+00 -0.26933082429E+03  0.26933082430E+03  0.25500000920E-02 0.  1.
    10030    2    1    2    0    0  0.00000000000E+00  0.00000000000E+00  0.12955013096E+04  0.18341629582E+04  0.12983952072E+04 0.  0.
        2    1    3    3  502    0 -0.30045548467E+03  0.53393847685E+03  0.95103637069E+03  0.11312974736E+04  0.25500000920E-02 0.  1.
       -2    1    3    3    0  502  0.30045548467E+03 -0.53393847685E+03  0.34446493891E+03  0.70286548463E+03  0.25500000920E-02 0. -1.
</event>
<event>
 5   0  0.1002887E-04  0.1293876E+04  0.7818609E-02  0.9034436E-01
        3   -1    0    0  501    0  0.00000000000E+00  0.00000000000E+00  0.36637950766E+03  0.36637952158E+03  0.10100000352E+00 0. -1.
       -3   -1    0    0    0  501  0.00000000000E+00  0.00000000000E+00 -0.11423366778E+04  0.11423366823E+04  0.10100000352E+00 0.  1.
    10030    2    1    2    0    0  0.00000000000E+00  0.00000000000E+00 -0.77595717015E+03  0.15087162038E+04  0.12938759809E+04 0.  0.
        2    1    3    3  502    0  0.80346590501E+02  0.56963831345E+03 -0.42889903759E+02  0.57687340605E+03  0.25500000920E-02 0. -1.
       -2    1    3    3    0  502 -0.80346590501E+02 -0.56963831345E+03 -0.73306726639E+03  0.93184279780E+03  0.25500000920E-02 0.  1.
</event>
<event>
 5   0  0.1408341E-04  0.1298735E+04  0.7818609E-02  0.9030569E-01
        1   -1    0    0  501    0  0.00000000000E+00  0.00000000000E+00  0.26166914164E+04  0.26166914164E+04  0.50400001928E-02 0. -1.
       -1   -1    0    0    0  501  0.00000000000E+00  0.00000000000E+00 -0.16114926735E+03  0.16114926743E+03  0.50400001928E-02 0.  1.
    10030    2    1    2    0    0  0.00000000000E+00  0.00000000000E+00  0.24555421490E+04  0.27778406838E+04  0.12987346222E+04 0.  0.
        5    1    3    3  502    0 -0.10380318205E+03 -0.10731389248E+03 -0.12390184654E+03  0.19407506202E+03  0.46999998093E+01 0.  1.
       -5    1    3    3    0  502  0.10380318205E+03  0.10731389248E+03  0.25794439956E+04  0.25837656218E+04  0.46999998093E+01 0. -1.
</event>
<event>
 5   0  0.1476511E-04  0.1297297E+04  0.7818609E-02  0.9031711E-01
        1   -1    0    0  501    0  0.00000000000E+00  0.00000000000E+00  0.12911888331E+04  0.12911888331E+04  0.50400001928E-02 0.  1.
       -1   -1    0    0    0  501  0.00000000000E+00  0.00000000000E+00 -0.32585875281E+03  0.32585875285E+03  0.50400001928E-02 0. -1.
    10030    2    1    2    0    0  0.00000000000E+00  0.00000000000E+00  0.96533008026E+03  0.16170475859E+04  0.12972974722E+04 0.  0.
        2    1    3    3  502    0  0.31790579790E+02  0.64510913044E+03  0.55712818839E+03  0.85297611306E+03  0.25500000920E-02 0. -1.
       -2    1    3    3    0  502 -0.31790579790E+02 -0.64510913044E+03  0.40820189187E+03  0.76407147288E+03  0.25500000920E-02 0.  1.
</event>
<event>
 5   0  0.1479690E-04  0.1304067E+04  0.7818609E-02  0.9026346E-01
       -1   -1    0    0    0  501  0.00000000000E+00  0.00000000000E+00  0.40422951564E+03  0.40422951567E+03  0.50400001928E-02 0. -1.
        1   -1    0    0  501    0  0.00000000000E+00  0.00000000000E+00 -0.10517485692E+04  0.10517485692E+04  0.50400001928E-02 0.  1.
    10030    2    1    2    0    0  0.00000000000E+00  0.00000000000E+00 -0.64751905356E+03  0.14559780849E+04  0.13040671988E+04 0.  0.
        1    1    3    3  502    0  0.49765219673E+03 -0.27598197152E+03 -0.67915439507E+03  0.88604427084E+03  0.50400001928E-02 0.  1.
       -1    1    3    3    0  502 -0.49765219673E+03  0.27598197152E+03  0.31635341515E+02  0.56993381403E+03  0.50400001928E-02 0. -1.
</event>
<event>
 5   0  0.2723209E-04  0.1299217E+04  0.7818609E-02  0.9030186E-01
       -2   -1    0    0    0  501  0.00000000000E+00  0.00000000000E+00  0.27281773464E+03  0.27281773466E+03  0.25500000920E-02 0. -1.
        2   -1    0    0  501    0  0.00000000000E+00  0.00000000000E+00 -0.15467886347E+04  0.15467886347E+04  0.25500000920E-02 0.  1.
    10030    2    1    2    0    0  0.00000000000E+00  0.00000000000E+00 -0.12739709001E+04  0.18196063694E+04  0.12992172587E+04 0.  0.
        2    1    3    3  502    0  0.50376037953E+03 -0.23365799390E+03 -0.16489569507E+03  0.57927641792E+03  0.25500000920E-02 0. -1.
       -2    1    3    3    0  502 -0.50376037953E+03  0.23365799390E+03 -0.11090752050E+04  0.12403299514E+04  0.25500000920E-02 0.  1.
</event>
<event>
 5   0  0.1479690E-04  0.1304369E+04  0.7818609E-02  0.9026108E-01
       -1   -1    0    0    0  501  0.00000000000E+00  0.00000000000E+00  0.72686795167E+03  0.72686795169E+03  0.50400001928E-02 0. -1.
        1   -1    0    0  501    0  0.00000000000E+00  0.00000000000E+00 -0.58517425804E+03  0.58517425806E+03  0.50400001928E-02 0.  1.
    10030    2    1    2    0    0  0.00000000000E+00  0.00000000000E+00  0.14169369364E+03  0.13120422098E+04  0.13043686815E+04 0.  0.
        1    1    3    3  502    0  0.27822777757E+03  0.42971293171E+03 -0.33561016902E+03  0.61212587387E+03  0.50400001928E-02 0.  1.
       -1    1    3    3    0  502 -0.27822777757E+03 -0.42971293171E+03  0.47730386266E+03  0.69991633588E+03  0.50400001928E-02 0. -1.
</event>
<event>
 5   0  0.1002887E-04  0.1300464E+04  0.7818609E-02  0.9029198E-01
        4   -1    0    0  501    0  0.00000000000E+00  0.00000000000E+00  0.40334453640E+03  0.40334653581E+03  0.12699999809E+01 0. -1.
       -4   -1    0    0    0  501  0.00000000000E+00  0.00000000000E+00 -0.10482337556E+04  0.10482345249E+04  0.12699999809E+01 0.  1.
    10030    2    1    2    0    0  0.00000000000E+00  0.00000000000E+00 -0.64488921917E+03  0.14515810607E+04  0.13004635600E+04 0.  0.
        4    1    3    3  502    0  0.10836943227E+03 -0.19874810188E+03  0.35794029307E+03  0.42351813202E+03  0.12699999809E+01 0. -1.
       -4    1    3    3    0  502 -0.10836943227E+03  0.19874810188E+03 -0.10028295122E+04  0.10280629287E+04  0.12699999809E+01 0.  1.
</event>
<event>
 5   0  0.1475396E-04  0.1300641E+04  0.7818609E-02  0.9029057E-01
        1   -1    0    0  501    0  0.00000000000E+00  0.00000000000E+00  0.79243266695E+03  0.79243266696E+03  0.50400001928E-02 0.  1.
       -1   -1    0    0    0  501  0.00000000000E+00  0.00000000000E+00 -0.53369456809E+03  0.53369456811E+03  0.50400001928E-02 0. -1.
    10030    2    1    2    0    0  0.00000000000E+00  0.00000000000E+00  0.25873809886E+03  0.13261272351E+04  0.13006413955E+04 0.  0.
        3    1    3    3  502    0 -0.99174725027E+02  0.11589449031E+02 -0.52583234125E+03  0.53522855186E+03  0.10100000352E+00 0. -1.
       -3    1    3    3    0  502  0.99174725027E+02 -0.11589449031E+02  0.78457044011E+03  0.79089868322E+03  0.10100000352E+00 0.  1.
</event>
<event>
 5   0  0.1002887E-04  0.1300503E+04  0.7818609E-02  0.9029167E-01
       -3   -1    0    0    0  501  0.00000000000E+00  0.00000000000E+00  0.44600385573E+03  0.44600386717E+03  0.10100000352E+00 0.  1.
        3   -1    0    0  501    0  0.00000000000E+00  0.00000000000E+00 -0.94803376370E+03  0.94803376908E+03  0.10100000352E+00 0. -1.
    10030    2    1    2    0    0  0.00000000000E+00  0.00000000000E+00 -0.50202990797E+03  0.13940376362E+04  0.13005025578E+04 0.  0.
        2    1    3    3  502    0  0.61182111127E+03  0.20989935385E+03 -0.17955772880E+03  0.67128517704E+03  0.25500000920E-02 0.  1.
       -2    1    3    3    0  502 -0.61182111127E+03 -0.20989935385E+03 -0.32247217917E+03  0.72275245920E+03  0.25500000920E-02 0. -1.
</event>
<event>
 5   0  0.1408341E-04  0.1284969E+04  0.7818609E-02  0.9041570E-01
       -1   -1    0    0    0  501  0.00000000000E+00  0.00000000000E+00  0.52384868624E+03  0.52384868626E+03  0.50400001928E-02 0.  1.
        1   -1    0    0  501    0  0.00000000000E+00  0.00000000000E+00 -0.78798804381E+03  0.78798804382E+03  0.50400001928E-02 0. -1.
    10030    2    1    2    0    0  0.00000000000E+00  0.00000000000E+00 -0.26413935757E+03  0.13118367301E+04  0.12849692627E+04 0.  0.
        5    1    3    3  502    0 -0.39830554740E+03  0.25577308079E+03 -0.57554536454E+03  0.74521254323E+03  0.46999998093E+01 0. -1.
       -5    1    3    3    0  502  0.39830554740E+03 -0.25577308079E+03  0.31140600697E+03  0.56662418685E+03  0.46999998093E+01 0.  1.
</event>
<event>
 5   0  0.2723209E-04  0.1300509E+04  0.7818609E-02  0.9029162E-01
       -2   -1    0    0    0  501  0.00000000000E+00  0.00000000000E+00  0.29560441741E+03  0.29560441742E+03  0.25500000920E-02 0. -1.
        2   -1    0    0  501    0  0.00000000000E+00  0.00000000000E+00 -0.14303940959E+04  0.14303940959E+04  0.25500000920E-02 0.  1.
    10030    2    1    2    0    0  0.00000000000E+00  0.00000000000E+00 -0.11347896785E+04  0.17259985133E+04  0.13005088441E+04 0.  0.
        2    1    3    3  502    0  0.12874775845E+03 -0.17980852214E+03  0.24416139296E+03  0.32942658629E+03  0.25500000920E-02 0. -1.
       -2    1    3    3    0  502 -0.12874775845E+03  0.17980852214E+03 -0.13789510715E+04  0.13965719271E+04  0.25500000920E-02 0.  1.
</event>
<event>
 5   0  0.1002887E-04  0.1305767E+04  0.7818609E-02  0.9025005E-01
        3   -1    0    0  501    0  0.00000000000E+00  0.00000000000E+00  0.19773797085E+03  0.19773799664E+03  0.10100000352E+00 0.  1.
       -3   -1    0    0    0  501  0.00000000000E+00  0.00000000000E+00 -0.21556643083E+04  0.21556643107E+04  0.10100000352E+00 0. -1.
    10030    2    1    2    0    0  0.00000000000E+00  0.00000000000E+00 -0.19579263375E+04  0.23534023073E+04  0.13057667775E+04 0.  0.
        2    1    3    3  502    0  0.56758402120E+03  0.21550512640E+03 -0.14117537654E+04  0.15367637342E+04  0.25500000920E-02 0. -1.
       -2    1    3    3    0  502 -0.56758402120E+03 -0.21550512640E+03 -0.54617257207E+03  0.81663857312E+03  0.25500000920E-02 0.  1.
</event>
<event>
 5   0  0.1479690E-04  0.1297094E+04  0.7818609E-02  0.9031873E-01
        1   -1    0    0  501    0  0.00000000000E+00  0.00000000000E+00  0.41144986182E+03  0.41144986186E+03  0.50400001928E-02 0. -1.
       -1   -1    0    0    0  501  0.00000000000E+00  0.00000000000E+00 -0.10222713163E+04  0.10222713164E+04  0.50400001928E-02 0.  1.
    10030    2    1    2    0    0  0.00000000000E+00  0.00000000000E+00 -0.61082145451E+03  0.14337211782E+04  0.12970942786E+04 0.  0.
        1    1    3    3  502    0  0.42258251988E+03  0.23521472456E+03 -0.78302645545E+03  0.92034362208E+03  0.50400001928E-02 0.  1.
       -1    1    3    3    0  502 -0.42258251988E+03 -0.23521472456E+03  0.17220500093E+03  0.51337755612E+03  0.50400001928E-02 0. -1.
</event>
<event>
 5   0  0.2723209E-04  0.1300682E+04  0.7818609E-02  0.9029024E-01
       -2   -1    0    0    0  501  0.00000000000E+00  0.00000000000E+00  0.47775445517E+03  0.47775445518E+03  0.25500000920E-02 0.  1.
        2   -1    0    0  501    0  0.00000000000E+00  0.00000000000E+00 -0.88527366120E+03  0.88527366120E+03  0.25500000920E-02 0. -1.
    10030    2    1    2    0    0  0.00000000000E+00  0.00000000000E+00 -0.40751920603E+03  0.13630281164E+04  0.13006820298E+04 0.  0.
        2    1    3    3  502    0  0.61956712534E+03  0.19679236250E+03 -0.22344231792E+03  0.68739881160E+03  0.25500000920E-02 0.  1.
       -2    1    3    3    0  502 -0.61956712534E+03 -0.19679236250E+03 -0.18407688811E+03  0.67562930478E+03  0.25500000920E-02 0. -1.
</event>
<event>
 5   0  0.1476511E-04  0.1302232E+04  0.7818609E-02  0.9027797E-01
        1   -1    0    0  501    0  0.00000000000E+00  0.00000000000E+00  0.11544794811E+04  0.11544794811E+04  0.50400001928E-02 0. -1.
       -1   -1    0    0    0  501  0.00000000000E+00  0.00000000000E+00 -0.36722350597E+03  0.36722350601E+03  0.50400001928E-02 0.  1.
    10030    2    1    2    0    0  0.00000000000E+00  0.00000000000E+00  0.78725597514E+03  0.15217029871E+04  0.13022319343E+04 0.  0.
        2    1    3    3  502    0 -0.24577384838E+03  0.53781100768E+03  0.75094522385E+02  0.59605759103E+03  0.25500000920E-02 0.  1.
       -2    1    3    3    0  502  0.24577384838E+03 -0.53781100768E+03  0.71216145275E+03  0.92564539610E+03  0.25500000920E-02 0. -1.
</event>
<event>
 5   0  0.1476511E-04  0.1301780E+04  0.7818609E-02  0.9028155E-01
       -1   -1    0    0    0  501  0.00000000000E+00  0.00000000000E+00  0.88191134909E+03  0.88191134911E+03  0.50400001928E-02 0. -1.
        1   -1    0    0  501    0  0.00000000000E+00  0.00000000000E+00 -0.48038602311E+03  0.48038602313E+03  0.50400001928E-02 0.  1.
    10030    2    1    2    0    0  0.00000000000E+00  0.00000000000E+00  0.40152532599E+03  0.13622973722E+04  0.13017801439E+04 0.  0.
        2    1    3    3  502    0 -0.18713104280E+03 -0.14922549786E+03  0.83418763670E+03  0.86784519911E+03  0.25500000920E-02 0. -1.
       -2    1    3    3    0  502  0.18713104280E+03  0.14922549786E+03 -0.43266231072E+03  0.49445217313E+03  0.25500000920E-02 0.  1.
</event>
<event>
 5   0  0.1430636E-04  0.1299705E+04  0.7818609E-02  0.9029799E-01
        1   -1    0    0  501    0  0.00000000000E+00  0.00000000000E+00  0.16095440865E+04  0.16095440865E+04  0.50400001928E-02 0. -1.
       -1   -1    0    0    0  501  0.00000000000E+00  0.00000000000E+00 -0.26237754069E+03  0.26237754074E+03  0.50400001928E-02 0.  1.
    10030    2    1    2    0    0  0.00000000000E+00  0.00000000000E+00  0.13471665458E+04  0.18719216273E+04  0.12997049190E+04 0.  0.
        4    1    3    3  502    0 -0.40917373233E+01 -0.25298333493E+03 -0.18852103700E+03  0.31552987870E+03  0.12699999809E+01 0.  1.
       -4    1    3    3    0  502  0.40917373233E+01  0.25298333493E+03  0.15356875828E+04  0.15563917486E+04  0.12699999809E+01 0. -1.
</event>
<event>
 5   0  0.1430636E-04  0.1297605E+04  0.7818609E-02  0.9031466E-01
       -1   -1    0    0    0  501  0.00000000000E+00  0.00000000000E+00  0.54409137632E+03  0.54409137634E+03  0.50400001928E-02 0.  1.
        1   -1    0    0  501    0  0.00000000000E+00  0.00000000000E+00 -0.77366562156E+03  0.77366562157E+03  0.50400001928E-02 0. -1.
    10030    2    1    2    0    0  0.00000000000E+00  0.00000000000E+00 -0.22957424524E+03  0.13177569979E+04  0.12976051678E+04 0.  0.
        4    1    3    3  502    0  0.35648264221E+03  0.11702768538E+03 -0.65231611722E+03  0.75252460626E+03  0.12699999809E+01 0. -1.
       -4    1    3    3    0  502 -0.35648264221E+03 -0.11702768538E+03  0.42274187198E+03  0.56523239165E+03  0.12699999809E+01 0.  1.
</event>
<event>
 5   0  0.1408341E-04  0.1300028E+04  0.7818609E-02  0.9029543E-01
        1   -1    0    0  501    0  0.00000000000E+00  0.00000000000E+00  0.89273880207E+03  0.89273880208E+03  0.50400001928E-02 0. -1.
       -1   -1    0    0    0  501  0.00000000000E+00  0.00000000000E+00 -0.47328292211E+03  0.47328292214E+03  0.50400001928E-02 0.  1.
    10030    2    1    2    0    0  0.00000000000E+00  0.00000000000E+00  0.41945587995E+03  0.13660217242E+04  0.13000277366E+04 0.  0.
        5    1    3    3  502    0 -0.24927182162E+02 -0.10400957064E+03  0.88341125616E+03  0.88987464999E+03  0.46999998093E+01 0. -1.
       -5    1    3    3    0  502  0.24927182162E+02  0.10400957064E+03 -0.46395537620E+03  0.47614707423E+03  0.46999998093E+01 0.  1.
</event>
<event>
 5   0  0.1475396E-04  0.1299569E+04  0.7818609E-02  0.9029907E-01
       -1   -1    0    0    0  501  0.00000000000E+00  0.00000000000E+00  0.28965702366E+03  0.28965702371E+03  0.50400001928E-02 0. -1.
        1   -1    0    0  501    0  0.00000000000E+00  0.00000000000E+00 -0.14576544257E+04  0.14576544257E+04  0.50400001928E-02 0.  1.
    10030    2    1    2    0    0  0.00000000000E+00  0.00000000000E+00 -0.11679974021E+04  0.17473114495E+04  0.12995689170E+04 0.  0.
        3    1    3    3  502    0  0.17639507937E+03  0.60033090869E+03 -0.81960808820E+03  0.10311497721E+04  0.10100000352E+00 0.  1.
       -3    1    3    3    0  502 -0.17639507937E+03 -0.60033090869E+03 -0.34838931387E+03  0.71616167740E+03  0.10100000352E+00 0. -1.
</event>
<event>
 5   0  0.2661377E-04  0.1299396E+04  0.7818609E-02  0.9030044E-01
       -2   -1    0    0    0  501  0.00000000000E+00  0.00000000000E+00  0.64886086615E+03  0.64886086616E+03  0.25500000920E-02 0. -1.
        2   -1    0    0  501    0  0.00000000000E+00  0.00000000000E+00 -0.65053602288E+03  0.65053602289E+03  0.25500000920E-02 0.  1.
    10030    2    1    2    0    0  0.00000000000E+00  0.00000000000E+00 -0.16751567277E+01  0.12993968890E+04  0.12993958093E+04 0.  0.
        5    1    3    3  502    0 -0.14797601576E+03 -0.55554996594E+03  0.30173929375E+03  0.64930836841E+03  0.46999998093E+01 0. -1.
       -5    1    3    3    0  502  0.14797601576E+03  0.55554996594E+03 -0.30341445048E+03  0.65008852063E+03  0.46999998093E+01 0.  1.
</event>
<event>
 5   0  0.1408341E-04  0.1298536E+04  0.7818609E-02  0.9030727E-01
        1   -1    0    0  501    0  0.00000000000E+00  0.00000000000E+00  0.12152180316E+04  0.12152180316E+04  0.50400001928E-02 0. -1.
       -1   -1    0    0    0  501  0.00000000000E+00  0.00000000000E+00 -0.34689161782E+03  0.34689161786E+03  0.50400001928E-02 0.  1.
    10030    2    1    2    0    0  0.00000000000E+00  0.00000000000E+00  0.86832641381E+03  0.15621096495E+04  0.12985360203E+04 0.  0.
        5    1    3    3  502    0  0.41022780758E+03 -0.48463523762E+02 -0.16839680626E+03  0.44611113145E+03  0.46999998093E+01 0.  1.
       -5    1    3    3    0  502 -0.41022780758E+03  0.48463523762E+02  0.10367232201E+04  0.11159985180E+04  0.46999998093E+01 0. -1.
</event>
<event>
 5   0  0.2794825E-04  0.1300690E+04  0.7818609E-02  0.9029018E-01
        2   -1    0    0  501    0  0.00000000000E+00  0.00000000000E+00  0.49650192768E+03  0.49650192768E+03  0.25500000920E-02 0. -1.
       -2   -1    0    0    0  501  0.00000000000E+00  0.00000000000E+00 -0.85185655613E+03  0.85185655613E+03  0.25500000920E-02 0.  1.
    10030    2    1    2    0    0  0.00000000000E+00  0.00000000000E+00 -0.35535462845E+03  0.13483584838E+04  0.13006896974E+04 0.  0.
        1    1    3    3  502    0 -0.48364486974E+02 -0.26934828998E+03  0.43391106827E+03  0.51299750498E+03  0.50400001928E-02 0. -1.
       -1    1    3    3    0  502  0.48364486974E+02  0.26934828998E+03 -0.78926569673E+03  0.83536097884E+03  0.50400001928E-02 0.  1.
</event>
<event>
 5   0  0.1475396E-04  0.1300721E+04  0.7818609E-02  0.9028994E-01
        1   -1    0    0  501    0  0.00000000000E+00  0.00000000000E+00  0.63135756057E+03  0.63135756059E+03  0.50400001928E-02 0. -1.
       -1   -1    0    0    0  501  0.00000000000E+00  0.00000000000E+00 -0.66993527291E+03  0.66993527292E+03  0.50400001928E-02 0.  1.
    10030    2    1    2    0    0  0.00000000000E+00  0.00000000000E+00 -0.38577712335E+02  0.13012928335E+04  0.13007208765E+04 0.  0.
        3    1    3    3  502    0  0.54247700376E+03  0.34422985750E+03 -0.12029460549E+03  0.65364080099E+03  0.10100000352E+00 0.  1.
       -3    1    3    3    0  502 -0.54247700376E+03 -0.34422985750E+03  0.81716893151E+02  0.64765203253E+03  0.10100000352E+00 0. -1.
</event>
<event>
 5   0  0.1430636E-04  0.1281285E+04  0.7818609E-02  0.9044539E-01
        1   -1    0    0  501    0  0.00000000000E+00  0.00000000000E+00  0.90737334645E+03  0.90737334646E+03  0.50400001928E-02 0.  1.
       -1   -1    0    0    0  501  0.00000000000E+00  0.00000000000E+00 -0.45231961202E+03  0.45231961204E+03  0.50400001928E-02 0. -1.
    10030    2    1    2    0    0  0.00000000000E+00  0.00000000000E+00  0.45505373443E+03  0.13596929585E+04  0.12812849176E+04 0.  0.
        4    1    3    3  502    0  0.38242348775E+03  0.92046716955E+02  0.76413987891E+03  0.85943684440E+03  0.12699999809E+01 0.  1.
       -4    1    3    3    0  502 -0.38242348775E+03 -0.92046716955E+02 -0.30908614448E+03  0.50025611410E+03  0.12699999809E+01 0. -1.
</event>
<event>
 5   0  0.1002887E-04  0.1299837E+04  0.7818609E-02  0.9029695E-01
       -3   -1    0    0    0  501  0.00000000000E+00  0.00000000000E+00  0.12193643104E+04  0.12193643145E+04  0.10100000352E+00 0. -1.
        3   -1    0    0  501    0  0.00000000000E+00  0.00000000000E+00 -0.34640494336E+03  0.34640495808E+03  0.10100000352E+00 0.  1.
    10030    2    1    2    0    0  0.00000000000E+00  0.00000000000E+00  0.87295936701E+03  0.15657692726E+04  0.12998366662E+04 0.  0.
        5    1    3    3  502    0 -0.34772325389E+03 -0.24285362115E+03 -0.15669020945E+03  0.45217613198E+03  0.46999998093E+01 0.  1.
       -5    1    3    3    0  502  0.34772325389E+03  0.24285362115E+03  0.10296495765E+04  0.11135931406E+04  0.46999998093E+01 0. -1.
</event>
<event>
 5   0  0.2794825E-04  0.1300695E+04  0.7818609E-02  0.9029014E-01
       -2   -1    0    0    0  501  0.00000000000E+00  0.00000000000E+00  0.28967203815E+03  0.28967203816E+03  0.25500000920E-02 0. -1.
        2   -1    0    0  501    0  0.00000000000E+00  0.00000000000E+00 -0.14601065608E+04  0.14601065608E+04  0.25500000920E-02 0.  1.
    10030    2    1    2    0    0  0.00000000000E+00  0.00000000000E+00 -0.11704345227E+04  0.17497785990E+04  0.13006952655E+04 0.  0.
        1    1    3    3  502    0  0.14303988403E+03  0.13300326115E+03 -0.14197167409E+04  0.14330896345E+04  0.50400001928E-02 0.  1.
       -1    1    3    3    0  502 -0.14303988403E+03 -0.13300326115E+03  0.24928221824E+03  0.31668896453E+03  0.50400001928E-02 0. -1.
</event>
<event>
 5   0  0.2661377E-04  0.1299246E+04  0.7818609E-02  0.9030163E-01
       -2   -1    0    0    0  501  0.00000000000E+00  0.00000000000E+00  0.27628824137E+03  0.27628824138E+03  0.25500000920E-02 0.  1.
        2   -1    0    0  501    0  0.00000000000E+00  0.00000000000E+00 -0.15274266218E+04  0.15274266218E+04  0.25500000920E-02 0. -1.
    10030    2    1    2    0    0  0.00000000000E+00  0.00000000000E+00 -0.12511383804E+04  0.18037148631E+04  0.12992459585E+04 0.  0.
        5    1    3    3  502    0 -0.56619674730E+03  0.31759469432E+03 -0.65791275513E+03  0.92429239415E+03  0.46999998093E+01 0. -1.
       -5    1    3    3    0  502  0.56619674730E+03 -0.31759469432E+03 -0.59322562525E+03  0.87942246899E+03  0.46999998093E+01 0.  1.
</event>
<event>
 5   0  0.2794825E-04  0.1299867E+04  0.7818609E-02  0.9029670E-01
        2   -1    0    0  501    0  0.00000000000E+00  0.00000000000E+00  0.45710294066E+03  0.45710294067E+03  0.25500000920E-02 0. -1.
       -2   -1    0    0    0  501  0.00000000000E+00  0.00000000000E+00 -0.92411093588E+03  0.92411093589E+03  0.25500000920E-02 0.  1.
    10030    2    1    2    0    0  0.00000000000E+00  0.00000000000E+00 -0.46700799522E+03  0.13812138766E+04  0.12998674183E+04 0.  0.
        1    1    3    3  502    0  0.15434308841E+03  0.32728133478E+03 -0.80717841640E+03  0.88457439312E+03  0.50400001928E-02 0.  1.
       -1    1    3    3    0  502 -0.15434308841E+03 -0.32728133478E+03  0.34017042118E+03  0.49663948344E+03  0.50400001928E-02 0. -1.
</event>
<event>
 5   0  0.2756984E-04  0.1303496E+04  0.7818609E-02  0.9026797E-01
       -2   -1    0    0    0  501  0.00000000000E+00  0.00000000000E+00  0.35006529743E+03  0.35006529744E+03  0.25500000920E-02 0.  1.
        2   -1    0    0  501    0  0.00000000000E+00  0.00000000000E+00 -0.12134183467E+04  0.12134183467E+04  0.25500000920E-02 0. -1.
    10030    2    1    2    0    0  0.00000000000E+00  0.00000000000E+00 -0.86335304925E+03  0.15634836441E+04  0.13034963053E+04 0.  0.
        3    1    3    3  502    0  0.28032550330E+03  0.46420754416E+03 -0.86531618404E+03  0.10211969156E+04  0.10100000352E+00 0. -1.
       -3    1    3    3    0  502 -0.28032550330E+03 -0.46420754416E+03  0.19631347893E+01  0.54228672854E+03  0.10100000352E+00 0.  1.
</event>
<event>
 5   0  0.2723209E-04  0.1299125E+04  0.7818609E-02  0.9030260E-01
        2   -1    0    0  501    0  0.00000000000E+00  0.00000000000E+00  0.79454596900E+03  0.79454596900E+03  0.25500000920E-02 0. -1.
       -2   -1    0    0    0  501  0.00000000000E+00  0.00000000000E+00 -0.53103432951E+03  0.53103432951E+03  0.25500000920E-02 0.  1.
    10030    2    1    2    0    0  0.00000000000E+00  0.00000000000E+00  0.26351163949E+03  0.13255802985E+04  0.12991246067E+04 0.  0.
        2    1    3    3  502    0  0.32497501922E+03 -0.52392485811E+03  0.34043257144E+03  0.70427292704E+03  0.25500000920E-02 0.  1.
       -2    1    3    3    0  502 -0.32497501922E+03  0.52392485811E+03 -0.76920931947E+02  0.62130737147E+03  0.25500000920E-02 0. -1.
</event>
<event>
 5   0  0.2794825E-04  0.1303694E+04  0.7818609E-02  0.9026641E-01
        2   -1    0    0  501    0  0.00000000000E+00  0.00000000000E+00  0.11963913976E+04  0.11963913976E+04  0.25500000920E-02 0. -1.
       -2   -1    0    0    0  501  0.00000000000E+00  0.00000000000E+00 -0.35515536993E+03  0.35515536994E+03  0.25500000920E-02 0.  1.
    10030    2    1    2    0    0  0.00000000000E+00  0.00000000000E+00  0.84123602768E+03  0.15515467675E+04  0.13036944878E+04 0.  0.
        1    1    3    3  502    0 -0.66155138273E+02 -0.24407996535E+03 -0.29439599120E+03  0.38809861049E+03  0.50400001928E-02 0.  1.
       -1    1    3    3    0  502  0.66155138273E+02  0.24407996535E+03  0.11356320189E+04  0.11634481571E+04  0.50400001928E-02 0. -1.
</event>
<event>
 5   0  0.1408341E-04  0.1299332E+04  0.7818609E-02  0.9030095E-01
       -1   -1    0    0    0  501  0.00000000000E+00  0.00000000000E+00  0.54648776178E+03  0.54648776181E+03  0.50400001928E-02 0. -1.
        1   -1    0    0  501    0  0.00000000000E+00  0.00000000000E+00 -0.77232442876E+03  0.77232442878E+03  0.50400001928E-02 0.  1.
    10030    2    1    2    0    0  0.00000000000E+00  0.00000000000E+00 -0.22583666698E+03  0.13188121906E+04  0.12993319029E+04 0.  0.
        5    1    3    3  502    0 -0.14048653714E+03  0.62314800700E+03  0.71508343096E+01  0.63884515352E+03  0.46999998093E+01 0. -1.
       -5    1    3    3    0  502  0.14048653714E+03 -0.62314800700E+03 -0.23298750129E+03  0.67996703707E+03  0.46999998093E+01 0.  1.
</event>
<event>
 5   0  0.1408341E-04  0.1299765E+04  0.7818609E-02  0.9029751E-01
        1   -1    0    0  501    0  0.00000000000E+00  0.00000000000E+00  0.10068111096E+04  0.10068111096E+04  0.50400001928E-02 0.  1.
       -1   -1    0    0    0  501  0.00000000000E+00  0.00000000000E+00 -0.41949028759E+03  0.41949028762E+03  0.50400001928E-02 0. -1.
    10030    2    1    2    0    0  0.00000000000E+00  0.00000000000E+00  0.58732082203E+03  0.14263013973E+04  0.12997653357E+04 0.  0.
        5    1    3    3  502    0 -0.25840111871E+03  0.42053918052E+03 -0.17022414221E+03  0.52213282705E+03  0.46999998093E+01 0. -1.
       -5    1    3    3    0  502  0.25840111871E+03 -0.42053918052E+03  0.75754496424E+03  0.90416857020E+03  0.46999998093E+01 0.  1.
</event>
<event>
 5   0  0.2723209E-04  0.1299039E+04  0.7818609E-02  0.9030328E-01
        2   -1    0    0  501    0  0.00000000000E+00  0.00000000000E+00  0.11729475874E+04  0.11729475874E+04  0.25500000920E-02 0. -1.
       -2   -1    0    0    0  501  0.00000000000E+00  0.00000000000E+00 -0.35967128691E+03  0.35967128692E+03  0.25500000920E-02 0.  1.
    10030    2    1    2    0    0  0.00000000000E+00  0.00000000000E+00  0.81327630052E+03  0.15326188744E+04  0.12990389806E+04 0.  0.
        2    1    3    3  502    0  0.74686400073E+02 -0.23938644520E+03  0.11135319197E+04  0.11414189698E+04  0.25500000920E-02 0. -1.
       -2    1    3    3    0  502 -0.74686400073E+02  0.23938644520E+03 -0.30025561914E+03  0.39119990457E+03  0.25500000920E-02 0.  1.
</event>
<event>
 5   0  0.1475396E-04  0.1300231E+04  0.7818609E-02  0.9029382E-01
        1   -1    0    0  501    0  0.00000000000E+00  0.00000000000E+00  0.39111930713E+03  0.39111930716E+03  0.50400001928E-02 0.  1.
       -1   -1    0    0    0  501  0.00000000000E+00  0.00000000000E+00 -0.10806163341E+04  0.10806163341E+04  0.50400001928E-02 0. -1.
    10030    2    1    2    0    0  0.00000000000E+00  0.00000000000E+00 -0.68949702696E+03  0.14717356413E+04  0.13002306132E+04 0.  0.
        3    1    3    3  502    0  0.91774517007E+02 -0.41362441275E+03 -0.90288392518E+03  0.99735004354E+03  0.10100000352E+00 0. -1.
       -3    1    3    3    0  502 -0.91774517007E+02  0.41362441275E+03  0.21338689822E+03  0.47438559773E+03  0.10100000352E+00 0.  1.
</event>
<event>
 5   0  0.1408341E-04  0.1301797E+04  0.7818609E-02  0.9028141E-01
       -1   -1    0    0    0  501  0.00000000000E+00  0.00000000000E+00  0.63318732104E+03  0.63318732106E+03  0.50400001928E-02 0.  1.
        1   -1    0    0  501    0  0.00000000000E+00  0.00000000000E+00 -0.66910504853E+03  0.66910504855E+03  0.50400001928E-02 0. -1.
    10030    2    1    2    0    0  0.00000000000E+00  0.00000000000E+00 -0.35917727487E+02  0.13022923696E+04  0.13017969630E+04 0.  0.
        5    1    3    3  502    0  0.49170411030E+03  0.10849869216E+03  0.39463213968E+03  0.63976676528E+03  0.46999998093E+01 0.  1.
       -5    1    3    3    0  502 -0.49170411030E+03 -0.10849869216E+03 -0.43054986717E+03  0.66252560434E+03  0.46999998093E+01 0. -1.
</event>
<event>
 5   0  0.1002887E-04  0.1298940E+04  0.7818609E-02  0.9030406E-01
       -4   -1    0    0    0  501  0.00000000000E+00  0.00000000000E+00  0.27361510659E+03  0.27361805397E+03  0.12699999809E+01 0. -1.
        4   -1    0    0  501    0  0.00000000000E+00  0.00000000000E+00 -0.15416122725E+04  0.15416127956E+04  0.12699999809E+01 0.  1.
    10030    2    1    2    0    0  0.00000000000E+00  0.00000000000E+00 -0.12679971659E+04  0.18152308495E+04  0.12989404238E+04 0.  0.
        3    1    3    3  502    0  0.95732622054E+02 -0.10684971219E+03  0.25119713224E+03  0.28927773051E+03  0.10100000352E+00 0. -1.
       -3    1    3    3    0  502 -0.95732622054E+02  0.10684971219E+03 -0.15191942981E+04  0.15259531190E+04  0.10100000352E+00 0.  1.
</event>
<event>
 5   0  0.2756984E-04  0.1285608E+04  0.7818609E-02  0.9041056E-01
        2   -1    0    0  501    0  0.00000000000E+00  0.00000000000E+00  0.12969045502E+04  0.12969045502E+04  0.25500000920E-02 0. -1.
       -2   -1    0    0    0  501  0.00000000000E+00  0.00000000000E+00 -0.31860257864E+03  0.31860257865E+03  0.25500000920E-02 0.  1.
    10030    2    1    2    0    0  0.00000000000E+00  0.00000000000E+00  0.97830197154E+03  0.16155071288E+04  0.12856082357E+04 0.  0.
        3    1    3    3  502    0  0.22304385491E+03  0.42956938952E+03 -0.42379407065E+02  0.48587492832E+03  0.10100000352E+00 0.  1.
       -3    1    3    3    0  502 -0.22304385491E+03 -0.42956938952E+03  0.10206813786E+04  0.11296322005E+04  0.10100000352E+00 0. -1.
</event>
<event>
 5   0  0.1408341E-04  0.1304269E+04  0.7818609E-02  0.9026186E-01
       -1   -1    0    0    0  501  0.00000000000E+00  0.00000000000E+00  0.39471328382E+03  0.39471328385E+03  0.50400001928E-02 0.  1.
        1   -1    0    0  501    0  0.00000000000E+00  0.00000000000E+00 -0.10774395841E+04  0.10774395842E+04  0.50400001928E-02 0. -1.
    10030    2    1    2    0    0  0.00000000000E+00  0.00000000000E+00 -0.68272630033E+03  0.14721528680E+04  0.13042694759E+04 0.  0.
        5    1    3    3  502    0 -0.11720105275E+03  0.42548480075E+03 -0.88324696695E+03  0.98738072548E+03  0.46999998093E+01 0. -1.
       -5    1    3    3    0  502  0.11720105275E+03 -0.42548480075E+03  0.20052066662E+03  0.48477214253E+03  0.46999998093E+01 0.  1.
</event>
<event>
 5   0  0.2723209E-04  0.1297177E+04  0.7818609E-02  0.9031807E-01
        2   -1    0    0  501    0  0.00000000000E+00  0.00000000000E+00  0.17034378683E+04  0.17034378683E+04  0.25500000920E-02 0. -1.
       -2   -1    0    0    0  501  0.00000000000E+00  0.00000000000E+00 -0.24695173852E+03  0.24695173853E+03  0.25500000920E-02 0.  1.
    10030    2    1    2    0    0  0.00000000000E+00  0.00000000000E+00  0.14564861297E+04  0.19503896068E+04  0.12971768469E+04 0.  0.
        2    1    3    3  502    0 -0.55947672339E+03  0.20495954914E+03  0.11134736585E+04  0.12628722061E+04  0.25500000920E-02 0.  1.
       -2    1    3    3    0  502  0.55947672339E+03 -0.20495954914E+03  0.34301247126E+03  0.68751740069E+03  0.25500000920E-02 0. -1.
</event>
<event>
 5   0  0.1479690E-04  0.1298156E+04  0.7818609E-02  0.9031029E-01
        1   -1    0    0  501    0  0.00000000000E+00  0.00000000000E+00  0.13626127130E+04  0.13626127130E+04  0.50400001928E-02 0.  1.
       -1   -1    0    0    0  501  0.00000000000E+00  0.00000000000E+00 -0.30918717362E+03  0.30918717366E+03  0.50400001928E-02 0. -1.
    10030    2    1    2    0    0  0.00000000000E+00  0.00000000000E+00  0.10534255394E+04  0.16717998867E+04  0.12981561902E+04 0.  0.
        1    1    3    3  502    0  0.43212845713E+03  0.28777101450E+03  0.10283955014E+04  0.11520175639E+04  0.50400001928E-02 0. -1.
       -1    1    3    3    0  502 -0.43212845713E+03 -0.28777101450E+03  0.25030038019E+02  0.51978232279E+03  0.50400001928E-02 0.  1.
</event>
<event>
 5   0  0.1002887E-04  0.1300252E+04  0.7818609E-02  0.9029365E-01
       -3   -1    0    0    0  501  0.00000000000E+00  0.00000000000E+00  0.31369463553E+03  0.31369465179E+03  0.10100000352E+00 0.  1.
        3   -1    0    0  501    0  0.00000000000E+00  0.00000000000E+00 -0.13473733567E+04  0.13473733605E+04  0.10100000352E+00 0. -1.
    10030    2    1    2    0    0  0.00000000000E+00  0.00000000000E+00 -0.10336787212E+04  0.16610680123E+04  0.13002519921E+04 0.  0.
        1    1    3    3  502    0  0.10370491945E+03  0.47014271831E+03 -0.10749680238E+04  0.11778561619E+04  0.50400001928E-02 0. -1.
       -1    1    3    3    0  502 -0.10370491945E+03 -0.47014271831E+03  0.41289302544E+02  0.48321185047E+03  0.50400001928E-02 0.  1.
</event>
<event>
 5   0  0.2756984E-04  0.1303102E+04  0.7818609E-02  0.9027109E-01
       -2   -1    0    0    0  501  0.00000000000E+00  0.00000000000E+00  0.29036304897E+03  0.29036304898E+03  0.25500000920E-02 0. -1.
        2   -1    0    0  501    0  0.00000000000E+00  0.00000000000E+00 -0.14620265991E+04  0.14620265991E+04  0.25500000920E-02 0.  1.
    10030    2    1    2    0    0  0.00000000000E+00  0.00000000000E+00 -0.11716635502E+04  0.17523896481E+04  0.13031016860E+04 0.  0.
        3    1    3    3  502    0 -0.97064750504E+02 -0.34594092540E+03 -0.13167581665E+04  0.13648988127E+04  0.10100000352E+00 0.  1.
       -3    1    3    3    0  502  0.97064750504E+02  0.34594092540E+03  0.14509461632E+03  0.38749083543E+03  0.10100000352E+00 0. -1.
</event>
<event>
 5   0  0.1476511E-04  0.1296843E+04  0.7818609E-02  0.9032073E-01
       -1   -1    0    0    0  501  0.00000000000E+00  0.00000000000E+00  0.49709290404E+03  0.49709290406E+03  0.50400001928E-02 0. -1.
        1   -1    0    0  501    0  0.00000000000E+00  0.00000000000E+00 -0.84581808938E+03  0.84581808940E+03  0.50400001928E-02 0.  1.
    10030    2    1    2    0    0  0.00000000000E+00  0.00000000000E+00 -0.34872518534E+03  0.13429109935E+04  0.12968425816E+04 0.  0.
        2    1    3    3  502    0  0.30955273276E+03 -0.34312316748E+03  0.29665125077E+03  0.54914330281E+03  0.25500000920E-02 0. -1.
       -2    1    3    3    0  502 -0.30955273276E+03  0.34312316748E+03 -0.64537643612E+03  0.79376769066E+03  0.25500000920E-02 0.  1.
</event>
<event>
 5   0  0.1475396E-04  0.1302203E+04  0.7818609E-02  0.9027820E-01
        1   -1    0    0  501    0  0.00000000000E+00  0.00000000000E+00  0.20124588213E+04  0.20124588213E+04  0.50400001928E-02 0.  1.
       -1   -1    0    0    0  501  0.00000000000E+00  0.00000000000E+00 -0.21065423915E+03  0.21065423921E+03  0.50400001928E-02 0. -1.
    10030    2    1    2    0    0  0.00000000000E+00  0.00000000000E+00  0.18018045821E+04  0.22231130605E+04  0.13022027214E+04 0.  0.
        3    1    3    3  502    0 -0.32579256231E+03  0.36160496471E+03  0.16392199645E+04  0.17099535217E+04  0.10100000352E+00 0.  1.
       -3    1    3    3    0  502  0.32579256231E+03 -0.36160496471E+03  0.16258461763E+03  0.51315953879E+03  0.10100000352E+00 0. -1.
</event>
<event>
 5   0  0.1408341E-04  0.1299967E+04  0.7818609E-02  0.9029592E-01
       -1   -1    0    0    0  501  0.00000000000E+00  0.00000000000E+00  0.88508545386E+03  0.88508545387E+03  0.50400001928E-02 0.  1.
        1   -1    0    0  501    0  0.00000000000E+00  0.00000000000E+00 -0.47733054953E+03  0.47733054956E+03  0.50400001928E-02 0. -1.
    10030    2    1    2    0    0  0.00000000000E+00  0.00000000000E+00  0.40775490432E+03  0.13624160034E+04  0.12999666551E+04 0.  0.
        5    1    3    3  502    0 -0.53915999800E+03 -0.22115489585E+03 -0.97792659669E+02  0.59092172552E+03  0.46999998093E+01 0. -1.
       -5    1    3    3    0  502  0.53915999800E+03  0.22115489585E+03  0.50554756399E+03  0.77149427792E+03  0.46999998093E+01 0.  1.
</event>
<event>
 5   0  0.1476511E-04  0.1302246E+04  0.7818609E-02  0.9027786E-01
       -1   -1    0    0    0  501  0.00000000000E+00  0.00000000000E+00  0.43962642840E+03  0.43962642843E+03  0.50400001928E-02 0. -1.
        1   -1    0    0  501    0  0.00000000000E+00  0.00000000000E+00 -0.96436674148E+03  0.96436674150E+03  0.50400001928E-02 0.  1.
    10030    2    1    2    0    0  0.00000000000E+00  0.00000000000E+00 -0.52474031308E+03  0.14039931699E+04  0.13022459157E+04 0.  0.
        2    1    3    3  502    0  0.51773188615E+03  0.11496677208E+03  0.14489765271E+03  0.54978086033E+03  0.25500000920E-02 0. -1.
       -2    1    3    3    0  502 -0.51773188615E+03 -0.11496677208E+03 -0.66963796579E+03  0.85421230959E+03  0.25500000920E-02 0.  1.
</event>
<event>
 5   0  0.2573071E-04  0.1304456E+04  0.7818609E-02  0.9026039E-01
        2   -1    0    0  501    0  0.00000000000E+00  0.00000000000E+00  0.83547144495E+03  0.83547144496E+03  0.25500000920E-02 0.  1.
       -2   -1    0    0    0  501  0.00000000000E+00  0.00000000000E+00 -0.50917556483E+03  0.50917556484E+03  0.25500000920E-02 0. -1.
    10030    2    1    2    0    0  0.00000000000E+00  0.00000000000E+00  0.32629588012E+03  0.13446470098E+04  0.13044564307E+04 0.  0.
        4    1    3    3  502    0 -0.25350361655E+03 -0.58679752664E+03  0.29677454847E+03  0.70474971898E+03  0.12699999809E+01 0. -1.
       -4    1    3    3    0  502  0.25350361655E+03  0.58679752664E+03  0.29521331646E+02  0.63989729082E+03  0.12699999809E+01 0.  1.
</event>
<event>
 5   0  0.1430636E-04  0.1296806E+04  0.7818609E-02  0.9032102E-01
       -1   -1    0    0    0  501  0.00000000000E+00  0.00000000000E+00  0.43499697694E+03  0.43499697697E+03  0.50400001928E-02 0.  1.
        1   -1    0    0  501    0  0.00000000000E+00  0.00000000000E+00 -0.96650463486E+03  0.96650463487E+03  0.50400001928E-02 0. -1.
    10030    2    1    2    0    0  0.00000000000E+00  0.00000000000E+00 -0.53150765792E+03  0.14015016118E+04  0.12968062221E+04 0.  0.
        4    1    3    3  502    0  0.24062205771E+03  0.51826258667E+03 -0.59697679477E+03  0.82636432025E+03  0.12699999809E+01 0. -1.
       -4    1    3    3    0  502 -0.24062205771E+03 -0.51826258667E+03  0.65469136848E+02  0.57513729159E+03  0.12699999809E+01 0.  1.
</event>
<event>
 5   0  0.1408341E-04  0.1299753E+04  0.7818609E-02  0.9029761E-01
        1   -1    0    0  501    0  0.00000000000E+00  0.00000000000E+00  0.39216877484E+03  0.39216877487E+03  0.50400001928E-02 0.  1.
       -1   -1    0    0    0  501  0.00000000000E+00  0.00000000000E+00 -0.10769321909E+04  0.10769321909E+04  0.50400001928E-02 0. -1.
    10030    2    1    2    0    0  0.00000000000E+00  0.00000000000E+00 -0.68476341605E+03  0.14691009658E+04  0.12997525579E+04 0.  0.
        5    1    3    3  502    0 -0.13118898361E+03  0.10882360590E+03  0.36643351827E+03  0.40416424871E+03  0.46999998093E+01 0.  1.
       -5    1    3    3    0  502  0.13118898361E+03 -0.10882360590E+03 -0.10511969343E+04  0.10649367171E+04  0.46999998093E+01 0. -1.
</event>
<event>
 5   0  0.1476511E-04  0.1297561E+04  0.7818609E-02  0.9031501E-01
       -1   -1    0    0    0  501  0.00000000000E+00  0.00000000000E+00  0.86105696520E+03  0.86105696521E+03  0.50400001928E-02 0. -1.
        1   -1    0    0  501    0  0.00000000000E+00  0.00000000000E+00 -0.48883686247E+03  0.48883686250E+03  0.50400001928E-02 0.  1.
    10030    2    1    2    0    0  0.00000000000E+00  0.00000000000E+00  0.37222010272E+03  0.13498938277E+04  0.12975613824E+04 0.  0.
        2    1    3    3  502    0 -0.45332243412E+03  0.40700262476E+03 -0.45965518451E+02  0.61095433113E+03  0.25500000920E-02 0.  1.
       -2    1    3    3    0  502  0.45332243412E+03 -0.40700262476E+03  0.41818562117E+03  0.73893949658E+03  0.25500000920E-02 0. -1.
</event>
<event>
 5   0  0.2794825E-04  0.1299528E+04  0.7818609E-02  0.9029939E-01
        2   -1    0    0  501    0  0.00000000000E+00  0.00000000000E+00  0.15075023397E+04  0.15075023397E+04  0.25500000920E-02 0. -1.
       -2   -1    0    0    0  501  0.00000000000E+00  0.00000000000E+00 -0.28006160819E+03  0.28006160820E+03  0.25500000920E-02 0.  1.
    10030    2    1    2    0    0  0.00000000000E+00  0.00000000000E+00  0.12274407316E+04  0.17875639479E+04  0.12995284216E+04 0.  0.
        1    1    3    3  502    0 -0.41636122031E+03  0.43530250730E+02 -0.69834326433E+02  0.42441534101E+03  0.50400001928E-02 0.  1.
       -1    1    3    3    0  502  0.41636122031E+03 -0.43530250730E+02  0.12972750580E+04  0.13631486069E+04  0.50400001928E-02 0. -1.
</event>
<event>
 5   0  0.2756984E-04  0.1299613E+04  0.7818609E-02  0.9029872E-01
       -2   -1    0    0    0  501  0.00000000000E+00  0.00000000000E+00  0.30670414159E+03  0.30670414160E+03  0.25500000920E-02 0.  1.
        2   -1    0    0  501    0  0.00000000000E+00  0.00000000000E+00 -0.13767282924E+04  0.13767282924E+04  0.25500000920E-02 0. -1.
    10030    2    1    2    0    0  0.00000000000E+00  0.00000000000E+00 -0.10700241508E+04  0.16834324340E+04  0.12996126640E+04 0.  0.
        3    1    3    3  502    0  0.29281917787E+02  0.16928076663E+03  0.27675508128E+03  0.32574037803E+03  0.10100000352E+00 0.  1.
       -3    1    3    3    0  502 -0.29281917787E+02 -0.16928076663E+03 -0.13467792321E+04  0.13576920560E+04  0.10100000352E+00 0. -1.
</event>
<event>
 5   0  0.2756984E-04  0.1298469E+04  0.7818609E-02  0.9030780E-01
        2   -1    0    0  501    0  0.00000000000E+00  0.00000000000E+00  0.12875482792E+04  0.12875482792E+04  0.25500000920E-02 0.  1.
       -2   -1    0    0    0  501  0.00000000000E+00  0.00000000000E+00 -0.32737051643E+03  0.32737051644E+03  0.25500000920E-02 0. -1.
    10030    2    1    2    0    0  0.00000000000E+00  0.00000000000E+00  0.96017776273E+03  0.16149187956E+04  0.12984688600E+04 0.  0.
        3    1    3    3  502    0 -0.26682264369E+03  0.48614210380E+03  0.89997112301E+03  0.10571076108E+04  0.10100000352E+00 0.  1.
       -3    1    3    3    0  502  0.26682264369E+03 -0.48614210380E+03  0.60206639725E+02  0.55781118485E+03  0.10100000352E+00 0. -1.
</event>
<event>
 5   0  0.1430636E-04  0.1303948E+04  0.7818609E-02  0.9026440E-01
       -1   -1    0    0    0  501  0.00000000000E+00  0.00000000000E+00  0.43642966985E+03  0.43642966988E+03  0.50400001928E-02 0.  1.
        1   -1    0    0  501    0  0.00000000000E+00  0.00000000000E+00 -0.97397147318E+03  0.97397147319E+03  0.50400001928E-02 0. -1.
    10030    2    1    2    0    0  0.00000000000E+00  0.00000000000E+00 -0.53754180333E+03  0.14104011431E+04  0.13039479261E+04 0.  0.
        4    1    3    3  502    0 -0.29829573566E+03 -0.54932279568E+03 -0.46918832341E+03  0.78158504048E+03  0.12699999809E+01 0. -1.
       -4    1    3    3    0  502  0.29829573566E+03  0.54932279568E+03 -0.68353479915E+02  0.62881610260E+03  0.12699999809E+01 0.  1.
</event>
<event>
 5   0  0.2794825E-04  0.1294422E+04  0.7818609E-02  0.9034001E-01
       -2   -1    0    0    0  501  0.00000000000E+00  0.00000000000E+00  0.23327117886E+03  0.23327117888E+03  0.25500000920E-02 0. -1.
        2   -1    0    0  501    0  0.00000000000E+00  0.00000000000E+00 -0.17956860172E+04  0.17956860172E+04  0.25500000920E-02 0.  1.
    10030    2    1    2    0    0  0.00000000000E+00  0.00000000000E+00 -0.15624148384E+04  0.20289571961E+04  0.12944215606E+04 0.  0.
        1    1    3    3  502    0  0.28193591993E+03  0.48916333049E+03 -0.28525187730E+03  0.63256403658E+03  0.50400001928E-02 0. -1.
       -1    1    3    3    0  502 -0.28193591993E+03 -0.48916333049E+03 -0.12771629611E+04  0.13963931595E+04  0.50400001928E-02 0.  1.
</event>
<event>
 5   0  0.1476511E-04  0.1305589E+04  0.7818609E-02  0.9025144E-01
       -1   -1    0    0    0  501  0.00000000000E+00  0.00000000000E+00  0.94780566423E+03  0.94780566424E+03  0.50400001928E-02 0.  1.
        1   -1    0    0  501    0  0.00000000000E+00  0.00000000000E+00 -0.44960791259E+03  0.44960791261E+03  0.50400001928E-02 0. -1.
    10030    2    1    2    0    0  0.00000000000E+00  0.00000000000E+00  0.49819775164E+03  0.13974135769E+04  0.13055894091E+04 0.  0.
        2    1    3    3  502    0  0.23596430445E+03 -0.74727076557E+02 -0.39743600992E+03  0.46820793557E+03  0.25500000920E-02 0. -1.
       -2    1    3    3    0  502 -0.23596430445E+03  0.74727076557E+02  0.89563376156E+03  0.92920564128E+03  0.25500000920E-02 0.  1.
</event>
<event>
 5   0  0.1479690E-04  0.1296986E+04  0.7818609E-02  0.9031959E-01
       -1   -1    0    0    0  501  0.00000000000E+00  0.00000000000E+00  0.24650003376E+03  0.24650003381E+03  0.50400001928E-02 0.  1.
        1   -1    0    0  501    0  0.00000000000E+00  0.00000000000E+00 -0.17060574460E+04  0.17060574460E+04  0.50400001928E-02 0. -1.
    10030    2    1    2    0    0  0.00000000000E+00  0.00000000000E+00 -0.14595574123E+04  0.19525574799E+04  0.12969860726E+04 0.  0.
        1    1    3    3  502    0 -0.36323476699E+03 -0.48612617166E+03 -0.10740155498E+04  0.12335994293E+04  0.50400001928E-02 0. -1.
       -1    1    3    3    0  502  0.36323476699E+03  0.48612617166E+03 -0.38554186250E+03  0.71895805058E+03  0.50400001928E-02 0.  1.
</event>
<event>
 5   0  0.1408341E-04  0.1300049E+04  0.7818609E-02  0.9029527E-01
       -1   -1    0    0    0  501  0.00000000000E+00  0.00000000000E+00  0.75129761065E+03  0.75129761067E+03  0.50400001928E-02 0.  1.
        1   -1    0    0  501    0  0.00000000000E+00  0.00000000000E+00 -0.56240243069E+03  0.56240243072E+03  0.50400001928E-02 0. -1.
    10030    2    1    2    0    0  0.00000000000E+00  0.00000000000E+00  0.18889517995E+03  0.13137000414E+04  0.13000486182E+04 0.  0.
        5    1    3    3  502    0  0.43436090608E+03  0.46225668686E+03 -0.49025259584E+02  0.63622025067E+03  0.46999998093E+01 0. -1.
       -5    1    3    3    0  502 -0.43436090608E+03 -0.46225668686E+03  0.23792043954E+03  0.67747979072E+03  0.46999998093E+01 0.  1.
</event>
<event>
 5   0  0.2723209E-04  0.1298984E+04  0.7818609E-02  0.9030371E-01
       -2   -1    0    0    0  501  0.00000000000E+00  0.00000000000E+00  0.54142754176E+03  0.54142754176E+03  0.25500000920E-02 0. -1.
        2   -1    0    0  501    0  0.00000000000E+00  0.00000000000E+00 -0.77912574683E+03  0.77912574684E+03  0.25500000920E-02 0.  1.
    10030    2    1    2    0    0  0.00000000000E+00  0.00000000000E+00 -0.23769820508E+03  0.13205532886E+04  0.12989844307E+04 0.  0.
        2    1    3    3  502    0 -0.43044281975E+03  0.48984650085E+02 -0.61078440351E+03  0.74882448183E+03  0.25500000920E-02 0.  1.
       -2    1    3    3    0  502  0.43044281975E+03 -0.48984650085E+02  0.37308619843E+03  0.57172880676E+03  0.25500000920E-02 0. -1.
</event>
<event>
 5   0  0.2794825E-04  0.1295099E+04  0.7818609E-02  0.9033461E-01
        2   -1    0    0  501    0  0.00000000000E+00  0.00000000000E+00  0.11557732532E+04  0.11557732532E+04  0.25500000920E-02 0. -1.
       -2   -1    0    0    0  501  0.00000000000E+00  0.00000000000E+00 -0.36280511235E+03  0.36280511236E+03  0.25500000920E-02 0.  1.
    10030    2    1    2    0    0  0.00000000000E+00  0.00000000000E+00  0.79296814085E+03  0.15185783656E+04  0.12950991390E+04 0.  0.
        1    1    3    3  502    0 -0.61600025921E+03 -0.80251213382E+02  0.18211479012E+03  0.64735027102E+03  0.50400001928E-02 0.  1.
       -1    1    3    3    0  502  0.61600025921E+03  0.80251213382E+02  0.61085335074E+03  0.87122809454E+03  0.50400001928E-02 0. -1.
</event>
<event>
 5   0  0.2661377E-04  0.1299540E+04  0.7818609E-02  0.9029930E-01
       -2   -1    0    0    0  501  0.00000000000E+00  0.00000000000E+00  0.28066951446E+03  0.28066951447E+03  0.25500000920E-02 0.  1.
        2   -1    0    0  501    0  0.00000000000E+00  0.00000000000E+00 -0.15042642950E+04  0.15042642950E+04  0.25500000920E-02 0. -1.
    10030    2    1    2    0    0  0.00000000000E+00  0.00000000000E+00 -0.12235947806E+04  0.17849338095E+04  0.12995401176E+04 0.  0.
        5    1    3    3  502    0 -0.20662986800E+03 -0.57725699374E+02  0.23059312103E+03  0.31499751774E+03  0.46999998093E+01 0.  1.
       -5    1    3    3    0  502  0.20662986800E+03  0.57725699374E+02 -0.14541879016E+04  0.14699362918E+04  0.46999998093E+01 0. -1.
</event>
<event>
 5   0  0.1002887E-04  0.1300569E+04  0.7818609E-02  0.9029114E-01
        3   -1    0    0  501    0  0.00000000000E+00  0.00000000000E+00  0.16662093891E+04  0.16662093922E+04  0.10100000352E+00 0.  1.
       -3   -1    0    0    0  501  0.00000000000E+00  0.00000000000E+00 -0.25379152336E+03  0.25379154345E+03  0.10100000352E+00 0. -1.
    10030    2    1    2    0    0  0.00000000000E+00  0.00000000000E+00  0.14124178657E+04  0.19200009356E+04  0.13005688622E+04 0.  0.
        4    1    3    3  502    0  0.12072828900E+03  0.41008079192E+03 -0.17207336749E+02  0.42783090235E+03  0.12699999809E+01 0. -1.
       -4    1    3    3    0  502 -0.12072828900E+03 -0.41008079192E+03  0.14296252025E+04  0.14921700333E+04  0.12699999809E+01 0.  1.
</event>
<event>
 5   0  0.1476511E-04  0.1297348E+04  0.7818609E-02  0.9031671E-01
        1   -1    0    0  501    0  0.00000000000E+00  0.00000000000E+00  0.45718429590E+03  0.45718429593E+03  0.50400001928E-02 0.  1.
       -1   -1    0    0    0  501  0.00000000000E+00  0.00000000000E+00 -0.92036791866E+03  0.92036791867E+03  0.50400001928E-02 0. -1.
    10030    2    1    2    0    0  0.00000000000E+00  0.00000000000E+00 -0.46318362275E+03  0.13775522146E+04  0.12973476926E+04 0.  0.
        2    1    3    3  502    0  0.60219943179E+03  0.14956233452E+03 -0.43239890366E+03  0.75629482310E+03  0.25500000920E-02 0. -1.
       -2    1    3    3    0  502 -0.60219943179E+03 -0.14956233452E+03 -0.30784719095E+02  0.62125739150E+03  0.25500000920E-02 0.  1.
</event>
<event>
 5   0  0.2573071E-04  0.1300659E+04  0.7818609E-02  0.9029042E-01
        2   -1    0    0  501    0  0.00000000000E+00  0.00000000000E+00  0.19070542444E+04  0.19070542444E+04  0.25500000920E-02 0.  1.
       -2   -1    0    0    0  501  0.00000000000E+00  0.00000000000E+00 -0.22177070172E+03  0.22177070174E+03  0.25500000920E-02 0. -1.
    10030    2    1    2    0    0  0.00000000000E+00  0.00000000000E+00  0.16852835427E+04  0.21288249461E+04  0.13006594605E+04 0.  0.
        4    1    3    3  502    0  0.40061026591E+03 -0.51181576579E+03  0.87861932702E+03  0.10928940928E+04  0.12699999809E+01 0. -1.
       -4    1    3    3    0  502 -0.40061026591E+03  0.51181576579E+03  0.80666421567E+03  0.10359308534E+04  0.12699999809E+01 0.  1.
</event>
<event>
 5   0  0.2794825E-04  0.1312011E+04  0.7818609E-02  0.9020094E-01
        2   -1    0    0  501    0  0.00000000000E+00  0.00000000000E+00  0.55257520085E+03  0.55257520086E+03  0.25500000920E-02 0. -1.
       -2   -1    0    0    0  501  0.00000000000E+00  0.00000000000E+00 -0.77879535324E+03  0.77879535324E+03  0.25500000920E-02 0.  1.
    10030    2    1    2    0    0  0.00000000000E+00  0.00000000000E+00 -0.22622015239E+03  0.13313705541E+04  0.13120106688E+04 0.  0.
        1    1    3    3  502    0 -0.29222955192E+03  0.55832537125E+03 -0.29805658933E+03  0.69711050893E+03  0.50400001928E-02 0.  1.
       -1    1    3    3    0  502  0.29222955192E+03 -0.55832537125E+03  0.71836436949E+02  0.63426004516E+03  0.50400001928E-02 0. -1.
</event>
<event>
 5   0  0.1479690E-04  0.1296641E+04  0.7818609E-02  0.9032233E-01
        1   -1    0    0  501    0  0.00000000000E+00  0.00000000000E+00  0.25305184417E+03  0.25305184422E+03  0.50400001928E-02 0.  1.
       -1   -1    0    0    0  501  0.00000000000E+00  0.00000000000E+00 -0.16610017924E+04  0.16610017924E+04  0.50400001928E-02 0. -1.
    10030    2    1    2    0    0  0.00000000000E+00  0.00000000000E+00 -0.14079499483E+04  0.19140536367E+04  0.12966411482E+04 0.  0.
        1    1    3    3  502    0 -0.28873413077E+03  0.48331503196E+03 -0.22939662105E+03  0.60793390115E+03  0.50400001928E-02 0.  1.
       -1    1    3    3    0  502  0.28873413077E+03 -0.48331503196E+03 -0.11785533272E+04  0.13061197355E+04  0.50400001928E-02 0. -1.
</event>
<event>
 5   0  0.1408341E-04  0.1300265E+04  0.7818609E-02  0.9029355E-01
       -1   -1    0    0    0  501  0.00000000000E+00  0.00000000000E+00  0.11329251977E+04  0.11329251977E+04  0.50400001928E-02 0.  1.
        1   -1    0    0  501    0  0.00000000000E+00  0.00000000000E+00 -0.37308064124E+03  0.37308064128E+03  0.50400001928E-02 0. -1.
    10030    2    1    2    0    0  0.00000000000E+00  0.00000000000E+00  0.75984455641E+03  0.15060058389E+04  0.13002652949E+04 0.  0.
        5    1    3    3  502    0  0.51821687191E+02  0.34924360127E+03 -0.25234148335E+03  0.43399872639E+03  0.46999998093E+01 0. -1.
       -5    1    3    3    0  502 -0.51821687191E+02 -0.34924360127E+03  0.10121860398E+04  0.10720071126E+04  0.46999998093E+01 0.  1.
</event>
<event>
 5   0  0.2661377E-04  0.1303981E+04  0.7818609E-02  0.9026414E-01
        2   -1    0    0  501    0  0.00000000000E+00  0.00000000000E+00  0.94037091622E+03  0.94037091622E+03  0.25500000920E-02 0.  1.
       -2   -1    0    0    0  501  0.00000000000E+00  0.00000000000E+00 -0.45204660767E+03  0.45204660768E+03  0.25500000920E-02 0. -1.
    10030    2    1    2    0    0  0.00000000000E+00  0.00000000000E+00  0.48832430855E+03  0.13924175239E+04  0.13039808014E+04 0.  0.
        5    1    3    3  502    0 -0.20955867047E+03 -0.51198859411E+03  0.61255597340E+03  0.82540539580E+03  0.46999998093E+01 0.  1.
       -5    1    3    3    0  502  0.20955867047E+03  0.51198859411E+03 -0.12423166485E+03  0.56701212811E+03  0.46999998093E+01 0. -1.
</event>
<event>
 5   0  0.2661377E-04  0.1300563E+04  0.7818609E-02  0.9029119E-01
        2   -1    0    0  501    0  0.00000000000E+00  0.00000000000E+00  0.20161737979E+04  0.20161737979E+04  0.25500000920E-02 0. -1.
       -2   -1    0    0    0  501  0.00000000000E+00  0.00000000000E+00 -0.20973683608E+03  0.20973683609E+03  0.25500000920E-02 0.  1.
    10030    2    1    2    0    0  0.00000000000E+00  0.00000000000E+00  0.18064369619E+04  0.22259106340E+04  0.13005628218E+04 0.  0.
        5    1    3    3  502    0  0.35547955628E+02 -0.62886426143E+03  0.11797719122E+04  0.13373921531E+04  0.46999998093E+01 0. -1.
       -5    1    3    3    0  502 -0.35547955628E+02  0.62886426143E+03  0.62666504969E+03  0.88851848093E+03  0.46999998093E+01 0.  1.
</event>
<event>
 5   0  0.2661377E-04  0.1299875E+04  0.7818609E-02  0.9029664E-01
       -2   -1    0    0    0  501  0.00000000000E+00  0.00000000000E+00  0.30577514239E+03  0.30577514240E+03  0.25500000920E-02 0. -1.
        2   -1    0    0  501    0  0.00000000000E+00  0.00000000000E+00 -0.13814684356E+04  0.13814684356E+04  0.25500000920E-02 0.  1.
    10030    2    1    2    0    0  0.00000000000E+00  0.00000000000E+00 -0.10756932932E+04  0.16872435780E+04  0.12998749288E+04 0.  0.
        5    1    3    3  502    0 -0.57171030309E+03 -0.17548543872E+03 -0.20755917201E+03  0.63304874200E+03  0.46999998093E+01 0. -1.
       -5    1    3    3    0  502  0.57171030309E+03  0.17548543872E+03 -0.86813412116E+03  0.10541948360E+04  0.46999998093E+01 0.  1.
</event>
<event>
 5   0  0.2573071E-04  0.1291889E+04  0.7818609E-02  0.9036022E-01
        2   -1    0    0  501    0  0.00000000000E+00  0.00000000000E+00  0.72240675537E+03  0.72240675537E+03  0.25500000920E-02 0.  1.
       -2   -1    0    0    0  501  0.00000000000E+00  0.00000000000E+00 -0.57757514821E+03  0.57757514822E+03  0.25500000920E-02 0. -1.
    10030    2    1    2    0    0  0.00000000000E+00  0.00000000000E+00  0.14483160716E+03  0.12999819036E+04  0.12918888324E+04 0.  0.
        4    1    3    3  502    0  0.55647485686E+03  0.27712992914E+03  0.24894945573E+03  0.66965865062E+03  0.12699999809E+01 0.  1.
       -4    1    3    3    0  502 -0.55647485686E+03 -0.27712992914E+03 -0.10411784857E+03  0.63032325297E+03  0.12699999809E+01 0. -1.
</event>
<event>
 5   0  0.2573071E-04  0.1299079E+04  0.7818609E-02  0.9030296E-01
        2   -1    0    0  501    0  0.00000000000E+00  0.00000000000E+00  0.46390931627E+03  0.46390931627E+03  0.25500000920E-02 0.  1.
       -2   -1    0    0    0  501  0.00000000000E+00  0.00000000000E+00 -0.90944844460E+03  0.90944844460E+03  0.25500000920E-02 0. -1.
    10030    2    1    2    0    0  0.00000000000E+00  0.00000000000E+00 -0.44553912833E+03  0.13733577609E+04  0.12990790678E+04 0.  0.
        4    1    3    3  502    0  0.57846197339E+03 -0.11037515282E+03 -0.51248081668E+03  0.78066582440E+03  0.12699999809E+01 0. -1.
       -4    1    3    3    0  502 -0.57846197339E+03  0.11037515282E+03  0.66941688346E+02  0.59269193647E+03  0.12699999809E+01 0.  1.
</event>
<event>
 5   0  0.1408341E-04  0.1298590E+04  0.7818609E-02  0.9030684E-01
        1   -1    0    0  501    0  0.00000000000E+00  0.00000000000E+00  0.13471875058E+04  0.13471875058E+04  0.50400001928E-02 0. -1.
       -1   -1    0    0    0  501  0.00000000000E+00  0.00000000000E+00 -0.31293621911E+03  0.31293621915E+03  0.50400001928E-02 0.  1.
    10030    2    1    2    0    0  0.00000000000E+00  0.00000000000E+00  0.10342512867E+04  0.16601237250E+04  0.12985896419E+04 0.  0.
        5    1    3    3  502    0  0.94299166780E+01  0.51867337122E+03  0.10162780990E+04  0.11410321003E+04  0.46999998093E+01 0. -1.
       -5    1    3    3    0  502 -0.94299166780E+01 -0.51867337122E+03  0.17973187677E+02  0.51909162468E+03  0.46999998093E+01 0.  1.
</event>
<event>
 5   0  0.2756984E-04  0.1302537E+04  0.7818609E-02  0.9027556E-01
        2   -1    0    0  501    0  0.00000000000E+00  0.00000000000E+00  0.38372775035E+03  0.38372775036E+03  0.25500000920E-02 0.  1.
       -2   -1    0    0    0  501  0.00000000000E+00  0.00000000000E+00 -0.11053427241E+04  0.11053427241E+04  0.25500000920E-02 0. -1.
    10030    2    1    2    0    0  0.00000000000E+00  0.00000000000E+00 -0.72161497375E+03  0.14890704745E+04  0.13025370273E+04 0.  0.
        3    1    3    3  502    0  0.53018343269E+03  0.19412761461E+03  0.10287452778E+02  0.56469978302E+03  0.10100000352E+00 0.  1.
       -3    1    3    3    0  502 -0.53018343269E+03 -0.19412761461E+03 -0.73190242653E+03  0.92437069145E+03  0.10100000352E+00 0. -1.
</event>
<event>
 5   0  0.2723209E-04  0.1298936E+04  0.7818609E-02  0.9030409E-01
        2   -1    0    0  501    0  0.00000000000E+00  0.00000000000E+00  0.86049839553E+03  0.86049839553E+03  0.25500000920E-02 0. -1.
       -2   -1    0    0    0  501  0.00000000000E+00  0.00000000000E+00 -0.49019144000E+03  0.49019144001E+03  0.25500000920E-02 0.  1.
    10030    2    1    2    0    0  0.00000000000E+00  0.00000000000E+00  0.37030695552E+03  0.13506898355E+04  0.12989364074E+04 0.  0.
        2    1    3    3  502    0  0.20760092956E+02 -0.10553716714E+03 -0.48086561039E+03  0.49274822209E+03  0.25500000920E-02 0.  1.
       -2    1    3    3    0  502 -0.20760092956E+02  0.10553716714E+03  0.85117256592E+03  0.85794161345E+03  0.25500000920E-02 0. -1.
</event>
<event>
 5   0  0.1475396E-04  0.1301408E+04  0.7818609E-02  0.9028449E-01
       -1   -1    0    0    0  501  0.00000000000E+00  0.00000000000E+00  0.12664658542E+04  0.12664658542E+04  0.50400001928E-02 0.  1.
        1   -1    0    0  501    0  0.00000000000E+00  0.00000000000E+00 -0.33432865326E+03  0.33432865330E+03  0.50400001928E-02 0. -1.
    10030    2    1    2    0    0  0.00000000000E+00  0.00000000000E+00  0.93213720095E+03  0.16007945075E+04  0.13014081965E+04 0.  0.
        3    1    3    3  502    0 -0.22648539034E+03 -0.20756938435E+03 -0.23950639790E+03  0.38954333032E+03  0.10100000352E+00 0. -1.
       -3    1    3    3    0  502  0.22648539034E+03  0.20756938435E+03  0.11716435988E+04  0.12112511772E+04  0.10100000352E+00 0.  1.
</event>
<event>
 5   0  0.2661377E-04  0.1302361E+04  0.7818609E-02  0.9027695E-01
       -2   -1    0    0    0  501  0.00000000000E+00  0.00000000000E+00  0.47712066103E+03  0.47712066104E+03  0.25500000920E-02 0. -1.
        2   -1    0    0  501    0  0.00000000000E+00  0.00000000000E+00 -0.88874013348E+03  0.88874013349E+03  0.25500000920E-02 0.  1.
    10030    2    1    2    0    0  0.00000000000E+00  0.00000000000E+00 -0.41161947245E+03  0.13658607945E+04  0.13023613630E+04 0.  0.
        5    1    3    3  502    0 -0.35898642580E+03 -0.49177362883E+03 -0.44793783805E+03  0.75589877145E+03  0.46999998093E+01 0.  1.
       -5    1    3    3    0  502  0.35898642580E+03  0.49177362883E+03  0.36318365604E+02  0.60996202308E+03  0.46999998093E+01 0. -1.
</event>
<event>
 5   0  0.2723209E-04  0.1300143E+04  0.7818609E-02  0.9029452E-01
       -2   -1    0    0    0  501  0.00000000000E+00  0.00000000000E+00  0.38657110442E+03  0.38657110443E+03  0.25500000920E-02 0.  1.
        2   -1    0    0  501    0  0.00000000000E+00  0.00000000000E+00 -0.10931825027E+04  0.10931825027E+04  0.25500000920E-02 0. -1.
    10030    2    1    2    0    0  0.00000000000E+00  0.00000000000E+00 -0.70661139823E+03  0.14797536071E+04  0.13001427112E+04 0.  0.
        2    1    3    3  502    0  0.25718363520E+03  0.37620564316E+03 -0.88094294278E+03  0.99183394608E+03  0.25500000920E-02 0. -1.
       -2    1    3    3    0  502 -0.25718363520E+03 -0.37620564316E+03  0.17433154455E+03  0.48791966100E+03  0.25500000920E-02 0.  1.
</event>
<event>
 5   0  0.1479690E-04  0.1299179E+04  0.7818609E-02  0.9030217E-01
        1   -1    0    0  501    0  0.00000000000E+00  0.00000000000E+00  0.47231732006E+03  0.47231732009E+03  0.50400001928E-02 0.  1.
       -1   -1    0    0    0  501  0.00000000000E+00  0.00000000000E+00 -0.89339588477E+03  0.89339588479E+03  0.50400001928E-02 0. -1.
    10030    2    1    2    0    0  0.00000000000E+00  0.00000000000E+00 -0.42107856471E+03  0.13657132049E+04  0.12991787407E+04 0.  0.
        1    1    3    3  502    0 -0.38167686987E+03 -0.23899099201E+03  0.28159492996E+03  0.53112110847E+03  0.50400001928E-02 0.  1.
       -1    1    3    3    0  502  0.38167686987E+03  0.23899099201E+03 -0.70267349467E+03  0.83459209641E+03  0.50400001928E-02 0. -1.
</event>
<event>
 5   0  0.2661377E-04  0.1299815E+04  0.7818609E-02  0.9029712E-01
        2   -1    0    0  501    0  0.00000000000E+00  0.00000000000E+00  0.85526224909E+03  0.85526224910E+03  0.25500000920E-02 0. -1.
       -2   -1    0    0    0  501  0.00000000000E+00  0.00000000000E+00 -0.49385965975E+03  0.49385965976E+03  0.25500000920E-02 0.  1.
    10030    2    1    2    0    0  0.00000000000E+00  0.00000000000E+00  0.36140258934E+03  0.13491219089E+04  0.12998146381E+04 0.  0.
        5    1    3    3  502    0 -0.49475807289E+03  0.20116988672E+03  0.56502091125E+03  0.77751243988E+03  0.46999998093E+01 0. -1.
       -5    1    3    3    0  502  0.49475807289E+03 -0.20116988672E+03 -0.20361832191E+03  0.57160946898E+03  0.46999998093E+01 0.  1.
</event>
<event>
 5   0  0.1002887E-04  0.1300907E+04  0.7818609E-02  0.9028846E-01
       -4   -1    0    0    0  501  0.00000000000E+00  0.00000000000E+00  0.86364946018E+03  0.86365039395E+03  0.12699999809E+01 0.  1.
        4   -1    0    0  501    0  0.00000000000E+00  0.00000000000E+00 -0.48988378643E+03  0.48988543263E+03  0.12699999809E+01 0. -1.
    10030    2    1    2    0    0  0.00000000000E+00  0.00000000000E+00  0.37376567375E+03  0.13535358266E+04  0.13009067818E+04 0.  0.
        1    1    3    3  502    0  0.49844672818E+02 -0.57036173928E+03 -0.13430063316E+03  0.58807624092E+03  0.50400001928E-02 0. -1.
       -1    1    3    3    0  502 -0.49844672818E+02  0.57036173928E+03  0.50806630691E+03  0.76545958567E+03  0.50400001928E-02 0.  1.
</event>
<event>
 5   0  0.2756984E-04  0.1300068E+04  0.7818609E-02  0.9029511E-01
        2   -1    0    0  501    0  0.00000000000E+00  0.00000000000E+00  0.20586549016E+03  0.20586549018E+03  0.25500000920E-02 0. -1.
       -2   -1    0    0    0  501  0.00000000000E+00  0.00000000000E+00 -0.20525267971E+04  0.20525267971E+04  0.25500000920E-02 0.  1.
    10030    2    1    2    0    0  0.00000000000E+00  0.00000000000E+00 -0.18466613070E+04  0.22583922873E+04  0.13000683600E+04 0.  0.
        3    1    3    3  502    0 -0.39883331967E+02  0.50848476705E+03 -0.22329174969E+03  0.55678241188E+03  0.10100000352E+00 0. -1.
       -3    1    3    3    0  502  0.39883331967E+02 -0.50848476705E+03 -0.16233695573E+04  0.17016098754E+04  0.10100000352E+00 0.  1.
</event>
<event>
 5   0  0.1476511E-04  0.1299783E+04  0.7818609E-02  0.9029737E-01
       -1   -1    0    0    0  501  0.00000000000E+00  0.00000000000E+00  0.48672728277E+03  0.48672728280E+03  0.50400001928E-02 0.  1.
        1   -1    0    0  501    0  0.00000000000E+00  0.00000000000E+00 -0.86775293475E+03  0.86775293477E+03  0.50400001928E-02 0. -1.
    10030    2    1    2    0    0  0.00000000000E+00  0.00000000000E+00 -0.38102565198E+03  0.13544802176E+04  0.12997831020E+04 0.  0.
        2    1    3    3  502    0  0.15124724589E+03 -0.12806678079E+03 -0.83549507959E+03  0.85867855322E+03  0.25500000920E-02 0. -1.
       -2    1    3    3    0  502 -0.15124724589E+03  0.12806678079E+03  0.45446942761E+03  0.49580166435E+03  0.25500000920E-02 0.  1.
</event>
<event>
 5   0  0.1408341E-04  0.1298007E+04  0.7818609E-02  0.9031147E-01
       -1   -1    0    0    0  501  0.00000000000E+00  0.00000000000E+00  0.25580262551E+03  0.25580262556E+03  0.50400001928E-02 0. -1.
        1   -1    0    0  501    0  0.00000000000E+00  0.00000000000E+00 -0.16466045322E+04  0.16466045322E+04  0.50400001928E-02 0.  1.
    10030    2    1    2    0    0  0.00000000000E+00  0.00000000000E+00 -0.13908019066E+04  0.19024071577E+04  0.12980073383E+04 0.  0.
        5    1    3    3  502    0 -0.64812717923E+03  0.31453527460E+02 -0.71182051386E+03  0.96320750557E+03  0.46999998093E+01 0.  1.
       -5    1    3    3    0  502  0.64812717923E+03 -0.31453527460E+02 -0.67898139278E+03  0.93919965215E+03  0.46999998093E+01 0. -1.
</event>
<event>
 5   0  0.2723209E-04  0.1301201E+04  0.7818609E-02  0.9028613E-01
       -2   -1    0    0    0  501  0.00000000000E+00  0.00000000000E+00  0.19441313761E+03  0.19441313763E+03  0.25500000920E-02 0.  1.
        2   -1    0    0  501    0  0.00000000000E+00  0.00000000000E+00 -0.21772246175E+04  0.21772246175E+04  0.25500000920E-02 0. -1.
    10030    2    1    2    0    0  0.00000000000E+00  0.00000000000E+00 -0.19828114799E+04  0.23716377551E+04  0.13012010901E+04 0.  0.
        2    1    3    3  502    0 -0.55396318668E+03  0.27336548860E+03 -0.13635000511E+04  0.14969089123E+04  0.25500000920E-02 0. -1.
       -2    1    3    3    0  502  0.55396318668E+03 -0.27336548860E+03 -0.61931142884E+03  0.87472884282E+03  0.25500000920E-02 0.  1.
</event>
<event>
 5   0  0.2794825E-04  0.1298270E+04  0.7818609E-02  0.9030938E-01
       -2   -1    0    0    0  501  0.00000000000E+00  0.00000000000E+00  0.51595068467E+03  0.51595068467E+03  0.25500000920E-02 0.  1.
        2   -1    0    0  501    0  0.00000000000E+00  0.00000000000E+00 -0.81669925999E+03  0.81669925999E+03  0.25500000920E-02 0. -1.
    10030    2    1    2    0    0  0.00000000000E+00  0.00000000000E+00 -0.30074857532E+03  0.13326499447E+04  0.12982704531E+04 0.  0.
        1    1    3    3  502    0 -0.21727994928E+03  0.25529413909E+03  0.42021515899E+03  0.53755600051E+03  0.50400001928E-02 0.  1.
       -1    1    3    3    0  502  0.21727994928E+03 -0.25529413909E+03 -0.72096373431E+03  0.79509394415E+03  0.50400001928E-02 0. -1.
</event>
<event>
 5   0  0.1430636E-04  0.1300058E+04  0.7818609E-02  0.9029519E-01
       -1   -1    0    0    0  501  0.00000000000E+00  0.00000000000E+00  0.37577226669E+03  0.37577226672E+03  0.50400001928E-02 0.  1.
        1   -1    0    0  501    0  0.00000000000E+00  0.00000000000E+00 -0.11244517344E+04  0.11244517344E+04  0.50400001928E-02 0. -1.
    10030    2    1    2    0    0  0.00000000000E+00  0.00000000000E+00 -0.74867946774E+03  0.15002240012E+04  0.13000581173E+04 0.  0.
        4    1    3    3  502    0  0.12718509486E+03 -0.59763172450E+03 -0.11838676570E+03  0.62237992069E+03  0.12699999809E+01 0. -1.
       -4    1    3    3    0  502 -0.12718509486E+03  0.59763172450E+03 -0.63029270204E+03  0.87784408047E+03  0.12699999809E+01 0.  1.
</event>
<event>
 5   0  0.1475396E-04  0.1300299E+04  0.7818609E-02  0.9029328E-01
        1   -1    0    0  501    0  0.00000000000E+00  0.00000000000E+00  0.23192364918E+04  0.23192364918E+04  0.50400001928E-02 0.  1.
       -1   -1    0    0    0  501  0.00000000000E+00  0.00000000000E+00 -0.18225579041E+03  0.18225579048E+03  0.50400001928E-02 0. -1.
    10030    2    1    2    0    0  0.00000000000E+00  0.00000000000E+00  0.21369807014E+04  0.25014922823E+04  0.13002988580E+04 0.  0.
        3    1    3    3  502    0 -0.47877387125E+03 -0.24529854599E+03  0.36611611260E+03  0.65072022757E+03  0.10100000352E+00 0. -1.
       -3    1    3    3    0  502  0.47877387125E+03  0.24529854599E+03  0.17708645888E+04  0.18507720547E+04  0.10100000352E+00 0.  1.
</event>
<event>
 5   0  0.2723209E-04  0.1306580E+04  0.7818609E-02  0.9024363E-01
        2   -1    0    0  501    0  0.00000000000E+00  0.00000000000E+00  0.19026138074E+04  0.19026138074E+04  0.25500000920E-02 0.  1.
       -2   -1    0    0    0  501  0.00000000000E+00  0.00000000000E+00 -0.22431660883E+03  0.22431660884E+03  0.25500000920E-02 0. -1.
    10030    2    1    2    0    0  0.00000000000E+00  0.00000000000E+00  0.16782971986E+04  0.21269304163E+04  0.13065800813E+04 0.  0.
        2    1    3    3  502    0 -0.27469870646E+02  0.62699528300E+03  0.54383564402E+03  0.83044258466E+03  0.25500000920E-02 0. -1.
       -2    1    3    3    0  502  0.27469870646E+02 -0.62699528300E+03  0.11344615546E+04  0.12964878316E+04  0.25500000920E-02 0.  1.
</event>
<event>
 5   0  0.1479690E-04  0.1301096E+04  0.7818609E-02  0.9028697E-01
        1   -1    0    0  501    0  0.00000000000E+00  0.00000000000E+00  0.35330963234E+03  0.35330963237E+03  0.50400001928E-02 0. -1.
       -1   -1    0    0    0  501  0.00000000000E+00  0.00000000000E+00 -0.11978517939E+04  0.11978517939E+04  0.50400001928E-02 0.  1.
    10030    2    1    2    0    0  0.00000000000E+00  0.00000000000E+00 -0.84454216153E+03  0.15511614263E+04  0.13010958103E+04 0.  0.
        1    1    3    3  502    0 -0.36130877776E+03  0.21719684981E+03  0.16843062246E+03  0.45396847805E+03  0.50400001928E-02 0. -1.
       -1    1    3    3    0  502  0.36130877776E+03 -0.21719684981E+03 -0.10129727840E+04  0.10971929482E+04  0.50400001928E-02 0.  1.
</event>
<event>
 5   0  0.1479690E-04  0.1301706E+04  0.7818609E-02  0.9028214E-01
        1   -1    0    0  501    0  0.00000000000E+00  0.00000000000E+00  0.22864104669E+04  0.22864104669E+04  0.50400001928E-02 0. -1.
       -1   -1    0    0    0  501  0.00000000000E+00  0.00000000000E+00 -0.18527266848E+03  0.18527266855E+03  0.50400001928E-02 0.  1.
    10030    2    1    2    0    0  0.00000000000E+00  0.00000000000E+00  0.21011377984E+04  0.24716831355E+04  0.13017056019E+04 0.  0.
        1    1    3    3  502    0  0.26230826049E+03  0.25607560359E+03  0.29392048317E+02  0.36775566727E+03  0.50400001928E-02 0.  1.
       -1    1    3    3    0  502 -0.26230826049E+03 -0.25607560359E+03  0.20717457501E+04  0.21039274682E+04  0.50400001928E-02 0. -1.
</event>
<event>
 5   0  0.1476511E-04  0.1299370E+04  0.7818609E-02  0.9030065E-01
       -1   -1    0    0    0  501  0.00000000000E+00  0.00000000000E+00  0.10934999861E+04  0.10934999861E+04  0.50400001928E-02 0. -1.
        1   -1    0    0  501    0  0.00000000000E+00  0.00000000000E+00 -0.38599969141E+03  0.38599969144E+03  0.50400001928E-02 0.  1.
    10030    2    1    2    0    0  0.00000000000E+00  0.00000000000E+00  0.70750029470E+03  0.14794996776E+04  0.12993700893E+04 0.  0.
        2    1    3    3  502    0 -0.21631902193E+03  0.87444645850E+02 -0.33664764848E+03  0.40959995675E+03  0.25500000920E-02 0.  1.
       -2    1    3    3    0  502  0.21631902193E+03 -0.87444645850E+02  0.10441479432E+04  0.10698997208E+04  0.25500000920E-02 0. -1.
</event>
<event>
 5   0  0.2573071E-04  0.1300609E+04  0.7818609E-02  0.9029083E-01
       -2   -1    0    0    0  501  0.00000000000E+00  0.00000000000E+00  0.28292598230E+03  0.28292598231E+03  0.25500000920E-02 0. -1.
        2   -1    0    0  501    0  0.00000000000E+00  0.00000000000E+00 -0.14947218582E+04  0.14947218582E+04  0.25500000920E-02 0.  1.
    10030    2    1    2    0    0  0.00000000000E+00  0.00000000000E+00 -0.12117958759E+04  0.17776478405E+04  0.13006085499E+04 0.  0.
        4    1    3    3  502    0 -0.30010542758E+03  0.64246249631E+02 -0.13895099480E+04  0.14230004767E+04  0.12699999809E+01 0.  1.
       -4    1    3    3    0  502  0.30010542758E+03 -0.64246249631E+02  0.17771407216E+03  0.35464736373E+03  0.12699999809E+01 0. -1.
</event>
<event>
 5   0  0.1002887E-04  0.1299578E+04  0.7818609E-02  0.9029900E-01
        4   -1    0    0  501    0  0.00000000000E+00  0.00000000000E+00  0.37412463487E+03  0.37412679043E+03  0.12699999809E+01 0.  1.
       -4   -1    0    0    0  501  0.00000000000E+00  0.00000000000E+00 -0.11285632989E+04  0.11285640134E+04  0.12699999809E+01 0. -1.
    10030    2    1    2    0    0  0.00000000000E+00  0.00000000000E+00 -0.75443866398E+03  0.15026908039E+04  0.12995776061E+04 0.  0.
        3    1    3    3  502    0  0.34995951798E+03  0.39965016504E+03 -0.80991592335E+03  0.96858439578E+03  0.10100000352E+00 0. -1.
       -3    1    3    3    0  502 -0.34995951798E+03 -0.39965016504E+03  0.55477259375E+02  0.53410640808E+03  0.10100000352E+00 0.  1.
</event>
<event>
 5   0  0.2573071E-04  0.1299958E+04  0.7818609E-02  0.9029598E-01
        2   -1    0    0  501    0  0.00000000000E+00  0.00000000000E+00  0.40928538154E+03  0.40928538155E+03  0.25500000920E-02 0.  1.
       -2   -1    0    0    0  501  0.00000000000E+00  0.00000000000E+00 -0.10322206361E+04  0.10322206361E+04  0.25500000920E-02 0. -1.
    10030    2    1    2    0    0  0.00000000000E+00  0.00000000000E+00 -0.62293525456E+03  0.14415060177E+04  0.12999581792E+04 0.  0.
        4    1    3    3  502    0  0.30623893434E+03  0.56629046471E+03 -0.41067441705E+03  0.76362442670E+03  0.12699999809E+01 0.  1.
       -4    1    3    3    0  502 -0.30623893434E+03 -0.56629046471E+03 -0.21226083752E+03  0.67788159097E+03  0.12699999809E+01 0. -1.
</event>
<event>
 5   0  0.2794825E-04  0.1299982E+04  0.7818609E-02  0.9029579E-01
       -2   -1    0    0    0  501  0.00000000000E+00  0.00000000000E+00  0.26237079232E+03  0.26237079233E+03  0.25500000920E-02 0. -1.
        2   -1    0    0  501    0  0.00000000000E+00  0.00000000000E+00 -0.16102717993E+04  0.16102717993E+04  0.25500000920E-02 0.  1.
    10030    2    1    2    0    0  0.00000000000E+00  0.00000000000E+00 -0.13479010070E+04  0.18726425916E+04  0.12999819812E+04 0.  0.
        1    1    3    3  502    0 -0.60725458377E+03 -0.40870574231E+02 -0.34527402752E+03  0.69974473021E+03  0.50400001928E-02 0. -1.
       -1    1    3    3    0  502  0.60725458377E+03  0.40870574231E+02 -0.10026269795E+04  0.11728978614E+04  0.50400001928E-02 0.  1.
</event>
<event>
 5   0  0.1002887E-04  0.1298591E+04  0.7818609E-02  0.9030683E-01
       -4   -1    0    0    0  501  0.00000000000E+00  0.00000000000E+00  0.35088729299E+03  0.35088959129E+03  0.12699999809E+01 0. -1.
        4   -1    0    0  501    0  0.00000000000E+00  0.00000000000E+00 -0.12014746965E+04  0.12014753677E+04  0.12699999809E+01 0.  1.
    10030    2    1    2    0    0  0.00000000000E+00  0.00000000000E+00 -0.85058740350E+03  0.15523649590E+04  0.12985907881E+04 0.  0.
        4    1    3    3  502    0  0.24153596072E+03 -0.51589920530E+03 -0.52806256965E+02  0.57208541672E+03  0.12699999809E+01 0. -1.
       -4    1    3    3    0  502 -0.24153596072E+03  0.51589920530E+03 -0.79778114654E+03  0.98027954228E+03  0.12699999809E+01 0.  1.
</event>
<event>
 5   0  0.2756984E-04  0.1300841E+04  0.7818609E-02  0.9028898E-01
        2   -1    0    0  501    0  0.00000000000E+00  0.00000000000E+00  0.16234018223E+04  0.16234018223E+04  0.25500000920E-02 0. -1.
       -2   -1    0    0    0  501  0.00000000000E+00  0.00000000000E+00 -0.26059296054E+03  0.26059296055E+03  0.25500000920E-02 0.  1.
    10030    2    1    2    0    0  0.00000000000E+00  0.00000000000E+00  0.13628088618E+04  0.18839947828E+04  0.13008414001E+04 0.  0.
        3    1    3    3  502    0  0.25463704367E+03 -0.49786847220E+03  0.11624764533E+04  0.12899862613E+04  0.10100000352E+00 0. -1.
       -3    1    3    3    0  502 -0.25463704367E+03  0.49786847220E+03  0.20033240846E+03  0.59400852157E+03  0.10100000352E+00 0.  1.
</event>
<event>
 5   0  0.2573071E-04  0.1298321E+04  0.7818609E-02  0.9030898E-01
        2   -1    0    0  501    0  0.00000000000E+00  0.00000000000E+00  0.15945073763E+04  0.15945073763E+04  0.25500000920E-02 0. -1.
       -2   -1    0    0    0  501  0.00000000000E+00  0.00000000000E+00 -0.26428798933E+03  0.26428798934E+03  0.25500000920E-02 0.  1.
    10030    2    1    2    0    0  0.00000000000E+00  0.00000000000E+00  0.13302193870E+04  0.18587953657E+04  0.12983206822E+04 0.  0.
        4    1    3    3  502    0  0.24617707064E+02 -0.52807837490E+03  0.12573079787E+03  0.54339916081E+03  0.12699999809E+01 0.  1.
       -4    1    3    3    0  502 -0.24617707064E+02  0.52807837490E+03  0.12044885891E+04  0.13153962049E+04  0.12699999809E+01 0. -1.
</event>
<event>
 5   0  0.1475396E-04  0.1300641E+04  0.7818609E-02  0.9029057E-01
        1   -1    0    0  501    0  0.00000000000E+00  0.00000000000E+00  0.64153789226E+03  0.64153789228E+03  0.50400001928E-02 0. -1.
       -1   -1    0    0    0  501  0.00000000000E+00  0.00000000000E+00 -0.65922362376E+03  0.65922362377E+03  0.50400001928E-02 0.  1.
    10030    2    1    2    0    0  0.00000000000E+00  0.00000000000E+00 -0.17685731495E+02  0.13007615161E+04  0.13006412790E+04 0.  0.
        3    1    3    3  502    0 -0.43499569150E+03  0.44457511025E+03  0.18103948982E+03  0.64779903316E+03  0.10100000352E+00 0. -1.
       -3    1    3    3    0  502  0.43499569150E+03 -0.44457511025E+03 -0.19872522131E+03  0.65296248290E+03  0.10100000352E+00 0.  1.
</event>
<event>
 5   0  0.1476511E-04  0.1296874E+04  0.7818609E-02  0.9032048E-01
       -1   -1    0    0    0  501  0.00000000000E+00  0.00000000000E+00  0.16710669851E+04  0.16710669851E+04  0.50400001928E-02 0.  1.
        1   -1    0    0  501    0  0.00000000000E+00  0.00000000000E+00 -0.25161795481E+03  0.25161795486E+03  0.50400001928E-02 0. -1.
    10030    2    1    2    0    0  0.00000000000E+00  0.00000000000E+00  0.14194490303E+04  0.19226849400E+04  0.12968738677E+04 0.  0.
        2    1    3    3  502    0 -0.15816910471E+02 -0.63615999144E+03  0.89442443493E+03  0.10976997673E+04  0.25500000920E-02 0.  1.
       -2    1    3    3    0  502  0.15816910471E+02  0.63615999144E+03  0.52502459536E+03  0.82498517266E+03  0.25500000920E-02 0. -1.
</event>
<event>
 5   0  0.1408341E-04  0.1300371E+04  0.7818609E-02  0.9029271E-01
       -1   -1    0    0    0  501  0.00000000000E+00  0.00000000000E+00  0.36508511354E+03  0.36508511357E+03  0.50400001928E-02 0.  1.
        1   -1    0    0  501    0  0.00000000000E+00  0.00000000000E+00 -0.11579246569E+04  0.11579246569E+04  0.50400001928E-02 0. -1.
    10030    2    1    2    0    0  0.00000000000E+00  0.00000000000E+00 -0.79283954336E+03  0.15230097705E+04  0.13003708008E+04 0.  0.
        5    1    3    3  502    0 -0.63223719679E+03  0.25977111657E+02 -0.22144101973E+03  0.67041546712E+03  0.46999998093E+01 0. -1.
       -5    1    3    3    0  502  0.63223719679E+03 -0.25977111657E+02 -0.57139852362E+03  0.85259430336E+03  0.46999998093E+01 0.  1.
</event>
<event>
 5   0  0.2573071E-04  0.1298467E+04  0.7818609E-02  0.9030782E-01
        2   -1    0    0  501    0  0.00000000000E+00  0.00000000000E+00  0.12582077821E+04  0.12582077821E+04  0.25500000920E-02 0. -1.
       -2   -1    0    0    0  501  0.00000000000E+00  0.00000000000E+00 -0.33500340165E+03  0.33500340166E+03  0.25500000920E-02 0.  1.
    10030    2    1    2    0    0  0.00000000000E+00  0.00000000000E+00  0.92320438042E+03  0.15932111837E+04  0.12984666141E+04 0.  0.
        4    1    3    3  502    0 -0.20281388781E+03 -0.61057861890E+03  0.35489916782E+03  0.73477530930E+03  0.12699999809E+01 0.  1.
       -4    1    3    3    0  502  0.20281388781E+03  0.61057861890E+03  0.56830521260E+03  0.85843587443E+03  0.12699999809E+01 0. -1.
</event>
<event>
 5   0  0.1479690E-04  0.1296123E+04  0.7818609E-02  0.9032645E-01
       -1   -1    0    0    0  501  0.00000000000E+00  0.00000000000E+00  0.14350262223E+04  0.14350262224E+04  0.50400001928E-02 0.  1.
        1   -1    0    0  501    0  0.00000000000E+00  0.00000000000E+00 -0.29266623273E+03  0.29266623278E+03  0.50400001928E-02 0. -1.
    10030    2    1    2    0    0  0.00000000000E+00  0.00000000000E+00  0.11423599896E+04  0.17276924551E+04  0.12961230164E+04 0.  0.
        1    1    3    3  502    0 -0.38432475538E+02  0.48402575361E+03  0.11433108374E+04  0.12421423656E+04  0.50400001928E-02 0.  1.
       -1    1    3    3    0  502  0.38432475538E+02 -0.48402575361E+03 -0.95084782683E+00  0.48555008955E+03  0.50400001928E-02 0. -1.
</event>
<event>
 5   0  0.1408341E-04  0.1301693E+04  0.7818609E-02  0.9028224E-01
        1   -1    0    0  501    0  0.00000000000E+00  0.00000000000E+00  0.73577767760E+03  0.73577767762E+03  0.50400001928E-02 0.  1.
       -1   -1    0    0    0  501  0.00000000000E+00  0.00000000000E+00 -0.57571869918E+03  0.57571869920E+03  0.50400001928E-02 0. -1.
    10030    2    1    2    0    0  0.00000000000E+00  0.00000000000E+00  0.16005897842E+03  0.13114963768E+04  0.13016926941E+04 0.  0.
        5    1    3    3  502    0 -0.58451130523E+03  0.24245721069E+03 -0.73234273689E+02  0.63704341594E+03  0.46999998093E+01 0. -1.
       -5    1    3    3    0  502  0.58451130523E+03 -0.24245721069E+03  0.23329325211E+03  0.67445296087E+03  0.46999998093E+01 0.  1.
</event>
<event>
 5   0  0.1479690E-04  0.1300868E+04  0.7818609E-02  0.9028877E-01
        1   -1    0    0  501    0  0.00000000000E+00  0.00000000000E+00  0.10392628844E+04  0.10392628844E+04  0.50400001928E-02 0. -1.
       -1   -1    0    0    0  501  0.00000000000E+00  0.00000000000E+00 -0.40708104293E+03  0.40708104296E+03  0.50400001928E-02 0.  1.
    10030    2    1    2    0    0  0.00000000000E+00  0.00000000000E+00  0.63218184149E+03  0.14463439274E+04  0.13008677395E+04 0.  0.
        1    1    3    3  502    0  0.41693655211E+03  0.46922759332E+03  0.50560364728E+03  0.80600599935E+03  0.50400001928E-02 0.  1.
       -1    1    3    3    0  502 -0.41693655211E+03 -0.46922759332E+03  0.12657819421E+03  0.64033792805E+03  0.50400001928E-02 0. -1.
</event>
<event>
 5   0  0.1476511E-04  0.1299405E+04  0.7818609E-02  0.9030037E-01
        1   -1    0    0  501    0  0.00000000000E+00  0.00000000000E+00  0.14890593420E+04  0.14890593420E+04  0.50400001928E-02 0.  1.
       -1   -1    0    0    0  501  0.00000000000E+00  0.00000000000E+00 -0.28347653125E+03  0.28347653130E+03  0.50400001928E-02 0. -1.
    10030    2    1    2    0    0  0.00000000000E+00  0.00000000000E+00  0.12055828107E+04  0.17725358733E+04  0.12994050595E+04 0.  0.
        2    1    3    3  502    0  0.58833556600E+02 -0.33503713233E+03 -0.15229448589E+03  0.37269944709E+03  0.25500000920E-02 0. -1.
       -2    1    3    3    0  502 -0.58833556600E+02  0.33503713233E+03  0.13578772966E+04  0.13998364262E+04  0.25500000920E-02 0.  1.
</event>
<event>
 5   0  0.2661377E-04  0.1278203E+04  0.7818609E-02  0.9047032E-01
       -2   -1    0    0    0  501  0.00000000000E+00  0.00000000000E+00  0.48595181243E+03  0.48595181244E+03  0.25500000920E-02 0. -1.
        2   -1    0    0  501    0  0.00000000000E+00  0.00000000000E+00 -0.84051634084E+03  0.84051634085E+03  0.25500000920E-02 0.  1.
    10030    2    1    2    0    0  0.00000000000E+00  0.00000000000E+00 -0.35456452841E+03  0.13264681533E+04  0.12782025492E+04 0.  0.
        5    1    3    3  502    0  0.87504006744E+02 -0.16065408624E+03 -0.81274572165E+03  0.83309326290E+03  0.46999998093E+01 0.  1.
       -5    1    3    3    0  502 -0.87504006744E+02  0.16065408624E+03  0.45818119324E+03  0.49337489039E+03  0.46999998093E+01 0. -1.
</event>
<event>
 5   0  0.2573071E-04  0.1322695E+04  0.7818609E-02  0.9011759E-01
        2   -1    0    0  501    0  0.00000000000E+00  0.00000000000E+00  0.13450632526E+04  0.13450632526E+04  0.25500000920E-02 0. -1.
       -2   -1    0    0    0  501  0.00000000000E+00  0.00000000000E+00 -0.32517472474E+03  0.32517472475E+03  0.25500000920E-02 0.  1.
    10030    2    1    2    0    0  0.00000000000E+00  0.00000000000E+00  0.10198885279E+04  0.16702379774E+04  0.13226950865E+04 0.  0.
        4    1    3    3  502    0  0.21558915163E+03  0.62177968401E+03  0.59265512856E+03  0.88562428380E+03  0.12699999809E+01 0. -1.
       -4    1    3    3    0  502 -0.21558915163E+03 -0.62177968401E+03  0.42723339932E+03  0.78461369357E+03  0.12699999809E+01 0.  1.
</event>
<event>
 5   0  0.1475396E-04  0.1300355E+04  0.7818609E-02  0.9029284E-01
        1   -1    0    0  501    0  0.00000000000E+00  0.00000000000E+00  0.27077422686E+04  0.27077422686E+04  0.50400001928E-02 0.  1.
       -1   -1    0    0    0  501  0.00000000000E+00  0.00000000000E+00 -0.15611925371E+03  0.15611925379E+03  0.50400001928E-02 0. -1.
    10030    2    1    2    0    0  0.00000000000E+00  0.00000000000E+00  0.25516230149E+04  0.28638615224E+04  0.13003548782E+04 0.  0.
        3    1    3    3  502    0 -0.42288214985E+02  0.62311059831E+03  0.16739203136E+04  0.17866349200E+04  0.10100000352E+00 0.  1.
       -3    1    3    3    0  502  0.42288214985E+02 -0.62311059831E+03  0.87770270130E+03  0.10772266024E+04  0.10100000352E+00 0. -1.
</event>
<event>
 5   0  0.1476511E-04  0.1300812E+04  0.7818609E-02  0.9028922E-01
        1   -1    0    0  501    0  0.00000000000E+00  0.00000000000E+00  0.30862361621E+03  0.30862361625E+03  0.50400001928E-02 0. -1.
       -1   -1    0    0    0  501  0.00000000000E+00  0.00000000000E+00 -0.13706914676E+04  0.13706914676E+04  0.50400001928E-02 0.  1.
    10030    2    1    2    0    0  0.00000000000E+00  0.00000000000E+00 -0.10620678514E+04  0.16793150838E+04  0.13008116812E+04 0.  0.
        2    1    3    3  502    0  0.57610512551E+02  0.97881638713E+02 -0.13577901162E+04  0.13625321230E+04  0.25500000920E-02 0.  1.
       -2    1    3    3    0  502 -0.57610512551E+02 -0.97881638713E+02  0.29572226487E+03  0.31678296088E+03  0.25500000920E-02 0. -1.
</event>
<event>
 5   0  0.2573071E-04  0.1312616E+04  0.7818609E-02  0.9019620E-01
       -2   -1    0    0    0  501  0.00000000000E+00  0.00000000000E+00  0.25634611095E+03  0.25634611097E+03  0.25500000920E-02 0.  1.
        2   -1    0    0  501    0  0.00000000000E+00  0.00000000000E+00 -0.16803083454E+04  0.16803083454E+04  0.25500000920E-02 0. -1.
    10030    2    1    2    0    0  0.00000000000E+00  0.00000000000E+00 -0.14239622345E+04  0.19366544564E+04  0.13126164856E+04 0.  0.
        4    1    3    3  502    0 -0.31939557853E+03  0.37605403802E+03 -0.73433505410E+02  0.49882288211E+03  0.12699999809E+01 0.  1.
       -4    1    3    3    0  502  0.31939557853E+03 -0.37605403802E+03 -0.13505287291E+04  0.14378315743E+04  0.12699999809E+01 0. -1.
</event>
<event>
 5   0  0.1479690E-04  0.1308684E+04  0.7818609E-02  0.9022707E-01
        1   -1    0    0  501    0  0.00000000000E+00  0.00000000000E+00  0.14257364614E+04  0.14257364614E+04  0.50400001928E-02 0.  1.
       -1   -1    0    0    0  501  0.00000000000E+00  0.00000000000E+00 -0.30031056230E+03  0.30031056234E+03  0.50400001928E-02 0. -1.
    10030    2    1    2    0    0  0.00000000000E+00  0.00000000000E+00  0.11254258991E+04  0.17260470237E+04  0.13086844057E+04 0.  0.
        1    1    3    3  502    0 -0.45216345671E+03  0.47281043522E+03  0.54591451507E+03  0.85207051177E+03  0.50400001928E-02 0. -1.
       -1    1    3    3    0  502  0.45216345671E+03 -0.47281043522E+03  0.57951138401E+03  0.87397651196E+03  0.50400001928E-02 0.  1.
</event>
<event>
 5   0  0.2794825E-04  0.1300064E+04  0.7818609E-02  0.9029514E-01
       -2   -1    0    0    0  501  0.00000000000E+00  0.00000000000E+00  0.32734385897E+03  0.32734385898E+03  0.25500000920E-02 0.  1.
        2   -1    0    0  501    0  0.00000000000E+00  0.00000000000E+00 -0.12908194704E+04  0.12908194704E+04  0.25500000920E-02 0. -1.
    10030    2    1    2    0    0  0.00000000000E+00  0.00000000000E+00 -0.96347561144E+03  0.16181633294E+04  0.13000643472E+04 0.  0.
        1    1    3    3  502    0  0.22834049588E+03 -0.24540565385E+03  0.21146986393E+03  0.39633675123E+03  0.50400001928E-02 0.  1.
       -1    1    3    3    0  502 -0.22834049588E+03  0.24540565385E+03 -0.11749454754E+04  0.12218265782E+04  0.50400001928E-02 0. -1.
</event>
<event>
 5   0  0.1479690E-04  0.1301062E+04  0.7818609E-02  0.9028723E-01
       -1   -1    0    0    0  501  0.00000000000E+00  0.00000000000E+00  0.23506907728E+03  0.23506907734E+03  0.50400001928E-02 0. -1.
        1   -1    0    0  501    0  0.00000000000E+00  0.00000000000E+00 -0.18002830734E+04  0.18002830734E+04  0.50400001928E-02 0.  1.
    10030    2    1    2    0    0  0.00000000000E+00  0.00000000000E+00 -0.15652139961E+04  0.20353521507E+04  0.13010624596E+04 0.  0.
        1    1    3    3  502    0  0.38349521116E+03  0.42784944327E+03 -0.12598500782E+04  0.13846826144E+04  0.50400001928E-02 0.  1.
       -1    1    3    3    0  502 -0.38349521116E+03 -0.42784944327E+03 -0.30536391787E+03  0.65066953629E+03  0.50400001928E-02 0. -1.
</event>
<event>
 5   0  0.1479690E-04  0.1299847E+04  0.7818609E-02  0.9029687E-01
        1   -1    0    0  501    0  0.00000000000E+00  0.00000000000E+00  0.72285168699E+03  0.72285168701E+03  0.50400001928E-02 0. -1.
       -1   -1    0    0    0  501  0.00000000000E+00  0.00000000000E+00 -0.58435287195E+03  0.58435287197E+03  0.50400001928E-02 0.  1.
    10030    2    1    2    0    0  0.00000000000E+00  0.00000000000E+00  0.13849881505E+03  0.13072045590E+04  0.12998468515E+04 0.  0.
        1    1    3    3  502    0 -0.64177489934E+03 -0.92135054809E+02  0.23865593631E+02  0.64879384733E+03  0.50400001928E-02 0. -1.
       -1    1    3    3    0  502  0.64177489934E+03  0.92135054809E+02  0.11463322142E+03  0.65841071165E+03  0.50400001928E-02 0.  1.
</event>
<event>
 5   0  0.2661377E-04  0.1297756E+04  0.7818609E-02  0.9031346E-01
       -2   -1    0    0    0  501  0.00000000000E+00  0.00000000000E+00  0.51011891630E+03  0.51011891631E+03  0.25500000920E-02 0. -1.
        2   -1    0    0  501    0  0.00000000000E+00  0.00000000000E+00 -0.82538151114E+03  0.82538151114E+03  0.25500000920E-02 0.  1.
    10030    2    1    2    0    0  0.00000000000E+00  0.00000000000E+00 -0.31526259484E+03  0.13355004274E+04  0.12977560973E+04 0.  0.
        5    1    3    3  502    0  0.70558870948E+02 -0.61118642743E+03 -0.36976555991E+03  0.71782732091E+03  0.46999998093E+01 0.  1.
       -5    1    3    3    0  502 -0.70558870948E+02  0.61118642743E+03  0.54502965075E+02  0.61767310654E+03  0.46999998093E+01 0. -1.
</event>
<event>
 5   0  0.1408341E-04  0.1296720E+04  0.7818609E-02  0.9032170E-01
        1   -1    0    0  501    0  0.00000000000E+00  0.00000000000E+00  0.28260364326E+03  0.28260364330E+03  0.50400001928E-02 0. -1.
       -1   -1    0    0    0  501  0.00000000000E+00  0.00000000000E+00 -0.14874918073E+04  0.14874918074E+04  0.50400001928E-02 0.  1.
    10030    2    1    2    0    0  0.00000000000E+00  0.00000000000E+00 -0.12048881641E+04  0.17700954507E+04  0.12967198682E+04 0.  0.
        5    1    3    3  502    0  0.21541434276E+01  0.62498935141E+03 -0.36706713276E+03  0.72482873816E+03  0.46999998093E+01 0. -1.
       -5    1    3    3    0  502 -0.21541434276E+01 -0.62498935141E+03 -0.83782103133E+03  0.10452667125E+04  0.46999998093E+01 0.  1.
</event>
<event>
 5   0  0.2756984E-04  0.1299875E+04  0.7818609E-02  0.9029664E-01
       -2   -1    0    0    0  501  0.00000000000E+00  0.00000000000E+00  0.26490974181E+03  0.26490974182E+03  0.25500000920E-02 0.  1.
        2   -1    0    0  501    0  0.00000000000E+00  0.00000000000E+00 -0.15945769707E+04  0.15945769707E+04  0.25500000920E-02 0. -1.
    10030    2    1    2    0    0  0.00000000000E+00  0.00000000000E+00 -0.13296672289E+04  0.18594867125E+04  0.12998753380E+04 0.  0.
        3    1    3    3  502    0  0.35291158695E+03  0.36543604394E+03 -0.12447272116E+04  0.13444091386E+04  0.10100000352E+00 0. -1.
       -3    1    3    3    0  502 -0.35291158695E+03 -0.36543604394E+03 -0.84940017274E+02  0.51507757392E+03  0.10100000352E+00 0.  1.
</event>
<event>
 5   0  0.2573071E-04  0.1300048E+04  0.7818609E-02  0.9029527E-01
       -2   -1    0    0    0  501  0.00000000000E+00  0.00000000000E+00  0.57645687482E+03  0.57645687483E+03  0.25500000920E-02 0. -1.
        2   -1    0    0  501    0  0.00000000000E+00  0.00000000000E+00 -0.73297966053E+03  0.73297966054E+03  0.25500000920E-02 0.  1.
    10030    2    1    2    0    0  0.00000000000E+00  0.00000000000E+00 -0.15652278571E+03  0.13094365354E+04  0.13000479444E+04 0.  0.
        4    1    3    3  502    0 -0.42406488923E+03  0.16971583022E+02 -0.57416901905E+03  0.71399631668E+03  0.12699999809E+01 0.  1.
       -4    1    3    3    0  502  0.42406488923E+03 -0.16971583022E+02  0.41764623333E+03  0.59544021868E+03  0.12699999809E+01 0. -1.
</event>
<event>
 5   0  0.2756984E-04  0.1304680E+04  0.7818609E-02  0.9025862E-01
       -2   -1    0    0    0  501  0.00000000000E+00  0.00000000000E+00  0.55201424366E+03  0.55201424367E+03  0.25500000920E-02 0.  1.
        2   -1    0    0  501    0  0.00000000000E+00  0.00000000000E+00 -0.77089905604E+03  0.77089905605E+03  0.25500000920E-02 0. -1.
    10030    2    1    2    0    0  0.00000000000E+00  0.00000000000E+00 -0.21888481238E+03  0.13229132997E+04  0.13046796685E+04 0.  0.
        3    1    3    3  502    0 -0.27692215476E+03  0.39023837447E+03  0.34012213594E+03  0.58707320350E+03  0.10100000352E+00 0.  1.
       -3    1    3    3    0  502  0.27692215476E+03 -0.39023837447E+03 -0.55900694833E+03  0.73584009621E+03  0.10100000352E+00 0. -1.
</event>
<event>
 5   0  0.2794825E-04  0.1298543E+04  0.7818609E-02  0.9030721E-01
       -2   -1    0    0    0  501  0.00000000000E+00  0.00000000000E+00  0.26766925856E+03  0.26766925857E+03  0.25500000920E-02 0. -1.
        2   -1    0    0  501    0  0.00000000000E+00  0.00000000000E+00 -0.15749051443E+04  0.15749051443E+04  0.25500000920E-02 0.  1.
    10030    2    1    2    0    0  0.00000000000E+00  0.00000000000E+00 -0.13072358858E+04  0.18425744029E+04  0.12985433259E+04 0.  0.
        1    1    3    3  502    0 -0.35080000012E+03  0.49276627640E+03 -0.31880938278E+03  0.68375336622E+03  0.50400001928E-02 0. -1.
       -1    1    3    3    0  502  0.35080000012E+03 -0.49276627640E+03 -0.98842650297E+03  0.11588210367E+04  0.50400001928E-02 0.  1.
</event>
<event>
 5   0  0.1476511E-04  0.1299155E+04  0.7818609E-02  0.9030236E-01
        1   -1    0    0  501    0  0.00000000000E+00  0.00000000000E+00  0.45966550223E+03  0.45966550225E+03  0.50400001928E-02 0.  1.
       -1   -1    0    0    0  501  0.00000000000E+00  0.00000000000E+00 -0.91795208612E+03  0.91795208614E+03  0.50400001928E-02 0. -1.
    10030    2    1    2    0    0  0.00000000000E+00  0.00000000000E+00 -0.45828658390E+03  0.13776175884E+04  0.12991549665E+04 0.  0.
        2    1    3    3  502    0  0.50304625210E+03 -0.41092332248E+03 -0.23562802193E+03  0.69096604362E+03  0.25500000920E-02 0.  1.
       -2    1    3    3    0  502 -0.50304625210E+03  0.41092332248E+03 -0.22265856197E+03  0.68665154477E+03  0.25500000920E-02 0. -1.
</event>
<event>
 5   0  0.1430636E-04  0.1308442E+04  0.7818609E-02  0.9022897E-01
        1   -1    0    0  501    0  0.00000000000E+00  0.00000000000E+00  0.10025846404E+04  0.10025846404E+04  0.50400001928E-02 0. -1.
       -1   -1    0    0    0  501  0.00000000000E+00  0.00000000000E+00 -0.42690172295E+03  0.42690172298E+03  0.50400001928E-02 0.  1.
    10030    2    1    2    0    0  0.00000000000E+00  0.00000000000E+00  0.57568291741E+03  0.14294863634E+04  0.13084419902E+04 0.  0.
        4    1    3    3  502    0  0.34755288323E+03 -0.23904932426E+02 -0.31713610786E+03  0.47110654448E+03  0.12699999809E+01 0.  1.
       -4    1    3    3    0  502 -0.34755288323E+03  0.23904932426E+02  0.89281902528E+03  0.95837981888E+03  0.12699999809E+01 0. -1.
</event>
<event>
 5   0  0.2661377E-04  0.1298172E+04  0.7818609E-02  0.9031016E-01
        2   -1    0    0  501    0  0.00000000000E+00  0.00000000000E+00  0.61191393655E+03  0.61191393655E+03  0.25500000920E-02 0.  1.
       -2   -1    0    0    0  501  0.00000000000E+00  0.00000000000E+00 -0.68851605257E+03  0.68851605258E+03  0.25500000920E-02 0. -1.
    10030    2    1    2    0    0  0.00000000000E+00  0.00000000000E+00 -0.76602116025E+02  0.13004299891E+04  0.12981718963E+04 0.  0.
        5    1    3    3  502    0 -0.17135728546E+03  0.61788041804E+03 -0.13922822226E+03  0.65616013149E+03  0.46999998093E+01 0.  1.
       -5    1    3    3    0  502  0.17135728546E+03 -0.61788041804E+03  0.62626106231E+02  0.64426985764E+03  0.46999998093E+01 0. -1.
</event>
<event>
 5   0  0.1479690E-04  0.1300741E+04  0.7818609E-02  0.9028977E-01
       -1   -1    0    0    0  501  0.00000000000E+00  0.00000000000E+00  0.22185838601E+03  0.22185838606E+03  0.50400001928E-02 0.  1.
        1   -1    0    0  501    0  0.00000000000E+00  0.00000000000E+00 -0.19065407572E+04  0.19065407572E+04  0.50400001928E-02 0. -1.
    10030    2    1    2    0    0  0.00000000000E+00  0.00000000000E+00 -0.16846823712E+04  0.21283991433E+04  0.13007414121E+04 0.  0.
        1    1    3    3  502    0 -0.30056604690E+03 -0.27020641991E+03 -0.16760992441E+04  0.17241404043E+04  0.50400001928E-02 0. -1.
       -1    1    3    3    0  502  0.30056604690E+03  0.27020641991E+03 -0.85831271429E+01  0.40425873894E+03  0.50400001928E-02 0.  1.
</event>
<event>
 5   0  0.1430636E-04  0.1300122E+04  0.7818609E-02  0.9029469E-01
       -1   -1    0    0    0  501  0.00000000000E+00  0.00000000000E+00  0.76274615080E+03  0.76274615082E+03  0.50400001928E-02 0. -1.
        1   -1    0    0  501    0  0.00000000000E+00  0.00000000000E+00 -0.55402321039E+03  0.55402321041E+03  0.50400001928E-02 0.  1.
    10030    2    1    2    0    0  0.00000000000E+00  0.00000000000E+00  0.20872294041E+03  0.13167693612E+04  0.13001216423E+04 0.  0.
        4    1    3    3  502    0  0.38856894272E+03 -0.41657354574E+03  0.42151350164E+03  0.70865688963E+03  0.12699999809E+01 0. -1.
       -4    1    3    3    0  502 -0.38856894272E+03  0.41657354574E+03 -0.21279056123E+03  0.60811247159E+03  0.12699999809E+01 0.  1.
</event>
<event>
 5   0  0.1408341E-04  0.1301124E+04  0.7818609E-02  0.9028674E-01
        1   -1    0    0  501    0  0.00000000000E+00  0.00000000000E+00  0.11113605314E+04  0.11113605314E+04  0.50400001928E-02 0. -1.
       -1   -1    0    0    0  501  0.00000000000E+00  0.00000000000E+00 -0.38082260793E+03  0.38082260796E+03  0.50400001928E-02 0.  1.
    10030    2    1    2    0    0  0.00000000000E+00  0.00000000000E+00  0.73053792349E+03  0.14921831394E+04  0.13011244613E+04 0.  0.
        5    1    3    3  502    0  0.89270881927E+01 -0.33154623246E+03 -0.27655908327E+03  0.43186758815E+03  0.46999998093E+01 0.  1.
       -5    1    3    3    0  502 -0.89270881927E+01  0.33154623246E+03  0.10070970068E+04  0.10603155512E+04  0.46999998093E+01 0. -1.
</event>
<event>
 5   0  0.2573071E-04  0.1305206E+04  0.7818609E-02  0.9025447E-01
        2   -1    0    0  501    0  0.00000000000E+00  0.00000000000E+00  0.99929392382E+03  0.99929392382E+03  0.25500000920E-02 0. -1.
       -2   -1    0    0    0  501  0.00000000000E+00  0.00000000000E+00 -0.42619189770E+03  0.42619189771E+03  0.25500000920E-02 0.  1.
    10030    2    1    2    0    0  0.00000000000E+00  0.00000000000E+00  0.57310202612E+03  0.14254858215E+04  0.13052064569E+04 0.  0.
        4    1    3    3  502    0 -0.15137545868E+03 -0.38429827378E+03  0.83837466091E+03  0.93459797650E+03  0.12699999809E+01 0. -1.
       -4    1    3    3    0  502  0.15137545868E+03  0.38429827378E+03 -0.26527263479E+03  0.49088784503E+03  0.12699999809E+01 0.  1.
</event>
<event>
 5   0  0.1479690E-04  0.1297778E+04  0.7818609E-02  0.9031329E-01
       -1   -1    0    0    0  501  0.00000000000E+00  0.00000000000E+00  0.47175057864E+03  0.47175057866E+03  0.50400001928E-02 0.  1.
        1   -1    0    0  501    0  0.00000000000E+00  0.00000000000E+00 -0.89254099595E+03  0.89254099596E+03  0.50400001928E-02 0. -1.
    10030    2    1    2    0    0  0.00000000000E+00  0.00000000000E+00 -0.42079041731E+03  0.13642915746E+04  0.12977776872E+04 0.  0.
        1    1    3    3  502    0 -0.18822712053E+03 -0.14811497671E+02 -0.86302546098E+03  0.88343747696E+03  0.50400001928E-02 0. -1.
       -1    1    3    3    0  502  0.18822712053E+03  0.14811497671E+02  0.44223504367E+03  0.48085409767E+03  0.50400001928E-02 0.  1.
</event>
<event>
 5   0  0.2723209E-04  0.1299083E+04  0.7818609E-02  0.9030293E-01
       -2   -1    0    0    0  501  0.00000000000E+00  0.00000000000E+00  0.29381907875E+03  0.29381907876E+03  0.25500000920E-02 0. -1.
        2   -1    0    0  501    0  0.00000000000E+00  0.00000000000E+00 -0.14359311301E+04  0.14359311301E+04  0.25500000920E-02 0.  1.
    10030    2    1    2    0    0  0.00000000000E+00  0.00000000000E+00 -0.11421120514E+04  0.17297502089E+04  0.12990826945E+04 0.  0.
        2    1    3    3  502    0  0.31410217637E+03  0.54200858081E+03 -0.79963707426E+03  0.10158016191E+04  0.25500000920E-02 0.  1.
       -2    1    3    3    0  502 -0.31410217637E+03 -0.54200858081E+03 -0.34247497712E+03  0.71394858976E+03  0.25500000920E-02 0. -1.
</event>
<event>
 5   0  0.2661377E-04  0.1300968E+04  0.7818609E-02  0.9028798E-01
       -2   -1    0    0    0  501  0.00000000000E+00  0.00000000000E+00  0.68727041847E+03  0.68727041848E+03  0.25500000920E-02 0.  1.
        2   -1    0    0  501    0  0.00000000000E+00  0.00000000000E+00 -0.61566642107E+03  0.61566642108E+03  0.25500000920E-02 0. -1.
    10030    2    1    2    0    0  0.00000000000E+00  0.00000000000E+00  0.71603997399E+02  0.13029368396E+04  0.13009678226E+04 0.  0.
        5    1    3    3  502    0  0.22890149914E+03 -0.48220431396E+03  0.40810422982E+03  0.67192860417E+03  0.46999998093E+01 0. -1.
       -5    1    3    3    0  502 -0.22890149914E+03  0.48220431396E+03 -0.33650023242E+03  0.63100823538E+03  0.46999998093E+01 0.  1.
</event>
<event>
 5   0  0.1475396E-04  0.1301582E+04  0.7818609E-02  0.9028312E-01
       -1   -1    0    0    0  501  0.00000000000E+00  0.00000000000E+00  0.59945716522E+03  0.59945716524E+03  0.50400001928E-02 0. -1.
        1   -1    0    0  501    0  0.00000000000E+00  0.00000000000E+00 -0.70652061289E+03  0.70652061291E+03  0.50400001928E-02 0.  1.
    10030    2    1    2    0    0  0.00000000000E+00  0.00000000000E+00 -0.10706344767E+03  0.13059777781E+04  0.13015818742E+04 0.  0.
        3    1    3    3  502    0  0.17960107166E+03  0.15263382346E+03 -0.66219005793E+03  0.70288641474E+03  0.10100000352E+00 0.  1.
       -3    1    3    3    0  502 -0.17960107166E+03 -0.15263382346E+03  0.55512661026E+03  0.60309136341E+03  0.10100000352E+00 0. -1.
</event>
<event>
 5   0  0.1002887E-04  0.1308283E+04  0.7818609E-02  0.9023022E-01
       -3   -1    0    0    0  501  0.00000000000E+00  0.00000000000E+00  0.84990703529E+03  0.84990704129E+03  0.10100000352E+00 0. -1.
        3   -1    0    0  501    0  0.00000000000E+00  0.00000000000E+00 -0.50346827678E+03  0.50346828691E+03  0.10100000352E+00 0.  1.
    10030    2    1    2    0    0  0.00000000000E+00  0.00000000000E+00  0.34643875851E+03  0.13533753282E+04  0.13082832131E+04 0.  0.
        5    1    3    3  502    0  0.37120854798E+03 -0.30856585302E+03  0.62987574209E+03  0.79358314764E+03  0.46999998093E+01 0. -1.
       -5    1    3    3    0  502 -0.37120854798E+03  0.30856585302E+03 -0.28343698358E+03  0.55979218055E+03  0.46999998093E+01 0.  1.
</event>
<event>
 5   0  0.1408341E-04  0.1293734E+04  0.7818609E-02  0.9034549E-01
        1   -1    0    0  501    0  0.00000000000E+00  0.00000000000E+00  0.72649444316E+03  0.72649444317E+03  0.50400001928E-02 0. -1.
       -1   -1    0    0    0  501  0.00000000000E+00  0.00000000000E+00 -0.57596724491E+03  0.57596724493E+03  0.50400001928E-02 0.  1.
    10030    2    1    2    0    0  0.00000000000E+00  0.00000000000E+00  0.15052719825E+03  0.13024616881E+04  0.12937341348E+04 0.  0.
        5    1    3    3  502    0  0.59772459528E+03  0.24356486988E+03  0.11817006153E+03  0.65618959995E+03  0.46999998093E+01 0.  1.
       -5    1    3    3    0  502 -0.59772459528E+03 -0.24356486988E+03  0.32357136719E+02  0.64627208816E+03  0.46999998093E+01 0. -1.
</event>
<event>
 5   0  0.2723209E-04  0.1302288E+04  0.7818609E-02  0.9027753E-01
        2   -1    0    0  501    0  0.00000000000E+00  0.00000000000E+00  0.41902743688E+03  0.41902743689E+03  0.25500000920E-02 0. -1.
       -2   -1    0    0    0  501  0.00000000000E+00  0.00000000000E+00 -0.10118387753E+04  0.10118387753E+04  0.25500000920E-02 0.  1.
    10030    2    1    2    0    0  0.00000000000E+00  0.00000000000E+00 -0.59281133839E+03  0.14308662122E+04  0.13022875390E+04 0.  0.
        2    1    3    3  502    0 -0.63458418062E+03  0.13020227744E+03 -0.36877617434E+03  0.74541638170E+03  0.25500000920E-02 0.  1.
       -2    1    3    3    0  502  0.63458418062E+03 -0.13020227744E+03 -0.22403516404E+03  0.68544983046E+03  0.25500000920E-02 0. -1.
</event>
<event>
 5   0  0.1430636E-04  0.1298717E+04  0.7818609E-02  0.9030583E-01
       -1   -1    0    0    0  501  0.00000000000E+00  0.00000000000E+00  0.39164452647E+03  0.39164452650E+03  0.50400001928E-02 0.  1.
        1   -1    0    0  501    0  0.00000000000E+00  0.00000000000E+00 -0.10766558782E+04  0.10766558782E+04  0.50400001928E-02 0. -1.
    10030    2    1    2    0    0  0.00000000000E+00  0.00000000000E+00 -0.68501135170E+03  0.14683004047E+04  0.12987168769E+04 0.  0.
        4    1    3    3  502    0  0.62429106887E+03 -0.17562080072E+03 -0.37970777244E+03  0.75150622730E+03  0.12699999809E+01 0.  1.
       -4    1    3    3    0  502 -0.62429106887E+03  0.17562080072E+03 -0.30530357926E+03  0.71679417738E+03  0.12699999809E+01 0. -1.
</event>
<event>
 5   0  0.2756984E-04  0.1308382E+04  0.7818609E-02  0.9022944E-01
        2   -1    0    0  501    0  0.00000000000E+00  0.00000000000E+00  0.13164225947E+04  0.13164225947E+04  0.25500000920E-02 0. -1.
       -2   -1    0    0    0  501  0.00000000000E+00  0.00000000000E+00 -0.32509770483E+03  0.32509770484E+03  0.25500000920E-02 0.  1.
    10030    2    1    2    0    0  0.00000000000E+00  0.00000000000E+00  0.99132488983E+03  0.16415202995E+04  0.13083821523E+04 0.  0.
        3    1    3    3  502    0  0.58077476505E+03  0.29737176735E+03  0.55499751458E+03  0.85659298802E+03  0.10100000352E+00 0.  1.
       -3    1    3    3    0  502 -0.58077476505E+03 -0.29737176735E+03  0.43632737525E+03  0.78492731149E+03  0.10100000352E+00 0. -1.
</event>
<event>
 5   0  0.2661377E-04  0.1297879E+04  0.7818609E-02  0.9031249E-01
       -2   -1    0    0    0  501  0.00000000000E+00  0.00000000000E+00  0.79432599282E+03  0.79432599282E+03  0.25500000920E-02 0.  1.
        2   -1    0    0  501    0  0.00000000000E+00  0.00000000000E+00 -0.53016319880E+03  0.53016319880E+03  0.25500000920E-02 0. -1.
    10030    2    1    2    0    0  0.00000000000E+00  0.00000000000E+00  0.26416279402E+03  0.13244891916E+04  0.12978788992E+04 0.  0.
        5    1    3    3  502    0 -0.16312422198E+03  0.29468320999E+03 -0.43395525173E+03  0.54935139624E+03  0.46999998093E+01 0. -1.
       -5    1    3    3    0  502  0.16312422198E+03 -0.29468320999E+03  0.69811804575E+03  0.77513779539E+03  0.46999998093E+01 0.  1.
</event>
<event>
 5   0  0.2794825E-04  0.1301450E+04  0.7818609E-02  0.9028416E-01
       -2   -1    0    0    0  501  0.00000000000E+00  0.00000000000E+00  0.23842982912E+03  0.23842982913E+03  0.25500000920E-02 0.  1.
        2   -1    0    0  501    0  0.00000000000E+00  0.00000000000E+00 -0.17759656129E+04  0.17759656129E+04  0.25500000920E-02 0. -1.
    10030    2    1    2    0    0  0.00000000000E+00  0.00000000000E+00 -0.15375357838E+04  0.20143954421E+04  0.13014502336E+04 0.  0.
        1    1    3    3  502    0  0.12579031133E+03 -0.17642475450E+03 -0.17184895811E+04  0.17320956489E+04  0.50400001928E-02 0. -1.
       -1    1    3    3    0  502 -0.12579031133E+03  0.17642475450E+03  0.18095379733E+03  0.28229979316E+03  0.50400001928E-02 0.  1.
</event>
<event>
 5   0  0.1430636E-04  0.1298544E+04  0.7818609E-02  0.9030720E-01
        1   -1    0    0  501    0  0.00000000000E+00  0.00000000000E+00  0.18678736319E+04  0.18678736319E+04  0.50400001928E-02 0. -1.
       -1   -1    0    0    0  501  0.00000000000E+00  0.00000000000E+00 -0.22568678125E+03  0.22568678131E+03  0.50400001928E-02 0.  1.
    10030    2    1    2    0    0  0.00000000000E+00  0.00000000000E+00  0.16421868507E+04  0.20935604133E+04  0.12985443972E+04 0.  0.
        4    1    3    3  502    0  0.39466006674E+03 -0.24261213717E+03  0.15545024603E+04  0.16220655749E+04  0.12699999809E+01 0. -1.
       -4    1    3    3    0  502 -0.39466006674E+03  0.24261213717E+03  0.87684390420E+02  0.47149483837E+03  0.12699999809E+01 0.  1.
</event>
<event>
 5   0  0.2794825E-04  0.1297723E+04  0.7818609E-02  0.9031373E-01
       -2   -1    0    0    0  501  0.00000000000E+00  0.00000000000E+00  0.30124523182E+03  0.30124523183E+03  0.25500000920E-02 0. -1.
        2   -1    0    0  501    0  0.00000000000E+00  0.00000000000E+00 -0.13976022649E+04  0.13976022649E+04  0.25500000920E-02 0.  1.
    10030    2    1    2    0    0  0.00000000000E+00  0.00000000000E+00 -0.10963570330E+04  0.16988474967E+04  0.12977226488E+04 0.  0.
        1    1    3    3  502    0 -0.30051025825E+03  0.56784408324E+03 -0.42914620519E+03  0.77260583977E+03  0.50400001928E-02 0. -1.
       -1    1    3    3    0  502  0.30051025825E+03 -0.56784408324E+03 -0.66721082785E+03  0.92624165692E+03  0.50400001928E-02 0.  1.
</event>
<event>
 5   0  0.1479690E-04  0.1298896E+04  0.7818609E-02  0.9030441E-01
       -1   -1    0    0    0  501  0.00000000000E+00  0.00000000000E+00  0.30138558020E+03  0.30138558024E+03  0.50400001928E-02 0. -1.
        1   -1    0    0  501    0  0.00000000000E+00  0.00000000000E+00 -0.13994787316E+04  0.13994787317E+04  0.50400001928E-02 0.  1.
    10030    2    1    2    0    0  0.00000000000E+00  0.00000000000E+00 -0.10980931515E+04  0.17008643119E+04  0.12988960075E+04 0.  0.
        1    1    3    3  502    0 -0.58022203192E+03  0.28287974738E+03 -0.45549371446E+03  0.79003359533E+03  0.50400001928E-02 0. -1.
       -1    1    3    3    0  502  0.58022203192E+03 -0.28287974738E+03 -0.64259943699E+03  0.91083071657E+03  0.50400001928E-02 0.  1.
</event>
<event>
 5   0  0.2573071E-04  0.1290598E+04  0.7818609E-02  0.9037054E-01
        2   -1    0    0  501    0  0.00000000000E+00  0.00000000000E+00  0.53094843955E+03  0.53094843955E+03  0.25500000920E-02 0.  1.
       -2   -1    0    0    0  501  0.00000000000E+00  0.00000000000E+00 -0.78427718159E+03  0.78427718159E+03  0.25500000920E-02 0. -1.
    10030    2    1    2    0    0  0.00000000000E+00  0.00000000000E+00 -0.25332874204E+03  0.13152256211E+04  0.12905979168E+04 0.  0.
        4    1    3    3  502    0 -0.18088770207E+03 -0.49104823939E+03  0.25811231632E+03  0.58350005562E+03  0.12699999809E+01 0.  1.
       -4    1    3    3    0  502  0.18088770207E+03  0.49104823939E+03 -0.51144105836E+03  0.73172556553E+03  0.12699999809E+01 0. -1.
</event>
<event>
 5   0  0.1479690E-04  0.1299849E+04  0.7818609E-02  0.9029685E-01
        1   -1    0    0  501    0  0.00000000000E+00  0.00000000000E+00  0.64797790396E+03  0.64797790398E+03  0.50400001928E-02 0. -1.
       -1   -1    0    0    0  501  0.00000000000E+00  0.00000000000E+00 -0.65187716997E+03  0.65187716999E+03  0.50400001928E-02 0.  1.
    10030    2    1    2    0    0  0.00000000000E+00  0.00000000000E+00 -0.38992660052E+01  0.12998550740E+04  0.12998492255E+04 0.  0.
        1    1    3    3  502    0  0.35565176526E+03 -0.52424975713E+03 -0.14712609774E+03  0.65036303296E+03  0.50400001928E-02 0.  1.
       -1    1    3    3    0  502 -0.35565176526E+03  0.52424975713E+03  0.14322683173E+03  0.64949204101E+03  0.50400001928E-02 0. -1.
</event>
<event>
 5   0  0.2661377E-04  0.1305923E+04  0.7818609E-02  0.9024882E-01
       -2   -1    0    0    0  501  0.00000000000E+00  0.00000000000E+00  0.71312492658E+03  0.71312492659E+03  0.25500000920E-02 0.  1.
        2   -1    0    0  501    0  0.00000000000E+00  0.00000000000E+00 -0.59787343749E+03  0.59787343749E+03  0.25500000920E-02 0. -1.
    10030    2    1    2    0    0  0.00000000000E+00  0.00000000000E+00  0.11525148910E+03  0.13109983641E+04  0.13059225876E+04 0.  0.
        5    1    3    3  502    0  0.88076615203E+02  0.35219867202E+02 -0.59090251647E+03  0.59848625979E+03  0.46999998093E+01 0. -1.
       -5    1    3    3    0  502 -0.88076615203E+02 -0.35219867202E+02  0.70615400556E+03  0.71251210429E+03  0.46999998093E+01 0.  1.
</event>
<event>
 5   0  0.2661377E-04  0.1298856E+04  0.7818609E-02  0.9030473E-01
        2   -1    0    0  501    0  0.00000000000E+00  0.00000000000E+00  0.45945254054E+03  0.45945254055E+03  0.25500000920E-02 0. -1.
       -2   -1    0    0    0  501  0.00000000000E+00  0.00000000000E+00 -0.91795456767E+03  0.91795456768E+03  0.25500000920E-02 0.  1.
    10030    2    1    2    0    0  0.00000000000E+00  0.00000000000E+00 -0.45850202713E+03  0.13774071082E+04  0.12988557398E+04 0.  0.
        5    1    3    3  502    0 -0.18659855892E+03  0.39751937243E+03  0.27811154106E+03  0.51981611452E+03  0.46999998093E+01 0. -1.
       -5    1    3    3    0  502  0.18659855892E+03 -0.39751937243E+03 -0.73661356819E+03  0.85759099371E+03  0.46999998093E+01 0.  1.
</event>
<event>
 5   0  0.2723209E-04  0.1305693E+04  0.7818609E-02  0.9025063E-01
       -2   -1    0    0    0  501  0.00000000000E+00  0.00000000000E+00  0.63031097816E+03  0.63031097817E+03  0.25500000920E-02 0.  1.
        2   -1    0    0  501    0  0.00000000000E+00  0.00000000000E+00 -0.67618763216E+03  0.67618763217E+03  0.25500000920E-02 0. -1.
    10030    2    1    2    0    0  0.00000000000E+00  0.00000000000E+00 -0.45876654003E+02  0.13064986103E+04  0.13056929009E+04 0.  0.
        2    1    3    3  502    0 -0.37145059553E+03  0.30797638117E+03 -0.46296358667E+03  0.66870044031E+03  0.25500000920E-02 0. -1.
       -2    1    3    3    0  502  0.37145059553E+03 -0.30797638117E+03  0.41708693267E+03  0.63779817003E+03  0.25500000920E-02 0.  1.
</event>
<event>
 5   0  0.2723209E-04  0.1297677E+04  0.7818609E-02  0.9031409E-01
       -2   -1    0    0    0  501  0.00000000000E+00  0.00000000000E+00  0.26479714577E+03  0.26479714578E+03  0.25500000920E-02 0. -1.
        2   -1    0    0  501    0  0.00000000000E+00  0.00000000000E+00 -0.15898646678E+04  0.15898646679E+04  0.25500000920E-02 0.  1.
    10030    2    1    2    0    0  0.00000000000E+00  0.00000000000E+00 -0.13250675221E+04  0.18546618136E+04  0.12976773501E+04 0.  0.
        2    1    3    3  502    0  0.51934514496E+03 -0.32379937398E+03 -0.35458417049E+03  0.70731559304E+03  0.25500000920E-02 0. -1.
       -2    1    3    3    0  502 -0.51934514496E+03  0.32379937398E+03 -0.97048335160E+03  0.11473462206E+04  0.25500000920E-02 0.  1.
</event>
<event>
 5   0  0.2794825E-04  0.1301776E+04  0.7818609E-02  0.9028158E-01
        2   -1    0    0  501    0  0.00000000000E+00  0.00000000000E+00  0.10601527255E+04  0.10601527255E+04  0.25500000920E-02 0. -1.
       -2   -1    0    0    0  501  0.00000000000E+00  0.00000000000E+00 -0.39961706638E+03  0.39961706639E+03  0.25500000920E-02 0.  1.
    10030    2    1    2    0    0  0.00000000000E+00  0.00000000000E+00  0.66053565912E+03  0.14597697919E+04  0.13017758979E+04 0.  0.
        1    1    3    3  502    0  0.31591633777E+03  0.13311064616E+03  0.95071328301E+03  0.10106321404E+04  0.50400001928E-02 0. -1.
       -1    1    3    3    0  502 -0.31591633777E+03 -0.13311064616E+03 -0.29017762389E+03  0.44913765153E+03  0.50400001928E-02 0.  1.
</event>
<event>
 5   0  0.1408341E-04  0.1301421E+04  0.7818609E-02  0.9028439E-01
       -1   -1    0    0    0  501  0.00000000000E+00  0.00000000000E+00  0.26929984989E+03  0.26929984994E+03  0.50400001928E-02 0.  1.
        1   -1    0    0  501    0  0.00000000000E+00  0.00000000000E+00 -0.15723144486E+04  0.15723144486E+04  0.50400001928E-02 0. -1.
    10030    2    1    2    0    0  0.00000000000E+00  0.00000000000E+00 -0.13030145987E+04  0.18416142986E+04  0.13014208313E+04 0.  0.
        5    1    3    3  502    0 -0.47014776555E+02  0.18829397768E+03  0.22736654890E+03  0.29896931081E+03  0.46999998093E+01 0.  1.
       -5    1    3    3    0  502  0.47014776555E+02 -0.18829397768E+03 -0.15303811476E+04  0.15426449878E+04  0.46999998093E+01 0. -1.
</event>
<event>
 5   0  0.1475396E-04  0.1299560E+04  0.7818609E-02  0.9029915E-01
        1   -1    0    0  501    0  0.00000000000E+00  0.00000000000E+00  0.11202468596E+04  0.11202468596E+04  0.50400001928E-02 0. -1.
       -1   -1    0    0    0  501  0.00000000000E+00  0.00000000000E+00 -0.37689350433E+03  0.37689350436E+03  0.50400001928E-02 0.  1.
    10030    2    1    2    0    0  0.00000000000E+00  0.00000000000E+00  0.74335335523E+03  0.14971403639E+04  0.12995595633E+04 0.  0.
        3    1    3    3  502    0 -0.59260439211E+03 -0.11163195151E+03  0.65048883939E+03  0.88700473422E+03  0.10100000352E+00 0. -1.
       -3    1    3    3    0  502  0.59260439211E+03  0.11163195151E+03  0.92864515841E+02  0.61013562972E+03  0.10100000352E+00 0.  1.
</event>
<event>
 5   0  0.1002887E-04  0.1297179E+04  0.7818609E-02  0.9031806E-01
       -3   -1    0    0    0  501  0.00000000000E+00  0.00000000000E+00  0.59492243326E+03  0.59492244183E+03  0.10100000352E+00 0.  1.
        3   -1    0    0  501    0  0.00000000000E+00  0.00000000000E+00 -0.70709730509E+03  0.70709731231E+03  0.10100000352E+00 0. -1.
    10030    2    1    2    0    0  0.00000000000E+00  0.00000000000E+00 -0.11217487184E+03  0.13020197541E+04  0.12971785684E+04 0.  0.
        1    1    3    3  502    0  0.31272481040E+03 -0.43717738405E+03  0.30823715404E+03  0.61962167112E+03  0.50400001928E-02 0.  1.
       -1    1    3    3    0  502 -0.31272481040E+03  0.43717738405E+03 -0.42041202588E+03  0.68239808301E+03  0.50400001928E-02 0. -1.
</event>
<event>
 5   0  0.2756984E-04  0.1299855E+04  0.7818609E-02  0.9029680E-01
       -2   -1    0    0    0  501  0.00000000000E+00  0.00000000000E+00  0.78650476883E+03  0.78650476884E+03  0.25500000920E-02 0.  1.
        2   -1    0    0  501    0  0.00000000000E+00  0.00000000000E+00 -0.53706672863E+03  0.53706672864E+03  0.25500000920E-02 0. -1.
    10030    2    1    2    0    0  0.00000000000E+00  0.00000000000E+00  0.24943804021E+03  0.13235714975E+04  0.12998546738E+04 0.  0.
        3    1    3    3  502    0  0.43672776807E+03 -0.35357769068E+02  0.61350266670E+03  0.75390108601E+03  0.10100000352E+00 0.  1.
       -3    1    3    3    0  502 -0.43672776807E+03  0.35357769068E+02 -0.36406462649E+03  0.56967041147E+03  0.10100000352E+00 0. -1.
</event>
<event>
 5   0  0.1479690E-04  0.1301365E+04  0.7818609E-02  0.9028484E-01
        1   -1    0    0  501    0  0.00000000000E+00  0.00000000000E+00  0.11353347696E+04  0.11353347696E+04  0.50400001928E-02 0. -1.
       -1   -1    0    0    0  501  0.00000000000E+00  0.00000000000E+00 -0.37291867092E+03  0.37291867096E+03  0.50400001928E-02 0.  1.
    10030    2    1    2    0    0  0.00000000000E+00  0.00000000000E+00  0.76241609871E+03  0.15082534406E+04  0.13013647196E+04 0.  0.
        1    1    3    3  502    0 -0.61242929350E+03  0.16194345972E+03  0.20894391182E+03  0.66704788583E+03  0.50400001928E-02 0. -1.
       -1    1    3    3    0  502  0.61242929350E+03 -0.16194345972E+03  0.55347218689E+03  0.84120555477E+03  0.50400001928E-02 0.  1.
</event>
<event>
 5   0  0.2723209E-04  0.1298752E+04  0.7818609E-02  0.9030556E-01
        2   -1    0    0  501    0  0.00000000000E+00  0.00000000000E+00  0.12329466593E+04  0.12329466593E+04  0.25500000920E-02 0. -1.
       -2   -1    0    0    0  501  0.00000000000E+00  0.00000000000E+00 -0.34201719310E+03  0.34201719311E+03  0.25500000920E-02 0.  1.
    10030    2    1    2    0    0  0.00000000000E+00  0.00000000000E+00  0.89092946615E+03  0.15749638524E+04  0.12987516401E+04 0.  0.
        2    1    3    3  502    0 -0.26857107929E+03  0.31499924455E+03  0.10522072196E+04  0.11307055238E+04  0.25500000920E-02 0. -1.
       -2    1    3    3    0  502  0.26857107929E+03 -0.31499924455E+03 -0.16127775344E+03  0.44425832852E+03  0.25500000920E-02 0.  1.
</event>
<event>
 5   0  0.1430636E-04  0.1303351E+04  0.7818609E-02  0.9026912E-01
        1   -1    0    0  501    0  0.00000000000E+00  0.00000000000E+00  0.98817853487E+03  0.98817853489E+03  0.50400001928E-02 0. -1.
       -1   -1    0    0    0  501  0.00000000000E+00  0.00000000000E+00 -0.42976137678E+03  0.42976137681E+03  0.50400001928E-02 0.  1.
    10030    2    1    2    0    0  0.00000000000E+00  0.00000000000E+00  0.55841715810E+03  0.14179399117E+04  0.13033510159E+04 0.  0.
        4    1    3    3  502    0 -0.58404792807E+03 -0.28659771405E+03  0.23808118373E+03  0.69277304720E+03  0.12699999809E+01 0.  1.
       -4    1    3    3    0  502  0.58404792807E+03  0.28659771405E+03  0.32033597437E+03  0.72516686449E+03  0.12699999809E+01 0. -1.
</event>
<event>
 5   0  0.1479690E-04  0.1300295E+04  0.7818609E-02  0.9029331E-01
        1   -1    0    0  501    0  0.00000000000E+00  0.00000000000E+00  0.46292295634E+03  0.46292295636E+03  0.50400001928E-02 0.  1.
       -1   -1    0    0    0  501  0.00000000000E+00  0.00000000000E+00 -0.91309300184E+03  0.91309300185E+03  0.50400001928E-02 0. -1.
    10030    2    1    2    0    0  0.00000000000E+00  0.00000000000E+00 -0.45017004550E+03  0.13760159582E+04  0.13002949079E+04 0.  0.
        1    1    3    3  502    0  0.40168248674E+03 -0.12526683955E+03  0.29940952116E+03  0.51641714014E+03  0.50400001928E-02 0.  1.
       -1    1    3    3    0  502 -0.40168248674E+03  0.12526683955E+03 -0.74957956666E+03  0.85959881807E+03  0.50400001928E-02 0. -1.
</event>
<event>
 5   0  0.1476511E-04  0.1275248E+04  0.7818609E-02  0.9049427E-01
        1   -1    0    0  501    0  0.00000000000E+00  0.00000000000E+00  0.18232112915E+04  0.18232112915E+04  0.50400001928E-02 0. -1.
       -1   -1    0    0    0  501  0.00000000000E+00  0.00000000000E+00 -0.22299366134E+03  0.22299366140E+03  0.50400001928E-02 0.  1.
    10030    2    1    2    0    0  0.00000000000E+00  0.00000000000E+00  0.16002176302E+04  0.20462049529E+04  0.12752483074E+04 0.  0.
        2    1    3    3  502    0 -0.58622486883E+03 -0.20023299681E+03  0.55776423520E+03  0.83357890564E+03  0.25500000920E-02 0. -1.
       -2    1    3    3    0  502  0.58622486883E+03  0.20023299681E+03  0.10424533950E+04  0.12126260473E+04  0.25500000920E-02 0.  1.
</event>
<event>
 5   0  0.1475396E-04  0.1304107E+04  0.7818609E-02  0.9026315E-01
        1   -1    0    0  501    0  0.00000000000E+00  0.00000000000E+00  0.11871074271E+04  0.11871074271E+04  0.50400001928E-02 0.  1.
       -1   -1    0    0    0  501  0.00000000000E+00  0.00000000000E+00 -0.35815946135E+03  0.35815946139E+03  0.50400001928E-02 0. -1.
    10030    2    1    2    0    0  0.00000000000E+00  0.00000000000E+00  0.82894796574E+03  0.15452668885E+04  0.13041069844E+04 0.  0.
        3    1    3    3  502    0  0.17286785333E+03 -0.61777803580E+03  0.27608248600E+03  0.69839426222E+03  0.10100000352E+00 0. -1.
       -3    1    3    3    0  502 -0.17286785333E+03  0.61777803580E+03  0.55286547974E+03  0.84687262627E+03  0.10100000352E+00 0.  1.
</event>
<event>
 5   0  0.2573071E-04  0.1298603E+04  0.7818609E-02  0.9030674E-01
       -2   -1    0    0    0  501  0.00000000000E+00  0.00000000000E+00  0.43986570863E+03  0.43986570864E+03  0.25500000920E-02 0. -1.
        2   -1    0    0  501    0  0.00000000000E+00  0.00000000000E+00 -0.95845735173E+03  0.95845735174E+03  0.25500000920E-02 0.  1.
    10030    2    1    2    0    0  0.00000000000E+00  0.00000000000E+00 -0.51859164310E+03  0.13983230604E+04  0.12986031299E+04 0.  0.
        4    1    3    3  502    0 -0.18928310289E+02  0.56175618367E+03  0.90723290806E+02  0.56935105095E+03  0.12699999809E+01 0. -1.
       -4    1    3    3    0  502  0.18928310289E+02 -0.56175618367E+03 -0.60931493391E+03  0.82897200942E+03  0.12699999809E+01 0.  1.
</event>
<event>
 5   0  0.2573071E-04  0.1300534E+04  0.7818609E-02  0.9029142E-01
       -2   -1    0    0    0  501  0.00000000000E+00  0.00000000000E+00  0.38445203700E+03  0.38445203701E+03  0.25500000920E-02 0.  1.
        2   -1    0    0  501    0  0.00000000000E+00  0.00000000000E+00 -0.10998693306E+04  0.10998693306E+04  0.25500000920E-02 0. -1.
    10030    2    1    2    0    0  0.00000000000E+00  0.00000000000E+00 -0.71541729364E+03  0.14843213677E+04  0.13005337437E+04 0.  0.
        4    1    3    3  502    0 -0.33218657787E+03  0.41113400727E+03 -0.79000468894E+03  0.95051991873E+03  0.12699999809E+01 0.  1.
       -4    1    3    3    0  502  0.33218657787E+03 -0.41113400727E+03  0.74587395298E+02  0.53380144893E+03  0.12699999809E+01 0. -1.
</event>
<event>
 5   0  0.1476511E-04  0.1299346E+04  0.7818609E-02  0.9030084E-01
       -1   -1    0    0    0  501  0.00000000000E+00  0.00000000000E+00  0.76307748788E+03  0.76307748790E+03  0.50400001928E-02 0. -1.
        1   -1    0    0  501    0  0.00000000000E+00  0.00000000000E+00 -0.55312181974E+03  0.55312181976E+03  0.50400001928E-02 0.  1.
    10030    2    1    2    0    0  0.00000000000E+00  0.00000000000E+00  0.20995566814E+03  0.13161993077E+04  0.12993456949E+04 0.  0.
        2    1    3    3  502    0  0.57063167940E+03  0.25069640625E+03 -0.80718281334E+02  0.62847803668E+03  0.25500000920E-02 0.  1.
       -2    1    3    3    0  502 -0.57063167940E+03 -0.25069640625E+03  0.29067394947E+03  0.68772127098E+03  0.25500000920E-02 0. -1.
</event>
<event>
 5   0  0.2573071E-04  0.1297847E+04  0.7818609E-02  0.9031274E-01
        2   -1    0    0  501    0  0.00000000000E+00  0.00000000000E+00  0.12257502935E+04  0.12257502935E+04  0.25500000920E-02 0. -1.
       -2   -1    0    0    0  501  0.00000000000E+00  0.00000000000E+00 -0.34354610671E+03  0.34354610672E+03  0.25500000920E-02 0.  1.
    10030    2    1    2    0    0  0.00000000000E+00  0.00000000000E+00  0.88220418675E+03  0.15692964002E+04  0.12978470497E+04 0.  0.
        4    1    3    3  502    0 -0.34256722511E+03 -0.79890707973E+02 -0.21826399619E+03  0.41397537834E+03  0.12699999809E+01 0.  1.
       -4    1    3    3    0  502  0.34256722511E+03  0.79890707973E+02  0.11004681829E+04  0.11553210218E+04  0.12699999809E+01 0. -1.
</event>
<event>
 5   0  0.2794825E-04  0.1299695E+04  0.7818609E-02  0.9029807E-01
       -2   -1    0    0    0  501  0.00000000000E+00  0.00000000000E+00  0.52453305182E+03  0.52453305183E+03  0.25500000920E-02 0.  1.
        2   -1    0    0  501    0  0.00000000000E+00  0.00000000000E+00 -0.80510062876E+03  0.80510062876E+03  0.25500000920E-02 0. -1.
    10030    2    1    2    0    0  0.00000000000E+00  0.00000000000E+00 -0.28056757693E+03  0.13296336806E+04  0.12996951794E+04 0.  0.
        1    1    3    3  502    0  0.56729071409E+03 -0.24006446222E+03  0.71492341565E+02  0.62012970840E+03  0.50400001928E-02 0.  1.
       -1    1    3    3    0  502 -0.56729071409E+03  0.24006446222E+03 -0.35205991850E+03  0.70950397219E+03  0.50400001928E-02 0. -1.
</event>
<event>
 5   0  0.2573071E-04  0.1302159E+04  0.7818609E-02  0.9027855E-01
       -2   -1    0    0    0  501  0.00000000000E+00  0.00000000000E+00  0.43375988224E+03  0.43375988224E+03  0.25500000920E-02 0.  1.
        2   -1    0    0  501    0  0.00000000000E+00  0.00000000000E+00 -0.97727922550E+03  0.97727922550E+03  0.25500000920E-02 0. -1.
    10030    2    1    2    0    0  0.00000000000E+00  0.00000000000E+00 -0.54351934326E+03  0.14110391077E+04  0.13021590099E+04 0.  0.
        4    1    3    3  502    0 -0.60776670826E+03  0.18153118704E+03 -0.43090345796E+03  0.76682028307E+03  0.12699999809E+01 0. -1.
       -4    1    3    3    0  502  0.60776670826E+03 -0.18153118704E+03 -0.11261588530E+03  0.64421882468E+03  0.12699999809E+01 0.  1.
</event>
<event>
 5   0  0.1408341E-04  0.1301680E+04  0.7818609E-02  0.9028234E-01
       -1   -1    0    0    0  501  0.00000000000E+00  0.00000000000E+00  0.21356326039E+03  0.21356326045E+03  0.50400001928E-02 0.  1.
        1   -1    0    0  501    0  0.00000000000E+00  0.00000000000E+00 -0.19834526364E+04  0.19834526364E+04  0.50400001928E-02 0. -1.
    10030    2    1    2    0    0  0.00000000000E+00  0.00000000000E+00 -0.17698893760E+04  0.21970158968E+04  0.13016798561E+04 0.  0.
        5    1    3    3  502    0 -0.91922428344E+02  0.60224536814E+03 -0.12713854520E+04  0.14098199438E+04  0.46999998093E+01 0. -1.
       -5    1    3    3    0  502  0.91922428344E+02 -0.60224536814E+03 -0.49850392393E+03  0.78719595302E+03  0.46999998093E+01 0.  1.
</event>
<event>
 5   0  0.2661377E-04  0.1295580E+04  0.7818609E-02  0.9033077E-01
       -2   -1    0    0    0  501  0.00000000000E+00  0.00000000000E+00  0.38359620252E+03  0.38359620253E+03  0.25500000920E-02 0.  1.
        2   -1    0    0  501    0  0.00000000000E+00  0.00000000000E+00 -0.10939422224E+04  0.10939422224E+04  0.25500000920E-02 0. -1.
    10030    2    1    2    0    0  0.00000000000E+00  0.00000000000E+00 -0.71034601987E+03  0.14775384249E+04  0.12955803060E+04 0.  0.
        5    1    3    3  502    0 -0.64184047335E+03  0.74220697209E+02 -0.40795588183E+03  0.76414527195E+03  0.46999998093E+01 0. -1.
       -5    1    3    3    0  502  0.64184047335E+03 -0.74220697209E+02 -0.30239013804E+03  0.71339315297E+03  0.46999998093E+01 0.  1.
</event>
<event>
 5   0  0.1408341E-04  0.1296447E+04  0.7818609E-02  0.9032388E-01
       -1   -1    0    0    0  501  0.00000000000E+00  0.00000000000E+00  0.37517534715E+03  0.37517534718E+03  0.50400001928E-02 0. -1.
        1   -1    0    0  501    0  0.00000000000E+00  0.00000000000E+00 -0.11199920937E+04  0.11199920937E+04  0.50400001928E-02 0.  1.
    10030    2    1    2    0    0  0.00000000000E+00  0.00000000000E+00 -0.74481674651E+03  0.14951674409E+04  0.12964465628E+04 0.  0.
        5    1    3    3  502    0  0.29703064881E+03 -0.46068623394E+03  0.26620787178E+02  0.54880758812E+03  0.46999998093E+01 0. -1.
       -5    1    3    3    0  502 -0.29703064881E+03  0.46068623394E+03 -0.77143753369E+03  0.94635985273E+03  0.46999998093E+01 0.  1.
</event>
<event>
 5   0  0.1475396E-04  0.1300239E+04  0.7818609E-02  0.9029376E-01
        1   -1    0    0  501    0  0.00000000000E+00  0.00000000000E+00  0.17681076138E+04  0.17681076138E+04  0.50400001928E-02 0. -1.
       -1   -1    0    0    0  501  0.00000000000E+00  0.00000000000E+00 -0.23904390176E+03  0.23904390182E+03  0.50400001928E-02 0.  1.
    10030    2    1    2    0    0  0.00000000000E+00  0.00000000000E+00  0.15290637121E+04  0.20071515156E+04  0.13002389670E+04 0.  0.
        3    1    3    3  502    0 -0.58672428892E+03  0.14405726327E+03  0.11351995037E+04  0.12859532689E+04  0.10100000352E+00 0. -1.
       -3    1    3    3    0  502  0.58672428892E+03 -0.14405726327E+03  0.39386420832E+03  0.72119824674E+03  0.10100000352E+00 0.  1.
</event>
<event>
 5   0  0.2661377E-04  0.1296044E+04  0.7818609E-02  0.9032708E-01
        2   -1    0    0  501    0  0.00000000000E+00  0.00000000000E+00  0.11073315873E+04  0.11073315873E+04  0.25500000920E-02 0.  1.
       -2   -1    0    0    0  501  0.00000000000E+00  0.00000000000E+00 -0.37922950678E+03  0.37922950679E+03  0.25500000920E-02 0. -1.
    10030    2    1    2    0    0  0.00000000000E+00  0.00000000000E+00  0.72810208055E+03  0.14865610941E+04  0.12960444618E+04 0.  0.
        5    1    3    3  502    0 -0.55569787827E+03 -0.33332497620E+03  0.36147347356E+03  0.74201808183E+03  0.46999998093E+01 0.  1.
       -5    1    3    3    0  502  0.55569787827E+03  0.33332497620E+03  0.36662860699E+03  0.74454301228E+03  0.46999998093E+01 0. -1.
</event>
<event>
 5   0  0.1479690E-04  0.1298753E+04  0.7818609E-02  0.9030555E-01
       -1   -1    0    0    0  501  0.00000000000E+00  0.00000000000E+00  0.13304119417E+04  0.13304119417E+04  0.50400001928E-02 0. -1.
        1   -1    0    0  501    0  0.00000000000E+00  0.00000000000E+00 -0.31696192563E+03  0.31696192567E+03  0.50400001928E-02 0.  1.
    10030    2    1    2    0    0  0.00000000000E+00  0.00000000000E+00  0.10134500160E+04  0.16473738673E+04  0.12987531420E+04 0.  0.
        1    1    3    3  502    0 -0.12066684882E+03  0.12156280917E+03 -0.28779247033E+03  0.33490671982E+03  0.50400001928E-02 0.  1.
       -1    1    3    3    0  502  0.12066684882E+03 -0.12156280917E+03  0.13012424864E+04  0.13124671475E+04  0.50400001928E-02 0. -1.
</event>
<event>
 5   0  0.1430636E-04  0.1298265E+04  0.7818609E-02  0.9030942E-01
        1   -1    0    0  501    0  0.00000000000E+00  0.00000000000E+00  0.12944864816E+04  0.12944864816E+04  0.50400001928E-02 0.  1.
       -1   -1    0    0    0  501  0.00000000000E+00  0.00000000000E+00 -0.32551382912E+03  0.32551382916E+03  0.50400001928E-02 0. -1.
    10030    2    1    2    0    0  0.00000000000E+00  0.00000000000E+00  0.96897265248E+03  0.16200003108E+04  0.12982653834E+04 0.  0.
        4    1    3    3  502    0 -0.48120777047E+03 -0.42720398714E+03  0.59115459486E+03  0.87380176980E+03  0.12699999809E+01 0.  1.
       -4    1    3    3    0  502  0.48120777047E+03  0.42720398714E+03  0.37781805762E+03  0.74619854097E+03  0.12699999809E+01 0. -1.
</event>
<event>
 5   0  0.1408341E-04  0.1300983E+04  0.7818609E-02  0.9028786E-01
       -1   -1    0    0    0  501  0.00000000000E+00  0.00000000000E+00  0.58509267160E+03  0.58509267162E+03  0.50400001928E-02 0.  1.
        1   -1    0    0  501    0  0.00000000000E+00  0.00000000000E+00 -0.72320080911E+03  0.72320080913E+03  0.50400001928E-02 0. -1.
    10030    2    1    2    0    0  0.00000000000E+00  0.00000000000E+00 -0.13810813751E+03  0.13082934807E+04  0.13009834642E+04 0.  0.
        5    1    3    3  502    0 -0.60667732785E+03 -0.17311025263E+03 -0.22835140573E+03  0.67096273682E+03  0.46999998093E+01 0. -1.
       -5    1    3    3    0  502  0.60667732785E+03  0.17311025263E+03  0.90243268224E+02  0.63733074393E+03  0.46999998093E+01 0.  1.
</event>
<event>
 5   0  0.1430636E-04  0.1299644E+04  0.7818609E-02  0.9029848E-01
       -1   -1    0    0    0  501  0.00000000000E+00  0.00000000000E+00  0.40102457876E+03  0.40102457880E+03  0.50400001928E-02 0. -1.
        1   -1    0    0  501    0  0.00000000000E+00  0.00000000000E+00 -0.10529737657E+04  0.10529737657E+04  0.50400001928E-02 0.  1.
    10030    2    1    2    0    0  0.00000000000E+00  0.00000000000E+00 -0.65194918692E+03  0.14539983445E+04  0.12996435832E+04 0.  0.
        4    1    3    3  502    0  0.88149141327E+02 -0.53579660360E+03 -0.72532657993E+03  0.90606210162E+03  0.12699999809E+01 0.  1.
       -4    1    3    3    0  502 -0.88149141327E+02  0.53579660360E+03  0.73377393006E+02  0.54793624287E+03  0.12699999809E+01 0. -1.
</event>
<event>
 5   0  0.1479690E-04  0.1304607E+04  0.7818609E-02  0.9025919E-01
       -1   -1    0    0    0  501  0.00000000000E+00  0.00000000000E+00  0.41543733234E+03  0.41543733237E+03  0.50400001928E-02 0. -1.
        1   -1    0    0  501    0  0.00000000000E+00  0.00000000000E+00 -0.10242222328E+04  0.10242222328E+04  0.50400001928E-02 0.  1.
    10030    2    1    2    0    0  0.00000000000E+00  0.00000000000E+00 -0.60878490049E+03  0.14396595652E+04  0.13046074539E+04 0.  0.
        1    1    3    3  502    0 -0.18113914774E+03  0.11768325813E+03 -0.98360785698E+03  0.10070477429E+04  0.50400001928E-02 0.  1.
       -1    1    3    3    0  502  0.18113914774E+03 -0.11768325813E+03  0.37482295649E+03  0.43261182234E+03  0.50400001928E-02 0. -1.
</event>
<event>
 5   0  0.2573071E-04  0.1299800E+04  0.7818609E-02  0.9029724E-01
        2   -1    0    0  501    0  0.00000000000E+00  0.00000000000E+00  0.15351774197E+04  0.15351774197E+04  0.25500000920E-02 0. -1.
       -2   -1    0    0    0  501  0.00000000000E+00  0.00000000000E+00 -0.27512774702E+03  0.27512774703E+03  0.25500000920E-02 0.  1.
    10030    2    1    2    0    0  0.00000000000E+00  0.00000000000E+00  0.12600496727E+04  0.18103051667E+04  0.12997998381E+04 0.  0.
        4    1    3    3  502    0  0.49103301589E+03 -0.20058737501E+03  0.11530408808E+04  0.12691940763E+04  0.12699999809E+01 0. -1.
       -4    1    3    3    0  502 -0.49103301589E+03  0.20058737501E+03  0.10700879189E+03  0.54111109040E+03  0.12699999809E+01 0.  1.
</event>
<event>
 5   0  0.1430636E-04  0.1300216E+04  0.7818609E-02  0.9029394E-01
        1   -1    0    0  501    0  0.00000000000E+00  0.00000000000E+00  0.71088735040E+03  0.71088735041E+03  0.50400001928E-02 0. -1.
       -1   -1    0    0    0  501  0.00000000000E+00  0.00000000000E+00 -0.59452525600E+03  0.59452525602E+03  0.50400001928E-02 0.  1.
    10030    2    1    2    0    0  0.00000000000E+00  0.00000000000E+00  0.11636209440E+03  0.13054126064E+04  0.13002161113E+04 0.  0.
        4    1    3    3  502    0 -0.29854474184E+03 -0.39877220063E+03  0.47757129480E+03  0.69008998355E+03  0.12699999809E+01 0. -1.
       -4    1    3    3    0  502  0.29854474184E+03  0.39877220063E+03 -0.36120920040E+03  0.61532262288E+03  0.12699999809E+01 0.  1.
</event>
<event>
 5   0  0.1479690E-04  0.1323337E+04  0.7818609E-02  0.9011261E-01
       -1   -1    0    0    0  501  0.00000000000E+00  0.00000000000E+00  0.20532786665E+03  0.20532786671E+03  0.50400001928E-02 0. -1.
        1   -1    0    0  501    0  0.00000000000E+00  0.00000000000E+00 -0.21322258123E+04  0.21322258123E+04  0.50400001928E-02 0.  1.
    10030    2    1    2    0    0  0.00000000000E+00  0.00000000000E+00 -0.19268979456E+04  0.23375536790E+04  0.13233372621E+04 0.  0.
        1    1    3    3  502    0  0.14918873139E+03  0.43042333038E+03 -0.18111111359E+04  0.18675237797E+04  0.50400001928E-02 0.  1.
       -1    1    3    3    0  502 -0.14918873139E+03 -0.43042333038E+03 -0.11578680967E+03  0.47002989929E+03  0.50400001928E-02 0. -1.
</event>
<event>
 5   0  0.1475396E-04  0.1299483E+04  0.7818609E-02  0.9029975E-01
       -1   -1    0    0    0  501  0.00000000000E+00  0.00000000000E+00  0.42904023725E+03  0.42904023728E+03  0.50400001928E-02 0. -1.
        1   -1    0    0  501    0  0.00000000000E+00  0.00000000000E+00 -0.98397362742E+03  0.98397362743E+03  0.50400001928E-02 0.  1.
    10030    2    1    2    0    0  0.00000000000E+00  0.00000000000E+00 -0.55493339017E+03  0.14130138647E+04  0.12994834029E+04 0.  0.
        3    1    3    3  502    0  0.25333483959E+02 -0.31047043182E+03 -0.89748513343E+03  0.95000697333E+03  0.10100000352E+00 0.  1.
       -3    1    3    3    0  502 -0.25333483959E+02  0.31047043182E+03  0.34255174326E+03  0.46300689137E+03  0.10100000352E+00 0. -1.
</event>
<event>
 5   0  0.1475396E-04  0.1298229E+04  0.7818609E-02  0.9030971E-01
       -1   -1    0    0    0  501  0.00000000000E+00  0.00000000000E+00  0.47579877714E+03  0.47579877717E+03  0.50400001928E-02 0. -1.
        1   -1    0    0  501    0  0.00000000000E+00  0.00000000000E+00 -0.88556223964E+03  0.88556223966E+03  0.50400001928E-02 0.  1.
    10030    2    1    2    0    0  0.00000000000E+00  0.00000000000E+00 -0.40976346250E+03  0.13613610168E+04  0.12982286867E+04 0.  0.
        3    1    3    3  502    0  0.78473621010E+02 -0.16481020296E+03 -0.85809372423E+03  0.87729434169E+03  0.10100000352E+00 0.  1.
       -3    1    3    3    0  502 -0.78473621010E+02  0.16481020296E+03  0.44833026173E+03  0.48406667514E+03  0.10100000352E+00 0. -1.
</event>
<event>
 5   0  0.2573071E-04  0.1299659E+04  0.7818609E-02  0.9029835E-01
       -2   -1    0    0    0  501  0.00000000000E+00  0.00000000000E+00  0.30222035040E+03  0.30222035041E+03  0.25500000920E-02 0.  1.
        2   -1    0    0  501    0  0.00000000000E+00  0.00000000000E+00 -0.13972537602E+04  0.13972537602E+04  0.25500000920E-02 0. -1.
    10030    2    1    2    0    0  0.00000000000E+00  0.00000000000E+00 -0.10950334098E+04  0.16994741106E+04  0.12996592184E+04 0.  0.
        4    1    3    3  502    0  0.26893573329E+03  0.41965433051E+03 -0.10927229482E+04  0.12010334051E+04  0.12699999809E+01 0.  1.
       -4    1    3    3    0  502 -0.26893573329E+03 -0.41965433051E+03 -0.23104615692E+01  0.49844070549E+03  0.12699999809E+01 0. -1.
</event>
<event>
 5   0  0.1476511E-04  0.1296487E+04  0.7818609E-02  0.9032356E-01
        1   -1    0    0  501    0  0.00000000000E+00  0.00000000000E+00  0.92376818044E+03  0.92376818045E+03  0.50400001928E-02 0.  1.
       -1   -1    0    0    0  501  0.00000000000E+00  0.00000000000E+00 -0.45489712595E+03  0.45489712598E+03  0.50400001928E-02 0. -1.
    10030    2    1    2    0    0  0.00000000000E+00  0.00000000000E+00  0.46887105449E+03  0.13786653064E+04  0.12964867764E+04 0.  0.
        2    1    3    3  502    0  0.33776773081E+03 -0.46601224929E+03 -0.82740554411E+02  0.58146406236E+03  0.25500000920E-02 0. -1.
       -2    1    3    3    0  502 -0.33776773081E+03  0.46601224929E+03  0.55161160890E+03  0.79720124407E+03  0.25500000920E-02 0.  1.
</event>
<event>
 5   0  0.1430636E-04  0.1298648E+04  0.7818609E-02  0.9030638E-01
        1   -1    0    0  501    0  0.00000000000E+00  0.00000000000E+00  0.87400809614E+03  0.87400809615E+03  0.50400001928E-02 0. -1.
       -1   -1    0    0    0  501  0.00000000000E+00  0.00000000000E+00 -0.48240011338E+03  0.48240011340E+03  0.50400001928E-02 0.  1.
    10030    2    1    2    0    0  0.00000000000E+00  0.00000000000E+00  0.39160798276E+03  0.13564082096E+04  0.12986479195E+04 0.  0.
        4    1    3    3  502    0  0.60945583252E+03  0.10542996713E+03  0.40225173576E+03  0.73780753695E+03  0.12699999809E+01 0. -1.
       -4    1    3    3    0  502 -0.60945583252E+03 -0.10542996713E+03 -0.10643752999E+02  0.61860067260E+03  0.12699999809E+01 0.  1.
</event>
<event>
 5   0  0.2573071E-04  0.1298856E+04  0.7818609E-02  0.9030473E-01
        2   -1    0    0  501    0  0.00000000000E+00  0.00000000000E+00  0.17563994903E+04  0.17563994903E+04  0.25500000920E-02 0. -1.
       -2   -1    0    0    0  501  0.00000000000E+00  0.00000000000E+00 -0.24012584376E+03  0.24012584378E+03  0.25500000920E-02 0.  1.
    10030    2    1    2    0    0  0.00000000000E+00  0.00000000000E+00  0.15162736466E+04  0.19965253341E+04  0.12988562809E+04 0.  0.
        4    1    3    3  502    0  0.11226036340E+03  0.16167544765E+03 -0.19317090867E+03  0.27578606278E+03  0.12699999809E+01 0.  1.
       -4    1    3    3    0  502 -0.11226036340E+03 -0.16167544765E+03  0.17094445552E+04  0.17207392713E+04  0.12699999809E+01 0. -1.
</event>
<event>
 5   0  0.2661377E-04  0.1301140E+04  0.7818609E-02  0.9028662E-01
       -2   -1    0    0    0  501  0.00000000000E+00  0.00000000000E+00  0.42335063092E+03  0.42335063093E+03  0.25500000920E-02 0.  1.
        2   -1    0    0  501    0  0.00000000000E+00  0.00000000000E+00 -0.99974129286E+03  0.99974129286E+03  0.25500000920E-02 0. -1.
    10030    2    1    2    0    0  0.00000000000E+00  0.00000000000E+00 -0.57639066193E+03  0.14230919238E+04  0.13011396652E+04 0.  0.
        5    1    3    3  502    0 -0.39738073169E+03  0.47303266392E+03 -0.51113244482E+03  0.80184151377E+03  0.46999998093E+01 0. -1.
       -5    1    3    3    0  502  0.39738073169E+03 -0.47303266392E+03 -0.65258217115E+02  0.62125041002E+03  0.46999998093E+01 0.  1.
</event>
<event>
 5   0  0.1430636E-04  0.1299552E+04  0.7818609E-02  0.9029920E-01
        1   -1    0    0  501    0  0.00000000000E+00  0.00000000000E+00  0.41517225579E+03  0.41517225582E+03  0.50400001928E-02 0. -1.
       -1   -1    0    0    0  501  0.00000000000E+00  0.00000000000E+00 -0.10169487189E+04  0.10169487189E+04  0.50400001928E-02 0.  1.
    10030    2    1    2    0    0  0.00000000000E+00  0.00000000000E+00 -0.60177646308E+03  0.14321209747E+04  0.12995520669E+04 0.  0.
        4    1    3    3  502    0 -0.18394906791E+03  0.47314030280E+03 -0.74785979644E+03  0.90387769845E+03  0.12699999809E+01 0.  1.
       -4    1    3    3    0  502  0.18394906791E+03 -0.47314030280E+03  0.14608333336E+03  0.52824327625E+03  0.12699999809E+01 0. -1.
</event>
<event>
 5   0  0.2573071E-04  0.1298378E+04  0.7818609E-02  0.9030852E-01
        2   -1    0    0  501    0  0.00000000000E+00  0.00000000000E+00  0.50266354640E+03  0.50266354640E+03  0.25500000920E-02 0. -1.
       -2   -1    0    0    0  501  0.00000000000E+00  0.00000000000E+00 -0.83842665968E+03  0.83842665969E+03  0.25500000920E-02 0.  1.
    10030    2    1    2    0    0  0.00000000000E+00  0.00000000000E+00 -0.33576311329E+03  0.13410902061E+04  0.12983782471E+04 0.  0.
        4    1    3    3  502    0  0.33965736525E+03 -0.49949116052E+03 -0.41358579012E+03  0.73206103837E+03  0.12699999809E+01 0.  1.
       -4    1    3    3    0  502 -0.33965736525E+03  0.49949116052E+03  0.77822676829E+02  0.60902916772E+03  0.12699999809E+01 0. -1.
</event>
<event>
 5   0  0.2756984E-04  0.1287774E+04  0.7818609E-02  0.9039317E-01
       -2   -1    0    0    0  501  0.00000000000E+00  0.00000000000E+00  0.40456600701E+03  0.40456600702E+03  0.25500000920E-02 0. -1.
        2   -1    0    0  501    0  0.00000000000E+00  0.00000000000E+00 -0.10247775448E+04  0.10247775448E+04  0.25500000920E-02 0.  1.
    10030    2    1    2    0    0  0.00000000000E+00  0.00000000000E+00 -0.62021153779E+03  0.14293435518E+04  0.12877735195E+04 0.  0.
        3    1    3    3  502    0  0.43572447544E+02  0.38285557928E+03  0.26246654202E+03  0.46622489063E+03  0.10100000352E+00 0. -1.
       -3    1    3    3    0  502 -0.43572447544E+02 -0.38285557928E+03 -0.88267807980E+03  0.96311866119E+03  0.10100000352E+00 0.  1.
</event>
<event>
 5   0  0.1408341E-04  0.1298319E+04  0.7818609E-02  0.9030900E-01
        1   -1    0    0  501    0  0.00000000000E+00  0.00000000000E+00  0.12066541293E+04  0.12066541293E+04  0.50400001928E-02 0. -1.
       -1   -1    0    0    0  501  0.00000000000E+00  0.00000000000E+00 -0.34923656766E+03  0.34923656769E+03  0.50400001928E-02 0.  1.
    10030    2    1    2    0    0  0.00000000000E+00  0.00000000000E+00  0.85741756161E+03  0.15558906970E+04  0.12983185225E+04 0.  0.
        5    1    3    3  502    0  0.58155635678E+02 -0.63882245966E+03  0.30941371934E+03  0.71220443178E+03  0.46999998093E+01 0.  1.
       -5    1    3    3    0  502 -0.58155635678E+02  0.63882245966E+03  0.54800384227E+03  0.84368626519E+03  0.46999998093E+01 0. -1.
</event>
<event>
 5   0  0.2723209E-04  0.1298661E+04  0.7818609E-02  0.9030628E-01
       -2   -1    0    0    0  501  0.00000000000E+00  0.00000000000E+00  0.37454503723E+03  0.37454503724E+03  0.25500000920E-02 0. -1.
        2   -1    0    0  501    0  0.00000000000E+00  0.00000000000E+00 -0.11257120050E+04  0.11257120050E+04  0.25500000920E-02 0.  1.
    10030    2    1    2    0    0  0.00000000000E+00  0.00000000000E+00 -0.75116696779E+03  0.15002570423E+04  0.12986606098E+04 0.  0.
        2    1    3    3  502    0  0.27491738472E+02 -0.39206277588E+03  0.22152933836E+03  0.45115880095E+03  0.25500000920E-02 0. -1.
       -2    1    3    3    0  502 -0.27491738472E+02  0.39206277588E+03 -0.97269630614E+03  0.10490982413E+04  0.25500000920E-02 0.  1.
</event>
<event>
 5   0  0.1408341E-04  0.1300538E+04  0.7818609E-02  0.9029139E-01
        1   -1    0    0  501    0  0.00000000000E+00  0.00000000000E+00  0.74679676280E+03  0.74679676281E+03  0.50400001928E-02 0. -1.
       -1   -1    0    0    0  501  0.00000000000E+00  0.00000000000E+00 -0.56621766926E+03  0.56621766929E+03  0.50400001928E-02 0.  1.
    10030    2    1    2    0    0  0.00000000000E+00  0.00000000000E+00  0.18057909353E+03  0.13130144321E+04  0.13005376157E+04 0.  0.
        5    1    3    3  502    0  0.17230326468E+03 -0.50928554912E+03 -0.27896127986E+03  0.60572408836E+03  0.46999998093E+01 0.  1.
       -5    1    3    3    0  502 -0.17230326468E+03  0.50928554912E+03  0.45954037340E+03  0.70729034374E+03  0.46999998093E+01 0. -1.
</event>
<event>
 5   0  0.2723209E-04  0.1301488E+04  0.7818609E-02  0.9028386E-01
        2   -1    0    0  501    0  0.00000000000E+00  0.00000000000E+00  0.13083527713E+04  0.13083527713E+04  0.25500000920E-02 0. -1.
       -2   -1    0    0    0  501  0.00000000000E+00  0.00000000000E+00 -0.32366479713E+03  0.32366479714E+03  0.25500000920E-02 0.  1.
    10030    2    1    2    0    0  0.00000000000E+00  0.00000000000E+00  0.98468797412E+03  0.16320175684E+04  0.13014879704E+04 0.  0.
        2    1    3    3  502    0  0.25233710801E+03 -0.55462327474E+02  0.12412838889E+04  0.12678863430E+04  0.25500000920E-02 0. -1.
       -2    1    3    3    0  502 -0.25233710801E+03  0.55462327474E+02 -0.25659591477E+03  0.36413122543E+03  0.25500000920E-02 0.  1.
</event>
<event>
 5   0  0.1475396E-04  0.1303652E+04  0.7818609E-02  0.9026674E-01
       -1   -1    0    0    0  501  0.00000000000E+00  0.00000000000E+00  0.61511028717E+03  0.61511028719E+03  0.50400001928E-02 0. -1.
        1   -1    0    0  501    0  0.00000000000E+00  0.00000000000E+00 -0.69073296629E+03  0.69073296630E+03  0.50400001928E-02 0.  1.
    10030    2    1    2    0    0  0.00000000000E+00  0.00000000000E+00 -0.75622679114E+02  0.13058432535E+04  0.13036517223E+04 0.  0.
        3    1    3    3  502    0 -0.17719939179E+03 -0.45394708939E+03  0.39582443523E+03  0.62780934856E+03  0.10100000352E+00 0. -1.
       -3    1    3    3    0  502  0.17719939179E+03  0.45394708939E+03 -0.47144711434E+03  0.67803390493E+03  0.10100000352E+00 0.  1.
</event>
<event>
 5   0  0.2756984E-04  0.1298634E+04  0.7818609E-02  0.9030649E-01
       -2   -1    0    0    0  501  0.00000000000E+00  0.00000000000E+00  0.38905252102E+03  0.38905252103E+03  0.25500000920E-02 0.  1.
        2   -1    0    0  501    0  0.00000000000E+00  0.00000000000E+00 -0.10836906193E+04  0.10836906194E+04  0.25500000920E-02 0. -1.
    10030    2    1    2    0    0  0.00000000000E+00  0.00000000000E+00 -0.69463809833E+03  0.14727431404E+04  0.12986340015E+04 0.  0.
        3    1    3    3  502    0  0.50537395255E+03 -0.13538282139E+03 -0.78342975395E+03  0.94206875005E+03  0.10100000352E+00 0.  1.
       -3    1    3    3    0  502 -0.50537395255E+03  0.13538282139E+03  0.88791655628E+02  0.53067439033E+03  0.10100000352E+00 0. -1.
</event>
<event>
 5   0  0.1430636E-04  0.1299056E+04  0.7818609E-02  0.9030314E-01
        1   -1    0    0  501    0  0.00000000000E+00  0.00000000000E+00  0.58644020288E+03  0.58644020290E+03  0.50400001928E-02 0.  1.
       -1   -1    0    0    0  501  0.00000000000E+00  0.00000000000E+00 -0.71940214880E+03  0.71940214882E+03  0.50400001928E-02 0. -1.
    10030    2    1    2    0    0  0.00000000000E+00  0.00000000000E+00 -0.13296194592E+03  0.13058423517E+04  0.12990555679E+04 0.  0.
        4    1    3    3  502    0 -0.91046475322E+02 -0.21432272938E+03 -0.67599937854E+03  0.71498284293E+03  0.12699999809E+01 0. -1.
       -4    1    3    3    0  502  0.91046475322E+02  0.21432272938E+03  0.54303743262E+03  0.59085950879E+03  0.12699999809E+01 0.  1.
</event>
<event>
 5   0  0.1479690E-04  0.1300532E+04  0.7818609E-02  0.9029144E-01
        1   -1    0    0  501    0  0.00000000000E+00  0.00000000000E+00  0.60250031475E+03  0.60250031477E+03  0.50400001928E-02 0. -1.
       -1   -1    0    0    0  501  0.00000000000E+00  0.00000000000E+00 -0.70181799630E+03  0.70181799631E+03  0.50400001928E-02 0.  1.
    10030    2    1    2    0    0  0.00000000000E+00  0.00000000000E+00 -0.99317681549E+02  0.13043183111E+04  0.13005315278E+04 0.  0.
        1    1    3    3  502    0  0.46492901107E+03 -0.42339022189E+03  0.11643526531E+03  0.63951187351E+03  0.50400001928E-02 0.  1.
       -1    1    3    3    0  502 -0.46492901107E+03  0.42339022189E+03 -0.21575294686E+03  0.66480643757E+03  0.50400001928E-02 0. -1.
</event>
<event>
 5   0  0.2723209E-04  0.1295043E+04  0.7818609E-02  0.9033505E-01
       -2   -1    0    0    0  501  0.00000000000E+00  0.00000000000E+00  0.98209298018E+03  0.98209298018E+03  0.25500000920E-02 0.  1.
        2   -1    0    0  501    0  0.00000000000E+00  0.00000000000E+00 -0.42692919035E+03  0.42692919035E+03  0.25500000920E-02 0. -1.
    10030    2    1    2    0    0  0.00000000000E+00  0.00000000000E+00  0.55516378983E+03  0.14090221705E+04  0.12950431049E+04 0.  0.
        2    1    3    3  502    0  0.54799184541E+03 -0.34492826573E+03  0.28159277116E+03  0.70609139628E+03  0.25500000920E-02 0. -1.
       -2    1    3    3    0  502 -0.54799184541E+03  0.34492826573E+03  0.27357101868E+03  0.70293077425E+03  0.25500000920E-02 0.  1.
</event>
<event>
 5   0  0.1475396E-04  0.1299548E+04  0.7818609E-02  0.9029923E-01
       -1   -1    0    0    0  501  0.00000000000E+00  0.00000000000E+00  0.32495117526E+03  0.32495117530E+03  0.50400001928E-02 0.  1.
        1   -1    0    0  501    0  0.00000000000E+00  0.00000000000E+00 -0.12992919731E+04  0.12992919731E+04  0.50400001928E-02 0. -1.
    10030    2    1    2    0    0  0.00000000000E+00  0.00000000000E+00 -0.97434079787E+03  0.16242431484E+04  0.12995483119E+04 0.  0.
        3    1    3    3  502    0  0.31346073396E+03  0.27183866481E+02 -0.11977306468E+04  0.12383680014E+04  0.10100000352E+00 0. -1.
       -3    1    3    3    0  502 -0.31346073396E+03 -0.27183866481E+02  0.22338984892E+03  0.38587514708E+03  0.10100000352E+00 0.  1.
</event>
<event>
 5   0  0.2573071E-04  0.1305776E+04  0.7818609E-02  0.9024998E-01
        2   -1    0    0  501    0  0.00000000000E+00  0.00000000000E+00  0.37336139020E+03  0.37336139021E+03  0.25500000920E-02 0.  1.
       -2   -1    0    0    0  501  0.00000000000E+00  0.00000000000E+00 -0.11416886511E+04  0.11416886511E+04  0.25500000920E-02 0. -1.
    10030    2    1    2    0    0  0.00000000000E+00  0.00000000000E+00 -0.76832726088E+03  0.15150500413E+04  0.13057755733E+04 0.  0.
        4    1    3    3  502    0  0.65149988458E+03  0.13928779924E+02 -0.43078763190E+03  0.78116944846E+03  0.12699999809E+01 0. -1.
       -4    1    3    3    0  502 -0.65149988458E+03 -0.13928779924E+02 -0.33753962898E+03  0.73388059284E+03  0.12699999809E+01 0.  1.
</event>
<event>
 5   0  0.2756984E-04  0.1304977E+04  0.7818609E-02  0.9025628E-01
       -2   -1    0    0    0  501  0.00000000000E+00  0.00000000000E+00  0.30174588035E+03  0.30174588036E+03  0.25500000920E-02 0.  1.
        2   -1    0    0  501    0  0.00000000000E+00  0.00000000000E+00 -0.14109265379E+04  0.14109265379E+04  0.25500000920E-02 0. -1.
    10030    2    1    2    0    0  0.00000000000E+00  0.00000000000E+00 -0.11091806575E+04  0.17126724183E+04  0.13049770424E+04 0.  0.
        3    1    3    3  502    0 -0.39717722321E+03  0.18442696823E+03  0.80242148093E+02  0.44519868124E+03  0.10100000352E+00 0.  1.
       -3    1    3    3    0  502  0.39717722321E+03 -0.18442696823E+03 -0.11894228056E+04  0.12674737370E+04  0.10100000352E+00 0. -1.
</event>
<event>
 5   0  0.1002887E-04  0.1298789E+04  0.7818609E-02  0.9030526E-01
       -4   -1    0    0    0  501  0.00000000000E+00  0.00000000000E+00  0.13417917928E+04  0.13417923938E+04  0.12699999809E+01 0. -1.
        4   -1    0    0  501    0  0.00000000000E+00  0.00000000000E+00 -0.31428907754E+03  0.31429164348E+03  0.12699999809E+01 0.  1.
    10030    2    1    2    0    0  0.00000000000E+00  0.00000000000E+00  0.10275027153E+04  0.16560840373E+04  0.12987888623E+04 0.  0.
        4    1    3    3  502    0  0.61253893459E+03 -0.17760007998E+03  0.35776253275E+03  0.73126012987E+03  0.12699999809E+01 0. -1.
       -4    1    3    3    0  502 -0.61253893459E+03  0.17760007998E+03  0.66974018253E+03  0.92482390745E+03  0.12699999809E+01 0.  1.
</event>
<event>
 5   0  0.1430636E-04  0.1297636E+04  0.7818609E-02  0.9031442E-01
       -1   -1    0    0    0  501  0.00000000000E+00  0.00000000000E+00  0.52741790506E+03  0.52741790508E+03  0.50400001928E-02 0. -1.
        1   -1    0    0  501    0  0.00000000000E+00  0.00000000000E+00 -0.79816154164E+03  0.79816154165E+03  0.50400001928E-02 0.  1.
    10030    2    1    2    0    0  0.00000000000E+00  0.00000000000E+00 -0.27074363658E+03  0.13255794467E+04  0.12976358321E+04 0.  0.
        4    1    3    3  502    0  0.24005252185E+03 -0.21440059512E+03 -0.71085950679E+03  0.78033049391E+03  0.12699999809E+01 0.  1.
       -4    1    3    3    0  502 -0.24005252185E+03  0.21440059512E+03  0.44011587021E+03  0.54524895282E+03  0.12699999809E+01 0. -1.
</event>
<event>
 5   0  0.1475396E-04  0.1299619E+04  0.7818609E-02  0.9029867E-01
       -1   -1    0    0    0  501  0.00000000000E+00  0.00000000000E+00  0.12407651954E+04  0.12407651954E+04  0.50400001928E-02 0.  1.
        1   -1    0    0  501    0  0.00000000000E+00  0.00000000000E+00 -0.34031621806E+03  0.34031621809E+03  0.50400001928E-02 0. -1.
    10030    2    1    2    0    0  0.00000000000E+00  0.00000000000E+00  0.90044897735E+03  0.15810814135E+04  0.12996192040E+04 0.  0.
        3    1    3    3  502    0  0.53808328903E+03 -0.36080149076E+03  0.38889706599E+03  0.75561384305E+03  0.10100000352E+00 0. -1.
       -3    1    3    3    0  502 -0.53808328903E+03  0.36080149076E+03  0.51155191136E+03  0.82546757046E+03  0.10100000352E+00 0.  1.
</event>
<event>
 5   0  0.1408341E-04  0.1301299E+04  0.7818609E-02  0.9028535E-01
        1   -1    0    0  501    0  0.00000000000E+00  0.00000000000E+00  0.13460329525E+04  0.13460329525E+04  0.50400001928E-02 0. -1.
       -1   -1    0    0    0  501  0.00000000000E+00  0.00000000000E+00 -0.31451308823E+03  0.31451308827E+03  0.50400001928E-02 0.  1.
    10030    2    1    2    0    0  0.00000000000E+00  0.00000000000E+00  0.10315198643E+04  0.16605460408E+04  0.13012993211E+04 0.  0.
        5    1    3    3  502    0  0.17176587892E+03  0.47164091003E+02  0.13142917842E+04  0.13263155554E+04  0.46999998093E+01 0. -1.
       -5    1    3    3    0  502 -0.17176587892E+03 -0.47164091003E+02 -0.28277191991E+03  0.33423048534E+03  0.46999998093E+01 0.  1.
</event>
<event>
 5   0  0.2573071E-04  0.1303093E+04  0.7818609E-02  0.9027116E-01
       -2   -1    0    0    0  501  0.00000000000E+00  0.00000000000E+00  0.37778614540E+03  0.37778614541E+03  0.25500000920E-02 0.  1.
        2   -1    0    0  501    0  0.00000000000E+00  0.00000000000E+00 -0.11236854462E+04  0.11236854462E+04  0.25500000920E-02 0. -1.
    10030    2    1    2    0    0  0.00000000000E+00  0.00000000000E+00 -0.74589930076E+03  0.15014715916E+04  0.13030929259E+04 0.  0.
        4    1    3    3  502    0  0.50494222669E+03  0.21036018504E+02 -0.84677263344E+03  0.98612102300E+03  0.12699999809E+01 0. -1.
       -4    1    3    3    0  502 -0.50494222669E+03 -0.21036018504E+02  0.10087333268E+03  0.51535056856E+03  0.12699999809E+01 0.  1.
</event>
<event>
 5   0  0.2794825E-04  0.1298132E+04  0.7818609E-02  0.9031048E-01
       -2   -1    0    0    0  501  0.00000000000E+00  0.00000000000E+00  0.55204685422E+03  0.55204685422E+03  0.25500000920E-02 0. -1.
        2   -1    0    0  501    0  0.00000000000E+00  0.00000000000E+00 -0.76313594299E+03  0.76313594300E+03  0.25500000920E-02 0.  1.
    10030    2    1    2    0    0  0.00000000000E+00  0.00000000000E+00 -0.21108908878E+03  0.13151827972E+04  0.12981321915E+04 0.  0.
        1    1    3    3  502    0 -0.21562602593E+03  0.25926401832E+03  0.45633378189E+03  0.56740896606E+03  0.50400001928E-02 0. -1.
       -1    1    3    3    0  502  0.21562602593E+03 -0.25926401832E+03 -0.66742287066E+03  0.74777383116E+03  0.50400001928E-02 0.  1.
</event>
<event>
 5   0  0.2661377E-04  0.1300124E+04  0.7818609E-02  0.9029467E-01
       -2   -1    0    0    0  501  0.00000000000E+00  0.00000000000E+00  0.68136366784E+03  0.68136366785E+03  0.25500000920E-02 0. -1.
        2   -1    0    0  501    0  0.00000000000E+00  0.00000000000E+00 -0.62019867054E+03  0.62019867054E+03  0.25500000920E-02 0.  1.
    10030    2    1    2    0    0  0.00000000000E+00  0.00000000000E+00  0.61164997307E+02  0.13015623384E+04  0.13001243648E+04 0.  0.
        5    1    3    3  502    0 -0.46420241722E+03  0.44728431212E+03  0.11441047480E+03  0.65472054097E+03  0.46999998093E+01 0.  1.
       -5    1    3    3    0  502  0.46420241722E+03 -0.44728431212E+03 -0.53245477494E+02  0.64684179742E+03  0.46999998093E+01 0. -1.
</event>
<event>
 5   0  0.2573071E-04  0.1300025E+04  0.7818609E-02  0.9029546E-01
        2   -1    0    0  501    0  0.00000000000E+00  0.00000000000E+00  0.59415392421E+03  0.59415392421E+03  0.25500000920E-02 0. -1.
       -2   -1    0    0    0  501  0.00000000000E+00  0.00000000000E+00 -0.71112211715E+03  0.71112211716E+03  0.25500000920E-02 0.  1.
    10030    2    1    2    0    0  0.00000000000E+00  0.00000000000E+00 -0.11696819294E+03  0.13052760414E+04  0.13000246098E+04 0.  0.
        4    1    3    3  502    0  0.89473668967E+02  0.20124337858E+03  0.55554983399E+03  0.59761330792E+03  0.12699999809E+01 0. -1.
       -4    1    3    3    0  502 -0.89473668967E+02 -0.20124337858E+03 -0.67251802693E+03  0.70766273345E+03  0.12699999809E+01 0.  1.
</event>
<event>
 5   0  0.2723209E-04  0.1301009E+04  0.7818609E-02  0.9028766E-01
       -2   -1    0    0    0  501  0.00000000000E+00  0.00000000000E+00  0.34407901191E+03  0.34407901192E+03  0.25500000920E-02 0. -1.
        2   -1    0    0  501    0  0.00000000000E+00  0.00000000000E+00 -0.12298216632E+04  0.12298216632E+04  0.25500000920E-02 0.  1.
    10030    2    1    2    0    0  0.00000000000E+00  0.00000000000E+00 -0.88574265126E+03  0.15739006751E+04  0.13010085668E+04 0.  0.
        2    1    3    3  502    0  0.19932991477E+03 -0.24509464237E+03 -0.11307866075E+04  0.11740877950E+04  0.25500000920E-02 0.  1.
       -2    1    3    3    0  502 -0.19932991477E+03  0.24509464237E+03  0.24504395620E+03  0.39981288013E+03  0.25500000920E-02 0. -1.
</event>
<event>
 5   0  0.2661377E-04  0.1294536E+04  0.7818609E-02  0.9033909E-01
        2   -1    0    0  501    0  0.00000000000E+00  0.00000000000E+00  0.64486457357E+03  0.64486457357E+03  0.25500000920E-02 0.  1.
       -2   -1    0    0    0  501  0.00000000000E+00  0.00000000000E+00 -0.64968028525E+03  0.64968028525E+03  0.25500000920E-02 0. -1.
    10030    2    1    2    0    0  0.00000000000E+00  0.00000000000E+00 -0.48157116793E+01  0.12945448588E+04  0.12945359016E+04 0.  0.
        5    1    3    3  502    0 -0.44550886071E+03 -0.38620727689E+03 -0.26942937390E+03  0.64826575045E+03  0.46999998093E+01 0.  1.
       -5    1    3    3    0  502  0.44550886071E+03  0.38620727689E+03  0.26461366222E+03  0.64627910838E+03  0.46999998093E+01 0. -1.
</event>
<event>
 5   0  0.2661377E-04  0.1300292E+04  0.7818609E-02  0.9029334E-01
       -2   -1    0    0    0  501  0.00000000000E+00  0.00000000000E+00  0.67581362784E+03  0.67581362784E+03  0.25500000920E-02 0. -1.
        2   -1    0    0  501    0  0.00000000000E+00  0.00000000000E+00 -0.62545290669E+03  0.62545290670E+03  0.25500000920E-02 0.  1.
    10030    2    1    2    0    0  0.00000000000E+00  0.00000000000E+00  0.50360721145E+02  0.13012665345E+04  0.13002916564E+04 0.  0.
        5    1    3    3  502    0 -0.49265433696E+03 -0.40319959962E+03 -0.10678698262E+03  0.64552595805E+03  0.46999998093E+01 0.  1.
       -5    1    3    3    0  502  0.49265433696E+03  0.40319959962E+03  0.15714770376E+03  0.65574057649E+03  0.46999998093E+01 0. -1.
</event>
<event>
 5   0  0.1476511E-04  0.1291082E+04  0.7818609E-02  0.9036667E-01
       -1   -1    0    0    0  501  0.00000000000E+00  0.00000000000E+00  0.49499214460E+03  0.49499214462E+03  0.50400001928E-02 0. -1.
        1   -1    0    0  501    0  0.00000000000E+00  0.00000000000E+00 -0.84187854662E+03  0.84187854663E+03  0.50400001928E-02 0.  1.
    10030    2    1    2    0    0  0.00000000000E+00  0.00000000000E+00 -0.34688640202E+03  0.13368706913E+04  0.12910821311E+04 0.  0.
        2    1    3    3  502    0  0.42942992118E+03 -0.13491629517E+03  0.30568840739E+03  0.54411199796E+03  0.25500000920E-02 0. -1.
       -2    1    3    3    0  502 -0.42942992118E+03  0.13491629517E+03 -0.65257480941E+03  0.79275869329E+03  0.25500000920E-02 0.  1.
</event>
<event>
 5   0  0.1476511E-04  0.1300584E+04  0.7818609E-02  0.9029103E-01
       -1   -1    0    0    0  501  0.00000000000E+00  0.00000000000E+00  0.38530186218E+03  0.38530186222E+03  0.50400001928E-02 0.  1.
        1   -1    0    0  501    0  0.00000000000E+00  0.00000000000E+00 -0.10975275631E+04  0.10975275631E+04  0.50400001928E-02 0. -1.
    10030    2    1    2    0    0  0.00000000000E+00  0.00000000000E+00 -0.71222570092E+03  0.14828294253E+04  0.13005835827E+04 0.  0.
        2    1    3    3  502    0  0.38005718450E+03 -0.15602142178E+02  0.24523485068E+03  0.45257819471E+03  0.25500000920E-02 0.  1.
       -2    1    3    3    0  502 -0.38005718450E+03  0.15602142178E+02 -0.95746055160E+03  0.10302512306E+04  0.25500000920E-02 0. -1.
</event>
<event>
 5   0  0.1476511E-04  0.1316785E+04  0.7818609E-02  0.9016360E-01
       -1   -1    0    0    0  501  0.00000000000E+00  0.00000000000E+00  0.59473728383E+03  0.59473728385E+03  0.50400001928E-02 0.  1.
        1   -1    0    0  501    0  0.00000000000E+00  0.00000000000E+00 -0.72886049545E+03  0.72886049547E+03  0.50400001928E-02 0. -1.
    10030    2    1    2    0    0  0.00000000000E+00  0.00000000000E+00 -0.13412321162E+03  0.13235977793E+04  0.13167847377E+04 0.  0.
        2    1    3    3  502    0  0.56716418178E+02  0.51233081808E+03 -0.47879158973E+03  0.70352043727E+03  0.25500000920E-02 0. -1.
       -2    1    3    3    0  502 -0.56716418178E+02 -0.51233081808E+03  0.34466837811E+03  0.62007734205E+03  0.25500000920E-02 0.  1.
</event>
<event>
 5   0  0.1408341E-04  0.1299328E+04  0.7818609E-02  0.9030098E-01
       -1   -1    0    0    0  501  0.00000000000E+00  0.00000000000E+00  0.12934725214E+03  0.12934725224E+03  0.50400001928E-02 0.  1.
        1   -1    0    0  501    0  0.00000000000E+00  0.00000000000E+00 -0.32630249632E+04  0.32630249632E+04  0.50400001928E-02 0. -1.
    10030    2    1    2    0    0  0.00000000000E+00  0.00000000000E+00 -0.31336777111E+04  0.33923722155E+04  0.12993279999E+04 0.  0.
        5    1    3    3  502    0 -0.12215117543E+03 -0.20770079359E+03  0.83182412663E+01  0.24114686905E+03  0.46999998093E+01 0.  1.
       -5    1    3    3    0  502  0.12215117543E+03  0.20770079359E+03 -0.31419959524E+04  0.31512253464E+04  0.46999998093E+01 0. -1.
</event>
<event>
 5   0  0.2661377E-04  0.1299743E+04  0.7818609E-02  0.9029769E-01
       -2   -1    0    0    0  501  0.00000000000E+00  0.00000000000E+00  0.57824693430E+03  0.57824693431E+03  0.25500000920E-02 0. -1.
        2   -1    0    0  501    0  0.00000000000E+00  0.00000000000E+00 -0.73036767859E+03  0.73036767859E+03  0.25500000920E-02 0.  1.
    10030    2    1    2    0    0  0.00000000000E+00  0.00000000000E+00 -0.15212074429E+03  0.13086146129E+04  0.12997428531E+04 0.  0.
        5    1    3    3  502    0  0.52960508940E+03 -0.34658072292E+03 -0.22441276982E+03  0.67155262599E+03  0.46999998093E+01 0. -1.
       -5    1    3    3    0  502 -0.52960508940E+03  0.34658072292E+03  0.72292025533E+02  0.63706198691E+03  0.46999998093E+01 0.  1.
</event>
<event>
 5   0  0.1479690E-04  0.1301873E+04  0.7818609E-02  0.9028081E-01
       -1   -1    0    0    0  501  0.00000000000E+00  0.00000000000E+00  0.41567426813E+03  0.41567426816E+03  0.50400001928E-02 0.  1.
        1   -1    0    0  501    0  0.00000000000E+00  0.00000000000E+00 -0.10193517710E+04  0.10193517710E+04  0.50400001928E-02 0. -1.
    10030    2    1    2    0    0  0.00000000000E+00  0.00000000000E+00 -0.60367750288E+03  0.14350260392E+04  0.13018729606E+04 0.  0.
        1    1    3    3  502    0  0.31011755880E+03 -0.17982843213E+03  0.29706164480E+03  0.46557146188E+03  0.50400001928E-02 0.  1.
       -1    1    3    3    0  502 -0.31011755880E+03  0.17982843213E+03 -0.90073914768E+03  0.96945457731E+03  0.50400001928E-02 0. -1.
</event>
<event>
 5   0  0.1476511E-04  0.1303558E+04  0.7818609E-02  0.9026748E-01
        1   -1    0    0  501    0  0.00000000000E+00  0.00000000000E+00  0.95706887312E+03  0.95706887314E+03  0.50400001928E-02 0. -1.
       -1   -1    0    0    0  501  0.00000000000E+00  0.00000000000E+00 -0.44387191954E+03  0.44387191956E+03  0.50400001928E-02 0.  1.
    10030    2    1    2    0    0  0.00000000000E+00  0.00000000000E+00  0.51319695359E+03  0.14009407927E+04  0.13035582041E+04 0.  0.
        2    1    3    3  502    0  0.31405794825E+03 -0.53208510224E+03  0.33564008576E+02  0.61876772181E+03  0.25500000920E-02 0.  1.
       -2    1    3    3    0  502 -0.31405794825E+03  0.53208510224E+03  0.47963294501E+03  0.78217307089E+03  0.25500000920E-02 0. -1.
</event>
<event>
 5   0  0.1408341E-04  0.1303720E+04  0.7818609E-02  0.9026621E-01
       -1   -1    0    0    0  501  0.00000000000E+00  0.00000000000E+00  0.19964136461E+03  0.19964136467E+03  0.50400001928E-02 0.  1.
        1   -1    0    0  501    0  0.00000000000E+00  0.00000000000E+00 -0.21284229819E+04  0.21284229819E+04  0.50400001928E-02 0. -1.
    10030    2    1    2    0    0  0.00000000000E+00  0.00000000000E+00 -0.19287816173E+04  0.23280643466E+04  0.13037197071E+04 0.  0.
        5    1    3    3  502    0  0.86662700401E+02  0.50357971847E+03 -0.16870985220E+04  0.17627894002E+04  0.46999998093E+01 0. -1.
       -5    1    3    3    0  502 -0.86662700401E+02 -0.50357971847E+03 -0.24168309534E+03  0.56527494643E+03  0.46999998093E+01 0.  1.
</event>
<event>
 5   0  0.2723209E-04  0.1300744E+04  0.7818609E-02  0.9028976E-01
        2   -1    0    0  501    0  0.00000000000E+00  0.00000000000E+00  0.11169886497E+04  0.11169886497E+04  0.25500000920E-02 0.  1.
       -2   -1    0    0    0  501  0.00000000000E+00  0.00000000000E+00 -0.37868209031E+03  0.37868209031E+03  0.25500000920E-02 0. -1.
    10030    2    1    2    0    0  0.00000000000E+00  0.00000000000E+00  0.73830655942E+03  0.14956707400E+04  0.13007437822E+04 0.  0.
        2    1    3    3  502    0  0.56695851128E+03  0.36691534150E+02  0.51811955319E+01  0.56816816788E+03  0.25500000920E-02 0.  1.
       -2    1    3    3    0  502 -0.56695851128E+03 -0.36691534150E+02  0.73312536389E+03  0.92750257217E+03  0.25500000920E-02 0. -1.
</event>
<event>
 5   0  0.2573071E-04  0.1300720E+04  0.7818609E-02  0.9028995E-01
        2   -1    0    0  501    0  0.00000000000E+00  0.00000000000E+00  0.54248192692E+03  0.54248192693E+03  0.25500000920E-02 0.  1.
       -2   -1    0    0    0  501  0.00000000000E+00  0.00000000000E+00 -0.77969024931E+03  0.77969024932E+03  0.25500000920E-02 0. -1.
    10030    2    1    2    0    0  0.00000000000E+00  0.00000000000E+00 -0.23720832239E+03  0.13221721762E+04  0.13007195991E+04 0.  0.
        4    1    3    3  502    0  0.47533514634E+03 -0.11843333626E+03 -0.55344015235E+03  0.73909916224E+03  0.12699999809E+01 0. -1.
       -4    1    3    3    0  502 -0.47533514634E+03  0.11843333626E+03  0.31623182996E+03  0.58307301401E+03  0.12699999809E+01 0.  1.
</event>
<event>
 5   0  0.1475396E-04  0.1299632E+04  0.7818609E-02  0.9029857E-01
       -1   -1    0    0    0  501  0.00000000000E+00  0.00000000000E+00  0.11960942455E+04  0.11960942455E+04  0.50400001928E-02 0. -1.
        1   -1    0    0  501    0  0.00000000000E+00  0.00000000000E+00 -0.35303283102E+03  0.35303283105E+03  0.50400001928E-02 0.  1.
    10030    2    1    2    0    0  0.00000000000E+00  0.00000000000E+00  0.84306141445E+03  0.15491270765E+04  0.12996315442E+04 0.  0.
        3    1    3    3  502    0  0.54336953181E+03 -0.44480638073E+02  0.51055609066E-01  0.54518711290E+03  0.10100000352E+00 0. -1.
       -3    1    3    3    0  502 -0.54336953181E+03  0.44480638073E+02  0.84301035884E+03  0.10039399636E+04  0.10100000352E+00 0.  1.
</event>
<event>
 5   0  0.2723209E-04  0.1300450E+04  0.7818609E-02  0.9029209E-01
       -2   -1    0    0    0  501  0.00000000000E+00  0.00000000000E+00  0.38245258086E+03  0.38245258087E+03  0.25500000920E-02 0. -1.
        2   -1    0    0  501    0  0.00000000000E+00  0.00000000000E+00 -0.11054767834E+04  0.11054767834E+04  0.25500000920E-02 0.  1.
    10030    2    1    2    0    0  0.00000000000E+00  0.00000000000E+00 -0.72302420250E+03  0.14879293642E+04  0.13004498435E+04 0.  0.
        2    1    3    3  502    0 -0.10502742007E+03  0.61677780010E+03 -0.15893723617E+03  0.64552820133E+03  0.25500000920E-02 0.  1.
       -2    1    3    3    0  502  0.10502742007E+03 -0.61677780010E+03 -0.56408696633E+03  0.84240116290E+03  0.25500000920E-02 0. -1.
</event>
<event>
 5   0  0.1408341E-04  0.1301302E+04  0.7818609E-02  0.9028533E-01
        1   -1    0    0  501    0  0.00000000000E+00  0.00000000000E+00  0.64457036907E+03  0.64457036909E+03  0.50400001928E-02 0. -1.
       -1   -1    0    0    0  501  0.00000000000E+00  0.00000000000E+00 -0.65678948015E+03  0.65678948017E+03  0.50400001928E-02 0.  1.
    10030    2    1    2    0    0  0.00000000000E+00  0.00000000000E+00 -0.12219111082E+02  0.13013598493E+04  0.13013024824E+04 0.  0.
        5    1    3    3  502    0 -0.49191894137E+03 -0.31598297383E+03 -0.29159624263E+03  0.65336050029E+03  0.46999998093E+01 0.  1.
       -5    1    3    3    0  502  0.49191894137E+03  0.31598297383E+03  0.27937713155E+03  0.64799934897E+03  0.46999998093E+01 0. -1.
</event>
<event>
 5   0  0.1002887E-04  0.1319513E+04  0.7818609E-02  0.9014233E-01
       -3   -1    0    0    0  501  0.00000000000E+00  0.00000000000E+00  0.61768820527E+03  0.61768821352E+03  0.10100000352E+00 0.  1.
        3   -1    0    0  501    0  0.00000000000E+00  0.00000000000E+00 -0.70469009560E+03  0.70469010283E+03  0.10100000352E+00 0. -1.
    10030    2    1    2    0    0  0.00000000000E+00  0.00000000000E+00 -0.87001890328E+02  0.13223783164E+04  0.13195131991E+04 0.  0.
        3    1    3    3  502    0  0.26220395734E+03 -0.39478006382E+03 -0.50349273018E+03  0.69145292940E+03  0.10100000352E+00 0. -1.
       -3    1    3    3    0  502 -0.26220395734E+03  0.39478006382E+03  0.41649083985E+03  0.63092538696E+03  0.10100000352E+00 0.  1.
</event>
<event>
 5   0  0.1430636E-04  0.1299286E+04  0.7818609E-02  0.9030132E-01
        1   -1    0    0  501    0  0.00000000000E+00  0.00000000000E+00  0.74857548028E+03  0.74857548030E+03  0.50400001928E-02 0. -1.
       -1   -1    0    0    0  501  0.00000000000E+00  0.00000000000E+00 -0.56378550273E+03  0.56378550275E+03  0.50400001928E-02 0.  1.
    10030    2    1    2    0    0  0.00000000000E+00  0.00000000000E+00  0.18478997755E+03  0.13123609831E+04  0.12992859631E+04 0.  0.
        4    1    3    3  502    0  0.32714625856E+03  0.55003066022E+03  0.20521497802E+03  0.67206636710E+03  0.12699999809E+01 0. -1.
       -4    1    3    3    0  502 -0.32714625856E+03 -0.55003066022E+03 -0.20425000470E+02  0.64029461596E+03  0.12699999809E+01 0.  1.
</event>
<event>
 5   0  0.1476511E-04  0.1297995E+04  0.7818609E-02  0.9031156E-01
        1   -1    0    0  501    0  0.00000000000E+00  0.00000000000E+00  0.43260770430E+03  0.43260770433E+03  0.50400001928E-02 0. -1.
       -1   -1    0    0    0  501  0.00000000000E+00  0.00000000000E+00 -0.97362563650E+03  0.97362563651E+03  0.50400001928E-02 0.  1.
    10030    2    1    2    0    0  0.00000000000E+00  0.00000000000E+00 -0.54101793219E+03  0.14062333408E+04  0.12979953027E+04 0.  0.
        2    1    3    3  502    0  0.23419634137E+03  0.50046238252E+03  0.98300817660E+02  0.56122506482E+03  0.25500000920E-02 0. -1.
       -2    1    3    3    0  502 -0.23419634137E+03 -0.50046238252E+03 -0.63931874985E+03  0.84500827602E+03  0.25500000920E-02 0.  1.
</event>
<event>
 5   0  0.1408341E-04  0.1302483E+04  0.7818609E-02  0.9027598E-01
        1   -1    0    0  501    0  0.00000000000E+00  0.00000000000E+00  0.86171436149E+03  0.86171436151E+03  0.50400001928E-02 0. -1.
       -1   -1    0    0    0  501  0.00000000000E+00  0.00000000000E+00 -0.49217679986E+03  0.49217679989E+03  0.50400001928E-02 0.  1.
    10030    2    1    2    0    0  0.00000000000E+00  0.00000000000E+00  0.36953756163E+03  0.13538911614E+04  0.13024834999E+04 0.  0.
        5    1    3    3  502    0 -0.91397252513E+02 -0.54346029654E+03  0.54543780900E+03  0.77538831896E+03  0.46999998093E+01 0. -1.
       -5    1    3    3    0  502  0.91397252513E+02  0.54346029654E+03 -0.17590024737E+03  0.57850284244E+03  0.46999998093E+01 0.  1.
</event>
<event>
 5   0  0.1479690E-04  0.1301139E+04  0.7818609E-02  0.9028663E-01
        1   -1    0    0  501    0  0.00000000000E+00  0.00000000000E+00  0.19494686429E+04  0.19494686429E+04  0.50400001928E-02 0.  1.
       -1   -1    0    0    0  501  0.00000000000E+00  0.00000000000E+00 -0.21710558866E+03  0.21710558872E+03  0.50400001928E-02 0. -1.
    10030    2    1    2    0    0  0.00000000000E+00  0.00000000000E+00  0.17323630542E+04  0.21665742316E+04  0.13011387895E+04 0.  0.
        1    1    3    3  502    0 -0.52787162348E+03 -0.37974229460E+03  0.89897568509E+03  0.11095088750E+04  0.50400001928E-02 0.  1.
       -1    1    3    3    0  502  0.52787162348E+03  0.37974229460E+03  0.83338736910E+03  0.10570653566E+04  0.50400001928E-02 0. -1.
</event>
<event>
 5   0  0.2756984E-04  0.1264913E+04  0.7818609E-02  0.9057862E-01
        2   -1    0    0  501    0  0.00000000000E+00  0.00000000000E+00  0.71424247018E+03  0.71424247018E+03  0.25500000920E-02 0. -1.
       -2   -1    0    0    0  501  0.00000000000E+00  0.00000000000E+00 -0.56003545351E+03  0.56003545352E+03  0.25500000920E-02 0.  1.
    10030    2    1    2    0    0  0.00000000000E+00  0.00000000000E+00  0.15420701667E+03  0.12742779237E+04  0.12649128123E+04 0.  0.
        3    1    3    3  502    0 -0.10630897211E+03  0.84037196676E+02 -0.54523825364E+03  0.56182613984E+03  0.10100000352E+00 0.  1.
       -3    1    3    3    0  502  0.10630897211E+03 -0.84037196676E+02  0.69944527031E+03  0.71245178386E+03  0.10100000352E+00 0. -1.
</event>
<event>
 5   0  0.2756984E-04  0.1296713E+04  0.7818609E-02  0.9032176E-01
       -2   -1    0    0    0  501  0.00000000000E+00  0.00000000000E+00  0.32328385411E+03  0.32328385412E+03  0.25500000920E-02 0. -1.
        2   -1    0    0  501    0  0.00000000000E+00  0.00000000000E+00 -0.13003006926E+04  0.13003006926E+04  0.25500000920E-02 0.  1.
    10030    2    1    2    0    0  0.00000000000E+00  0.00000000000E+00 -0.97701683846E+03  0.16235845467E+04  0.12967131054E+04 0.  0.
        3    1    3    3  502    0 -0.24880072371E+03 -0.25743949687E+03 -0.11653128197E+04  0.12190696750E+04  0.10100000352E+00 0.  1.
       -3    1    3    3    0  502  0.24880072371E+03  0.25743949687E+03  0.18829598120E+03  0.40451487168E+03  0.10100000352E+00 0. -1.
</event>
<event>
 5   0  0.1408341E-04  0.1314329E+04  0.7818609E-02  0.9018279E-01
        1   -1    0    0  501    0  0.00000000000E+00  0.00000000000E+00  0.25662410038E+04  0.25662410038E+04  0.50400001928E-02 0.  1.
       -1   -1    0    0    0  501  0.00000000000E+00  0.00000000000E+00 -0.16828697803E+03  0.16828697811E+03  0.50400001928E-02 0. -1.
    10030    2    1    2    0    0  0.00000000000E+00  0.00000000000E+00  0.23979540258E+04  0.27345279819E+04  0.13143286401E+04 0.  0.
        5    1    3    3  502    0 -0.30827358888E+03  0.17502228464E+03  0.23502147032E+04  0.23768038722E+04  0.46999998093E+01 0.  1.
       -5    1    3    3    0  502  0.30827358888E+03 -0.17502228464E+03  0.47739322512E+02  0.35772410966E+03  0.46999998093E+01 0. -1.
</event>
<event>
 5   0  0.1475396E-04  0.1299980E+04  0.7818609E-02  0.9029581E-01
        1   -1    0    0  501    0  0.00000000000E+00  0.00000000000E+00  0.30867582922E+03  0.30867582926E+03  0.50400001928E-02 0. -1.
       -1   -1    0    0    0  501  0.00000000000E+00  0.00000000000E+00 -0.13687081262E+04  0.13687081262E+04  0.50400001928E-02 0.  1.
    10030    2    1    2    0    0  0.00000000000E+00  0.00000000000E+00 -0.10600322970E+04  0.16773839555E+04  0.12999801781E+04 0.  0.
        3    1    3    3  502    0 -0.28352040854E+03 -0.33541319897E+03  0.88260575142E+02  0.44796849825E+03  0.10100000352E+00 0. -1.
       -3    1    3    3    0  502  0.28352040854E+03  0.33541319897E+03 -0.11482928722E+04  0.12294154573E+04  0.10100000352E+00 0.  1.
</event>
<event>
 5   0  0.1475396E-04  0.1298640E+04  0.7818609E-02  0.9030644E-01
       -1   -1    0    0    0  501  0.00000000000E+00  0.00000000000E+00  0.72440323609E+03  0.72440323611E+03  0.50400001928E-02 0.  1.
        1   -1    0    0  501    0  0.00000000000E+00  0.00000000000E+00 -0.58201893442E+03  0.58201893444E+03  0.50400001928E-02 0. -1.
    10030    2    1    2    0    0  0.00000000000E+00  0.00000000000E+00  0.14238430167E+03  0.13064221705E+04  0.12986399033E+04 0.  0.
        3    1    3    3  502    0 -0.55308425570E+02 -0.33267457234E+03  0.62939116032E+03  0.71404806274E+03  0.10100000352E+00 0.  1.
       -3    1    3    3    0  502  0.55308425570E+02  0.33267457234E+03 -0.48700685865E+03  0.59237410780E+03  0.10100000352E+00 0. -1.
</event>
<event>
 5   0  0.2723209E-04  0.1295753E+04  0.7818609E-02  0.9032940E-01
        2   -1    0    0  501    0  0.00000000000E+00  0.00000000000E+00  0.13364411738E+04  0.13364411738E+04  0.25500000920E-02 0. -1.
       -2   -1    0    0    0  501  0.00000000000E+00  0.00000000000E+00 -0.31407571289E+03  0.31407571290E+03  0.25500000920E-02 0.  1.
    10030    2    1    2    0    0  0.00000000000E+00  0.00000000000E+00  0.10223654609E+04  0.16505168867E+04  0.12957526221E+04 0.  0.
        2    1    3    3  502    0 -0.63350759469E+02 -0.50375291006E+03  0.10238154473E+04  0.11427941124E+04  0.25500000920E-02 0. -1.
       -2    1    3    3    0  502  0.63350759469E+02  0.50375291006E+03 -0.14499863985E+01  0.50772277434E+03  0.25500000920E-02 0.  1.
</event>
<event>
 5   0  0.2723209E-04  0.1302257E+04  0.7818609E-02  0.9027777E-01
        2   -1    0    0  501    0  0.00000000000E+00  0.00000000000E+00  0.14355556964E+04  0.14355556964E+04  0.25500000920E-02 0.  1.
       -2   -1    0    0    0  501  0.00000000000E+00  0.00000000000E+00 -0.29533400702E+03  0.29533400703E+03  0.25500000920E-02 0. -1.
    10030    2    1    2    0    0  0.00000000000E+00  0.00000000000E+00  0.11402216893E+04  0.17308897034E+04  0.13022571422E+04 0.  0.
        2    1    3    3  502    0  0.48324691128E+02  0.50362745258E+03  0.11148864236E+04  0.12243151655E+04  0.25500000920E-02 0. -1.
       -2    1    3    3    0  502 -0.48324691128E+02 -0.50362745258E+03  0.25335265684E+02  0.50657453791E+03  0.25500000920E-02 0.  1.
</event>
<event>
 5   0  0.1430636E-04  0.1299472E+04  0.7818609E-02  0.9029984E-01
        1   -1    0    0  501    0  0.00000000000E+00  0.00000000000E+00  0.12953011828E+04  0.12953011828E+04  0.50400001928E-02 0.  1.
       -1   -1    0    0    0  501  0.00000000000E+00  0.00000000000E+00 -0.32591392343E+03  0.32591392347E+03  0.50400001928E-02 0. -1.
    10030    2    1    2    0    0  0.00000000000E+00  0.00000000000E+00  0.96938725937E+03  0.16212151063E+04  0.12994717243E+04 0.  0.
        4    1    3    3  502    0  0.40385831564E+03 -0.50301873506E+03  0.38784862460E+03  0.75270017632E+03  0.12699999809E+01 0.  1.
       -4    1    3    3    0  502 -0.40385831564E+03  0.50301873506E+03  0.58153863477E+03  0.86851492996E+03  0.12699999809E+01 0. -1.
</event>
<event>
 5   0  0.2794825E-04  0.1305111E+04  0.7818609E-02  0.9025522E-01
        2   -1    0    0  501    0  0.00000000000E+00  0.00000000000E+00  0.55247610545E+03  0.55247610545E+03  0.25500000920E-02 0. -1.
       -2   -1    0    0    0  501  0.00000000000E+00  0.00000000000E+00 -0.77076344162E+03  0.77076344162E+03  0.25500000920E-02 0.  1.
    10030    2    1    2    0    0  0.00000000000E+00  0.00000000000E+00 -0.21828733617E+03  0.13232395471E+04  0.13051105462E+04 0.  0.
        1    1    3    3  502    0 -0.55623129047E+03 -0.26905613662E+03  0.10363800091E+03  0.62651838633E+03  0.50400001928E-02 0. -1.
       -1    1    3    3    0  502  0.55623129047E+03  0.26905613662E+03 -0.32192533708E+03  0.69672116074E+03  0.50400001928E-02 0.  1.
</event>
<event>
 5   0  0.1002887E-04  0.1300071E+04  0.7818609E-02  0.9029509E-01
        3   -1    0    0  501    0  0.00000000000E+00  0.00000000000E+00  0.77973397730E+03  0.77973398385E+03  0.10100000352E+00 0. -1.
       -3   -1    0    0    0  501  0.00000000000E+00  0.00000000000E+00 -0.54191074419E+03  0.54191075361E+03  0.10100000352E+00 0.  1.
    10030    2    1    2    0    0  0.00000000000E+00  0.00000000000E+00  0.23782323311E+03  0.13216447375E+04  0.13000711218E+04 0.  0.
        1    1    3    3  502    0  0.21885868666E+03 -0.67533292158E+02  0.73735387726E+03  0.77210790088E+03  0.50400001928E-02 0. -1.
       -1    1    3    3    0  502 -0.21885868666E+03  0.67533292158E+02 -0.49953064415E+03  0.54953683657E+03  0.50400001928E-02 0.  1.
</event>
<event>
 5   0  0.1002887E-04  0.1301524E+04  0.7818609E-02  0.9028357E-01
       -4   -1    0    0    0  501  0.00000000000E+00  0.00000000000E+00  0.34809500483E+03  0.34809732157E+03  0.12699999809E+01 0.  1.
        4   -1    0    0  501    0  0.00000000000E+00  0.00000000000E+00 -0.12165907135E+04  0.12165913764E+04  0.12699999809E+01 0. -1.
    10030    2    1    2    0    0  0.00000000000E+00  0.00000000000E+00 -0.86849570868E+03  0.15646886980E+04  0.13015244621E+04 0.  0.
        4    1    3    3  502    0 -0.26882835293E+03 -0.30287356611E+03 -0.10466474699E+04  0.11222627230E+04  0.12699999809E+01 0. -1.
       -4    1    3    3    0  502  0.26882835293E+03  0.30287356611E+03  0.17815176119E+03  0.44242597494E+03  0.12699999809E+01 0.  1.
</event>
<event>
 5   0  0.1002887E-04  0.1294843E+04  0.7818609E-02  0.9033665E-01
        4   -1    0    0  501    0  0.00000000000E+00  0.00000000000E+00  0.44188986820E+03  0.44189169320E+03  0.12699999809E+01 0. -1.
       -4   -1    0    0    0  501  0.00000000000E+00  0.00000000000E+00 -0.94854587251E+03  0.94854672270E+03  0.12699999809E+01 0.  1.
    10030    2    1    2    0    0  0.00000000000E+00  0.00000000000E+00 -0.50665600431E+03  0.13904384159E+04  0.12948431109E+04 0.  0.
        4    1    3    3  502    0 -0.55102687965E+03 -0.29489637878E+03 -0.43479713738E+03  0.76134398263E+03  0.12699999809E+01 0.  1.
       -4    1    3    3    0  502  0.55102687965E+03  0.29489637878E+03 -0.71858866929E+02  0.62909443327E+03  0.12699999809E+01 0. -1.
</event>
<event>
 5   0  0.2723209E-04  0.1300150E+04  0.7818609E-02  0.9029447E-01
        2   -1    0    0  501    0  0.00000000000E+00  0.00000000000E+00  0.69850638178E+03  0.69850638178E+03  0.25500000920E-02 0.  1.
       -2   -1    0    0    0  501  0.00000000000E+00  0.00000000000E+00 -0.60500120598E+03  0.60500120598E+03  0.25500000920E-02 0. -1.
    10030    2    1    2    0    0  0.00000000000E+00  0.00000000000E+00  0.93505175798E+02  0.13035075878E+04  0.13001495350E+04 0.  0.
        2    1    3    3  502    0  0.24463054848E+03  0.36310563710E+03  0.52852195123E+03  0.68631280177E+03  0.25500000920E-02 0.  1.
       -2    1    3    3    0  502 -0.24463054848E+03 -0.36310563710E+03 -0.43501677543E+03  0.61719478599E+03  0.25500000920E-02 0. -1.
</event>
<event>
 5   0  0.1408341E-04  0.1298324E+04  0.7818609E-02  0.9030895E-01
       -1   -1    0    0    0  501  0.00000000000E+00  0.00000000000E+00  0.57159403230E+03  0.57159403232E+03  0.50400001928E-02 0. -1.
        1   -1    0    0  501    0  0.00000000000E+00  0.00000000000E+00 -0.73725635934E+03  0.73725635936E+03  0.50400001928E-02 0.  1.
    10030    2    1    2    0    0  0.00000000000E+00  0.00000000000E+00 -0.16566232705E+03  0.13088503917E+04  0.12983240509E+04 0.  0.
        5    1    3    3  502    0 -0.64850435674E+03 -0.11771104577E+02 -0.56296941463E+02  0.65106673638E+03  0.46999998093E+01 0. -1.
       -5    1    3    3    0  502  0.64850435674E+03  0.11771104577E+02 -0.10936538559E+03  0.65778365529E+03  0.46999998093E+01 0.  1.
</event>
<event>
 5   0  0.2661377E-04  0.1298965E+04  0.7818609E-02  0.9030386E-01
        2   -1    0    0  501    0  0.00000000000E+00  0.00000000000E+00  0.68814319421E+03  0.68814319422E+03  0.25500000920E-02 0. -1.
       -2   -1    0    0    0  501  0.00000000000E+00  0.00000000000E+00 -0.61299399131E+03  0.61299399131E+03  0.25500000920E-02 0.  1.
    10030    2    1    2    0    0  0.00000000000E+00  0.00000000000E+00  0.75149202906E+02  0.13011371855E+04  0.12989651931E+04 0.  0.
        5    1    3    3  502    0 -0.31151822643E+03  0.13682813772E+03 -0.51655924499E+03  0.61856373015E+03  0.46999998093E+01 0.  1.
       -5    1    3    3    0  502  0.31151822643E+03 -0.13682813772E+03  0.59170844790E+03  0.68257345538E+03  0.46999998093E+01 0. -1.
</event>
<event>
 5   0  0.1475396E-04  0.1298977E+04  0.7818609E-02  0.9030377E-01
       -1   -1    0    0    0  501  0.00000000000E+00  0.00000000000E+00  0.10156059025E+04  0.10156059025E+04  0.50400001928E-02 0. -1.
        1   -1    0    0  501    0  0.00000000000E+00  0.00000000000E+00 -0.41535341310E+03  0.41535341313E+03  0.50400001928E-02 0.  1.
    10030    2    1    2    0    0  0.00000000000E+00  0.00000000000E+00  0.60025248937E+03  0.14309593156E+04  0.12989771022E+04 0.  0.
        3    1    3    3  502    0  0.35491501379E+03 -0.49311351003E+03  0.47213136489E+02  0.60938878497E+03  0.10100000352E+00 0.  1.
       -3    1    3    3    0  502 -0.35491501379E+03  0.49311351003E+03  0.55303935289E+03  0.82157053065E+03  0.10100000352E+00 0. -1.
</event>
<event>
 5   0  0.2573071E-04  0.1292949E+04  0.7818609E-02  0.9035175E-01
       -2   -1    0    0    0  501  0.00000000000E+00  0.00000000000E+00  0.43514445191E+03  0.43514445192E+03  0.25500000920E-02 0.  1.
        2   -1    0    0  501    0  0.00000000000E+00  0.00000000000E+00 -0.96043806647E+03  0.96043806647E+03  0.25500000920E-02 0. -1.
    10030    2    1    2    0    0  0.00000000000E+00  0.00000000000E+00 -0.52529361456E+03  0.13955825184E+04  0.12929490261E+04 0.  0.
        4    1    3    3  502    0  0.59988056848E+02  0.48455068179E+03 -0.72000285783E+03  0.86993888198E+03  0.12699999809E+01 0. -1.
       -4    1    3    3    0  502 -0.59988056848E+02 -0.48455068179E+03  0.19470924327E+03  0.52564363642E+03  0.12699999809E+01 0.  1.
</event>
<event>
 5   0  0.1476511E-04  0.1299311E+04  0.7818609E-02  0.9030112E-01
       -1   -1    0    0    0  501  0.00000000000E+00  0.00000000000E+00  0.59983854350E+03  0.59983854352E+03  0.50400001928E-02 0.  1.
        1   -1    0    0  501    0  0.00000000000E+00  0.00000000000E+00 -0.70360947177E+03  0.70360947178E+03  0.50400001928E-02 0. -1.
    10030    2    1    2    0    0  0.00000000000E+00  0.00000000000E+00 -0.10377092827E+03  0.13034480153E+04  0.12993107107E+04 0.  0.
        2    1    3    3  502    0  0.36753364937E+03  0.45963426568E+03  0.22414052489E+03  0.62974885193E+03  0.25500000920E-02 0.  1.
       -2    1    3    3    0  502 -0.36753364937E+03 -0.45963426568E+03 -0.32791145316E+03  0.67369916337E+03  0.25500000920E-02 0. -1.
</event>
<event>
 5   0  0.1479690E-04  0.1303045E+04  0.7818609E-02  0.9027154E-01
       -1   -1    0    0    0  501  0.00000000000E+00  0.00000000000E+00  0.89037909757E+03  0.89037909758E+03  0.50400001928E-02 0.  1.
        1   -1    0    0  501    0  0.00000000000E+00  0.00000000000E+00 -0.47674284674E+03  0.47674284677E+03  0.50400001928E-02 0. -1.
    10030    2    1    2    0    0  0.00000000000E+00  0.00000000000E+00  0.41363625082E+03  0.13671219444E+04  0.13030454569E+04 0.  0.
        1    1    3    3  502    0 -0.60200550420E+03  0.20560381574E+03  0.59192502572E+02  0.63889538151E+03  0.50400001928E-02 0. -1.
       -1    1    3    3    0  502  0.60200550420E+03 -0.20560381574E+03  0.35444374825E+03  0.72822656284E+03  0.50400001928E-02 0.  1.
</event>
<event>
 5   0  0.2661377E-04  0.1299427E+04  0.7818609E-02  0.9030019E-01
        2   -1    0    0  501    0  0.00000000000E+00  0.00000000000E+00  0.68072707020E+03  0.68072707021E+03  0.25500000920E-02 0. -1.
       -2   -1    0    0    0  501  0.00000000000E+00  0.00000000000E+00 -0.62011311767E+03  0.62011311767E+03  0.25500000920E-02 0.  1.
    10030    2    1    2    0    0  0.00000000000E+00  0.00000000000E+00  0.60613952537E+02  0.13008401879E+04  0.12994272366E+04 0.  0.
        5    1    3    3  502    0  0.34866297067E+00  0.48843081091E+03 -0.39857562540E+03  0.63043587920E+03  0.46999998093E+01 0.  1.
       -5    1    3    3    0  502 -0.34866297067E+00 -0.48843081091E+03  0.45918957794E+03  0.67040430868E+03  0.46999998093E+01 0. -1.
</event>
<event>
 5   0  0.1408341E-04  0.1300744E+04  0.7818609E-02  0.9028975E-01
        1   -1    0    0  501    0  0.00000000000E+00  0.00000000000E+00  0.15596407620E+04  0.15596407621E+04  0.50400001928E-02 0. -1.
       -1   -1    0    0    0  501  0.00000000000E+00  0.00000000000E+00 -0.27120605968E+03  0.27120605973E+03  0.50400001928E-02 0.  1.
    10030    2    1    2    0    0  0.00000000000E+00  0.00000000000E+00  0.12884347024E+04  0.18308468218E+04  0.13007444417E+04 0.  0.
        5    1    3    3  502    0 -0.51652439176E+02  0.20921200013E+03  0.15079046574E+04  0.15232321495E+04  0.46999998093E+01 0. -1.
       -5    1    3    3    0  502  0.51652439176E+02 -0.20921200013E+03 -0.21946995501E+03  0.30761467231E+03  0.46999998093E+01 0.  1.
</event>
<event>
 5   0  0.2756984E-04  0.1299995E+04  0.7818609E-02  0.9029569E-01
       -2   -1    0    0    0  501  0.00000000000E+00  0.00000000000E+00  0.57049424535E+03  0.57049424535E+03  0.25500000920E-02 0.  1.
        2   -1    0    0  501    0  0.00000000000E+00  0.00000000000E+00 -0.74057972636E+03  0.74057972636E+03  0.25500000920E-02 0. -1.
    10030    2    1    2    0    0  0.00000000000E+00  0.00000000000E+00 -0.17008548101E+03  0.13110739717E+04  0.12999945725E+04 0.  0.
        3    1    3    3  502    0 -0.86178910839E+02  0.16562106172E+03  0.54287039551E+03  0.57407788433E+03  0.10100000352E+00 0.  1.
       -3    1    3    3    0  502  0.86178910839E+02 -0.16562106172E+03 -0.71295587652E+03  0.73699608739E+03  0.10100000352E+00 0. -1.
</event>
<event>
 5   0  0.2794825E-04  0.1312200E+04  0.7818609E-02  0.9019946E-01
       -2   -1    0    0    0  501  0.00000000000E+00  0.00000000000E+00  0.65919549833E+03  0.65919549833E+03  0.25500000920E-02 0.  1.
        2   -1    0    0  501    0  0.00000000000E+00  0.00000000000E+00 -0.65301860074E+03  0.65301860074E+03  0.25500000920E-02 0. -1.
    10030    2    1    2    0    0  0.00000000000E+00  0.00000000000E+00  0.61768975878E+01  0.13122140991E+04  0.13121995609E+04 0.  0.
        1    1    3    3  502    0 -0.15191833617E+03 -0.27902016615E+03 -0.57096972766E+03  0.65340482391E+03  0.50400001928E-02 0. -1.
       -1    1    3    3    0  502  0.15191833617E+03  0.27902016615E+03  0.57714662525E+03  0.65880927516E+03  0.50400001928E-02 0.  1.
</event>
<event>
 5   0  0.1476511E-04  0.1299844E+04  0.7818609E-02  0.9029689E-01
        1   -1    0    0  501    0  0.00000000000E+00  0.00000000000E+00  0.12787154712E+04  0.12787154712E+04  0.50400001928E-02 0. -1.
       -1   -1    0    0    0  501  0.00000000000E+00  0.00000000000E+00 -0.33033058526E+03  0.33033058530E+03  0.50400001928E-02 0.  1.
    10030    2    1    2    0    0  0.00000000000E+00  0.00000000000E+00  0.94838488592E+03  0.16090460565E+04  0.12998443446E+04 0.  0.
        2    1    3    3  502    0 -0.18988551277E+03  0.61781201291E+03  0.38977475963E+03  0.75476655630E+03  0.25500000920E-02 0.  1.
       -2    1    3    3    0  502  0.18988551277E+03 -0.61781201291E+03  0.55861012629E+03  0.85427950019E+03  0.25500000920E-02 0. -1.
</event>
<event>
 5   0  0.1476511E-04  0.1303232E+04  0.7818609E-02  0.9027006E-01
        1   -1    0    0  501    0  0.00000000000E+00  0.00000000000E+00  0.11392091051E+04  0.11392091051E+04  0.50400001928E-02 0.  1.
       -1   -1    0    0    0  501  0.00000000000E+00  0.00000000000E+00 -0.37271783051E+03  0.37271783055E+03  0.50400001928E-02 0. -1.
    10030    2    1    2    0    0  0.00000000000E+00  0.00000000000E+00  0.76649127461E+03  0.15119269357E+04  0.13032322068E+04 0.  0.
        2    1    3    3  502    0  0.34878095877E+03  0.43123167160E+03 -0.13572918703E+02  0.55479107412E+03  0.25500000920E-02 0. -1.
       -2    1    3    3    0  502 -0.34878095877E+03 -0.43123167160E+03  0.78006419331E+03  0.95713586156E+03  0.25500000920E-02 0.  1.
</event>
<event>
 5   0  0.2756984E-04  0.1300961E+04  0.7818609E-02  0.9028803E-01
       -2   -1    0    0    0  501  0.00000000000E+00  0.00000000000E+00  0.36894739702E+03  0.36894739703E+03  0.25500000920E-02 0. -1.
        2   -1    0    0  501    0  0.00000000000E+00  0.00000000000E+00 -0.11468442050E+04  0.11468442050E+04  0.25500000920E-02 0.  1.
    10030    2    1    2    0    0  0.00000000000E+00  0.00000000000E+00 -0.77789680802E+03  0.15157916021E+04  0.13009614664E+04 0.  0.
        3    1    3    3  502    0 -0.43653899553E+03 -0.70473595468E+02 -0.94479364943E+03  0.10431528519E+04  0.10100000352E+00 0.  1.
       -3    1    3    3    0  502  0.43653899553E+03  0.70473595468E+02  0.16689684140E+03  0.47263875015E+03  0.10100000352E+00 0. -1.
</event>
<event>
 5   0  0.2661377E-04  0.1300845E+04  0.7818609E-02  0.9028895E-01
        2   -1    0    0  501    0  0.00000000000E+00  0.00000000000E+00  0.77977568730E+03  0.77977568731E+03  0.25500000920E-02 0.  1.
       -2   -1    0    0    0  501  0.00000000000E+00  0.00000000000E+00 -0.54252713513E+03  0.54252713514E+03  0.25500000920E-02 0. -1.
    10030    2    1    2    0    0  0.00000000000E+00  0.00000000000E+00  0.23724855217E+03  0.13223028224E+04  0.13008450633E+04 0.  0.
        5    1    3    3  502    0 -0.60993097790E+03  0.36787719862E+02  0.34514139941E+03  0.70179328133E+03  0.46999998093E+01 0.  1.
       -5    1    3    3    0  502  0.60993097790E+03 -0.36787719862E+02 -0.10789284724E+03  0.62050954112E+03  0.46999998093E+01 0. -1.
</event>
<event>
 5   0  0.1430636E-04  0.1298820E+04  0.7818609E-02  0.9030502E-01
       -1   -1    0    0    0  501  0.00000000000E+00  0.00000000000E+00  0.84024771589E+03  0.84024771591E+03  0.50400001928E-02 0. -1.
        1   -1    0    0  501    0  0.00000000000E+00  0.00000000000E+00 -0.50191530980E+03  0.50191530983E+03  0.50400001928E-02 0.  1.
    10030    2    1    2    0    0  0.00000000000E+00  0.00000000000E+00  0.33833240609E+03  0.13421630257E+04  0.12988197606E+04 0.  0.
        4    1    3    3  502    0 -0.63179706233E+03  0.37105214653E+02  0.18750309398E+02  0.63316467994E+03  0.12699999809E+01 0.  1.
       -4    1    3    3    0  502  0.63179706233E+03 -0.37105214653E+02  0.31958209669E+03  0.70899834580E+03  0.12699999809E+01 0. -1.
</event>
<event>
 5   0  0.1430636E-04  0.1289984E+04  0.7818609E-02  0.9037545E-01
       -1   -1    0    0    0  501  0.00000000000E+00  0.00000000000E+00  0.12484433418E+04  0.12484433418E+04  0.50400001928E-02 0. -1.
        1   -1    0    0  501    0  0.00000000000E+00  0.00000000000E+00 -0.33322697817E+03  0.33322697821E+03  0.50400001928E-02 0.  1.
    10030    2    1    2    0    0  0.00000000000E+00  0.00000000000E+00  0.91521636359E+03  0.15816703200E+04  0.12899844995E+04 0.  0.
        4    1    3    3  502    0  0.62118895857E+03  0.70467146757E+02  0.26307631627E+03  0.67827140740E+03  0.12699999809E+01 0.  1.
       -4    1    3    3    0  502 -0.62118895857E+03 -0.70467146757E+02  0.65214004733E+03  0.90339891258E+03  0.12699999809E+01 0. -1.
</event>
<event>
 5   0  0.1479690E-04  0.1294113E+04  0.7818609E-02  0.9034246E-01
       -1   -1    0    0    0  501  0.00000000000E+00  0.00000000000E+00  0.28320794706E+03  0.28320794711E+03  0.50400001928E-02 0.  1.
        1   -1    0    0  501    0  0.00000000000E+00  0.00000000000E+00 -0.14783564682E+04  0.14783564682E+04  0.50400001928E-02 0. -1.
    10030    2    1    2    0    0  0.00000000000E+00  0.00000000000E+00 -0.11951485211E+04  0.17615644153E+04  0.12941132878E+04 0.  0.
        1    1    3    3  502    0 -0.61145807351E+03  0.20938027810E+03 -0.55537172867E+03  0.85214953708E+03  0.50400001928E-02 0.  1.
       -1    1    3    3    0  502  0.61145807351E+03 -0.20938027810E+03 -0.63977679242E+03  0.90941487819E+03  0.50400001928E-02 0. -1.
</event>
<event>
 5   0  0.1479690E-04  0.1297665E+04  0.7818609E-02  0.9031419E-01
        1   -1    0    0  501    0  0.00000000000E+00  0.00000000000E+00  0.19883157206E+04  0.19883157206E+04  0.50400001928E-02 0.  1.
       -1   -1    0    0    0  501  0.00000000000E+00  0.00000000000E+00 -0.21172882134E+03  0.21172882140E+03  0.50400001928E-02 0. -1.
    10030    2    1    2    0    0  0.00000000000E+00  0.00000000000E+00  0.17765868993E+04  0.22000445420E+04  0.12976652019E+04 0.  0.
        1    1    3    3  502    0  0.17224086311E+03  0.13309121803E+03  0.19245667673E+04  0.19368369650E+04  0.50400001928E-02 0.  1.
       -1    1    3    3    0  502 -0.17224086311E+03 -0.13309121803E+03 -0.14797986801E+03  0.26320757702E+03  0.50400001928E-02 0. -1.
</event>
<event>
 5   0  0.1476511E-04  0.1300092E+04  0.7818609E-02  0.9029492E-01
       -1   -1    0    0    0  501  0.00000000000E+00  0.00000000000E+00  0.47792756385E+03  0.47792756388E+03  0.50400001928E-02 0.  1.
        1   -1    0    0  501    0  0.00000000000E+00  0.00000000000E+00 -0.88415073039E+03  0.88415073040E+03  0.50400001928E-02 0. -1.
    10030    2    1    2    0    0  0.00000000000E+00  0.00000000000E+00 -0.40622316654E+03  0.13620782943E+04  0.13000923116E+04 0.  0.
        2    1    3    3  502    0 -0.16301761292E+03  0.29001241900E+03  0.38197520808E+03  0.50654417862E+03  0.25500000920E-02 0.  1.
       -2    1    3    3    0  502  0.16301761292E+03 -0.29001241900E+03 -0.78819837462E+03  0.85553411566E+03  0.25500000920E-02 0. -1.
</event>
<event>
 5   0  0.1408341E-04  0.1300951E+04  0.7818609E-02  0.9028811E-01
        1   -1    0    0  501    0  0.00000000000E+00  0.00000000000E+00  0.13072510879E+04  0.13072510879E+04  0.50400001928E-02 0. -1.
       -1   -1    0    0    0  501  0.00000000000E+00  0.00000000000E+00 -0.32367049678E+03  0.32367049682E+03  0.50400001928E-02 0.  1.
    10030    2    1    2    0    0  0.00000000000E+00  0.00000000000E+00  0.98358059111E+03  0.16309215847E+04  0.13009513582E+04 0.  0.
        5    1    3    3  502    0 -0.14743728719E+03  0.19522708963E+03 -0.26377488066E+03  0.35979250665E+03  0.46999998093E+01 0.  1.
       -5    1    3    3    0  502  0.14743728719E+03 -0.19522708963E+03  0.12473554718E+04  0.12711290781E+04  0.46999998093E+01 0. -1.
</event>
<event>
 5   0  0.1476511E-04  0.1300265E+04  0.7818609E-02  0.9029355E-01
       -1   -1    0    0    0  501  0.00000000000E+00  0.00000000000E+00  0.67944836086E+03  0.67944836088E+03  0.50400001928E-02 0.  1.
        1   -1    0    0  501    0  0.00000000000E+00  0.00000000000E+00 -0.62208173976E+03  0.62208173978E+03  0.50400001928E-02 0. -1.
    10030    2    1    2    0    0  0.00000000000E+00  0.00000000000E+00  0.57366621100E+02  0.13015301007E+04  0.13002652321E+04 0.  0.
        2    1    3    3  502    0 -0.60056503337E+03  0.11661702473E+03  0.24888487425E+03  0.66047071880E+03  0.25500000920E-02 0.  1.
       -2    1    3    3    0  502  0.60056503337E+03 -0.11661702473E+03 -0.19151825315E+03  0.64105938185E+03  0.25500000920E-02 0. -1.
</event>
<event>
 5   0  0.2794825E-04  0.1300978E+04  0.7818609E-02  0.9028790E-01
       -2   -1    0    0    0  501  0.00000000000E+00  0.00000000000E+00  0.19342314036E+04  0.19342314036E+04  0.25500000920E-02 0. -1.
        2   -1    0    0  501    0  0.00000000000E+00  0.00000000000E+00 -0.21876167269E+03  0.21876167270E+03  0.25500000920E-02 0.  1.
    10030    2    1    2    0    0  0.00000000000E+00  0.00000000000E+00  0.17154697309E+04  0.21529930763E+04  0.13009776281E+04 0.  0.
        1    1    3    3  502    0  0.27144429304E+03  0.45440119402E+03  0.14834839115E+04  0.15750831613E+04  0.50400001928E-02 0. -1.
       -1    1    3    3    0  502 -0.27144429304E+03 -0.45440119402E+03  0.23198581934E+03  0.57790991492E+03  0.50400001928E-02 0.  1.
</event>
<event>
 5   0  0.2794825E-04  0.1299617E+04  0.7818609E-02  0.9029869E-01
       -2   -1    0    0    0  501  0.00000000000E+00  0.00000000000E+00  0.44584889478E+03  0.44584889479E+03  0.25500000920E-02 0.  1.
        2   -1    0    0  501    0  0.00000000000E+00  0.00000000000E+00 -0.94707283172E+03  0.94707283172E+03  0.25500000920E-02 0. -1.
    10030    2    1    2    0    0  0.00000000000E+00  0.00000000000E+00 -0.50122393694E+03  0.13929217265E+04  0.12996174442E+04 0.  0.
        1    1    3    3  502    0  0.38753460593E+02 -0.22965237718E+03  0.39957849490E+03  0.46249866882E+03  0.50400001928E-02 0.  1.
       -1    1    3    3    0  502 -0.38753460593E+02  0.22965237718E+03 -0.90080243184E+03  0.93042305769E+03  0.50400001928E-02 0. -1.
</event>
<event>
 5   0  0.2723209E-04  0.1298564E+04  0.7818609E-02  0.9030705E-01
       -2   -1    0    0    0  501  0.00000000000E+00  0.00000000000E+00  0.25483039133E+03  0.25483039134E+03  0.25500000920E-02 0. -1.
        2   -1    0    0  501    0  0.00000000000E+00  0.00000000000E+00 -0.16543035841E+04  0.16543035841E+04  0.25500000920E-02 0.  1.
    10030    2    1    2    0    0  0.00000000000E+00  0.00000000000E+00 -0.13994731928E+04  0.19091339755E+04  0.12985635598E+04 0.  0.
        2    1    3    3  502    0 -0.10649055978E+03  0.63222288139E+03 -0.85053542301E+03  0.10651086878E+04  0.25500000920E-02 0. -1.
       -2    1    3    3    0  502  0.10649055978E+03 -0.63222288139E+03 -0.54893776981E+03  0.84402528766E+03  0.25500000920E-02 0.  1.
</event>
<event>
 5   0  0.1430636E-04  0.1299994E+04  0.7818609E-02  0.9029570E-01
       -1   -1    0    0    0  501  0.00000000000E+00  0.00000000000E+00  0.28921184446E+03  0.28921184451E+03  0.50400001928E-02 0.  1.
        1   -1    0    0  501    0  0.00000000000E+00  0.00000000000E+00 -0.14608530546E+04  0.14608530547E+04  0.50400001928E-02 0. -1.
    10030    2    1    2    0    0  0.00000000000E+00  0.00000000000E+00 -0.11716412102E+04  0.17500648992E+04  0.12999938561E+04 0.  0.
        4    1    3    3  502    0  0.12475580089E+03  0.41343969237E+03  0.68163239257E+02  0.43720044506E+03  0.12699999809E+01 0.  1.
       -4    1    3    3    0  502 -0.12475580089E+03 -0.41343969237E+03 -0.12398044494E+04  0.13128644541E+04  0.12699999809E+01 0. -1.
</event>
<event>
 5   0  0.1430636E-04  0.1300053E+04  0.7818609E-02  0.9029523E-01
        1   -1    0    0  501    0  0.00000000000E+00  0.00000000000E+00  0.17679106156E+04  0.17679106156E+04  0.50400001928E-02 0.  1.
       -1   -1    0    0    0  501  0.00000000000E+00  0.00000000000E+00 -0.23900216043E+03  0.23900216049E+03  0.50400001928E-02 0. -1.
    10030    2    1    2    0    0  0.00000000000E+00  0.00000000000E+00  0.15289084551E+04  0.20069127760E+04  0.13000530091E+04 0.  0.
        4    1    3    3  502    0 -0.47641179436E+03  0.36407564582E+03  0.37694283094E+03  0.70824203799E+03  0.12699999809E+01 0. -1.
       -4    1    3    3    0  502  0.47641179436E+03 -0.36407564582E+03  0.11519656242E+04  0.12986707381E+04  0.12699999809E+01 0.  1.
</event>
<event>
 5   0  0.1479690E-04  0.1299648E+04  0.7818609E-02  0.9029844E-01
       -1   -1    0    0    0  501  0.00000000000E+00  0.00000000000E+00  0.10433449931E+04  0.10433449931E+04  0.50400001928E-02 0.  1.
        1   -1    0    0  501    0  0.00000000000E+00  0.00000000000E+00 -0.40472844877E+03  0.40472844880E+03  0.50400001928E-02 0. -1.
    10030    2    1    2    0    0  0.00000000000E+00  0.00000000000E+00  0.63861654434E+03  0.14480734419E+04  0.12996482611E+04 0.  0.
        1    1    3    3  502    0 -0.39410578370E+03  0.47857977041E+03  0.53625910746E+03  0.81971445989E+03  0.50400001928E-02 0.  1.
       -1    1    3    3    0  502  0.39410578370E+03 -0.47857977041E+03  0.10235743688E+03  0.62835898203E+03  0.50400001928E-02 0. -1.
</event>
<event>
 5   0  0.1476511E-04  0.1301428E+04  0.7818609E-02  0.9028434E-01
       -1   -1    0    0    0  501  0.00000000000E+00  0.00000000000E+00  0.68735324730E+03  0.68735324731E+03  0.50400001928E-02 0. -1.
        1   -1    0    0  501    0  0.00000000000E+00  0.00000000000E+00 -0.61602780053E+03  0.61602780055E+03  0.50400001928E-02 0.  1.
    10030    2    1    2    0    0  0.00000000000E+00  0.00000000000E+00  0.71325446766E+02  0.13033810479E+04  0.13014279990E+04 0.  0.
        2    1    3    3  502    0  0.55250699818E+03 -0.13581688659E+03 -0.28059353104E+03  0.63438390537E+03  0.25500000920E-02 0.  1.
       -2    1    3    3    0  502 -0.55250699818E+03  0.13581688659E+03  0.35191897781E+03  0.66899714250E+03  0.25500000920E-02 0. -1.
</event>
<event>
 5   0  0.1476511E-04  0.1289207E+04  0.7818609E-02  0.9038168E-01
        1   -1    0    0  501    0  0.00000000000E+00  0.00000000000E+00  0.71588325778E+03  0.71588325780E+03  0.50400001928E-02 0. -1.
       -1   -1    0    0    0  501  0.00000000000E+00  0.00000000000E+00 -0.58042093063E+03  0.58042093066E+03  0.50400001928E-02 0.  1.
    10030    2    1    2    0    0  0.00000000000E+00  0.00000000000E+00  0.13546232714E+03  0.12963041885E+04  0.12892069294E+04 0.  0.
        2    1    3    3  502    0 -0.24270811586E+03  0.34589063937E+03 -0.42174029123E+03  0.59700287869E+03  0.25500000920E-02 0.  1.
       -2    1    3    3    0  502  0.24270811586E+03 -0.34589063937E+03  0.55720261837E+03  0.69930130976E+03  0.25500000920E-02 0. -1.
</event>
<event>
 5   0  0.2756984E-04  0.1299837E+04  0.7818609E-02  0.9029695E-01
        2   -1    0    0  501    0  0.00000000000E+00  0.00000000000E+00  0.14944343955E+04  0.14944343955E+04  0.25500000920E-02 0.  1.
       -2   -1    0    0    0  501  0.00000000000E+00  0.00000000000E+00 -0.28264459980E+03  0.28264459981E+03  0.25500000920E-02 0. -1.
    10030    2    1    2    0    0  0.00000000000E+00  0.00000000000E+00  0.12117897957E+04  0.17770789953E+04  0.12998366231E+04 0.  0.
        3    1    3    3  502    0 -0.23786635184E+03 -0.44688403157E+03  0.11630977372E+04  0.12684959974E+04  0.10100000352E+00 0.  1.
       -3    1    3    3    0  502  0.23786635184E+03  0.44688403157E+03  0.48692058537E+02  0.50858299792E+03  0.10100000352E+00 0. -1.
</event>
<event>
 5   0  0.2794825E-04  0.1292744E+04  0.7818609E-02  0.9035339E-01
        2   -1    0    0  501    0  0.00000000000E+00  0.00000000000E+00  0.79112170699E+03  0.79112170700E+03  0.25500000920E-02 0. -1.
       -2   -1    0    0    0  501  0.00000000000E+00  0.00000000000E+00 -0.52810657264E+03  0.52810657264E+03  0.25500000920E-02 0.  1.
    10030    2    1    2    0    0  0.00000000000E+00  0.00000000000E+00  0.26301513435E+03  0.13192282796E+04  0.12927437074E+04 0.  0.
        1    1    3    3  502    0 -0.20852081939E+03 -0.50718078964E+03  0.48069208085E+03  0.72923121307E+03  0.50400001928E-02 0. -1.
       -1    1    3    3    0  502  0.20852081939E+03  0.50718078964E+03 -0.21767694649E+03  0.58999706657E+03  0.50400001928E-02 0.  1.
</event>
<event>
 5   0  0.2756984E-04  0.1300372E+04  0.7818609E-02  0.9029270E-01
       -2   -1    0    0    0  501  0.00000000000E+00  0.00000000000E+00  0.67859061098E+03  0.67859061099E+03  0.25500000920E-02 0. -1.
        2   -1    0    0  501    0  0.00000000000E+00  0.00000000000E+00 -0.62297038226E+03  0.62297038227E+03  0.25500000920E-02 0.  1.
    10030    2    1    2    0    0  0.00000000000E+00  0.00000000000E+00  0.55620228721E+02  0.13015609933E+04  0.13003720273E+04 0.  0.
        3    1    3    3  502    0 -0.12543556149E+03  0.63529591048E+03  0.86231865499E+02  0.65327706127E+03  0.10100000352E+00 0.  1.
       -3    1    3    3    0  502  0.12543556149E+03 -0.63529591048E+03 -0.30611636778E+02  0.64828393198E+03  0.10100000352E+00 0. -1.
</event>
<event>
 5   0  0.1479690E-04  0.1300913E+04  0.7818609E-02  0.9028841E-01
        1   -1    0    0  501    0  0.00000000000E+00  0.00000000000E+00  0.82261563124E+03  0.82261563126E+03  0.50400001928E-02 0.  1.
       -1   -1    0    0    0  501  0.00000000000E+00  0.00000000000E+00 -0.51432740566E+03  0.51432740569E+03  0.50400001928E-02 0. -1.
    10030    2    1    2    0    0  0.00000000000E+00  0.00000000000E+00  0.30828822558E+03  0.13369430369E+04  0.13009131616E+04 0.  0.
        1    1    3    3  502    0 -0.46771032548E+03  0.41104580958E+03  0.34745519443E+03  0.71304748670E+03  0.50400001928E-02 0.  1.
       -1    1    3    3    0  502  0.46771032548E+03 -0.41104580958E+03 -0.39166968849E+02  0.62389555024E+03  0.50400001928E-02 0. -1.
</event>
<event>
 5   0  0.2723209E-04  0.1301324E+04  0.7818609E-02  0.9028516E-01
       -2   -1    0    0    0  501  0.00000000000E+00  0.00000000000E+00  0.29401795661E+03  0.29401795662E+03  0.25500000920E-02 0. -1.
        2   -1    0    0  501    0  0.00000000000E+00  0.00000000000E+00 -0.14399148390E+04  0.14399148390E+04  0.25500000920E-02 0.  1.
    10030    2    1    2    0    0  0.00000000000E+00  0.00000000000E+00 -0.11458968824E+04  0.17339327956E+04  0.13013236625E+04 0.  0.
        2    1    3    3  502    0 -0.11157959612E+02 -0.63037293326E+03 -0.35865249703E+03  0.72534553744E+03  0.25500000920E-02 0.  1.
       -2    1    3    3    0  502  0.11157959612E+02  0.63037293326E+03 -0.78724438533E+03  0.10085872581E+04  0.25500000920E-02 0. -1.
</event>
<event>
 5   0  0.2723209E-04  0.1297376E+04  0.7818609E-02  0.9031649E-01
       -2   -1    0    0    0  501  0.00000000000E+00  0.00000000000E+00  0.87579294081E+03  0.87579294081E+03  0.25500000920E-02 0.  1.
        2   -1    0    0  501    0  0.00000000000E+00  0.00000000000E+00 -0.48047424369E+03  0.48047424369E+03  0.25500000920E-02 0. -1.
    10030    2    1    2    0    0  0.00000000000E+00  0.00000000000E+00  0.39531869712E+03  0.13562671845E+04  0.12973757372E+04 0.  0.
        2    1    3    3  502    0 -0.85385799916E+01  0.12245022430E+03 -0.46822299603E+03  0.48404518260E+03  0.25500000920E-02 0. -1.
       -2    1    3    3    0  502  0.85385799916E+01 -0.12245022430E+03  0.86354169316E+03  0.87222200190E+03  0.25500000920E-02 0.  1.
</event>
<event>
 5   0  0.1479690E-04  0.1302590E+04  0.7818609E-02  0.9027514E-01
       -1   -1    0    0    0  501  0.00000000000E+00  0.00000000000E+00  0.72462723059E+03  0.72462723061E+03  0.50400001928E-02 0. -1.
        1   -1    0    0  501    0  0.00000000000E+00  0.00000000000E+00 -0.58538387900E+03  0.58538387902E+03  0.50400001928E-02 0.  1.
    10030    2    1    2    0    0  0.00000000000E+00  0.00000000000E+00  0.13924335160E+03  0.13100111096E+04  0.13025898803E+04 0.  0.
        1    1    3    3  502    0 -0.28138660622E+03 -0.64717546421E+01 -0.52106158779E+03  0.59222080685E+03  0.50400001928E-02 0.  1.
       -1    1    3    3    0  502  0.28138660622E+03  0.64717546421E+01  0.66030493938E+03  0.71779030278E+03  0.50400001928E-02 0. -1.
</event>
<event>
 5   0  0.1430636E-04  0.1301914E+04  0.7818609E-02  0.9028049E-01
       -1   -1    0    0    0  501  0.00000000000E+00  0.00000000000E+00  0.69435853769E+03  0.69435853771E+03  0.50400001928E-02 0.  1.
        1   -1    0    0  501    0  0.00000000000E+00  0.00000000000E+00 -0.61026825682E+03  0.61026825684E+03  0.50400001928E-02 0. -1.
    10030    2    1    2    0    0  0.00000000000E+00  0.00000000000E+00  0.84090280873E+02  0.13046267946E+04  0.13019139364E+04 0.  0.
        4    1    3    3  502    0  0.99523003776E+02  0.41248050522E+03 -0.45264166480E+03  0.62042814659E+03  0.12699999809E+01 0. -1.
       -4    1    3    3    0  502 -0.99523003776E+02 -0.41248050522E+03  0.53673194567E+03  0.68419864796E+03  0.12699999809E+01 0.  1.
</event>
<event>
 5   0  0.1408341E-04  0.1303928E+04  0.7818609E-02  0.9026456E-01
       -1   -1    0    0    0  501  0.00000000000E+00  0.00000000000E+00  0.53135614115E+03  0.53135614117E+03  0.50400001928E-02 0. -1.
        1   -1    0    0  501    0  0.00000000000E+00  0.00000000000E+00 -0.79994731112E+03  0.79994731113E+03  0.50400001928E-02 0.  1.
    10030    2    1    2    0    0  0.00000000000E+00  0.00000000000E+00 -0.26859116997E+03  0.13313034523E+04  0.13039277839E+04 0.  0.
        5    1    3    3  502    0  0.49047878131E+03 -0.28807020392E+03  0.19095327201E+03  0.60003259861E+03  0.46999998093E+01 0. -1.
       -5    1    3    3    0  502 -0.49047878131E+03  0.28807020392E+03 -0.45954444198E+03  0.73127085369E+03  0.46999998093E+01 0.  1.
</event>
<event>
 5   0  0.2573071E-04  0.1299527E+04  0.7818609E-02  0.9029941E-01
        2   -1    0    0  501    0  0.00000000000E+00  0.00000000000E+00  0.41838335535E+03  0.41838335535E+03  0.25500000920E-02 0. -1.
       -2   -1    0    0    0  501  0.00000000000E+00  0.00000000000E+00 -0.10091042464E+04  0.10091042464E+04  0.25500000920E-02 0.  1.
    10030    2    1    2    0    0  0.00000000000E+00  0.00000000000E+00 -0.59072089106E+03  0.14274876018E+04  0.12995267146E+04 0.  0.
        4    1    3    3  502    0  0.29841825745E+03 -0.31045991892E+03 -0.82984351415E+03  0.93492282490E+03  0.12699999809E+01 0.  1.
       -4    1    3    3    0  502 -0.29841825745E+03  0.31045991892E+03  0.23912262309E+03  0.49256477687E+03  0.12699999809E+01 0. -1.
</event>
<event>
 5   0  0.1408341E-04  0.1297461E+04  0.7818609E-02  0.9031581E-01
       -1   -1    0    0    0  501  0.00000000000E+00  0.00000000000E+00  0.40859688974E+03  0.40859688977E+03  0.50400001928E-02 0.  1.
        1   -1    0    0  501    0  0.00000000000E+00  0.00000000000E+00 -0.10299918603E+04  0.10299918603E+04  0.50400001928E-02 0. -1.
    10030    2    1    2    0    0  0.00000000000E+00  0.00000000000E+00 -0.62139497058E+03  0.14385887501E+04  0.12974613221E+04 0.  0.
        5    1    3    3  502    0  0.49779678511E+03  0.15832720200E+03  0.11579830695E+03  0.53507053745E+03  0.46999998093E+01 0.  1.
       -5    1    3    3    0  502 -0.49779678511E+03 -0.15832720200E+03 -0.73719327753E+03  0.90351821265E+03  0.46999998093E+01 0. -1.
</event>
<event>
 5   0  0.2756984E-04  0.1299191E+04  0.7818609E-02  0.9030207E-01
        2   -1    0    0  501    0  0.00000000000E+00  0.00000000000E+00  0.11121192829E+04  0.11121192829E+04  0.25500000920E-02 0.  1.
       -2   -1    0    0    0  501  0.00000000000E+00  0.00000000000E+00 -0.37943238884E+03  0.37943238885E+03  0.25500000920E-02 0. -1.
    10030    2    1    2    0    0  0.00000000000E+00  0.00000000000E+00  0.73268689406E+03  0.14915516717E+04  0.12991906345E+04 0.  0.
        3    1    3    3  502    0  0.16552261567E+03 -0.61001941694E+03  0.53837144486E+03  0.83028022269E+03  0.10100000352E+00 0.  1.
       -3    1    3    3    0  502 -0.16552261567E+03  0.61001941694E+03  0.19431544920E+03  0.66127144906E+03  0.10100000352E+00 0. -1.
</event>
<event>
 5   0  0.1408341E-04  0.1336003E+04  0.7818609E-02  0.9001492E-01
       -1   -1    0    0    0  501  0.00000000000E+00  0.00000000000E+00  0.62204193102E+03  0.62204193104E+03  0.50400001928E-02 0. -1.
        1   -1    0    0  501    0  0.00000000000E+00  0.00000000000E+00 -0.71735635789E+03  0.71735635791E+03  0.50400001928E-02 0.  1.
    10030    2    1    2    0    0  0.00000000000E+00  0.00000000000E+00 -0.95314426870E+02  0.13393982890E+04  0.13360025960E+04 0.  0.
        5    1    3    3  502    0  0.27686113464E+03 -0.27797528863E+03 -0.58966178464E+03  0.70826934088E+03  0.46999998093E+01 0.  1.
       -5    1    3    3    0  502 -0.27686113464E+03  0.27797528863E+03  0.49434735777E+03  0.63112894808E+03  0.46999998093E+01 0. -1.
</event>
<event>
 5   0  0.1475396E-04  0.1300102E+04  0.7818609E-02  0.9029484E-01
        1   -1    0    0  501    0  0.00000000000E+00  0.00000000000E+00  0.24367865561E+04  0.24367865561E+04  0.50400001928E-02 0. -1.
       -1   -1    0    0    0  501  0.00000000000E+00  0.00000000000E+00 -0.17341141486E+03  0.17341141493E+03  0.50400001928E-02 0.  1.
    10030    2    1    2    0    0  0.00000000000E+00  0.00000000000E+00  0.22633751412E+04  0.26101979710E+04  0.13001024644E+04 0.  0.
        3    1    3    3  502    0  0.22590240578E+03 -0.81563642599E+02  0.23444399279E+04  0.23567102305E+04  0.10100000352E+00 0. -1.
       -3    1    3    3    0  502 -0.22590240578E+03  0.81563642599E+02 -0.81064786723E+02  0.25348774049E+03  0.10100000352E+00 0.  1.
</event>
<event>
 5   0  0.1475396E-04  0.1300177E+04  0.7818609E-02  0.9029425E-01
        1   -1    0    0  501    0  0.00000000000E+00  0.00000000000E+00  0.28014490279E+04  0.28014490279E+04  0.50400001928E-02 0. -1.
       -1   -1    0    0    0  501  0.00000000000E+00  0.00000000000E+00 -0.15085577969E+03  0.15085577978E+03  0.50400001928E-02 0.  1.
    10030    2    1    2    0    0  0.00000000000E+00  0.00000000000E+00  0.26505932482E+04  0.29523048077E+04  0.13001765688E+04 0.  0.
        3    1    3    3  502    0 -0.11370690494E+03 -0.22263041103E+03  0.26879431311E+04  0.26995428958E+04  0.10100000352E+00 0. -1.
       -3    1    3    3    0  502  0.11370690494E+03  0.22263041103E+03 -0.37349882870E+02  0.25276191188E+03  0.10100000352E+00 0.  1.
</event>
<event>
 5   0  0.1408341E-04  0.1299532E+04  0.7818609E-02  0.9029937E-01
        1   -1    0    0  501    0  0.00000000000E+00  0.00000000000E+00  0.49275519630E+03  0.49275519633E+03  0.50400001928E-02 0. -1.
       -1   -1    0    0    0  501  0.00000000000E+00  0.00000000000E+00 -0.85680620374E+03  0.85680620376E+03  0.50400001928E-02 0.  1.
    10030    2    1    2    0    0  0.00000000000E+00  0.00000000000E+00 -0.36405100744E+03  0.13495614001E+04  0.12995317759E+04 0.  0.
        5    1    3    3  502    0 -0.34915139606E+03 -0.41228935763E+02 -0.74947435000E+03  0.82785289383E+03  0.46999998093E+01 0.  1.
       -5    1    3    3    0  502  0.34915139606E+03  0.41228935763E+02  0.38542334255E+03  0.52170850626E+03  0.46999998093E+01 0. -1.
</event>
<event>
 5   0  0.2573071E-04  0.1304942E+04  0.7818609E-02  0.9025655E-01
        2   -1    0    0  501    0  0.00000000000E+00  0.00000000000E+00  0.16138057872E+04  0.16138057872E+04  0.25500000920E-02 0.  1.
       -2   -1    0    0    0  501  0.00000000000E+00  0.00000000000E+00 -0.26379772085E+03  0.26379772086E+03  0.25500000920E-02 0. -1.
    10030    2    1    2    0    0  0.00000000000E+00  0.00000000000E+00  0.13500080663E+04  0.18776035080E+04  0.13049418203E+04 0.  0.
        4    1    3    3  502    0  0.36143931004E+02 -0.44252525995E+03  0.13629169348E+04  0.14334152133E+04  0.12699999809E+01 0.  1.
       -4    1    3    3    0  502 -0.36143931004E+02  0.44252525995E+03 -0.12908868492E+02  0.44418829479E+03  0.12699999809E+01 0. -1.
</event>
<event>
 5   0  0.2756984E-04  0.1298971E+04  0.7818609E-02  0.9030381E-01
       -2   -1    0    0    0  501  0.00000000000E+00  0.00000000000E+00  0.40772943300E+03  0.40772943301E+03  0.25500000920E-02 0.  1.
        2   -1    0    0  501    0  0.00000000000E+00  0.00000000000E+00 -0.10345868316E+04  0.10345868316E+04  0.25500000920E-02 0. -1.
    10030    2    1    2    0    0  0.00000000000E+00  0.00000000000E+00 -0.62685739856E+03  0.14423162646E+04  0.12989711348E+04 0.  0.
        3    1    3    3  502    0 -0.42500466161E+03  0.36305914257E+03  0.53812147522E+02  0.56154844922E+03  0.10100000352E+00 0.  1.
       -3    1    3    3    0  502  0.42500466161E+03 -0.36305914257E+03 -0.68066954608E+03  0.88076781535E+03  0.10100000352E+00 0. -1.
</event>
<event>
 5   0  0.2723209E-04  0.1300648E+04  0.7818609E-02  0.9029052E-01
       -2   -1    0    0    0  501  0.00000000000E+00  0.00000000000E+00  0.19490268502E+03  0.19490268504E+03  0.25500000920E-02 0. -1.
        2   -1    0    0  501    0  0.00000000000E+00  0.00000000000E+00 -0.21699089627E+04  0.21699089627E+04  0.25500000920E-02 0.  1.
    10030    2    1    2    0    0  0.00000000000E+00  0.00000000000E+00 -0.19750062777E+04  0.23648116477E+04  0.13006476588E+04 0.  0.
        2    1    3    3  502    0 -0.58492349757E+03 -0.25273132553E+03 -0.12239536796E+04  0.13798808755E+04  0.25500000920E-02 0.  1.
       -2    1    3    3    0  502  0.58492349757E+03  0.25273132553E+03 -0.75105259808E+03  0.98493077219E+03  0.25500000920E-02 0. -1.
</event>
<event>
 5   0  0.2794825E-04  0.1299529E+04  0.7818609E-02  0.9029939E-01
        2   -1    0    0  501    0  0.00000000000E+00  0.00000000000E+00  0.14847225182E+04  0.14847225182E+04  0.25500000920E-02 0.  1.
       -2   -1    0    0    0  501  0.00000000000E+00  0.00000000000E+00 -0.28435882931E+03  0.28435882932E+03  0.25500000920E-02 0. -1.
    10030    2    1    2    0    0  0.00000000000E+00  0.00000000000E+00  0.12003636889E+04  0.17690813476E+04  0.12995290796E+04 0.  0.
        1    1    3    3  502    0 -0.27467552414E+03  0.35892737138E+01  0.14017866018E+04  0.14284485302E+04  0.50400001928E-02 0.  1.
       -1    1    3    3    0  502  0.27467552414E+03 -0.35892737138E+01 -0.20142291283E+03  0.34063281739E+03  0.50400001928E-02 0. -1.
</event>
<event>
 5   0  0.2661377E-04  0.1306432E+04  0.7818609E-02  0.9024480E-01
        2   -1    0    0  501    0  0.00000000000E+00  0.00000000000E+00  0.20888117505E+04  0.20888117505E+04  0.25500000920E-02 0.  1.
       -2   -1    0    0    0  501  0.00000000000E+00  0.00000000000E+00 -0.20427463618E+03  0.20427463620E+03  0.25500000920E-02 0. -1.
    10030    2    1    2    0    0  0.00000000000E+00  0.00000000000E+00  0.18845371144E+04  0.22930863867E+04  0.13064321803E+04 0.  0.
        5    1    3    3  502    0  0.12500786229E+03  0.28483255030E+02 -0.18194219913E+03  0.22262819964E+03  0.46999998093E+01 0. -1.
       -5    1    3    3    0  502 -0.12500786229E+03 -0.28483255030E+02  0.20664793135E+04  0.20704581871E+04  0.46999998093E+01 0.  1.
</event>
<event>
 5   0  0.2756984E-04  0.1299851E+04  0.7818609E-02  0.9029684E-01
       -2   -1    0    0    0  501  0.00000000000E+00  0.00000000000E+00  0.69394003283E+03  0.69394003283E+03  0.25500000920E-02 0.  1.
        2   -1    0    0  501    0  0.00000000000E+00  0.00000000000E+00 -0.60870235497E+03  0.60870235497E+03  0.25500000920E-02 0. -1.
    10030    2    1    2    0    0  0.00000000000E+00  0.00000000000E+00  0.85237677863E+02  0.13026423878E+04  0.12998506563E+04 0.  0.
        3    1    3    3  502    0 -0.26198301187E+03 -0.72672931903E+02  0.63421412910E+03  0.69003190164E+03  0.10100000352E+00 0.  1.
       -3    1    3    3    0  502  0.26198301187E+03  0.72672931903E+02 -0.54897645123E+03  0.61261048616E+03  0.10100000352E+00 0. -1.
</event>
<event>
 5   0  0.1479690E-04  0.1302898E+04  0.7818609E-02  0.9027270E-01
       -1   -1    0    0    0  501  0.00000000000E+00  0.00000000000E+00  0.41899089692E+03  0.41899089695E+03  0.50400001928E-02 0. -1.
        1   -1    0    0  501    0  0.00000000000E+00  0.00000000000E+00 -0.10128760444E+04  0.10128760444E+04  0.50400001928E-02 0.  1.
    10030    2    1    2    0    0  0.00000000000E+00  0.00000000000E+00 -0.59388514751E+03  0.14318669414E+04  0.13028980656E+04 0.  0.
        1    1    3    3  502    0 -0.63561547545E+03  0.20164184302E+02 -0.14163045540E+03  0.65151578099E+03  0.50400001928E-02 0. -1.
       -1    1    3    3    0  502  0.63561547545E+03 -0.20164184302E+02 -0.45225469212E+03  0.78035116039E+03  0.50400001928E-02 0.  1.
</event>
<event>
 5   0  0.1475396E-04  0.1301717E+04  0.7818609E-02  0.9028205E-01
        1   -1    0    0  501    0  0.00000000000E+00  0.00000000000E+00  0.81579465725E+03  0.81579465726E+03  0.50400001928E-02 0. -1.
       -1   -1    0    0    0  501  0.00000000000E+00  0.00000000000E+00 -0.51926900789E+03  0.51926900792E+03  0.50400001928E-02 0.  1.
    10030    2    1    2    0    0  0.00000000000E+00  0.00000000000E+00  0.29652564935E+03  0.13350636652E+04  0.13017171465E+04 0.  0.
        3    1    3    3  502    0  0.30527837114E+02  0.42566359029E+03  0.65227358716E+03  0.77947564660E+03  0.10100000352E+00 0. -1.
       -3    1    3    3    0  502 -0.30527837114E+02 -0.42566359029E+03 -0.35574793781E+03  0.55558801858E+03  0.10100000352E+00 0.  1.
</event>
<event>
 5   0  0.1408341E-04  0.1300438E+04  0.7818609E-02  0.9029218E-01
       -1   -1    0    0    0  501  0.00000000000E+00  0.00000000000E+00  0.60287620114E+03  0.60287620117E+03  0.50400001928E-02 0.  1.
        1   -1    0    0  501    0  0.00000000000E+00  0.00000000000E+00 -0.70127951416E+03  0.70127951418E+03  0.50400001928E-02 0. -1.
    10030    2    1    2    0    0  0.00000000000E+00  0.00000000000E+00 -0.98403313015E+02  0.13041557153E+04  0.13004379716E+04 0.  0.
        5    1    3    3  502    0  0.83483299759E+02  0.41731788212E+03 -0.54217483271E+03  0.68927448473E+03  0.46999998093E+01 0. -1.
       -5    1    3    3    0  502 -0.83483299759E+02 -0.41731788212E+03  0.44377151969E+03  0.61488123062E+03  0.46999998093E+01 0.  1.
</event>
<event>
 5   0  0.1475396E-04  0.1300357E+04  0.7818609E-02  0.9029282E-01
       -1   -1    0    0    0  501  0.00000000000E+00  0.00000000000E+00  0.51028881680E+03  0.51028881683E+03  0.50400001928E-02 0.  1.
        1   -1    0    0  501    0  0.00000000000E+00  0.00000000000E+00 -0.82841714088E+03  0.82841714090E+03  0.50400001928E-02 0. -1.
    10030    2    1    2    0    0  0.00000000000E+00  0.00000000000E+00 -0.31812832408E+03  0.13387059577E+04  0.13003568782E+04 0.  0.
        3    1    3    3  502    0  0.21725254302E+03  0.55208389096E+03  0.11474315004E+03  0.60428576914E+03  0.10100000352E+00 0.  1.
       -3    1    3    3    0  502 -0.21725254302E+03 -0.55208389096E+03 -0.43287147411E+03  0.73442018859E+03  0.10100000352E+00 0. -1.
</event>
<event>
 5   0  0.2723209E-04  0.1306672E+04  0.7818609E-02  0.9024291E-01
        2   -1    0    0  501    0  0.00000000000E+00  0.00000000000E+00  0.10116572573E+04  0.10116572573E+04  0.25500000920E-02 0.  1.
       -2   -1    0    0    0  501  0.00000000000E+00  0.00000000000E+00 -0.42192965600E+03  0.42192965601E+03  0.25500000920E-02 0. -1.
    10030    2    1    2    0    0  0.00000000000E+00  0.00000000000E+00  0.58972760130E+03  0.14335869133E+04  0.13066724128E+04 0.  0.
        2    1    3    3  502    0  0.35322062147E+03 -0.46484770802E+03  0.61660489155E+03  0.84914650760E+03  0.25500000920E-02 0.  1.
       -2    1    3    3    0  502 -0.35322062147E+03  0.46484770802E+03 -0.26877290250E+02  0.58444040571E+03  0.25500000920E-02 0. -1.
</event>
<event>
 5   0  0.2756984E-04  0.1300729E+04  0.7818609E-02  0.9028987E-01
       -2   -1    0    0    0  501  0.00000000000E+00  0.00000000000E+00  0.48067968953E+03  0.48067968954E+03  0.25500000920E-02 0.  1.
        2   -1    0    0  501    0  0.00000000000E+00  0.00000000000E+00 -0.87995034197E+03  0.87995034198E+03  0.25500000920E-02 0. -1.
    10030    2    1    2    0    0  0.00000000000E+00  0.00000000000E+00 -0.39927065244E+03  0.13606300315E+04  0.13007294218E+04 0.  0.
        3    1    3    3  502    0 -0.33903727146E+03 -0.50820668837E+03 -0.43296330364E+03  0.74878404233E+03  0.10100000352E+00 0. -1.
       -3    1    3    3    0  502  0.33903727146E+03  0.50820668837E+03  0.33692651197E+02  0.61184598919E+03  0.10100000352E+00 0.  1.
</event>
<event>
 5   0  0.1475396E-04  0.1300440E+04  0.7818609E-02  0.9029216E-01
        1   -1    0    0  501    0  0.00000000000E+00  0.00000000000E+00  0.10077872189E+04  0.10077872190E+04  0.50400001928E-02 0.  1.
       -1   -1    0    0    0  501  0.00000000000E+00  0.00000000000E+00 -0.41951925928E+03  0.41951925931E+03  0.50400001928E-02 0. -1.
    10030    2    1    2    0    0  0.00000000000E+00  0.00000000000E+00  0.58826795966E+03  0.14273064783E+04  0.13004401526E+04 0.  0.
        3    1    3    3  502    0  0.59247829318E+02 -0.43210170346E+03 -0.23516135257E+03  0.49550283486E+03  0.10100000352E+00 0. -1.
       -3    1    3    3    0  502 -0.59247829318E+02  0.43210170346E+03  0.82342931223E+03  0.93180364340E+03  0.10100000352E+00 0.  1.
</event>
<event>
 5   0  0.1476511E-04  0.1299653E+04  0.7818609E-02  0.9029841E-01
       -1   -1    0    0    0  501  0.00000000000E+00  0.00000000000E+00  0.11722137153E+04  0.11722137153E+04  0.50400001928E-02 0. -1.
        1   -1    0    0  501    0  0.00000000000E+00  0.00000000000E+00 -0.36023650184E+03  0.36023650188E+03  0.50400001928E-02 0.  1.
    10030    2    1    2    0    0  0.00000000000E+00  0.00000000000E+00  0.81197721344E+03  0.15324502172E+04  0.12996525201E+04 0.  0.
        2    1    3    3  502    0  0.33565905263E+03  0.53754793656E+03  0.23654988063E+03  0.67644706352E+03  0.25500000920E-02 0. -1.
       -2    1    3    3    0  502 -0.33565905263E+03 -0.53754793656E+03  0.57542733281E+03  0.85600315365E+03  0.25500000920E-02 0.  1.
</event>
<event>
 5   0  0.2723209E-04  0.1311913E+04  0.7818609E-02  0.9020171E-01
       -2   -1    0    0    0  501  0.00000000000E+00  0.00000000000E+00  0.46205272725E+03  0.46205272726E+03  0.25500000920E-02 0.  1.
        2   -1    0    0  501    0  0.00000000000E+00  0.00000000000E+00 -0.93123402724E+03  0.93123402724E+03  0.25500000920E-02 0. -1.
    10030    2    1    2    0    0  0.00000000000E+00  0.00000000000E+00 -0.46918129998E+03  0.13932867545E+04  0.13119134453E+04 0.  0.
        2    1    3    3  502    0 -0.17212213227E+03 -0.25409290640E+03  0.38110078680E+03  0.48931282755E+03  0.25500000920E-02 0.  1.
       -2    1    3    3    0  502  0.17212213227E+03  0.25409290640E+03 -0.85028208678E+03  0.90397392695E+03  0.25500000920E-02 0. -1.
</event>
<event>
 5   0  0.1430636E-04  0.1313433E+04  0.7818609E-02  0.9018980E-01
       -1   -1    0    0    0  501  0.00000000000E+00  0.00000000000E+00  0.40371716381E+03  0.40371716384E+03  0.50400001928E-02 0.  1.
        1   -1    0    0  501    0  0.00000000000E+00  0.00000000000E+00 -0.10682634552E+04  0.10682634552E+04  0.50400001928E-02 0. -1.
    10030    2    1    2    0    0  0.00000000000E+00  0.00000000000E+00 -0.66454629140E+03  0.14719806191E+04  0.13134325904E+04 0.  0.
        4    1    3    3  502    0  0.35376445495E+03 -0.54827942005E+03 -0.41550119519E+03  0.77356477954E+03  0.12699999809E+01 0. -1.
       -4    1    3    3    0  502 -0.35376445495E+03  0.54827942005E+03 -0.24904509621E+03  0.69841583952E+03  0.12699999809E+01 0.  1.
</event>
<event>
 5   0  0.1002887E-04  0.1299382E+04  0.7818609E-02  0.9030055E-01
       -3   -1    0    0    0  501  0.00000000000E+00  0.00000000000E+00  0.78405492542E+03  0.78405493192E+03  0.10100000352E+00 0. -1.
        3   -1    0    0  501    0  0.00000000000E+00  0.00000000000E+00 -0.53835333584E+03  0.53835334532E+03  0.10100000352E+00 0.  1.
    10030    2    1    2    0    0  0.00000000000E+00  0.00000000000E+00  0.24570158958E+03  0.13224082772E+04  0.12993823073E+04 0.  0.
        3    1    3    3  502    0  0.81803454138E+02 -0.54187474263E+03 -0.23230098629E+03  0.59521743946E+03  0.10100000352E+00 0.  1.
       -3    1    3    3    0  502 -0.81803454138E+02  0.54187474263E+03  0.47800257587E+03  0.72719083778E+03  0.10100000352E+00 0. -1.
</event>
<event>
 5   0  0.2794825E-04  0.1299198E+04  0.7818609E-02  0.9030202E-01
        2   -1    0    0  501    0  0.00000000000E+00  0.00000000000E+00  0.71143956329E+03  0.71143956330E+03  0.25500000920E-02 0.  1.
       -2   -1    0    0    0  501  0.00000000000E+00  0.00000000000E+00 -0.59313342126E+03  0.59313342127E+03  0.25500000920E-02 0. -1.
    10030    2    1    2    0    0  0.00000000000E+00  0.00000000000E+00  0.11830614203E+03  0.13045729846E+04  0.12991975711E+04 0.  0.
        1    1    3    3  502    0  0.93073938400E+02 -0.15319658854E+03  0.68611341592E+03  0.70914284336E+03  0.50400001928E-02 0.  1.
       -1    1    3    3    0  502 -0.93073938400E+02  0.15319658854E+03 -0.56780727389E+03  0.59543014121E+03  0.50400001928E-02 0. -1.
</event>
<event>
 5   0  0.1430636E-04  0.1294563E+04  0.7818609E-02  0.9033888E-01
        1   -1    0    0  501    0  0.00000000000E+00  0.00000000000E+00  0.81969495469E+03  0.81969495471E+03  0.50400001928E-02 0. -1.
       -1   -1    0    0    0  501  0.00000000000E+00  0.00000000000E+00 -0.51113312727E+03  0.51113312730E+03  0.50400001928E-02 0.  1.
    10030    2    1    2    0    0  0.00000000000E+00  0.00000000000E+00  0.30856182742E+03  0.13308280820E+04  0.12945628538E+04 0.  0.
        4    1    3    3  502    0 -0.45246967198E+03 -0.16255646677E+03 -0.29123957339E+03  0.56211699046E+03  0.12699999809E+01 0.  1.
       -4    1    3    3    0  502  0.45246967198E+03  0.16255646677E+03  0.59980140081E+03  0.76871109154E+03  0.12699999809E+01 0. -1.
</event>
<event>
 5   0  0.1475396E-04  0.1300231E+04  0.7818609E-02  0.9029382E-01
        1   -1    0    0  501    0  0.00000000000E+00  0.00000000000E+00  0.10021365954E+04  0.10021365954E+04  0.50400001928E-02 0. -1.
       -1   -1    0    0    0  501  0.00000000000E+00  0.00000000000E+00 -0.42174913670E+03  0.42174913673E+03  0.50400001928E-02 0.  1.
    10030    2    1    2    0    0  0.00000000000E+00  0.00000000000E+00  0.58038745873E+03  0.14238857322E+04  0.13002311241E+04 0.  0.
        3    1    3    3  502    0  0.94282113812E+02  0.15795799640E+02 -0.41401018390E+03  0.42490359712E+03  0.10100000352E+00 0.  1.
       -3    1    3    3    0  502 -0.94282113812E+02 -0.15795799640E+02  0.99439764263E+03  0.99898213505E+03  0.10100000352E+00 0. -1.
</event>
<event>
 5   0  0.1476511E-04  0.1306472E+04  0.7818609E-02  0.9024448E-01
        1   -1    0    0  501    0  0.00000000000E+00  0.00000000000E+00  0.14208104748E+04  0.14208104748E+04  0.50400001928E-02 0. -1.
       -1   -1    0    0    0  501  0.00000000000E+00  0.00000000000E+00 -0.30033370896E+03  0.30033370900E+03  0.50400001928E-02 0.  1.
    10030    2    1    2    0    0  0.00000000000E+00  0.00000000000E+00  0.11204767658E+04  0.17211441838E+04  0.13064720122E+04 0.  0.
        2    1    3    3  502    0 -0.10710435761E+03  0.28255407499E+03 -0.20272656091E+03  0.36387663736E+03  0.25500000920E-02 0.  1.
       -2    1    3    3    0  502  0.10710435761E+03 -0.28255407499E+03  0.13232033268E+04  0.13572675465E+04  0.25500000920E-02 0. -1.
</event>
<event>
 5   0  0.2794825E-04  0.1302292E+04  0.7818609E-02  0.9027749E-01
        2   -1    0    0  501    0  0.00000000000E+00  0.00000000000E+00  0.59046101173E+03  0.59046101174E+03  0.25500000920E-02 0. -1.
       -2   -1    0    0    0  501  0.00000000000E+00  0.00000000000E+00 -0.71806834343E+03  0.71806834343E+03  0.25500000920E-02 0.  1.
    10030    2    1    2    0    0  0.00000000000E+00  0.00000000000E+00 -0.12760733170E+03  0.13085293552E+04  0.13022923797E+04 0.  0.
        1    1    3    3  502    0  0.15278236934E+03  0.32304562301E+03 -0.61073623443E+03  0.70760135316E+03  0.50400001928E-02 0.  1.
       -1    1    3    3    0  502 -0.15278236934E+03 -0.32304562301E+03  0.48312890273E+03  0.60092800201E+03  0.50400001928E-02 0. -1.
</event>
<event>
 5   0  0.2661377E-04  0.1292873E+04  0.7818609E-02  0.9035236E-01
       -2   -1    0    0    0  501  0.00000000000E+00  0.00000000000E+00  0.21995699330E+03  0.21995699331E+03  0.25500000920E-02 0. -1.
        2   -1    0    0  501    0  0.00000000000E+00  0.00000000000E+00 -0.18998265160E+04  0.18998265160E+04  0.25500000920E-02 0.  1.
    10030    2    1    2    0    0  0.00000000000E+00  0.00000000000E+00 -0.16798695227E+04  0.21197835093E+04  0.12928729686E+04 0.  0.
        5    1    3    3  502    0 -0.54116166273E+03 -0.25475551937E+03 -0.12418913008E+04  0.13784311419E+04  0.46999998093E+01 0.  1.
       -5    1    3    3    0  502  0.54116166273E+03  0.25475551937E+03 -0.43797822191E+03  0.74135236745E+03  0.46999998093E+01 0. -1.
</event>
<event>
 5   0  0.1408341E-04  0.1299041E+04  0.7818609E-02  0.9030326E-01
        1   -1    0    0  501    0  0.00000000000E+00  0.00000000000E+00  0.12275727186E+04  0.12275727186E+04  0.50400001928E-02 0.  1.
       -1   -1    0    0    0  501  0.00000000000E+00  0.00000000000E+00 -0.34366731063E+03  0.34366731067E+03  0.50400001928E-02 0. -1.
    10030    2    1    2    0    0  0.00000000000E+00  0.00000000000E+00  0.88390540800E+03  0.15712400293E+04  0.12990405919E+04 0.  0.
        5    1    3    3  502    0  0.22746166695E+03 -0.18979564141E+03  0.11410759055E+04  0.11789136981E+04  0.46999998093E+01 0.  1.
       -5    1    3    3    0  502 -0.22746166695E+03  0.18979564141E+03 -0.25717049747E+03  0.39232633125E+03  0.46999998093E+01 0. -1.
</event>
<event>
 5   0  0.2573071E-04  0.1297277E+04  0.7818609E-02  0.9031727E-01
        2   -1    0    0  501    0  0.00000000000E+00  0.00000000000E+00  0.76668847556E+03  0.76668847556E+03  0.25500000920E-02 0. -1.
       -2   -1    0    0    0  501  0.00000000000E+00  0.00000000000E+00 -0.54876512940E+03  0.54876512941E+03  0.25500000920E-02 0.  1.
    10030    2    1    2    0    0  0.00000000000E+00  0.00000000000E+00  0.21792334616E+03  0.13154536050E+04  0.12972769951E+04 0.  0.
        4    1    3    3  502    0 -0.28464702554E+03  0.36636037918E+03 -0.35069587208E+03  0.58157808089E+03  0.12699999809E+01 0.  1.
       -4    1    3    3    0  502  0.28464702554E+03 -0.36636037918E+03  0.56861921824E+03  0.73387552407E+03  0.12699999809E+01 0. -1.
</event>
<event>
 5   0  0.1479690E-04  0.1303414E+04  0.7818609E-02  0.9026862E-01
       -1   -1    0    0    0  501  0.00000000000E+00  0.00000000000E+00  0.95036993030E+03  0.95036993031E+03  0.50400001928E-02 0.  1.
        1   -1    0    0  501    0  0.00000000000E+00  0.00000000000E+00 -0.44690159201E+03  0.44690159204E+03  0.50400001928E-02 0. -1.
    10030    2    1    2    0    0  0.00000000000E+00  0.00000000000E+00  0.50346833829E+03  0.13972715223E+04  0.13034137254E+04 0.  0.
        1    1    3    3  502    0 -0.51698701906E+03  0.28240742108E+03 -0.47070598356E+02  0.59096968671E+03  0.50400001928E-02 0. -1.
       -1    1    3    3    0  502  0.51698701906E+03 -0.28240742108E+03  0.55053893665E+03  0.80630183564E+03  0.50400001928E-02 0.  1.
</event>
<event>
 5   0  0.1408341E-04  0.1301744E+04  0.7818609E-02  0.9028183E-01
       -1   -1    0    0    0  501  0.00000000000E+00  0.00000000000E+00  0.79616940040E+03  0.79616940042E+03  0.50400001928E-02 0.  1.
        1   -1    0    0  501    0  0.00000000000E+00  0.00000000000E+00 -0.53209064838E+03  0.53209064840E+03  0.50400001928E-02 0. -1.
    10030    2    1    2    0    0  0.00000000000E+00  0.00000000000E+00  0.26407875203E+03  0.13282600488E+04  0.13017438957E+04 0.  0.
        5    1    3    3  502    0  0.58218259070E+02 -0.57673098811E+03 -0.16996972789E+03  0.60408591834E+03  0.46999998093E+01 0. -1.
       -5    1    3    3    0  502 -0.58218259070E+02  0.57673098811E+03  0.43404847992E+03  0.72417413048E+03  0.46999998093E+01 0.  1.
</event>
<event>
 5   0  0.1476511E-04  0.1295080E+04  0.7818609E-02  0.9033476E-01
       -1   -1    0    0    0  501  0.00000000000E+00  0.00000000000E+00  0.86749118040E+03  0.86749118041E+03  0.50400001928E-02 0. -1.
        1   -1    0    0  501    0  0.00000000000E+00  0.00000000000E+00 -0.48335746813E+03  0.48335746815E+03  0.50400001928E-02 0.  1.
    10030    2    1    2    0    0  0.00000000000E+00  0.00000000000E+00  0.38413371227E+03  0.13508486486E+04  0.12950804463E+04 0.  0.
        2    1    3    3  502    0 -0.54006726928E+03  0.30854695476E+03  0.42159495130E+01  0.62200615180E+03  0.25500000920E-02 0.  1.
       -2    1    3    3    0  502  0.54006726928E+03 -0.30854695476E+03  0.37991776276E+03  0.72884249677E+03  0.25500000920E-02 0. -1.
</event>
<event>
 5   0  0.1476511E-04  0.1293218E+04  0.7818609E-02  0.9034960E-01
        1   -1    0    0  501    0  0.00000000000E+00  0.00000000000E+00  0.12878163582E+04  0.12878163582E+04  0.50400001928E-02 0.  1.
       -1   -1    0    0    0  501  0.00000000000E+00  0.00000000000E+00 -0.32466070855E+03  0.32466070859E+03  0.50400001928E-02 0. -1.
    10030    2    1    2    0    0  0.00000000000E+00  0.00000000000E+00  0.96315564967E+03  0.16124770668E+04  0.12932182668E+04 0.  0.
        2    1    3    3  502    0  0.44522432882E+03 -0.38837804497E+03  0.80920186693E+03  0.10019330667E+04  0.25500000920E-02 0.  1.
       -2    1    3    3    0  502 -0.44522432882E+03  0.38837804497E+03  0.15395378274E+03  0.61054400007E+03  0.25500000920E-02 0. -1.
</event>
<event>
 5   0  0.1408341E-04  0.1299944E+04  0.7818609E-02  0.9029610E-01
        1   -1    0    0  501    0  0.00000000000E+00  0.00000000000E+00  0.90226737263E+03  0.90226737265E+03  0.50400001928E-02 0.  1.
       -1   -1    0    0    0  501  0.00000000000E+00  0.00000000000E+00 -0.46822441506E+03  0.46822441508E+03  0.50400001928E-02 0. -1.
    10030    2    1    2    0    0  0.00000000000E+00  0.00000000000E+00  0.43404295758E+03  0.13704917877E+04  0.12999440185E+04 0.  0.
        5    1    3    3  502    0 -0.43655464543E+03 -0.82620423751E+02  0.71714495048E+03  0.84363799278E+03  0.46999998093E+01 0.  1.
       -5    1    3    3    0  502  0.43655464543E+03  0.82620423751E+02 -0.28310199290E+03  0.52685379495E+03  0.46999998093E+01 0. -1.
</event>
<event>
 5   0  0.1408341E-04  0.1291416E+04  0.7818609E-02  0.9036400E-01
       -1   -1    0    0    0  501  0.00000000000E+00  0.00000000000E+00  0.52630401562E+03  0.52630401565E+03  0.50400001928E-02 0. -1.
        1   -1    0    0  501    0  0.00000000000E+00  0.00000000000E+00 -0.79220138176E+03  0.79220138177E+03  0.50400001928E-02 0.  1.
    10030    2    1    2    0    0  0.00000000000E+00  0.00000000000E+00 -0.26589736613E+03  0.13185053974E+04  0.12914159182E+04 0.  0.
        5    1    3    3  502    0  0.41304099573E+03  0.19796320244E+03 -0.59760451500E+03  0.75295786072E+03  0.46999998093E+01 0.  1.
       -5    1    3    3    0  502 -0.41304099573E+03 -0.19796320244E+03  0.33170714886E+03  0.56554753671E+03  0.46999998093E+01 0. -1.
</event>
<event>
 5   0  0.1476511E-04  0.1301074E+04  0.7818609E-02  0.9028714E-01
        1   -1    0    0  501    0  0.00000000000E+00  0.00000000000E+00  0.15169513361E+04  0.15169513361E+04  0.50400001928E-02 0. -1.
       -1   -1    0    0    0  501  0.00000000000E+00  0.00000000000E+00 -0.27897948747E+03  0.27897948751E+03  0.50400001928E-02 0.  1.
    10030    2    1    2    0    0  0.00000000000E+00  0.00000000000E+00  0.12379718486E+04  0.17959308236E+04  0.13010738738E+04 0.  0.
        2    1    3    3  502    0  0.11452652572E+03  0.44020643884E+03  0.12609580646E+04  0.13404899383E+04  0.25500000920E-02 0. -1.
       -2    1    3    3    0  502 -0.11452652572E+03 -0.44020643884E+03 -0.22986216011E+02  0.45544088532E+03  0.25500000920E-02 0.  1.
</event>
<event>
 5   0  0.1476511E-04  0.1298680E+04  0.7818609E-02  0.9030613E-01
        1   -1    0    0  501    0  0.00000000000E+00  0.00000000000E+00  0.60021433720E+03  0.60021433722E+03  0.50400001928E-02 0.  1.
       -1   -1    0    0    0  501  0.00000000000E+00  0.00000000000E+00 -0.70248600478E+03  0.70248600480E+03  0.50400001928E-02 0. -1.
    10030    2    1    2    0    0  0.00000000000E+00  0.00000000000E+00 -0.10227166758E+03  0.13027003420E+04  0.12986795937E+04 0.  0.
        2    1    3    3  502    0  0.26512118137E+03 -0.30911385597E+03  0.45619832087E+03  0.61152066583E+03  0.25500000920E-02 0.  1.
       -2    1    3    3    0  502 -0.26512118137E+03  0.30911385597E+03 -0.55846998845E+03  0.69117967619E+03  0.25500000920E-02 0. -1.
</event>
<event>
 5   0  0.1476511E-04  0.1299905E+04  0.7818609E-02  0.9029641E-01
        1   -1    0    0  501    0  0.00000000000E+00  0.00000000000E+00  0.26505084075E+04  0.26505084075E+04  0.50400001928E-02 0.  1.
       -1   -1    0    0    0  501  0.00000000000E+00  0.00000000000E+00 -0.15937997476E+03  0.15937997484E+03  0.50400001928E-02 0. -1.
    10030    2    1    2    0    0  0.00000000000E+00  0.00000000000E+00  0.24911284328E+04  0.28098883824E+04  0.12999045553E+04 0.  0.
        2    1    3    3  502    0  0.25394837887E+03  0.67934271057E+02  0.25304655401E+04  0.25440834683E+04  0.25500000920E-02 0.  1.
       -2    1    3    3    0  502 -0.25394837887E+03 -0.67934271057E+02 -0.39337107299E+02  0.26580491405E+03  0.25500000920E-02 0. -1.
</event>
<event>
 5   0  0.2794825E-04  0.1305636E+04  0.7818609E-02  0.9025108E-01
       -2   -1    0    0    0  501  0.00000000000E+00  0.00000000000E+00  0.12829267553E+04  0.12829267553E+04  0.25500000920E-02 0. -1.
        2   -1    0    0  501    0  0.00000000000E+00  0.00000000000E+00 -0.33218687867E+03  0.33218687868E+03  0.25500000920E-02 0.  1.
    10030    2    1    2    0    0  0.00000000000E+00  0.00000000000E+00  0.95073987666E+03  0.16151136340E+04  0.13056361429E+04 0.  0.
        1    1    3    3  502    0 -0.46854135884E+03 -0.37647717378E+03  0.79052277799E+03  0.99307216750E+03  0.50400001928E-02 0.  1.
       -1    1    3    3    0  502  0.46854135884E+03  0.37647717378E+03  0.16021709867E+03  0.62204146651E+03  0.50400001928E-02 0. -1.
</event>
<event>
 5   0  0.1408341E-04  0.1299280E+04  0.7818609E-02  0.9030136E-01
       -1   -1    0    0    0  501  0.00000000000E+00  0.00000000000E+00  0.14178490702E+04  0.14178490702E+04  0.50400001928E-02 0.  1.
        1   -1    0    0  501    0  0.00000000000E+00  0.00000000000E+00 -0.29765652932E+03  0.29765652936E+03  0.50400001928E-02 0. -1.
    10030    2    1    2    0    0  0.00000000000E+00  0.00000000000E+00  0.11201925409E+04  0.17155055996E+04  0.12992798519E+04 0.  0.
        5    1    3    3  502    0  0.24442306001E+03 -0.35938557457E+02 -0.23318726118E+03  0.33975373574E+03  0.46999998093E+01 0. -1.
       -5    1    3    3    0  502 -0.24442306001E+03  0.35938557457E+02  0.13533798021E+04  0.13757518638E+04  0.46999998093E+01 0.  1.
</event>
<event>
 5   0  0.1476511E-04  0.1299957E+04  0.7818609E-02  0.9029599E-01
        1   -1    0    0  501    0  0.00000000000E+00  0.00000000000E+00  0.69121129021E+03  0.69121129023E+03  0.50400001928E-02 0.  1.
       -1   -1    0    0    0  501  0.00000000000E+00  0.00000000000E+00 -0.61120581044E+03  0.61120581046E+03  0.50400001928E-02 0. -1.
    10030    2    1    2    0    0  0.00000000000E+00  0.00000000000E+00  0.80005479767E+02  0.13024171007E+04  0.12999574714E+04 0.  0.
        2    1    3    3  502    0 -0.37691333458E+02 -0.64887886724E+02  0.68685679798E+03  0.69094380047E+03  0.25500000920E-02 0.  1.
       -2    1    3    3    0  502  0.37691333458E+02  0.64887886724E+02 -0.60685131821E+03  0.61147330022E+03  0.25500000920E-02 0. -1.
</event>
<event>
 5   0  0.1479690E-04  0.1301083E+04  0.7818609E-02  0.9028707E-01
       -1   -1    0    0    0  501  0.00000000000E+00  0.00000000000E+00  0.14588287850E+04  0.14588287850E+04  0.50400001928E-02 0. -1.
        1   -1    0    0  501    0  0.00000000000E+00  0.00000000000E+00 -0.29009863008E+03  0.29009863012E+03  0.50400001928E-02 0.  1.
    10030    2    1    2    0    0  0.00000000000E+00  0.00000000000E+00  0.11687301549E+04  0.17489274151E+04  0.13010829829E+04 0.  0.
        1    1    3    3  502    0 -0.81604249972E+01 -0.37948030859E+03  0.12945506790E+04  0.13490490568E+04  0.50400001928E-02 0. -1.
       -1    1    3    3    0  502  0.81604249972E+01  0.37948030859E+03 -0.12582052408E+03  0.39987835832E+03  0.50400001928E-02 0.  1.
</event>
<event>
 5   0  0.2661377E-04  0.1300119E+04  0.7818609E-02  0.9029471E-01
       -2   -1    0    0    0  501  0.00000000000E+00  0.00000000000E+00  0.12971722819E+04  0.12971722819E+04  0.25500000920E-02 0. -1.
        2   -1    0    0  501    0  0.00000000000E+00  0.00000000000E+00 -0.32576803213E+03  0.32576803214E+03  0.25500000920E-02 0.  1.
    10030    2    1    2    0    0  0.00000000000E+00  0.00000000000E+00  0.97140424978E+03  0.16229403140E+04  0.13001188586E+04 0.  0.
        5    1    3    3  502    0 -0.19806521336E+03  0.15945773388E+03  0.12324938110E+04  0.12584592492E+04  0.46999998093E+01 0. -1.
       -5    1    3    3    0  502  0.19806521336E+03 -0.15945773388E+03 -0.26108956126E+03  0.36448106485E+03  0.46999998093E+01 0.  1.
</event>
<event>
 5   0  0.2661377E-04  0.1300845E+04  0.7818609E-02  0.9028895E-01
       -2   -1    0    0    0  501  0.00000000000E+00  0.00000000000E+00  0.88172006945E+03  0.88172006945E+03  0.25500000920E-02 0.  1.
        2   -1    0    0  501    0  0.00000000000E+00  0.00000000000E+00 -0.47980045077E+03  0.47980045078E+03  0.25500000920E-02 0. -1.
    10030    2    1    2    0    0  0.00000000000E+00  0.00000000000E+00  0.40191961868E+03  0.13615205202E+04  0.13008453971E+04 0.  0.
        5    1    3    3  502    0 -0.35524907224E+03  0.10356388352E+03 -0.35887203594E+03  0.51549840880E+03  0.46999998093E+01 0. -1.
       -5    1    3    3    0  502  0.35524907224E+03 -0.10356388352E+03  0.76079165462E+03  0.84602211143E+03  0.46999998093E+01 0.  1.
</event>
<event>
 5   0  0.2573071E-04  0.1299095E+04  0.7818609E-02  0.9030283E-01
       -2   -1    0    0    0  501  0.00000000000E+00  0.00000000000E+00  0.78779395902E+03  0.78779395903E+03  0.25500000920E-02 0.  1.
        2   -1    0    0  501    0  0.00000000000E+00  0.00000000000E+00 -0.53556131241E+03  0.53556131242E+03  0.25500000920E-02 0. -1.
    10030    2    1    2    0    0  0.00000000000E+00  0.00000000000E+00  0.25223264661E+03  0.13233552714E+04  0.12990950182E+04 0.  0.
        4    1    3    3  502    0 -0.43512241298E+02 -0.20070363706E+03  0.75385068013E+03  0.78132434104E+03  0.12699999809E+01 0.  1.
       -4    1    3    3    0  502  0.43512241298E+02  0.20070363706E+03 -0.50161803351E+03  0.54203093041E+03  0.12699999809E+01 0. -1.
</event>
<event>
 5   0  0.1408341E-04  0.1299099E+04  0.7818609E-02  0.9030280E-01
       -1   -1    0    0    0  501  0.00000000000E+00  0.00000000000E+00  0.40477722508E+03  0.40477722511E+03  0.50400001928E-02 0. -1.
        1   -1    0    0  501    0  0.00000000000E+00  0.00000000000E+00 -0.10423379819E+04  0.10423379819E+04  0.50400001928E-02 0.  1.
    10030    2    1    2    0    0  0.00000000000E+00  0.00000000000E+00 -0.63756075683E+03  0.14471152070E+04  0.12990991893E+04 0.  0.
        5    1    3    3  502    0  0.59825200163E+03  0.19334044259E+03 -0.50048061807E+03  0.80360993228E+03  0.46999998093E+01 0.  1.
       -5    1    3    3    0  502 -0.59825200163E+03 -0.19334044259E+03 -0.13708013876E+03  0.64350527475E+03  0.46999998093E+01 0. -1.
</event>
<event>
 5   0  0.2723209E-04  0.1299002E+04  0.7818609E-02  0.9030357E-01
        2   -1    0    0  501    0  0.00000000000E+00  0.00000000000E+00  0.40854331215E+03  0.40854331216E+03  0.25500000920E-02 0.  1.
       -2   -1    0    0    0  501  0.00000000000E+00  0.00000000000E+00 -0.10325752385E+04  0.10325752385E+04  0.25500000920E-02 0. -1.
    10030    2    1    2    0    0  0.00000000000E+00  0.00000000000E+00 -0.62403192631E+03  0.14411185506E+04  0.12990022448E+04 0.  0.
        2    1    3    3  502    0  0.23038854341E+03 -0.52011734758E+03  0.35726553085E+02  0.56998010736E+03  0.25500000920E-02 0.  1.
       -2    1    3    3    0  502 -0.23038854341E+03  0.52011734758E+03 -0.65975847940E+03  0.87113844326E+03  0.25500000920E-02 0. -1.
</event>
<event>
 5   0  0.1476511E-04  0.1300324E+04  0.7818609E-02  0.9029308E-01
       -1   -1    0    0    0  501  0.00000000000E+00  0.00000000000E+00  0.27600222286E+03  0.27600222290E+03  0.50400001928E-02 0.  1.
        1   -1    0    0  501    0  0.00000000000E+00  0.00000000000E+00 -0.15315477169E+04  0.15315477169E+04  0.50400001928E-02 0. -1.
    10030    2    1    2    0    0  0.00000000000E+00  0.00000000000E+00 -0.12555454941E+04  0.18075499398E+04  0.13003239202E+04 0.  0.
        2    1    3    3  502    0  0.66034860892E+02  0.64145585383E+03 -0.74311024074E+03  0.98388975255E+03  0.25500000920E-02 0.  1.
       -2    1    3    3    0  502 -0.66034860892E+02 -0.64145585383E+03 -0.51243525334E+03  0.82366018730E+03  0.25500000920E-02 0. -1.
</event>
<event>
 5   0  0.2723209E-04  0.1298855E+04  0.7818609E-02  0.9030473E-01
       -2   -1    0    0    0  501  0.00000000000E+00  0.00000000000E+00  0.47694890015E+03  0.47694890016E+03  0.25500000920E-02 0. -1.
        2   -1    0    0  501    0  0.00000000000E+00  0.00000000000E+00 -0.88427988816E+03  0.88427988817E+03  0.25500000920E-02 0.  1.
    10030    2    1    2    0    0  0.00000000000E+00  0.00000000000E+00 -0.40733098801E+03  0.13612287883E+04  0.12988553732E+04 0.  0.
        2    1    3    3  502    0  0.10877947002E+03 -0.58908338609E+03 -0.46651662211E+03  0.75926936431E+03  0.25500000920E-02 0.  1.
       -2    1    3    3    0  502 -0.10877947002E+03  0.58908338609E+03  0.59185634102E+02  0.60195942401E+03  0.25500000920E-02 0. -1.
</event>
<event>
 5   0  0.1408341E-04  0.1306621E+04  0.7818609E-02  0.9024331E-01
        1   -1    0    0  501    0  0.00000000000E+00  0.00000000000E+00  0.83677305986E+03  0.83677305987E+03  0.50400001928E-02 0.  1.
       -1   -1    0    0    0  501  0.00000000000E+00  0.00000000000E+00 -0.51007250650E+03  0.51007250652E+03  0.50400001928E-02 0. -1.
    10030    2    1    2    0    0  0.00000000000E+00  0.00000000000E+00  0.32670055336E+03  0.13468455664E+04  0.13066214938E+04 0.  0.
        5    1    3    3  502    0 -0.28418668969E+03 -0.58316619773E+03  0.83853086889E+02  0.65413937273E+03  0.46999998093E+01 0.  1.
       -5    1    3    3    0  502  0.28418668969E+03  0.58316619773E+03  0.24284746647E+03  0.69270619367E+03  0.46999998093E+01 0. -1.
</event>
<event>
 5   0  0.2573071E-04  0.1304208E+04  0.7818609E-02  0.9026235E-01
       -2   -1    0    0    0  501  0.00000000000E+00  0.00000000000E+00  0.21739911468E+03  0.21739911469E+03  0.25500000920E-02 0. -1.
        2   -1    0    0  501    0  0.00000000000E+00  0.00000000000E+00 -0.19560330837E+04  0.19560330837E+04  0.25500000920E-02 0.  1.
    10030    2    1    2    0    0  0.00000000000E+00  0.00000000000E+00 -0.17386339691E+04  0.21734321984E+04  0.13042083587E+04 0.  0.
        4    1    3    3  502    0 -0.31465852796E+03  0.44171123374E+03 -0.26587896717E+03  0.60399672294E+03  0.12699999809E+01 0. -1.
       -4    1    3    3    0  502  0.31465852796E+03 -0.44171123374E+03 -0.14727550019E+04  0.15694354755E+04  0.12699999809E+01 0.  1.
</event>
<event>
 5   0  0.1479690E-04  0.1302771E+04  0.7818609E-02  0.9027371E-01
        1   -1    0    0  501    0  0.00000000000E+00  0.00000000000E+00  0.15735263024E+04  0.15735263024E+04  0.50400001928E-02 0.  1.
       -1   -1    0    0    0  501  0.00000000000E+00  0.00000000000E+00 -0.26965097662E+03  0.26965097667E+03  0.50400001928E-02 0. -1.
    10030    2    1    2    0    0  0.00000000000E+00  0.00000000000E+00  0.13038753258E+04  0.18431772791E+04  0.13027707461E+04 0.  0.
        1    1    3    3  502    0 -0.34985797379E+03 -0.17296225394E+03 -0.85920138878E+02  0.39962333941E+03  0.50400001928E-02 0. -1.
       -1    1    3    3    0  502  0.34985797379E+03  0.17296225394E+03  0.13897954647E+04  0.14435539397E+04  0.50400001928E-02 0.  1.
</event>
<event>
 5   0  0.1408341E-04  0.1300327E+04  0.7818609E-02  0.9029306E-01
        1   -1    0    0  501    0  0.00000000000E+00  0.00000000000E+00  0.13471936234E+04  0.13471936234E+04  0.50400001928E-02 0.  1.
       -1   -1    0    0    0  501  0.00000000000E+00  0.00000000000E+00 -0.31377259069E+03  0.31377259073E+03  0.50400001928E-02 0. -1.
    10030    2    1    2    0    0  0.00000000000E+00  0.00000000000E+00  0.10334210327E+04  0.16609662141E+04  0.13003267795E+04 0.  0.
        5    1    3    3  502    0  0.27034981467E+03  0.54298044554E+03  0.81565721636E+03  0.10164819581E+04  0.46999998093E+01 0.  1.
       -5    1    3    3    0  502 -0.27034981467E+03 -0.54298044554E+03  0.21776381631E+03  0.64448425600E+03  0.46999998093E+01 0. -1.
</event>
<event>
 5   0  0.1479690E-04  0.1299095E+04  0.7818609E-02  0.9030283E-01
        1   -1    0    0  501    0  0.00000000000E+00  0.00000000000E+00  0.77345564163E+03  0.77345564165E+03  0.50400001928E-02 0.  1.
       -1   -1    0    0    0  501  0.00000000000E+00  0.00000000000E+00 -0.54548915773E+03  0.54548915776E+03  0.50400001928E-02 0. -1.
    10030    2    1    2    0    0  0.00000000000E+00  0.00000000000E+00  0.22796648390E+03  0.13189447994E+04  0.12990945563E+04 0.  0.
        1    1    3    3  502    0  0.82755472929E+02 -0.59377520766E+03 -0.13982499758E+03  0.61560417112E+03  0.50400001928E-02 0. -1.
       -1    1    3    3    0  502 -0.82755472929E+02  0.59377520766E+03  0.36779148148E+03  0.70334062829E+03  0.50400001928E-02 0.  1.
</event>
<event>
 5   0  0.2723209E-04  0.1298395E+04  0.7818609E-02  0.9030839E-01
       -2   -1    0    0    0  501  0.00000000000E+00  0.00000000000E+00  0.46478516770E+03  0.46478516771E+03  0.25500000920E-02 0.  1.
        2   -1    0    0  501    0  0.00000000000E+00  0.00000000000E+00 -0.90677951179E+03  0.90677951179E+03  0.25500000920E-02 0. -1.
    10030    2    1    2    0    0  0.00000000000E+00  0.00000000000E+00 -0.44199434408E+03  0.13715646795E+04  0.12983954212E+04 0.  0.
        2    1    3    3  502    0  0.61608023326E+03 -0.13230968539E+03 -0.55999741368E+02  0.63261100030E+03  0.25500000920E-02 0.  1.
       -2    1    3    3    0  502 -0.61608023326E+03  0.13230968539E+03 -0.38599460271E+03  0.73895367920E+03  0.25500000920E-02 0. -1.
</event>
<event>
 5   0  0.2756984E-04  0.1299225E+04  0.7818609E-02  0.9030180E-01
       -2   -1    0    0    0  501  0.00000000000E+00  0.00000000000E+00  0.39715411746E+03  0.39715411747E+03  0.25500000920E-02 0. -1.
        2   -1    0    0  501    0  0.00000000000E+00  0.00000000000E+00 -0.10625508632E+04  0.10625508632E+04  0.25500000920E-02 0.  1.
    10030    2    1    2    0    0  0.00000000000E+00  0.00000000000E+00 -0.66539674570E+03  0.14597049806E+04  0.12992250772E+04 0.  0.
        3    1    3    3  502    0  0.34997110086E+03  0.37903436299E+03 -0.77623916690E+03  0.93203759269E+03  0.10100000352E+00 0.  1.
       -3    1    3    3    0  502 -0.34997110086E+03 -0.37903436299E+03  0.11084242120E+03  0.52766738795E+03  0.10100000352E+00 0. -1.
</event>
<event>
 5   0  0.1408341E-04  0.1301023E+04  0.7818609E-02  0.9028755E-01
        1   -1    0    0  501    0  0.00000000000E+00  0.00000000000E+00  0.10118486316E+04  0.10118486317E+04  0.50400001928E-02 0.  1.
       -1   -1    0    0    0  501  0.00000000000E+00  0.00000000000E+00 -0.41820980515E+03  0.41820980519E+03  0.50400001928E-02 0. -1.
    10030    2    1    2    0    0  0.00000000000E+00  0.00000000000E+00  0.59363882649E+03  0.14300584368E+04  0.13010227041E+04 0.  0.
        5    1    3    3  502    0 -0.50724290402E+03  0.34730441327E+03  0.63060161925E+02  0.61799222744E+03  0.46999998093E+01 0. -1.
       -5    1    3    3    0  502  0.50724290402E+03 -0.34730441327E+03  0.53057866457E+03  0.81206620940E+03  0.46999998093E+01 0.  1.
</event>
<event>
 5   0  0.1002887E-04  0.1298480E+04  0.7818609E-02  0.9030771E-01
        4   -1    0    0  501    0  0.00000000000E+00  0.00000000000E+00  0.56691737033E+03  0.56691879284E+03  0.12699999809E+01 0. -1.
       -4   -1    0    0    0  501  0.00000000000E+00  0.00000000000E+00 -0.74351423460E+03  0.74351531925E+03  0.12699999809E+01 0.  1.
    10030    2    1    2    0    0  0.00000000000E+00  0.00000000000E+00 -0.17659686428E+03  0.13104341121E+04  0.12984803078E+04 0.  0.
        2    1    3    3  502    0 -0.58253767527E+02 -0.62661791771E+03  0.72761679427E+02  0.63351225578E+03  0.25500000920E-02 0. -1.
       -2    1    3    3    0  502  0.58253767527E+02  0.62661791771E+03 -0.24935854370E+03  0.67692185631E+03  0.25500000920E-02 0.  1.
</event>
<event>
 5   0  0.2661377E-04  0.1320257E+04  0.7818609E-02  0.9013654E-01
       -2   -1    0    0    0  501  0.00000000000E+00  0.00000000000E+00  0.91519198925E+03  0.91519198926E+03  0.25500000920E-02 0.  1.
        2   -1    0    0  501    0  0.00000000000E+00  0.00000000000E+00 -0.47615093707E+03  0.47615093708E+03  0.25500000920E-02 0. -1.
    10030    2    1    2    0    0  0.00000000000E+00  0.00000000000E+00  0.43904105218E+03  0.13913429263E+04  0.13202568285E+04 0.  0.
        5    1    3    3  502    0 -0.13770433634E+03 -0.15171301461E+03 -0.44177568240E+03  0.48699811767E+03  0.46999998093E+01 0. -1.
       -5    1    3    3    0  502  0.13770433634E+03  0.15171301461E+03  0.88081673458E+03  0.90434480867E+03  0.46999998093E+01 0.  1.
</event>
<event>
 5   0  0.2661377E-04  0.1299627E+04  0.7818609E-02  0.9029861E-01
        2   -1    0    0  501    0  0.00000000000E+00  0.00000000000E+00  0.34964213575E+03  0.34964213576E+03  0.25500000920E-02 0. -1.
       -2   -1    0    0    0  501  0.00000000000E+00  0.00000000000E+00 -0.12076842768E+04  0.12076842768E+04  0.25500000920E-02 0.  1.
    10030    2    1    2    0    0  0.00000000000E+00  0.00000000000E+00 -0.85804214108E+03  0.15573264126E+04  0.12996265769E+04 0.  0.
        5    1    3    3  502    0 -0.33779549005E+03  0.39650405439E+03  0.36485457170E+02  0.52218247464E+03  0.46999998093E+01 0. -1.
       -5    1    3    3    0  502  0.33779549005E+03 -0.39650405439E+03 -0.89452759825E+03  0.10351439379E+04  0.46999998093E+01 0.  1.
</event>
<event>
 5   0  0.1479690E-04  0.1303526E+04  0.7818609E-02  0.9026773E-01
        1   -1    0    0  501    0  0.00000000000E+00  0.00000000000E+00  0.47084930445E+03  0.47084930447E+03  0.50400001928E-02 0. -1.
       -1   -1    0    0    0  501  0.00000000000E+00  0.00000000000E+00 -0.90218922756E+03  0.90218922758E+03  0.50400001928E-02 0.  1.
    10030    2    1    2    0    0  0.00000000000E+00  0.00000000000E+00 -0.43133992312E+03  0.13730385321E+04  0.13035262488E+04 0.  0.
        1    1    3    3  502    0  0.31750753632E+03 -0.38098182539E+03 -0.66111242162E+03  0.82645497212E+03  0.50400001928E-02 0.  1.
       -1    1    3    3    0  502 -0.31750753632E+03  0.38098182539E+03  0.22977249850E+03  0.54658355993E+03  0.50400001928E-02 0. -1.
</event>
<event>
 5   0  0.2573071E-04  0.1300476E+04  0.7818609E-02  0.9029188E-01
       -2   -1    0    0    0  501  0.00000000000E+00  0.00000000000E+00  0.18824874599E+04  0.18824874599E+04  0.25500000920E-02 0.  1.
        2   -1    0    0  501    0  0.00000000000E+00  0.00000000000E+00 -0.22460154402E+03  0.22460154404E+03  0.25500000920E-02 0. -1.
    10030    2    1    2    0    0  0.00000000000E+00  0.00000000000E+00  0.16578859159E+04  0.21070890040E+04  0.13004762053E+04 0.  0.
        4    1    3    3  502    0  0.48849054832E+03 -0.26144612550E+03  0.13803758372E+04  0.14874192943E+04  0.12699999809E+01 0.  1.
       -4    1    3    3    0  502 -0.48849054832E+03  0.26144612550E+03  0.27751007869E+03  0.61966970961E+03  0.12699999809E+01 0. -1.
</event>
<event>
 5   0  0.1479690E-04  0.1296871E+04  0.7818609E-02  0.9032050E-01
        1   -1    0    0  501    0  0.00000000000E+00  0.00000000000E+00  0.10025706113E+04  0.10025706113E+04  0.50400001928E-02 0. -1.
       -1   -1    0    0    0  501  0.00000000000E+00  0.00000000000E+00 -0.41939060283E+03  0.41939060286E+03  0.50400001928E-02 0.  1.
    10030    2    1    2    0    0  0.00000000000E+00  0.00000000000E+00  0.58318000850E+03  0.14219612142E+04  0.12968711472E+04 0.  0.
        1    1    3    3  502    0  0.16127012464E+03  0.46574606081E+03 -0.17040848477E+03  0.52150407282E+03  0.50400001928E-02 0.  1.
       -1    1    3    3    0  502 -0.16127012464E+03 -0.46574606081E+03  0.75358849327E+03  0.90045714138E+03  0.50400001928E-02 0. -1.
</event>
<event>
 5   0  0.1475396E-04  0.1299586E+04  0.7818609E-02  0.9029893E-01
        1   -1    0    0  501    0  0.00000000000E+00  0.00000000000E+00  0.12157324376E+04  0.12157324376E+04  0.50400001928E-02 0.  1.
       -1   -1    0    0    0  501  0.00000000000E+00  0.00000000000E+00 -0.34730607133E+03  0.34730607137E+03  0.50400001928E-02 0. -1.
    10030    2    1    2    0    0  0.00000000000E+00  0.00000000000E+00  0.86842636625E+03  0.15630385090E+04  0.12995864830E+04 0.  0.
        3    1    3    3  502    0 -0.30210617113E+03  0.51663366599E+03  0.73860531808E+03  0.95063994739E+03  0.10100000352E+00 0.  1.
       -3    1    3    3    0  502  0.30210617113E+03 -0.51663366599E+03  0.12982104817E+03  0.61239856157E+03  0.10100000352E+00 0. -1.
</event>
<event>
 5   0  0.1476511E-04  0.1300375E+04  0.7818609E-02  0.9029268E-01
        1   -1    0    0  501    0  0.00000000000E+00  0.00000000000E+00  0.13538319676E+03  0.13538319685E+03  0.50400001928E-02 0. -1.
       -1   -1    0    0    0  501  0.00000000000E+00  0.00000000000E+00 -0.31225735032E+04  0.31225735032E+04  0.50400001928E-02 0.  1.
    10030    2    1    2    0    0  0.00000000000E+00  0.00000000000E+00 -0.29871903064E+04  0.32579567000E+04  0.13003753045E+04 0.  0.
        2    1    3    3  502    0  0.64779694706E+03 -0.49220378180E+02 -0.15589496715E+04  0.16889013022E+04  0.25500000920E-02 0.  1.
       -2    1    3    3    0  502 -0.64779694706E+03  0.49220378180E+02 -0.14282406349E+04  0.15690553979E+04  0.25500000920E-02 0. -1.
</event>
<event>
 5   0  0.2573071E-04  0.1301661E+04  0.7818609E-02  0.9028249E-01
       -2   -1    0    0    0  501  0.00000000000E+00  0.00000000000E+00  0.42893973813E+03  0.42893973813E+03  0.25500000920E-02 0. -1.
        2   -1    0    0  501    0  0.00000000000E+00  0.00000000000E+00 -0.98750556302E+03  0.98750556302E+03  0.25500000920E-02 0.  1.
    10030    2    1    2    0    0  0.00000000000E+00  0.00000000000E+00 -0.55856582489E+03  0.14164453012E+04  0.13016610582E+04 0.  0.
        4    1    3    3  502    0  0.41666047866E+03 -0.28163858154E+03 -0.72881246522E+03  0.88549165296E+03  0.12699999809E+01 0.  1.
       -4    1    3    3    0  502 -0.41666047866E+03  0.28163858154E+03  0.17024664033E+03  0.53095364820E+03  0.12699999809E+01 0. -1.
</event>
<event>
 5   0  0.1430636E-04  0.1296535E+04  0.7818609E-02  0.9032318E-01
       -1   -1    0    0    0  501  0.00000000000E+00  0.00000000000E+00  0.40065974049E+03  0.40065974052E+03  0.50400001928E-02 0. -1.
        1   -1    0    0  501    0  0.00000000000E+00  0.00000000000E+00 -0.10488961674E+04  0.10488961674E+04  0.50400001928E-02 0.  1.
    10030    2    1    2    0    0  0.00000000000E+00  0.00000000000E+00 -0.64823642694E+03  0.14495559080E+04  0.12965345599E+04 0.  0.
        4    1    3    3  502    0  0.47266353212E+03  0.25584368313E+03  0.81127926988E+02  0.54355327084E+03  0.12699999809E+01 0. -1.
       -4    1    3    3    0  502 -0.47266353212E+03 -0.25584368313E+03 -0.72936435392E+03  0.90600263712E+03  0.12699999809E+01 0.  1.
</event>
<event>
 5   0  0.1475396E-04  0.1300670E+04  0.7818609E-02  0.9029034E-01
        1   -1    0    0  501    0  0.00000000000E+00  0.00000000000E+00  0.10510731154E+04  0.10510731155E+04  0.50400001928E-02 0.  1.
       -1   -1    0    0    0  501  0.00000000000E+00  0.00000000000E+00 -0.40238451436E+03  0.40238451439E+03  0.50400001928E-02 0. -1.
    10030    2    1    2    0    0  0.00000000000E+00  0.00000000000E+00  0.64868860108E+03  0.14534576299E+04  0.13006698969E+04 0.  0.
        3    1    3    3  502    0  0.14237828869E+03  0.20287967484E+03  0.99622430710E+03  0.10265936975E+04  0.10100000352E+00 0.  1.
       -3    1    3    3    0  502 -0.14237828869E+03 -0.20287967484E+03 -0.34753570602E+03  0.42686393232E+03  0.10100000352E+00 0. -1.
</event>
<event>
 5   0  0.2794825E-04  0.1302820E+04  0.7818609E-02  0.9027332E-01
       -2   -1    0    0    0  501  0.00000000000E+00  0.00000000000E+00  0.25995781312E+03  0.25995781313E+03  0.25500000920E-02 0.  1.
        2   -1    0    0  501    0  0.00000000000E+00  0.00000000000E+00 -0.16323227469E+04  0.16323227469E+04  0.25500000920E-02 0. -1.
    10030    2    1    2    0    0  0.00000000000E+00  0.00000000000E+00 -0.13723649338E+04  0.18922805601E+04  0.13028200975E+04 0.  0.
        1    1    3    3  502    0 -0.64106421152E+03 -0.10349386966E+03 -0.61126158357E+03  0.89180436640E+03  0.50400001928E-02 0.  1.
       -1    1    3    3    0  502  0.64106421152E+03  0.10349386966E+03 -0.76110335025E+03  0.10004761937E+04  0.50400001928E-02 0. -1.
</event>
<event>
 5   0  0.2661377E-04  0.1300419E+04  0.7818609E-02  0.9029233E-01
       -2   -1    0    0    0  501  0.00000000000E+00  0.00000000000E+00  0.57189821031E+03  0.57189821031E+03  0.25500000920E-02 0. -1.
        2   -1    0    0  501    0  0.00000000000E+00  0.00000000000E+00 -0.73924449325E+03  0.73924449326E+03  0.25500000920E-02 0.  1.
    10030    2    1    2    0    0  0.00000000000E+00  0.00000000000E+00 -0.16734628294E+03  0.13111427036E+04  0.13004193211E+04 0.  0.
        5    1    3    3  502    0  0.23812913471E+03 -0.45190793504E+03 -0.48926417488E+03  0.70733852530E+03  0.46999998093E+01 0.  1.
       -5    1    3    3    0  502 -0.23812913471E+03  0.45190793504E+03  0.32191789194E+03  0.60380417827E+03  0.46999998093E+01 0. -1.
</event>
<event>
 5   0  0.1430636E-04  0.1322787E+04  0.7818609E-02  0.9011688E-01
        1   -1    0    0  501    0  0.00000000000E+00  0.00000000000E+00  0.78256472114E+03  0.78256472116E+03  0.50400001928E-02 0. -1.
       -1   -1    0    0    0  501  0.00000000000E+00  0.00000000000E+00 -0.55898391030E+03  0.55898391032E+03  0.50400001928E-02 0.  1.
    10030    2    1    2    0    0  0.00000000000E+00  0.00000000000E+00  0.22358081084E+03  0.13415486315E+04  0.13227865858E+04 0.  0.
        4    1    3    3  502    0  0.13951334434E+03 -0.62343671370E+03 -0.61816301386E+02  0.64184123992E+03  0.12699999809E+01 0.  1.
       -4    1    3    3    0  502 -0.13951334434E+03  0.62343671370E+03  0.28539711223E+03  0.69970739157E+03  0.12699999809E+01 0. -1.
</event>
<event>
 5   0  0.2573071E-04  0.1299314E+04  0.7818609E-02  0.9030110E-01
        2   -1    0    0  501    0  0.00000000000E+00  0.00000000000E+00  0.19122454957E+04  0.19122454957E+04  0.25500000920E-02 0. -1.
       -2   -1    0    0    0  501  0.00000000000E+00  0.00000000000E+00 -0.22071119826E+03  0.22071119827E+03  0.25500000920E-02 0.  1.
    10030    2    1    2    0    0  0.00000000000E+00  0.00000000000E+00  0.16915342975E+04  0.21329566940E+04  0.12993136569E+04 0.  0.
        4    1    3    3  502    0  0.55164671283E+03  0.40222817150E+02  0.14051669618E+04  0.15101085306E+04  0.12699999809E+01 0.  1.
       -4    1    3    3    0  502 -0.55164671283E+03 -0.40222817150E+02  0.28636733567E+03  0.62284816339E+03  0.12699999809E+01 0. -1.
</event>
<event>
 5   0  0.2723209E-04  0.1301364E+04  0.7818609E-02  0.9028484E-01
        2   -1    0    0  501    0  0.00000000000E+00  0.00000000000E+00  0.83358487134E+03  0.83358487134E+03  0.25500000920E-02 0.  1.
       -2   -1    0    0    0  501  0.00000000000E+00  0.00000000000E+00 -0.50791096346E+03  0.50791096347E+03  0.25500000920E-02 0. -1.
    10030    2    1    2    0    0  0.00000000000E+00  0.00000000000E+00  0.32567390787E+03  0.13414958348E+04  0.13013637388E+04 0.  0.
        2    1    3    3  502    0 -0.35033016277E+03  0.29787544880E+03 -0.31171376340E+03  0.55554160622E+03  0.25500000920E-02 0. -1.
       -2    1    3    3    0  502  0.35033016277E+03 -0.29787544880E+03  0.63738767127E+03  0.78595422859E+03  0.25500000920E-02 0.  1.
</event>
<event>
 5   0  0.1479690E-04  0.1300658E+04  0.7818609E-02  0.9029044E-01
       -1   -1    0    0    0  501  0.00000000000E+00  0.00000000000E+00  0.61037519907E+03  0.61037519909E+03  0.50400001928E-02 0.  1.
        1   -1    0    0  501    0  0.00000000000E+00  0.00000000000E+00 -0.69289804765E+03  0.69289804767E+03  0.50400001928E-02 0. -1.
    10030    2    1    2    0    0  0.00000000000E+00  0.00000000000E+00 -0.82522848576E+02  0.13032732468E+04  0.13006579624E+04 0.  0.
        1    1    3    3  502    0  0.55361589244E+03 -0.48826486543E+02  0.29713527383E+03  0.63020945180E+03  0.50400001928E-02 0.  1.
       -1    1    3    3    0  502 -0.55361589244E+03  0.48826486543E+02 -0.37965812241E+03  0.67306379496E+03  0.50400001928E-02 0. -1.
</event>
<event>
 5   0  0.2723209E-04  0.1325108E+04  0.7818609E-02  0.9009888E-01
        2   -1    0    0  501    0  0.00000000000E+00  0.00000000000E+00  0.18752526544E+04  0.18752526544E+04  0.25500000920E-02 0.  1.
       -2   -1    0    0    0  501  0.00000000000E+00  0.00000000000E+00 -0.23408992710E+03  0.23408992712E+03  0.25500000920E-02 0. -1.
    10030    2    1    2    0    0  0.00000000000E+00  0.00000000000E+00  0.16411627273E+04  0.21093425815E+04  0.13251079310E+04 0.  0.
        2    1    3    3  502    0  0.48062439139E+03 -0.26930824597E+03  0.23473059124E+03  0.59885322694E+03  0.25500000920E-02 0. -1.
       -2    1    3    3    0  502 -0.48062439139E+03  0.26930824597E+03  0.14064321360E+04  0.15104893545E+04  0.25500000920E-02 0.  1.
</event>
<event>
 5   0  0.1476511E-04  0.1300744E+04  0.7818609E-02  0.9028975E-01
        1   -1    0    0  501    0  0.00000000000E+00  0.00000000000E+00  0.60480331718E+03  0.60480331721E+03  0.50400001928E-02 0.  1.
       -1   -1    0    0    0  501  0.00000000000E+00  0.00000000000E+00 -0.69937404455E+03  0.69937404457E+03  0.50400001928E-02 0. -1.
    10030    2    1    2    0    0  0.00000000000E+00  0.00000000000E+00 -0.94570727365E+02  0.13041773618E+04  0.13007440057E+04 0.  0.
        2    1    3    3  502    0 -0.28227790818E+03 -0.52631071437E+03  0.21088206321E+03  0.63336800527E+03  0.25500000920E-02 0.  1.
       -2    1    3    3    0  502  0.28227790818E+03  0.52631071437E+03 -0.30545279057E+03  0.67080935651E+03  0.25500000920E-02 0. -1.
</event>
<event>
 5   0  0.1430636E-04  0.1296441E+04  0.7818609E-02  0.9032392E-01
        1   -1    0    0  501    0  0.00000000000E+00  0.00000000000E+00  0.67898036272E+03  0.67898036273E+03  0.50400001928E-02 0. -1.
       -1   -1    0    0    0  501  0.00000000000E+00  0.00000000000E+00 -0.61885400817E+03  0.61885400819E+03  0.50400001928E-02 0.  1.
    10030    2    1    2    0    0  0.00000000000E+00  0.00000000000E+00  0.60126354550E+02  0.12978343709E+04  0.12964408493E+04 0.  0.
        4    1    3    3  502    0  0.42682080384E+03  0.83546566714E+01  0.51838080151E+03  0.67154007114E+03  0.12699999809E+01 0. -1.
       -4    1    3    3    0  502 -0.42682080384E+03 -0.83546566714E+01 -0.45825444696E+03  0.62629429978E+03  0.12699999809E+01 0.  1.
</event>
<event>
 5   0  0.2794825E-04  0.1301053E+04  0.7818609E-02  0.9028731E-01
       -2   -1    0    0    0  501  0.00000000000E+00  0.00000000000E+00  0.42102507089E+03  0.42102507090E+03  0.25500000920E-02 0.  1.
        2   -1    0    0  501    0  0.00000000000E+00  0.00000000000E+00 -0.10051293429E+04  0.10051293429E+04  0.25500000920E-02 0. -1.
    10030    2    1    2    0    0  0.00000000000E+00  0.00000000000E+00 -0.58410427201E+03  0.14261544138E+04  0.13010528857E+04 0.  0.
        1    1    3    3  502    0  0.49701581479E+03  0.21962856508E+03  0.10000223639E+03  0.55250508963E+03  0.50400001928E-02 0.  1.
       -1    1    3    3    0  502 -0.49701581479E+03 -0.21962856508E+03 -0.68410650840E+03  0.87364932417E+03  0.50400001928E-02 0. -1.
</event>
<event>
 5   0  0.2723209E-04  0.1303492E+04  0.7818609E-02  0.9026801E-01
       -2   -1    0    0    0  501  0.00000000000E+00  0.00000000000E+00  0.11463301132E+04  0.11463301132E+04  0.25500000920E-02 0. -1.
        2   -1    0    0  501    0  0.00000000000E+00  0.00000000000E+00 -0.37055020558E+03  0.37055020559E+03  0.25500000920E-02 0.  1.
    10030    2    1    2    0    0  0.00000000000E+00  0.00000000000E+00  0.77577990764E+03  0.15168803188E+04  0.13034920163E+04 0.  0.
        2    1    3    3  502    0 -0.52882622521E+03 -0.14054129187E+03 -0.24140259667E+02  0.54771505670E+03  0.25500000920E-02 0.  1.
       -2    1    3    3    0  502  0.52882622521E+03  0.14054129187E+03  0.79992016730E+03  0.96916526210E+03  0.25500000920E-02 0. -1.
</event>
<event>
 5   0  0.1479690E-04  0.1299607E+04  0.7818609E-02  0.9029877E-01
        1   -1    0    0  501    0  0.00000000000E+00  0.00000000000E+00  0.67723682130E+03  0.67723682132E+03  0.50400001928E-02 0. -1.
       -1   -1    0    0    0  501  0.00000000000E+00  0.00000000000E+00 -0.62348148815E+03  0.62348148817E+03  0.50400001928E-02 0.  1.
    10030    2    1    2    0    0  0.00000000000E+00  0.00000000000E+00  0.53755333159E+02  0.13007183095E+04  0.12996070501E+04 0.  0.
        1    1    3    3  502    0 -0.22222283034E+03  0.17460980778E+03 -0.55874918419E+03  0.62615670734E+03  0.50400001928E-02 0.  1.
       -1    1    3    3    0  502  0.22222283034E+03 -0.17460980778E+03  0.61250451735E+03  0.67456160215E+03  0.50400001928E-02 0. -1.
</event>
<event>
 5   0  0.1476511E-04  0.1299584E+04  0.7818609E-02  0.9029895E-01
        1   -1    0    0  501    0  0.00000000000E+00  0.00000000000E+00  0.64068076413E+03  0.64068076415E+03  0.50400001928E-02 0. -1.
       -1   -1    0    0    0  501  0.00000000000E+00  0.00000000000E+00 -0.65903325697E+03  0.65903325699E+03  0.50400001928E-02 0.  1.
    10030    2    1    2    0    0  0.00000000000E+00  0.00000000000E+00 -0.18352492846E+02  0.12997140211E+04  0.12995844423E+04 0.  0.
        2    1    3    3  502    0  0.37577110661E+03 -0.42239887909E+03  0.31117614575E+03  0.64533350394E+03  0.25500000920E-02 0. -1.
       -2    1    3    3    0  502 -0.37577110661E+03  0.42239887909E+03 -0.32952863860E+03  0.65438051719E+03  0.25500000920E-02 0.  1.
</event>
<event>
 5   0  0.2794825E-04  0.1303844E+04  0.7818609E-02  0.9026523E-01
        2   -1    0    0  501    0  0.00000000000E+00  0.00000000000E+00  0.19896093205E+04  0.19896093205E+04  0.25500000920E-02 0.  1.
       -2   -1    0    0    0  501  0.00000000000E+00  0.00000000000E+00 -0.21361079393E+03  0.21361079394E+03  0.25500000920E-02 0. -1.
    10030    2    1    2    0    0  0.00000000000E+00  0.00000000000E+00  0.17759985266E+04  0.22032201144E+04  0.13038435897E+04 0.  0.
        1    1    3    3  502    0  0.52482900875E+03  0.38672474386E+03  0.88679179317E+03  0.11006367250E+04  0.50400001928E-02 0. -1.
       -1    1    3    3    0  502 -0.52482900875E+03 -0.38672474386E+03  0.88920673341E+03  0.11025833895E+04  0.50400001928E-02 0.  1.
</event>
<event>
 5   0  0.1476511E-04  0.1299262E+04  0.7818609E-02  0.9030150E-01
        1   -1    0    0  501    0  0.00000000000E+00  0.00000000000E+00  0.22744057330E+04  0.22744057330E+04  0.50400001928E-02 0.  1.
       -1   -1    0    0    0  501  0.00000000000E+00  0.00000000000E+00 -0.18555202723E+03  0.18555202730E+03  0.50400001928E-02 0. -1.
    10030    2    1    2    0    0  0.00000000000E+00  0.00000000000E+00  0.20888537057E+04  0.24599577603E+04  0.12992622439E+04 0.  0.
        2    1    3    3  502    0 -0.35488312984E+02 -0.47823768978E+03  0.18741588896E+04  0.19345392867E+04  0.25500000920E-02 0.  1.
       -2    1    3    3    0  502  0.35488312984E+02  0.47823768978E+03  0.21469481611E+03  0.52541847356E+03  0.25500000920E-02 0. -1.
</event>
<event>
 5   0  0.1475396E-04  0.1301490E+04  0.7818609E-02  0.9028384E-01
       -1   -1    0    0    0  501  0.00000000000E+00  0.00000000000E+00  0.75685974739E+03  0.75685974740E+03  0.50400001928E-02 0.  1.
        1   -1    0    0  501    0  0.00000000000E+00  0.00000000000E+00 -0.55950788583E+03  0.55950788585E+03  0.50400001928E-02 0. -1.
    10030    2    1    2    0    0  0.00000000000E+00  0.00000000000E+00  0.19735186156E+03  0.13163676333E+04  0.13014899111E+04 0.  0.
        3    1    3    3  502    0 -0.40378804927E+03  0.36452971388E+03  0.45988902694E+03  0.71233743994E+03  0.10100000352E+00 0.  1.
       -3    1    3    3    0  502  0.40378804927E+03 -0.36452971388E+03 -0.26253716538E+03  0.60403019332E+03  0.10100000352E+00 0. -1.
</event>
<event>
 5   0  0.2573071E-04  0.1300148E+04  0.7818609E-02  0.9029448E-01
       -2   -1    0    0    0  501  0.00000000000E+00  0.00000000000E+00  0.50728400198E+03  0.50728400199E+03  0.25500000920E-02 0.  1.
        2   -1    0    0  501    0  0.00000000000E+00  0.00000000000E+00 -0.83305601444E+03  0.83305601445E+03  0.25500000920E-02 0. -1.
    10030    2    1    2    0    0  0.00000000000E+00  0.00000000000E+00 -0.32577201246E+03  0.13403400164E+04  0.13001476668E+04 0.  0.
        4    1    3    3  502    0 -0.15750046082E+03 -0.25698320359E+03  0.43089487077E+03  0.52585051549E+03  0.12699999809E+01 0.  1.
       -4    1    3    3    0  502  0.15750046082E+03  0.25698320359E+03 -0.75666688323E+03  0.81448950095E+03  0.12699999809E+01 0. -1.
</event>
<event>
 5   0  0.2573071E-04  0.1301129E+04  0.7818609E-02  0.9028670E-01
        2   -1    0    0  501    0  0.00000000000E+00  0.00000000000E+00  0.17602024869E+04  0.17602024869E+04  0.25500000920E-02 0. -1.
       -2   -1    0    0    0  501  0.00000000000E+00  0.00000000000E+00 -0.24044632682E+03  0.24044632683E+03  0.25500000920E-02 0.  1.
    10030    2    1    2    0    0  0.00000000000E+00  0.00000000000E+00  0.15197561600E+04  0.20006488137E+04  0.13011290827E+04 0.  0.
        4    1    3    3  502    0 -0.54838953227E+02  0.46202066399E+03  0.60702817839E+02  0.46920874857E+03  0.12699999809E+01 0. -1.
       -4    1    3    3    0  502  0.54838953227E+02 -0.46202066399E+03  0.14590533422E+04  0.15314400651E+04  0.12699999809E+01 0.  1.
</event>
<event>
 5   0  0.2573071E-04  0.1299370E+04  0.7818609E-02  0.9030065E-01
        2   -1    0    0  501    0  0.00000000000E+00  0.00000000000E+00  0.12960650406E+04  0.12960650406E+04  0.25500000920E-02 0.  1.
       -2   -1    0    0    0  501  0.00000000000E+00  0.00000000000E+00 -0.32567067657E+03  0.32567067658E+03  0.25500000920E-02 0. -1.
    10030    2    1    2    0    0  0.00000000000E+00  0.00000000000E+00  0.97039436400E+03  0.16217357172E+04  0.12993696605E+04 0.  0.
        4    1    3    3  502    0 -0.42162177492E+03  0.10148423666E+03 -0.11858222406E+03  0.44958572947E+03  0.12699999809E+01 0. -1.
       -4    1    3    3    0  502  0.42162177492E+03 -0.10148423666E+03  0.10889765881E+04  0.11721499877E+04  0.12699999809E+01 0.  1.
</event>
<event>
 5   0  0.2756984E-04  0.1297684E+04  0.7818609E-02  0.9031404E-01
       -2   -1    0    0    0  501  0.00000000000E+00  0.00000000000E+00  0.23074388461E+03  0.23074388462E+03  0.25500000920E-02 0. -1.
        2   -1    0    0  501    0  0.00000000000E+00  0.00000000000E+00 -0.18245154865E+04  0.18245154865E+04  0.25500000920E-02 0.  1.
    10030    2    1    2    0    0  0.00000000000E+00  0.00000000000E+00 -0.15937716019E+04  0.20552593711E+04  0.12976837687E+04 0.  0.
        3    1    3    3  502    0  0.22947264791E+03  0.59849340402E+03 -0.95639899187E+03  0.11513257978E+04  0.10100000352E+00 0. -1.
       -3    1    3    3    0  502 -0.22947264791E+03 -0.59849340402E+03 -0.63737261003E+03  0.90393357334E+03  0.10100000352E+00 0.  1.
</event>
<event>
 5   0  0.1479690E-04  0.1281283E+04  0.7818609E-02  0.9044541E-01
       -1   -1    0    0    0  501  0.00000000000E+00  0.00000000000E+00  0.39805738852E+03  0.39805738855E+03  0.50400001928E-02 0.  1.
        1   -1    0    0  501    0  0.00000000000E+00  0.00000000000E+00 -0.10310618076E+04  0.10310618076E+04  0.50400001928E-02 0. -1.
    10030    2    1    2    0    0  0.00000000000E+00  0.00000000000E+00 -0.63300441909E+03  0.14291191962E+04  0.12812833731E+04 0.  0.
        1    1    3    3  502    0 -0.47185553345E+02 -0.61528018336E+03 -0.12452186495E+03  0.62952511892E+03  0.50400001928E-02 0.  1.
       -1    1    3    3    0  502  0.47185553345E+02  0.61528018336E+03 -0.50848255415E+03  0.79959407725E+03  0.50400001928E-02 0. -1.
</event>
<event>
 5   0  0.2723209E-04  0.1300054E+04  0.7818609E-02  0.9029522E-01
       -2   -1    0    0    0  501  0.00000000000E+00  0.00000000000E+00  0.50455695254E+03  0.50455695255E+03  0.25500000920E-02 0.  1.
        2   -1    0    0  501    0  0.00000000000E+00  0.00000000000E+00 -0.83743829445E+03  0.83743829446E+03  0.25500000920E-02 0. -1.
    10030    2    1    2    0    0  0.00000000000E+00  0.00000000000E+00 -0.33288134191E+03  0.13419952470E+04  0.13000543278E+04 0.  0.
        2    1    3    3  502    0 -0.17542871378E+03 -0.72923353486E+02  0.47525895421E+03  0.51182430839E+03  0.25500000920E-02 0.  1.
       -2    1    3    3    0  502  0.17542871378E+03  0.72923353486E+02 -0.80814029612E+03  0.83017093861E+03  0.25500000920E-02 0. -1.
</event>
<event>
 5   0  0.2794825E-04  0.1299430E+04  0.7818609E-02  0.9030017E-01
       -2   -1    0    0    0  501  0.00000000000E+00  0.00000000000E+00  0.20104584625E+03  0.20104584627E+03  0.25500000920E-02 0.  1.
        2   -1    0    0  501    0  0.00000000000E+00  0.00000000000E+00 -0.20996684767E+04  0.20996684767E+04  0.25500000920E-02 0. -1.
    10030    2    1    2    0    0  0.00000000000E+00  0.00000000000E+00 -0.18986226305E+04  0.23007143230E+04  0.12994300686E+04 0.  0.
        1    1    3    3  502    0 -0.57152686421E+02 -0.32985640579E+03 -0.19352075732E+04  0.19639501087E+04  0.50400001928E-02 0. -1.
       -1    1    3    3    0  502  0.57152686421E+02  0.32985640579E+03  0.36584942697E+02  0.33676421434E+03  0.50400001928E-02 0.  1.
</event>
<event>
 5   0  0.1476511E-04  0.1301170E+04  0.7818609E-02  0.9028638E-01
       -1   -1    0    0    0  501  0.00000000000E+00  0.00000000000E+00  0.33802377476E+03  0.33802377479E+03  0.50400001928E-02 0.  1.
        1   -1    0    0  501    0  0.00000000000E+00  0.00000000000E+00 -0.12521623764E+04  0.12521623764E+04  0.50400001928E-02 0. -1.
    10030    2    1    2    0    0  0.00000000000E+00  0.00000000000E+00 -0.91413860163E+03  0.15901861512E+04  0.13011697093E+04 0.  0.
        2    1    3    3  502    0 -0.21687837831E+03 -0.20353472959E+03  0.25007081152E+03  0.38858464703E+03  0.25500000920E-02 0.  1.
       -2    1    3    3    0  502  0.21687837831E+03  0.20353472959E+03 -0.11642094131E+04  0.12016015042E+04  0.25500000920E-02 0. -1.
</event>
<event>
 5   0  0.1476511E-04  0.1299493E+04  0.7818609E-02  0.9029967E-01
       -1   -1    0    0    0  501  0.00000000000E+00  0.00000000000E+00  0.25048249882E+03  0.25048249888E+03  0.50400001928E-02 0. -1.
        1   -1    0    0  501    0  0.00000000000E+00  0.00000000000E+00 -0.16854287347E+04  0.16854287347E+04  0.50400001928E-02 0.  1.
    10030    2    1    2    0    0  0.00000000000E+00  0.00000000000E+00 -0.14349462358E+04  0.19359112335E+04  0.12994928258E+04 0.  0.
        2    1    3    3  502    0  0.41132827366E+02  0.32736287197E+03  0.11640023728E+03  0.34986765309E+03  0.25500000920E-02 0. -1.
       -2    1    3    3    0  502 -0.41132827366E+02 -0.32736287197E+03 -0.15513464731E+04  0.15860435805E+04  0.25500000920E-02 0.  1.
</event>
<event>
 5   0  0.2794825E-04  0.1303194E+04  0.7818609E-02  0.9027036E-01
       -2   -1    0    0    0  501  0.00000000000E+00  0.00000000000E+00  0.45092671568E+03  0.45092671569E+03  0.25500000920E-02 0.  1.
        2   -1    0    0  501    0  0.00000000000E+00  0.00000000000E+00 -0.94156961633E+03  0.94156961633E+03  0.25500000920E-02 0. -1.
    10030    2    1    2    0    0  0.00000000000E+00  0.00000000000E+00 -0.49064290064E+03  0.13924963320E+04  0.13031943749E+04 0.  0.
        1    1    3    3  502    0 -0.95777091513E+01  0.18726693647E+03 -0.91211749845E+03  0.93119222990E+03  0.50400001928E-02 0. -1.
       -1    1    3    3    0  502  0.95777091513E+01 -0.18726693647E+03  0.42147459781E+03  0.46130410212E+03  0.50400001928E-02 0.  1.
</event>
<event>
 5   0  0.2573071E-04  0.1300005E+04  0.7818609E-02  0.9029562E-01
        2   -1    0    0  501    0  0.00000000000E+00  0.00000000000E+00  0.47280416995E+03  0.47280416995E+03  0.25500000920E-02 0. -1.
       -2   -1    0    0    0  501  0.00000000000E+00  0.00000000000E+00 -0.89361091053E+03  0.89361091053E+03  0.25500000920E-02 0.  1.
    10030    2    1    2    0    0  0.00000000000E+00  0.00000000000E+00 -0.42080674058E+03  0.13664150805E+04  0.13000045612E+04 0.  0.
        4    1    3    3  502    0 -0.12761319690E+03 -0.63659216306E+03 -0.24308250584E+03  0.69327153962E+03  0.12699999809E+01 0.  1.
       -4    1    3    3    0  502  0.12761319690E+03  0.63659216306E+03 -0.17772423474E+03  0.67314354087E+03  0.12699999809E+01 0. -1.
</event>
<event>
 5   0  0.2573071E-04  0.1296579E+04  0.7818609E-02  0.9032283E-01
       -2   -1    0    0    0  501  0.00000000000E+00  0.00000000000E+00  0.47369179870E+03  0.47369179870E+03  0.25500000920E-02 0. -1.
        2   -1    0    0  501    0  0.00000000000E+00  0.00000000000E+00 -0.88724136248E+03  0.88724136248E+03  0.25500000920E-02 0.  1.
    10030    2    1    2    0    0  0.00000000000E+00  0.00000000000E+00 -0.41354956378E+03  0.13609331612E+04  0.12965785080E+04 0.  0.
        4    1    3    3  502    0 -0.16620739732E+03  0.28529232342E+03  0.37882397676E+03  0.50251947922E+03  0.12699999809E+01 0. -1.
       -4    1    3    3    0  502  0.16620739732E+03 -0.28529232342E+03 -0.79237354055E+03  0.85841368196E+03  0.12699999809E+01 0.  1.
</event>
<event>
 5   0  0.1475396E-04  0.1298672E+04  0.7818609E-02  0.9030619E-01
       -1   -1    0    0    0  501  0.00000000000E+00  0.00000000000E+00  0.26054001296E+03  0.26054001301E+03  0.50400001928E-02 0. -1.
        1   -1    0    0  501    0  0.00000000000E+00  0.00000000000E+00 -0.16183199449E+04  0.16183199449E+04  0.50400001928E-02 0.  1.
    10030    2    1    2    0    0  0.00000000000E+00  0.00000000000E+00 -0.13577799319E+04  0.18788599579E+04  0.12986717822E+04 0.  0.
        3    1    3    3  502    0  0.85935668320E+02 -0.12397884834E+03 -0.15926178889E+04  0.15997460561E+04  0.10100000352E+00 0.  1.
       -3    1    3    3    0  502 -0.85935668320E+02  0.12397884834E+03  0.23483795696E+03  0.27911390176E+03  0.10100000352E+00 0. -1.
</event>
<event>
 5   0  0.1408341E-04  0.1300227E+04  0.7818609E-02  0.9029385E-01
        1   -1    0    0  501    0  0.00000000000E+00  0.00000000000E+00  0.94471664383E+03  0.94471664385E+03  0.50400001928E-02 0.  1.
       -1   -1    0    0    0  501  0.00000000000E+00  0.00000000000E+00 -0.44738030430E+03  0.44738030433E+03  0.50400001928E-02 0. -1.
    10030    2    1    2    0    0  0.00000000000E+00  0.00000000000E+00  0.49733633953E+03  0.13920969482E+04  0.13002270873E+04 0.  0.
        5    1    3    3  502    0  0.42236799417E+02 -0.30828858481E+03 -0.36245061396E+03  0.47772202828E+03  0.46999998093E+01 0. -1.
       -5    1    3    3    0  502 -0.42236799417E+02  0.30828858481E+03  0.85978695349E+03  0.91437491990E+03  0.46999998093E+01 0.  1.
</event>
<event>
 5   0  0.2723209E-04  0.1299626E+04  0.7818609E-02  0.9029862E-01
       -2   -1    0    0    0  501  0.00000000000E+00  0.00000000000E+00  0.66670105871E+03  0.66670105872E+03  0.25500000920E-02 0. -1.
        2   -1    0    0  501    0  0.00000000000E+00  0.00000000000E+00 -0.63335283520E+03  0.63335283521E+03  0.25500000920E-02 0.  1.
    10030    2    1    2    0    0  0.00000000000E+00  0.00000000000E+00  0.33348223511E+02  0.13000538939E+04  0.12996261090E+04 0.  0.
        2    1    3    3  502    0  0.59189883553E+03  0.26450832246E+03  0.60826170807E+02  0.65115950980E+03  0.25500000920E-02 0.  1.
       -2    1    3    3    0  502 -0.59189883553E+03 -0.26450832246E+03 -0.27477947297E+02  0.64889438412E+03  0.25500000920E-02 0. -1.
</event>
<event>
 5   0  0.1476511E-04  0.1297906E+04  0.7818609E-02  0.9031227E-01
        1   -1    0    0  501    0  0.00000000000E+00  0.00000000000E+00  0.14302894856E+04  0.14302894856E+04  0.50400001928E-02 0.  1.
       -1   -1    0    0    0  501  0.00000000000E+00  0.00000000000E+00 -0.29444410922E+03  0.29444410926E+03  0.50400001928E-02 0. -1.
    10030    2    1    2    0    0  0.00000000000E+00  0.00000000000E+00  0.11358453764E+04  0.17247335949E+04  0.12979064890E+04 0.  0.
        2    1    3    3  502    0 -0.63431858713E+03 -0.10583380641E+03  0.45223225791E+03  0.78617738435E+03  0.25500000920E-02 0. -1.
       -2    1    3    3    0  502  0.63431858713E+03  0.10583380641E+03  0.68361311846E+03  0.93855621052E+03  0.25500000920E-02 0.  1.
</event>
<event>
 5   0  0.1476511E-04  0.1298503E+04  0.7818609E-02  0.9030753E-01
       -1   -1    0    0    0  501  0.00000000000E+00  0.00000000000E+00  0.67040660327E+03  0.67040660329E+03  0.50400001928E-02 0. -1.
        1   -1    0    0  501    0  0.00000000000E+00  0.00000000000E+00 -0.62876381055E+03  0.62876381057E+03  0.50400001928E-02 0.  1.
    10030    2    1    2    0    0  0.00000000000E+00  0.00000000000E+00  0.41642792713E+02  0.12991704139E+04  0.12985028464E+04 0.  0.
        2    1    3    3  502    0  0.32131752451E+03  0.69624856460E+01 -0.54359093390E+03  0.63149388848E+03  0.25500000920E-02 0.  1.
       -2    1    3    3    0  502 -0.32131752451E+03 -0.69624856460E+01  0.58523372662E+03  0.66767652538E+03  0.25500000920E-02 0. -1.
</event>
<event>
 5   0  0.1479690E-04  0.1303287E+04  0.7818609E-02  0.9026963E-01
       -1   -1    0    0    0  501  0.00000000000E+00  0.00000000000E+00  0.26632404086E+03  0.26632404091E+03  0.50400001928E-02 0. -1.
        1   -1    0    0  501    0  0.00000000000E+00  0.00000000000E+00 -0.15944456349E+04  0.15944456349E+04  0.50400001928E-02 0.  1.
    10030    2    1    2    0    0  0.00000000000E+00  0.00000000000E+00 -0.13281215940E+04  0.18607696758E+04  0.13032869284E+04 0.  0.
        1    1    3    3  502    0  0.42836663272E+03  0.55310952126E+02  0.32591059187E+02  0.43315060963E+03  0.50400001928E-02 0. -1.
       -1    1    3    3    0  502 -0.42836663272E+03 -0.55310952126E+02 -0.13607126532E+04  0.14276190662E+04  0.50400001928E-02 0.  1.
</event>
<event>
 5   0  0.2723209E-04  0.1301403E+04  0.7818609E-02  0.9028454E-01
        2   -1    0    0  501    0  0.00000000000E+00  0.00000000000E+00  0.89658057207E+03  0.89658057207E+03  0.25500000920E-02 0.  1.
       -2   -1    0    0    0  501  0.00000000000E+00  0.00000000000E+00 -0.47225226027E+03  0.47225226028E+03  0.25500000920E-02 0. -1.
    10030    2    1    2    0    0  0.00000000000E+00  0.00000000000E+00  0.42432831179E+03  0.13688328324E+04  0.13014026305E+04 0.  0.
        2    1    3    3  502    0 -0.28733206701E+03  0.42352474336E+03  0.63482997797E+03  0.81543977454E+03  0.25500000920E-02 0.  1.
       -2    1    3    3    0  502  0.28733206701E+03 -0.42352474336E+03 -0.21050166617E+03  0.55339305781E+03  0.25500000920E-02 0. -1.
</event>
<event>
 5   0  0.2573071E-04  0.1298949E+04  0.7818609E-02  0.9030399E-01
        2   -1    0    0  501    0  0.00000000000E+00  0.00000000000E+00  0.76188410501E+03  0.76188410502E+03  0.25500000920E-02 0.  1.
       -2   -1    0    0    0  501  0.00000000000E+00  0.00000000000E+00 -0.55365027566E+03  0.55365027566E+03  0.25500000920E-02 0. -1.
    10030    2    1    2    0    0  0.00000000000E+00  0.00000000000E+00  0.20823382936E+03  0.13155343807E+04  0.12989493366E+04 0.  0.
        4    1    3    3  502    0  0.54494196758E+03  0.34721068165E+03  0.37715108655E+02  0.64725655485E+03  0.12699999809E+01 0.  1.
       -4    1    3    3    0  502 -0.54494196758E+03 -0.34721068165E+03  0.17051872070E+03  0.66827782582E+03  0.12699999809E+01 0. -1.
</event>
<event>
 5   0  0.1479690E-04  0.1299573E+04  0.7818609E-02  0.9029904E-01
        1   -1    0    0  501    0  0.00000000000E+00  0.00000000000E+00  0.14364717045E+04  0.14364717045E+04  0.50400001928E-02 0. -1.
       -1   -1    0    0    0  501  0.00000000000E+00  0.00000000000E+00 -0.29393017443E+03  0.29393017447E+03  0.50400001928E-02 0.  1.
    10030    2    1    2    0    0  0.00000000000E+00  0.00000000000E+00  0.11425415301E+04  0.17304018790E+04  0.12995728201E+04 0.  0.
        1    1    3    3  502    0 -0.14097652491E+03 -0.62958823379E+03  0.46841899151E+03  0.79729045920E+03  0.50400001928E-02 0.  1.
       -1    1    3    3    0  502  0.14097652491E+03  0.62958823379E+03  0.67412253857E+03  0.93311141979E+03  0.50400001928E-02 0. -1.
</event>
<event>
 5   0  0.2794825E-04  0.1296072E+04  0.7818609E-02  0.9032686E-01
        2   -1    0    0  501    0  0.00000000000E+00  0.00000000000E+00  0.85995877588E+03  0.85995877589E+03  0.25500000920E-02 0. -1.
       -2   -1    0    0    0  501  0.00000000000E+00  0.00000000000E+00 -0.48833815062E+03  0.48833815063E+03  0.25500000920E-02 0.  1.
    10030    2    1    2    0    0  0.00000000000E+00  0.00000000000E+00  0.37162062526E+03  0.13482969265E+04  0.12960720323E+04 0.  0.
        1    1    3    3  502    0 -0.38416739771E+03  0.14868163440E+02 -0.35688566953E+03  0.52456937853E+03  0.50400001928E-02 0.  1.
       -1    1    3    3    0  502  0.38416739771E+03 -0.14868163440E+02  0.72850629479E+03  0.82372754799E+03  0.50400001928E-02 0. -1.
</event>
<event>
 5   0  0.1476511E-04  0.1309452E+04  0.7818609E-02  0.9022103E-01
        1   -1    0    0  501    0  0.00000000000E+00  0.00000000000E+00  0.15865717222E+04  0.15865717222E+04  0.50400001928E-02 0. -1.
       -1   -1    0    0    0  501  0.00000000000E+00  0.00000000000E+00 -0.27018380832E+03  0.27018380837E+03  0.50400001928E-02 0.  1.
    10030    2    1    2    0    0  0.00000000000E+00  0.00000000000E+00  0.13163879139E+04  0.18567555306E+04  0.13094517786E+04 0.  0.
        2    1    3    3  502    0  0.65447038999E+03 -0.15924709284E+02  0.67094794119E+03  0.93741998460E+03  0.25500000920E-02 0. -1.
       -2    1    3    3    0  502 -0.65447038999E+03  0.15924709284E+02  0.64543997270E+03  0.91933554598E+03  0.25500000920E-02 0.  1.
</event>
<event>
 5   0  0.1479690E-04  0.1294912E+04  0.7818609E-02  0.9033610E-01
        1   -1    0    0  501    0  0.00000000000E+00  0.00000000000E+00  0.79388330511E+03  0.79388330513E+03  0.50400001928E-02 0.  1.
       -1   -1    0    0    0  501  0.00000000000E+00  0.00000000000E+00 -0.52803661922E+03  0.52803661924E+03  0.50400001928E-02 0. -1.
    10030    2    1    2    0    0  0.00000000000E+00  0.00000000000E+00  0.26584668589E+03  0.13219199244E+04  0.12949122851E+04 0.  0.
        1    1    3    3  502    0  0.37065474875E+03 -0.53079612648E+03  0.14146357836E+03  0.66267745901E+03  0.50400001928E-02 0. -1.
       -1    1    3    3    0  502 -0.37065474875E+03  0.53079612648E+03  0.12438310753E+03  0.65924246535E+03  0.50400001928E-02 0.  1.
</event>
<event>
 5   0  0.1475396E-04  0.1293562E+04  0.7818609E-02  0.9034686E-01
       -1   -1    0    0    0  501  0.00000000000E+00  0.00000000000E+00  0.42243101252E+03  0.42243101255E+03  0.50400001928E-02 0.  1.
        1   -1    0    0  501    0  0.00000000000E+00  0.00000000000E+00 -0.99028211762E+03  0.99028211763E+03  0.50400001928E-02 0. -1.
    10030    2    1    2    0    0  0.00000000000E+00  0.00000000000E+00 -0.56785110510E+03  0.14127131302E+04  0.12935623335E+04 0.  0.
        3    1    3    3  502    0  0.28683927370E+03  0.11981192396E+01 -0.91701789464E+03  0.96083298950E+03  0.10100000352E+00 0. -1.
       -3    1    3    3    0  502 -0.28683927370E+03 -0.11981192396E+01  0.34916678953E+03  0.45188014068E+03  0.10100000352E+00 0.  1.
</event>
<event>
 5   0  0.1479690E-04  0.1302949E+04  0.7818609E-02  0.9027230E-01
       -1   -1    0    0    0  501  0.00000000000E+00  0.00000000000E+00  0.25302090918E+03  0.25302090923E+03  0.50400001928E-02 0. -1.
        1   -1    0    0  501    0  0.00000000000E+00  0.00000000000E+00 -0.16774062028E+04  0.16774062028E+04  0.50400001928E-02 0.  1.
    10030    2    1    2    0    0  0.00000000000E+00  0.00000000000E+00 -0.14243852937E+04  0.19304271121E+04  0.13029487213E+04 0.  0.
        1    1    3    3  502    0  0.15381390793E+03  0.61692733441E+02  0.22126850254E+03  0.27644974566E+03  0.50400001928E-02 0. -1.
       -1    1    3    3    0  502 -0.15381390793E+03 -0.61692733441E+02 -0.16456537962E+04  0.16539773664E+04  0.50400001928E-02 0.  1.
</event>
<event>
 5   0  0.1479690E-04  0.1298726E+04  0.7818609E-02  0.9030576E-01
       -1   -1    0    0    0  501  0.00000000000E+00  0.00000000000E+00  0.21388410892E+03  0.21388410898E+03  0.50400001928E-02 0. -1.
        1   -1    0    0  501    0  0.00000000000E+00  0.00000000000E+00 -0.19715003833E+04  0.19715003834E+04  0.50400001928E-02 0.  1.
    10030    2    1    2    0    0  0.00000000000E+00  0.00000000000E+00 -0.17576162744E+04  0.21853844923E+04  0.12987264574E+04 0.  0.
        1    1    3    3  502    0 -0.24139303928E+03  0.46883333319E+03 -0.15164595404E+04  0.16055294552E+04  0.50400001928E-02 0.  1.
       -1    1    3    3    0  502  0.24139303928E+03 -0.46883333319E+03 -0.24115673401E+03  0.57985503715E+03  0.50400001928E-02 0. -1.
</event>
<event>
 5   0  0.1476511E-04  0.1299335E+04  0.7818609E-02  0.9030093E-01
       -1   -1    0    0    0  501  0.00000000000E+00  0.00000000000E+00  0.62078141551E+03  0.62078141553E+03  0.50400001928E-02 0.  1.
        1   -1    0    0  501    0  0.00000000000E+00  0.00000000000E+00 -0.67989754903E+03  0.67989754904E+03  0.50400001928E-02 0. -1.
    10030    2    1    2    0    0  0.00000000000E+00  0.00000000000E+00 -0.59116133515E+02  0.13006789646E+04  0.12993348497E+04 0.  0.
        2    1    3    3  502    0  0.30765402454E+03 -0.30758940596E+03 -0.51255643977E+03  0.67229186030E+03  0.25500000920E-02 0. -1.
       -2    1    3    3    0  502 -0.30765402454E+03  0.30758940596E+03  0.45344030625E+03  0.62838710427E+03  0.25500000920E-02 0.  1.
</event>
<event>
 5   0  0.1479690E-04  0.1297336E+04  0.7818609E-02  0.9031681E-01
        1   -1    0    0  501    0  0.00000000000E+00  0.00000000000E+00  0.13952642032E+04  0.13952642032E+04  0.50400001928E-02 0.  1.
       -1   -1    0    0    0  501  0.00000000000E+00  0.00000000000E+00 -0.30157003992E+03  0.30157003996E+03  0.50400001928E-02 0. -1.
    10030    2    1    2    0    0  0.00000000000E+00  0.00000000000E+00  0.10936941633E+04  0.16968342432E+04  0.12973355487E+04 0.  0.
        1    1    3    3  502    0  0.15202115132E+03  0.19045133602E+01  0.13716321216E+04  0.13800321499E+04  0.50400001928E-02 0.  1.
       -1    1    3    3    0  502 -0.15202115132E+03 -0.19045133602E+01 -0.27793795833E+03  0.31680209331E+03  0.50400001928E-02 0. -1.
</event>
<event>
 5   0  0.2723209E-04  0.1298721E+04  0.7818609E-02  0.9030580E-01
        2   -1    0    0  501    0  0.00000000000E+00  0.00000000000E+00  0.12469711595E+04  0.12469711595E+04  0.25500000920E-02 0.  1.
       -2   -1    0    0    0  501  0.00000000000E+00  0.00000000000E+00 -0.33815458347E+03  0.33815458348E+03  0.25500000920E-02 0. -1.
    10030    2    1    2    0    0  0.00000000000E+00  0.00000000000E+00  0.90881657605E+03  0.15851257430E+04  0.12987209293E+04 0.  0.
        2    1    3    3  502    0  0.10898100117E+02 -0.23167856944E+03  0.11946919855E+04  0.12169973987E+04  0.25500000920E-02 0.  1.
       -2    1    3    3    0  502 -0.10898100117E+02  0.23167856944E+03 -0.28587540948E+03  0.36812834430E+03  0.25500000920E-02 0. -1.
</event>
<event>
 5   0  0.1476511E-04  0.1320644E+04  0.7818609E-02  0.9013352E-01
       -1   -1    0    0    0  501  0.00000000000E+00  0.00000000000E+00  0.56977830054E+03  0.56977830056E+03  0.50400001928E-02 0. -1.
        1   -1    0    0  501    0  0.00000000000E+00  0.00000000000E+00 -0.76525459394E+03  0.76525459395E+03  0.50400001928E-02 0.  1.
    10030    2    1    2    0    0  0.00000000000E+00  0.00000000000E+00 -0.19547629340E+03  0.13350328945E+04  0.13206444821E+04 0.  0.
        2    1    3    3  502    0  0.48155259890E+03 -0.33288851029E+03 -0.40654596171E+03  0.71273226726E+03  0.25500000920E-02 0.  1.
       -2    1    3    3    0  502 -0.48155259890E+03  0.33288851029E+03  0.21106966832E+03  0.62230062726E+03  0.25500000920E-02 0. -1.
</event>
<event>
 5   0  0.1408341E-04  0.1301924E+04  0.7818609E-02  0.9028041E-01
       -1   -1    0    0    0  501  0.00000000000E+00  0.00000000000E+00  0.15645997258E+03  0.15645997266E+03  0.50400001928E-02 0. -1.
        1   -1    0    0  501    0  0.00000000000E+00  0.00000000000E+00 -0.27083712879E+04  0.27083712879E+04  0.50400001928E-02 0.  1.
    10030    2    1    2    0    0  0.00000000000E+00  0.00000000000E+00 -0.25519113154E+04  0.28648312606E+04  0.13019242644E+04 0.  0.
        5    1    3    3  502    0  0.60977344272E+03  0.20734328686E+03 -0.14837181368E+04  0.16174846180E+04  0.46999998093E+01 0. -1.
       -5    1    3    3    0  502 -0.60977344272E+03 -0.20734328686E+03 -0.10681931785E+04  0.12473466426E+04  0.46999998093E+01 0.  1.
</event>
<event>
 5   0  0.2794825E-04  0.1298580E+04  0.7818609E-02  0.9030692E-01
        2   -1    0    0  501    0  0.00000000000E+00  0.00000000000E+00  0.19648694421E+04  0.19648694421E+04  0.25500000920E-02 0.  1.
       -2   -1    0    0    0  501  0.00000000000E+00  0.00000000000E+00 -0.21455739903E+03  0.21455739904E+03  0.25500000920E-02 0. -1.
    10030    2    1    2    0    0  0.00000000000E+00  0.00000000000E+00  0.17503120431E+04  0.21794268412E+04  0.12985796502E+04 0.  0.
        1    1    3    3  502    0 -0.53570734638E+03 -0.13804863551E+03  0.14456291168E+04  0.15478641188E+04  0.50400001928E-02 0.  1.
       -1    1    3    3    0  502  0.53570734638E+03  0.13804863551E+03  0.30468292627E+03  0.63156272239E+03  0.50400001928E-02 0. -1.
</event>
<event>
 5   0  0.2794825E-04  0.1298928E+04  0.7818609E-02  0.9030416E-01
        2   -1    0    0  501    0  0.00000000000E+00  0.00000000000E+00  0.39390988946E+03  0.39390988947E+03  0.25500000920E-02 0. -1.
       -2   -1    0    0    0  501  0.00000000000E+00  0.00000000000E+00 -0.10708125356E+04  0.10708125356E+04  0.25500000920E-02 0.  1.
    10030    2    1    2    0    0  0.00000000000E+00  0.00000000000E+00 -0.67690264613E+03  0.14647224251E+04  0.12989282467E+04 0.  0.
        1    1    3    3  502    0 -0.42869332268E+03 -0.19504390540E+03 -0.84272617961E+03  0.96540535723E+03  0.50400001928E-02 0.  1.
       -1    1    3    3    0  502  0.42869332268E+03  0.19504390540E+03  0.16582353348E+03  0.49931706783E+03  0.50400001928E-02 0. -1.
</event>
<event>
 5   0  0.2723209E-04  0.1303620E+04  0.7818609E-02  0.9026699E-01
       -2   -1    0    0    0  501  0.00000000000E+00  0.00000000000E+00  0.21091664192E+03  0.21091664193E+03  0.25500000920E-02 0.  1.
        2   -1    0    0  501    0  0.00000000000E+00  0.00000000000E+00 -0.20143341780E+04  0.20143341780E+04  0.25500000920E-02 0. -1.
    10030    2    1    2    0    0  0.00000000000E+00  0.00000000000E+00 -0.18034175361E+04  0.22252508200E+04  0.13036204978E+04 0.  0.
        2    1    3    3  502    0 -0.98039923224E+02 -0.28669201009E+03 -0.18868173796E+04  0.19109903085E+04  0.25500000920E-02 0. -1.
       -2    1    3    3    0  502  0.98039923224E+02  0.28669201009E+03  0.83399843450E+02  0.31426051151E+03  0.25500000920E-02 0.  1.
</event>
<event>
 5   0  0.2661377E-04  0.1298084E+04  0.7818609E-02  0.9031086E-01
       -2   -1    0    0    0  501  0.00000000000E+00  0.00000000000E+00  0.40475598393E+03  0.40475598394E+03  0.25500000920E-02 0. -1.
        2   -1    0    0  501    0  0.00000000000E+00  0.00000000000E+00 -0.10407633648E+04  0.10407633648E+04  0.25500000920E-02 0.  1.
    10030    2    1    2    0    0  0.00000000000E+00  0.00000000000E+00 -0.63600738083E+03  0.14455193487E+04  0.12980835100E+04 0.  0.
        5    1    3    3  502    0 -0.42484786922E+03 -0.43679807325E+03 -0.69137102414E+02  0.61326201391E+03  0.46999998093E+01 0.  1.
       -5    1    3    3    0  502  0.42484786922E+03  0.43679807325E+03 -0.56687027841E+03  0.83225733480E+03  0.46999998093E+01 0. -1.
</event>
<event>
 5   0  0.1430636E-04  0.1305739E+04  0.7818609E-02  0.9025026E-01
        1   -1    0    0  501    0  0.00000000000E+00  0.00000000000E+00  0.96755470387E+03  0.96755470389E+03  0.50400001928E-02 0. -1.
       -1   -1    0    0    0  501  0.00000000000E+00  0.00000000000E+00 -0.44053190196E+03  0.44053190199E+03  0.50400001928E-02 0.  1.
    10030    2    1    2    0    0  0.00000000000E+00  0.00000000000E+00  0.52702280191E+03  0.14080866059E+04  0.13057391990E+04 0.  0.
        4    1    3    3  502    0  0.37711054933E+03  0.36967628458E+03  0.67748142077E+03  0.85898522117E+03  0.12699999809E+01 0. -1.
       -4    1    3    3    0  502 -0.37711054933E+03 -0.36967628458E+03 -0.15045861886E+03  0.54910138471E+03  0.12699999809E+01 0.  1.
</event>
<event>
 5   0  0.2794825E-04  0.1299061E+04  0.7818609E-02  0.9030310E-01
        2   -1    0    0  501    0  0.00000000000E+00  0.00000000000E+00  0.45760768609E+03  0.45760768609E+03  0.25500000920E-02 0. -1.
       -2   -1    0    0    0  501  0.00000000000E+00  0.00000000000E+00 -0.92194675041E+03  0.92194675041E+03  0.25500000920E-02 0.  1.
    10030    2    1    2    0    0  0.00000000000E+00  0.00000000000E+00 -0.46433906432E+03  0.13795544365E+04  0.12990610750E+04 0.  0.
        1    1    3    3  502    0 -0.24685971913E+03  0.58987272917E+03 -0.11108546837E+03  0.64902198642E+03  0.50400001928E-02 0. -1.
       -1    1    3    3    0  502  0.24685971913E+03 -0.58987272917E+03 -0.35325359595E+03  0.73053245008E+03  0.50400001928E-02 0.  1.
</event>
<event>
 5   0  0.1479690E-04  0.1301514E+04  0.7818609E-02  0.9028366E-01
       -1   -1    0    0    0  501  0.00000000000E+00  0.00000000000E+00  0.45343616034E+03  0.45343616037E+03  0.50400001928E-02 0.  1.
        1   -1    0    0  501    0  0.00000000000E+00  0.00000000000E+00 -0.93394488851E+03  0.93394488852E+03  0.50400001928E-02 0. -1.
    10030    2    1    2    0    0  0.00000000000E+00  0.00000000000E+00 -0.48050872817E+03  0.13873810489E+04  0.13015135562E+04 0.  0.
        1    1    3    3  502    0  0.58820020317E+02 -0.52503034752E+03 -0.64527963038E+03  0.83396790227E+03  0.50400001928E-02 0. -1.
       -1    1    3    3    0  502 -0.58820020317E+02  0.52503034752E+03  0.16477090222E+03  0.55341314662E+03  0.50400001928E-02 0.  1.
</event>
<event>
 5   0  0.1476511E-04  0.1299052E+04  0.7818609E-02  0.9030317E-01
       -1   -1    0    0    0  501  0.00000000000E+00  0.00000000000E+00  0.75537917796E+03  0.75537917798E+03  0.50400001928E-02 0.  1.
        1   -1    0    0  501    0  0.00000000000E+00  0.00000000000E+00 -0.55850629579E+03  0.55850629581E+03  0.50400001928E-02 0. -1.
    10030    2    1    2    0    0  0.00000000000E+00  0.00000000000E+00  0.19687288218E+03  0.13138854738E+04  0.12990520030E+04 0.  0.
        2    1    3    3  502    0 -0.15043950058E+03  0.61916472816E+03  0.22591942850E+03  0.67604481517E+03  0.25500000920E-02 0.  1.
       -2    1    3    3    0  502  0.15043950058E+03 -0.61916472816E+03 -0.29046546323E+02  0.63784065862E+03  0.25500000920E-02 0. -1.
</event>
<event>
 5   0  0.1479690E-04  0.1296691E+04  0.7818609E-02  0.9032193E-01
       -1   -1    0    0    0  501  0.00000000000E+00  0.00000000000E+00  0.51544671094E+03  0.51544671097E+03  0.50400001928E-02 0. -1.
        1   -1    0    0  501    0  0.00000000000E+00  0.00000000000E+00 -0.81551012459E+03  0.81551012460E+03  0.50400001928E-02 0.  1.
    10030    2    1    2    0    0  0.00000000000E+00  0.00000000000E+00 -0.30006341365E+03  0.13309568356E+04  0.12966911914E+04 0.  0.
        1    1    3    3  502    0  0.15829363499E+03  0.12958956012E+03  0.48145079016E+03  0.52311107075E+03  0.50400001928E-02 0. -1.
       -1    1    3    3    0  502 -0.15829363499E+03 -0.12958956012E+03 -0.78151420380E+03  0.80784576482E+03  0.50400001928E-02 0.  1.
</event>
<event>
 5   0  0.1408341E-04  0.1301704E+04  0.7818609E-02  0.9028215E-01
        1   -1    0    0  501    0  0.00000000000E+00  0.00000000000E+00  0.47288624665E+03  0.47288624668E+03  0.50400001928E-02 0. -1.
       -1   -1    0    0    0  501  0.00000000000E+00  0.00000000000E+00 -0.89579267211E+03  0.89579267212E+03  0.50400001928E-02 0.  1.
    10030    2    1    2    0    0  0.00000000000E+00  0.00000000000E+00 -0.42290642546E+03  0.13686789188E+04  0.13017035523E+04 0.  0.
        5    1    3    3  502    0 -0.25717351795E+03 -0.16885993119E+03  0.39158371020E+03  0.49800781800E+03  0.46999998093E+01 0. -1.
       -5    1    3    3    0  502  0.25717351795E+03  0.16885993119E+03 -0.81449013565E+03  0.87067110080E+03  0.46999998093E+01 0.  1.
</event>
<event>
 5   0  0.1476511E-04  0.1299109E+04  0.7818609E-02  0.9030272E-01
       -1   -1    0    0    0  501  0.00000000000E+00  0.00000000000E+00  0.47509268624E+03  0.47509268626E+03  0.50400001928E-02 0. -1.
        1   -1    0    0  501    0  0.00000000000E+00  0.00000000000E+00 -0.88808099186E+03  0.88808099187E+03  0.50400001928E-02 0.  1.
    10030    2    1    2    0    0  0.00000000000E+00  0.00000000000E+00 -0.41298830562E+03  0.13631736781E+04  0.12991085929E+04 0.  0.
        2    1    3    3  502    0  0.36256961120E+02 -0.17403816480E+03 -0.86205715136E+03  0.88019678609E+03  0.25500000920E-02 0.  1.
       -2    1    3    3    0  502 -0.36256961120E+02  0.17403816480E+03  0.44906884573E+03  0.48297689205E+03  0.25500000920E-02 0. -1.
</event>
<event>
 5   0  0.2794825E-04  0.1300180E+04  0.7818609E-02  0.9029422E-01
       -2   -1    0    0    0  501  0.00000000000E+00  0.00000000000E+00  0.22202585023E+03  0.22202585025E+03  0.25500000920E-02 0. -1.
        2   -1    0    0  501    0  0.00000000000E+00  0.00000000000E+00 -0.19034583698E+04  0.19034583698E+04  0.25500000920E-02 0.  1.
    10030    2    1    2    0    0  0.00000000000E+00  0.00000000000E+00 -0.16814325196E+04  0.21254842200E+04  0.13001799306E+04 0.  0.
        1    1    3    3  502    0 -0.26053351812E+03 -0.58160762894E+03 -0.63090675795E+03  0.89676556879E+03  0.50400001928E-02 0. -1.
       -1    1    3    3    0  502  0.26053351812E+03  0.58160762894E+03 -0.10505257616E+04  0.12287186512E+04  0.50400001928E-02 0.  1.
</event>
<event>
 5   0  0.2756984E-04  0.1300267E+04  0.7818609E-02  0.9029353E-01
        2   -1    0    0  501    0  0.00000000000E+00  0.00000000000E+00  0.44071614762E+03  0.44071614763E+03  0.25500000920E-02 0.  1.
       -2   -1    0    0    0  501  0.00000000000E+00  0.00000000000E+00 -0.95906070237E+03  0.95906070238E+03  0.25500000920E-02 0. -1.
    10030    2    1    2    0    0  0.00000000000E+00  0.00000000000E+00 -0.51834455475E+03  0.13997768500E+04  0.13002669543E+04 0.  0.
        3    1    3    3  502    0  0.24739232571E+02 -0.16964694677E+03  0.41594308650E+03  0.44988973936E+03  0.10100000352E+00 0.  1.
       -3    1    3    3    0  502 -0.24739232571E+02  0.16964694677E+03 -0.93428764125E+03  0.94988711064E+03  0.10100000352E+00 0. -1.
</event>
<event>
 5   0  0.1479690E-04  0.1300746E+04  0.7818609E-02  0.9028974E-01
        1   -1    0    0  501    0  0.00000000000E+00  0.00000000000E+00  0.10912183389E+04  0.10912183389E+04  0.50400001928E-02 0. -1.
       -1   -1    0    0    0  501  0.00000000000E+00  0.00000000000E+00 -0.38762633564E+03  0.38762633567E+03  0.50400001928E-02 0.  1.
    10030    2    1    2    0    0  0.00000000000E+00  0.00000000000E+00  0.70359200329E+03  0.14788446746E+04  0.13007458878E+04 0.  0.
        1    1    3    3  502    0  0.45380641463E+03  0.33228475632E+03  0.72305154827E+03  0.91605510900E+03  0.50400001928E-02 0. -1.
       -1    1    3    3    0  502 -0.45380641463E+03 -0.33228475632E+03 -0.19459544984E+02  0.56278956561E+03  0.50400001928E-02 0.  1.
</event>
<event>
 5   0  0.1476511E-04  0.1299110E+04  0.7818609E-02  0.9030271E-01
        1   -1    0    0  501    0  0.00000000000E+00  0.00000000000E+00  0.14923913439E+04  0.14923913439E+04  0.50400001928E-02 0.  1.
       -1   -1    0    0    0  501  0.00000000000E+00  0.00000000000E+00 -0.28271522393E+03  0.28271522398E+03  0.50400001928E-02 0. -1.
    10030    2    1    2    0    0  0.00000000000E+00  0.00000000000E+00  0.12096761200E+04  0.17751065679E+04  0.12991100847E+04 0.  0.
        2    1    3    3  502    0  0.56366941389E+03 -0.31984794891E+03  0.66433281527E+03  0.92809698202E+03  0.25500000920E-02 0.  1.
       -2    1    3    3    0  502 -0.56366941389E+03  0.31984794891E+03  0.54534330471E+03  0.84700958589E+03  0.25500000920E-02 0. -1.
</event>
<event>
 5   0  0.1002887E-04  0.1301086E+04  0.7818609E-02  0.9028704E-01
        3   -1    0    0  501    0  0.00000000000E+00  0.00000000000E+00  0.23140740227E+03  0.23140742431E+03  0.10100000352E+00 0. -1.
       -3   -1    0    0    0  501  0.00000000000E+00  0.00000000000E+00 -0.18288367148E+04  0.18288367176E+04  0.10100000352E+00 0.  1.
    10030    2    1    2    0    0  0.00000000000E+00  0.00000000000E+00 -0.15974293125E+04  0.20602441419E+04  0.13010862830E+04 0.  0.
        3    1    3    3  502    0  0.50501794865E+03  0.32838625402E+03 -0.11876378157E+04  0.13316772326E+04  0.10100000352E+00 0.  1.
       -3    1    3    3    0  502 -0.50501794865E+03 -0.32838625402E+03 -0.40979149683E+03  0.72856690932E+03  0.10100000352E+00 0. -1.
</event>
<event>
 5   0  0.1479690E-04  0.1304142E+04  0.7818609E-02  0.9026287E-01
       -1   -1    0    0    0  501  0.00000000000E+00  0.00000000000E+00  0.28376250488E+03  0.28376250492E+03  0.50400001928E-02 0.  1.
        1   -1    0    0  501    0  0.00000000000E+00  0.00000000000E+00 -0.14984246455E+04  0.14984246455E+04  0.50400001928E-02 0. -1.
    10030    2    1    2    0    0  0.00000000000E+00  0.00000000000E+00 -0.12146621406E+04  0.17821871504E+04  0.13041422174E+04 0.  0.
        1    1    3    3  502    0  0.21329246027E+03 -0.51395603432E+03 -0.14279701179E+03  0.57448713251E+03  0.50400001928E-02 0.  1.
       -1    1    3    3    0  502 -0.21329246027E+03  0.51395603432E+03 -0.10718651288E+04  0.12077000179E+04  0.50400001928E-02 0. -1.
</event>
<event>
 5   0  0.1430636E-04  0.1300072E+04  0.7818609E-02  0.9029508E-01
        1   -1    0    0  501    0  0.00000000000E+00  0.00000000000E+00  0.56787859752E+03  0.56787859754E+03  0.50400001928E-02 0.  1.
       -1   -1    0    0    0  501  0.00000000000E+00  0.00000000000E+00 -0.74407986495E+03  0.74407986497E+03  0.50400001928E-02 0. -1.
    10030    2    1    2    0    0  0.00000000000E+00  0.00000000000E+00 -0.17620126744E+03  0.13119584625E+04  0.13000723521E+04 0.  0.
        4    1    3    3  502    0 -0.24779352845E+03  0.38058031540E+03  0.38123468788E+03  0.59294562091E+03  0.12699999809E+01 0.  1.
       -4    1    3    3    0  502  0.24779352845E+03 -0.38058031540E+03 -0.55743595532E+03  0.71901284160E+03  0.12699999809E+01 0. -1.
</event>
<event>
 5   0  0.1475396E-04  0.1300766E+04  0.7818609E-02  0.9028958E-01
       -1   -1    0    0    0  501  0.00000000000E+00  0.00000000000E+00  0.24241660097E+03  0.24241660103E+03  0.50400001928E-02 0.  1.
        1   -1    0    0  501    0  0.00000000000E+00  0.00000000000E+00 -0.17449207776E+04  0.17449207776E+04  0.50400001928E-02 0. -1.
    10030    2    1    2    0    0  0.00000000000E+00  0.00000000000E+00 -0.15025041766E+04  0.19873373786E+04  0.13007655652E+04 0.  0.
        3    1    3    3  502    0  0.49186454673E+03  0.15946898851E+03 -0.13539900221E+04  0.14493619564E+04  0.10100000352E+00 0. -1.
       -3    1    3    3    0  502 -0.49186454673E+03 -0.15946898851E+03 -0.14851415457E+03  0.53797542224E+03  0.10100000352E+00 0.  1.
</event>
<event>
 5   0  0.2794825E-04  0.1288261E+04  0.7818609E-02  0.9038926E-01
       -2   -1    0    0    0  501  0.00000000000E+00  0.00000000000E+00  0.93249461512E+03  0.93249461512E+03  0.25500000920E-02 0. -1.
        2   -1    0    0  501    0  0.00000000000E+00  0.00000000000E+00 -0.44493999774E+03  0.44493999775E+03  0.25500000920E-02 0.  1.
    10030    2    1    2    0    0  0.00000000000E+00  0.00000000000E+00  0.48755461738E+03  0.13774346129E+04  0.12882610791E+04 0.  0.
        1    1    3    3  502    0 -0.11285115473E+03 -0.59610899533E+03  0.12413216957E+02  0.60682403168E+03  0.50400001928E-02 0.  1.
       -1    1    3    3    0  502  0.11285115473E+03  0.59610899533E+03  0.47514140042E+03  0.77061058120E+03  0.50400001928E-02 0. -1.
</event>
<event>
 5   0  0.1408341E-04  0.1308088E+04  0.7818609E-02  0.9023176E-01
        1   -1    0    0  501    0  0.00000000000E+00  0.00000000000E+00  0.77048996493E+03  0.77048996495E+03  0.50400001928E-02 0.  1.
       -1   -1    0    0    0  501  0.00000000000E+00  0.00000000000E+00 -0.55519675271E+03  0.55519675273E+03  0.50400001928E-02 0. -1.
    10030    2    1    2    0    0  0.00000000000E+00  0.00000000000E+00  0.21529321222E+03  0.13256867177E+04  0.13080879581E+04 0.  0.
        5    1    3    3  502    0  0.82978561952E+02  0.26249340451E+01 -0.54981791326E+03  0.55607028311E+03  0.46999998093E+01 0. -1.
       -5    1    3    3    0  502 -0.82978561952E+02 -0.26249340451E+01  0.76511112548E+03  0.76961643456E+03  0.46999998093E+01 0.  1.
</event>
<event>
 5   0  0.2723209E-04  0.1300414E+04  0.7818609E-02  0.9029237E-01
        2   -1    0    0  501    0  0.00000000000E+00  0.00000000000E+00  0.19921692617E+04  0.19921692617E+04  0.25500000920E-02 0.  1.
       -2   -1    0    0    0  501  0.00000000000E+00  0.00000000000E+00 -0.21221559904E+03  0.21221559906E+03  0.25500000920E-02 0. -1.
    10030    2    1    2    0    0  0.00000000000E+00  0.00000000000E+00  0.17799536627E+04  0.22043848608E+04  0.13004143852E+04 0.  0.
        2    1    3    3  502    0 -0.36138632620E+03 -0.43494640028E+03  0.14339846945E+04  0.15414572819E+04  0.25500000920E-02 0.  1.
       -2    1    3    3    0  502  0.36138632620E+03  0.43494640028E+03  0.34596896818E+03  0.66292757887E+03  0.25500000920E-02 0. -1.
</event>
<event>
 5   0  0.1430636E-04  0.1300315E+04  0.7818609E-02  0.9029315E-01
       -1   -1    0    0    0  501  0.00000000000E+00  0.00000000000E+00  0.64472052831E+03  0.64472052833E+03  0.50400001928E-02 0. -1.
        1   -1    0    0  501    0  0.00000000000E+00  0.00000000000E+00 -0.65564058469E+03  0.65564058471E+03  0.50400001928E-02 0.  1.
    10030    2    1    2    0    0  0.00000000000E+00  0.00000000000E+00 -0.10920056372E+02  0.13003611130E+04  0.13003152605E+04 0.  0.
        4    1    3    3  502    0 -0.21128853287E+03  0.53749059391E+03  0.29315450102E+03  0.64767287811E+03  0.12699999809E+01 0.  1.
       -4    1    3    3    0  502  0.21128853287E+03 -0.53749059391E+03 -0.30407455740E+03  0.65268823493E+03  0.12699999809E+01 0. -1.
</event>
<event>
 5   0  0.2756984E-04  0.1300693E+04  0.7818609E-02  0.9029016E-01
        2   -1    0    0  501    0  0.00000000000E+00  0.00000000000E+00  0.10545691492E+04  0.10545691492E+04  0.25500000920E-02 0.  1.
       -2   -1    0    0    0  501  0.00000000000E+00  0.00000000000E+00 -0.40106453827E+03  0.40106453828E+03  0.25500000920E-02 0. -1.
    10030    2    1    2    0    0  0.00000000000E+00  0.00000000000E+00  0.65350461097E+03  0.14556336875E+04  0.13006925677E+04 0.  0.
        3    1    3    3  502    0 -0.61388477982E+03 -0.20404191851E+03  0.40151310151E+03  0.76138059359E+03  0.10100000352E+00 0.  1.
       -3    1    3    3    0  502  0.61388477982E+03  0.20404191851E+03  0.25199150946E+03  0.69425309394E+03  0.10100000352E+00 0. -1.
</event>
<event>
 5   0  0.1479690E-04  0.1299082E+04  0.7818609E-02  0.9030294E-01
        1   -1    0    0  501    0  0.00000000000E+00  0.00000000000E+00  0.87511729626E+03  0.87511729628E+03  0.50400001928E-02 0.  1.
       -1   -1    0    0    0  501  0.00000000000E+00  0.00000000000E+00 -0.48211072296E+03  0.48211072298E+03  0.50400001928E-02 0. -1.
    10030    2    1    2    0    0  0.00000000000E+00  0.00000000000E+00  0.39300657331E+03  0.13572280193E+04  0.12990818795E+04 0.  0.
        1    1    3    3  502    0 -0.19407006074E+03  0.66657060955E+02 -0.44735768799E+03  0.49217400711E+03  0.50400001928E-02 0. -1.
       -1    1    3    3    0  502  0.19407006074E+03 -0.66657060955E+02  0.84036426129E+03  0.86505401215E+03  0.50400001928E-02 0.  1.
</event>
<event>
 5   0  0.2756984E-04  0.1300109E+04  0.7818609E-02  0.9029479E-01
       -2   -1    0    0    0  501  0.00000000000E+00  0.00000000000E+00  0.17775988631E+04  0.17775988631E+04  0.25500000920E-02 0. -1.
        2   -1    0    0  501    0  0.00000000000E+00  0.00000000000E+00 -0.23772002126E+03  0.23772002128E+03  0.25500000920E-02 0.  1.
    10030    2    1    2    0    0  0.00000000000E+00  0.00000000000E+00  0.15398788418E+04  0.20153188844E+04  0.13001089794E+04 0.  0.
        3    1    3    3  502    0  0.63979469981E+03  0.37585353004E+02  0.60140464759E+03  0.87888422276E+03  0.10100000352E+00 0. -1.
       -3    1    3    3    0  502 -0.63979469981E+03 -0.37585353004E+02  0.93847419425E+03  0.11364346616E+04  0.10100000352E+00 0.  1.
</event>
<event>
 5   0  0.1475396E-04  0.1299844E+04  0.7818609E-02  0.9029689E-01
       -1   -1    0    0    0  501  0.00000000000E+00  0.00000000000E+00  0.12875323973E+04  0.12875323973E+04  0.50400001928E-02 0.  1.
        1   -1    0    0  501    0  0.00000000000E+00  0.00000000000E+00 -0.32806849351E+03  0.32806849355E+03  0.50400001928E-02 0. -1.
    10030    2    1    2    0    0  0.00000000000E+00  0.00000000000E+00  0.95946390379E+03  0.16156008909E+04  0.12998443199E+04 0.  0.
        3    1    3    3  502    0 -0.45740496755E+03  0.86062492599E+02 -0.84083106306E+02  0.47296515299E+03  0.10100000352E+00 0. -1.
       -3    1    3    3    0  502  0.45740496755E+03 -0.86062492599E+02  0.10435470101E+04  0.11426357379E+04  0.10100000352E+00 0.  1.
</event>
<event>
 5   0  0.1408341E-04  0.1310343E+04  0.7818609E-02  0.9021403E-01
        1   -1    0    0  501    0  0.00000000000E+00  0.00000000000E+00  0.29558600188E+03  0.29558600193E+03  0.50400001928E-02 0.  1.
       -1   -1    0    0    0  501  0.00000000000E+00  0.00000000000E+00 -0.14521995203E+04  0.14521995203E+04  0.50400001928E-02 0. -1.
    10030    2    1    2    0    0  0.00000000000E+00  0.00000000000E+00 -0.11566135184E+04  0.17477855222E+04  0.13103432378E+04 0.  0.
        5    1    3    3  502    0  0.13630024281E+03 -0.33894617512E+03  0.14709201685E+03  0.39385329405E+03  0.46999998093E+01 0.  1.
       -5    1    3    3    0  502 -0.13630024281E+03  0.33894617512E+03 -0.13037055353E+04  0.13539322282E+04  0.46999998093E+01 0. -1.
</event>
<event>
 5   0  0.1475396E-04  0.1299598E+04  0.7818609E-02  0.9029884E-01
        1   -1    0    0  501    0  0.00000000000E+00  0.00000000000E+00  0.91807090815E+03  0.91807090816E+03  0.50400001928E-02 0.  1.
       -1   -1    0    0    0  501  0.00000000000E+00  0.00000000000E+00 -0.45991974515E+03  0.45991974518E+03  0.50400001928E-02 0. -1.
    10030    2    1    2    0    0  0.00000000000E+00  0.00000000000E+00  0.45815116300E+03  0.13779906533E+04  0.12995983043E+04 0.  0.
        3    1    3    3  502    0 -0.44505537912E+03  0.46053562340E+03  0.34557376159E+03  0.72772837364E+03  0.10100000352E+00 0.  1.
       -3    1    3    3    0  502  0.44505537912E+03 -0.46053562340E+03  0.11257740141E+03  0.65026227970E+03  0.10100000352E+00 0. -1.
</event>
<event>
 5   0  0.2661377E-04  0.1300590E+04  0.7818609E-02  0.9029097E-01
       -2   -1    0    0    0  501  0.00000000000E+00  0.00000000000E+00  0.25523218595E+03  0.25523218597E+03  0.25500000920E-02 0. -1.
        2   -1    0    0  501    0  0.00000000000E+00  0.00000000000E+00 -0.16568581933E+04  0.16568581933E+04  0.25500000920E-02 0.  1.
    10030    2    1    2    0    0  0.00000000000E+00  0.00000000000E+00 -0.14016260073E+04  0.19120903792E+04  0.13005899254E+04 0.  0.
        5    1    3    3  502    0  0.29109427826E+03  0.56654550568E+03 -0.89335362636E+03  0.10971838864E+04  0.46999998093E+01 0.  1.
       -5    1    3    3    0  502 -0.29109427826E+03 -0.56654550568E+03 -0.50827238096E+03  0.81490649285E+03  0.46999998093E+01 0. -1.
</event>
<event>
 5   0  0.2794825E-04  0.1319852E+04  0.7818609E-02  0.9013969E-01
       -2   -1    0    0    0  501  0.00000000000E+00  0.00000000000E+00  0.11145099472E+04  0.11145099472E+04  0.25500000920E-02 0.  1.
        2   -1    0    0  501    0  0.00000000000E+00  0.00000000000E+00 -0.39075649743E+03  0.39075649744E+03  0.25500000920E-02 0. -1.
    10030    2    1    2    0    0  0.00000000000E+00  0.00000000000E+00  0.72375344974E+03  0.15052664446E+04  0.13198515118E+04 0.  0.
        1    1    3    3  502    0 -0.60210384991E+03  0.10704805806E+03  0.79015037908E+02  0.61662931252E+03  0.50400001928E-02 0. -1.
       -1    1    3    3    0  502  0.60210384991E+03 -0.10704805806E+03  0.64473841183E+03  0.88863713209E+03  0.50400001928E-02 0.  1.
</event>
<event>
 5   0  0.2794825E-04  0.1298104E+04  0.7818609E-02  0.9031070E-01
       -2   -1    0    0    0  501  0.00000000000E+00  0.00000000000E+00  0.62836916436E+03  0.62836916437E+03  0.25500000920E-02 0.  1.
        2   -1    0    0  501    0  0.00000000000E+00  0.00000000000E+00 -0.67041545850E+03  0.67041545850E+03  0.25500000920E-02 0. -1.
    10030    2    1    2    0    0  0.00000000000E+00  0.00000000000E+00 -0.42046294136E+02  0.12987846229E+04  0.12981038501E+04 0.  0.
        1    1    3    3  502    0 -0.25123468869E+03 -0.32335074155E+03 -0.52486825015E+03  0.66570357585E+03  0.50400001928E-02 0. -1.
       -1    1    3    3    0  502  0.25123468869E+03  0.32335074155E+03  0.48282195601E+03  0.63308104702E+03  0.50400001928E-02 0.  1.
</event>
<event>
 5   0  0.1476511E-04  0.1299953E+04  0.7818609E-02  0.9029602E-01
       -1   -1    0    0    0  501  0.00000000000E+00  0.00000000000E+00  0.11358285452E+04  0.11358285452E+04  0.50400001928E-02 0.  1.
        1   -1    0    0  501    0  0.00000000000E+00  0.00000000000E+00 -0.37194827064E+03  0.37194827067E+03  0.50400001928E-02 0. -1.
    10030    2    1    2    0    0  0.00000000000E+00  0.00000000000E+00  0.76388027459E+03  0.15077768159E+04  0.12999530194E+04 0.  0.
        2    1    3    3  502    0 -0.15658869884E+03 -0.10510756412E+02 -0.34964194972E+03  0.38324925260E+03  0.25500000920E-02 0. -1.
       -2    1    3    3    0  502  0.15658869884E+03  0.10510756412E+02  0.11135222243E+04  0.11245275633E+04  0.25500000920E-02 0.  1.
</event>
<event>
 5   0  0.1002887E-04  0.1299884E+04  0.7818609E-02  0.9029657E-01
        4   -1    0    0  501    0  0.00000000000E+00  0.00000000000E+00  0.14404579956E+04  0.14404585555E+04  0.12699999809E+01 0. -1.
       -4   -1    0    0    0  501  0.00000000000E+00  0.00000000000E+00 -0.29325503632E+03  0.29325778630E+03  0.12699999809E+01 0.  1.
    10030    2    1    2    0    0  0.00000000000E+00  0.00000000000E+00  0.11472029593E+04  0.17337163418E+04  0.12998837348E+04 0.  0.
        5    1    3    3  502    0 -0.31554508670E+03  0.35768897564E+03  0.11624055483E+04  0.12564707931E+04  0.46999998093E+01 0. -1.
       -5    1    3    3    0  502  0.31554508670E+03 -0.35768897564E+03 -0.15202589043E+02  0.47724554870E+03  0.46999998093E+01 0.  1.
</event>
<event>
 5   0  0.2723209E-04  0.1302824E+04  0.7818609E-02  0.9027329E-01
       -2   -1    0    0    0  501  0.00000000000E+00  0.00000000000E+00  0.61988796463E+03  0.61988796464E+03  0.25500000920E-02 0.  1.
        2   -1    0    0  501    0  0.00000000000E+00  0.00000000000E+00 -0.68453894501E+03  0.68453894501E+03  0.25500000920E-02 0. -1.
    10030    2    1    2    0    0  0.00000000000E+00  0.00000000000E+00 -0.64650980378E+02  0.13044269097E+04  0.13028237845E+04 0.  0.
        2    1    3    3  502    0  0.72323428421E+02  0.64717302871E+03 -0.15756836322E+02  0.65139226683E+03  0.25500000920E-02 0.  1.
       -2    1    3    3    0  502 -0.72323428421E+02 -0.64717302871E+03 -0.48894144056E+02  0.65303464282E+03  0.25500000920E-02 0. -1.
</event>
<event>
 5   0  0.1408341E-04  0.1292465E+04  0.7818609E-02  0.9035562E-01
        1   -1    0    0  501    0  0.00000000000E+00  0.00000000000E+00  0.81152213081E+03  0.81152213083E+03  0.50400001928E-02 0. -1.
       -1   -1    0    0    0  501  0.00000000000E+00  0.00000000000E+00 -0.51460892639E+03  0.51460892641E+03  0.50400001928E-02 0.  1.
    10030    2    1    2    0    0  0.00000000000E+00  0.00000000000E+00  0.29691320442E+03  0.13261310572E+04  0.12924651369E+04 0.  0.
        5    1    3    3  502    0 -0.49028864612E+03  0.39977757132E+02 -0.28152142967E+03  0.56679589178E+03  0.46999998093E+01 0.  1.
       -5    1    3    3    0  502  0.49028864612E+03 -0.39977757132E+02  0.57843463409E+03  0.75933516546E+03  0.46999998093E+01 0. -1.
</event>
<event>
 5   0  0.1430636E-04  0.1300016E+04  0.7818609E-02  0.9029552E-01
       -1   -1    0    0    0  501  0.00000000000E+00  0.00000000000E+00  0.93697057711E+03  0.93697057712E+03  0.50400001928E-02 0. -1.
        1   -1    0    0  501    0  0.00000000000E+00  0.00000000000E+00 -0.45093272350E+03  0.45093272353E+03  0.50400001928E-02 0.  1.
    10030    2    1    2    0    0  0.00000000000E+00  0.00000000000E+00  0.48603785361E+03  0.13879033007E+04  0.13000164525E+04 0.  0.
        4    1    3    3  502    0 -0.49052191426E+03  0.35255076343E+03  0.49925575612E+03  0.78368470196E+03  0.12699999809E+01 0. -1.
       -4    1    3    3    0  502  0.49052191426E+03 -0.35255076343E+03 -0.13217902513E+02  0.60421859869E+03  0.12699999809E+01 0.  1.
</event>
<event>
 5   0  0.1475396E-04  0.1296892E+04  0.7818609E-02  0.9032034E-01
       -1   -1    0    0    0  501  0.00000000000E+00  0.00000000000E+00  0.62469583204E+03  0.62469583206E+03  0.50400001928E-02 0.  1.
        1   -1    0    0  501    0  0.00000000000E+00  0.00000000000E+00 -0.67309875575E+03  0.67309875577E+03  0.50400001928E-02 0. -1.
    10030    2    1    2    0    0  0.00000000000E+00  0.00000000000E+00 -0.48402923705E+02  0.12977945878E+04  0.12968916490E+04 0.  0.
        3    1    3    3  502    0 -0.39700339035E+03 -0.91694076354E+02 -0.52899541511E+03  0.66772423574E+03  0.10100000352E+00 0. -1.
       -3    1    3    3    0  502  0.39700339035E+03  0.91694076354E+02  0.48059249140E+03  0.63007035209E+03  0.10100000352E+00 0.  1.
</event>
<event>
 5   0  0.1408341E-04  0.1299093E+04  0.7818609E-02  0.9030285E-01
        1   -1    0    0  501    0  0.00000000000E+00  0.00000000000E+00  0.41625906660E+03  0.41625906663E+03  0.50400001928E-02 0. -1.
       -1   -1    0    0    0  501  0.00000000000E+00  0.00000000000E+00 -0.10135766981E+04  0.10135766982E+04  0.50400001928E-02 0.  1.
    10030    2    1    2    0    0  0.00000000000E+00  0.00000000000E+00 -0.59731763154E+03  0.14298357648E+04  0.12990927455E+04 0.  0.
        5    1    3    3  502    0  0.44610709461E+03 -0.38604807032E+03 -0.59774948452E+03  0.83986379176E+03  0.46999998093E+01 0.  1.
       -5    1    3    3    0  502 -0.44610709461E+03  0.38604807032E+03  0.43185298162E+00  0.58997197303E+03  0.46999998093E+01 0. -1.
</event>
<event>
 5   0  0.2723209E-04  0.1301256E+04  0.7818609E-02  0.9028570E-01
        2   -1    0    0  501    0  0.00000000000E+00  0.00000000000E+00  0.18239270412E+04  0.18239270412E+04  0.25500000920E-02 0. -1.
       -2   -1    0    0    0  501  0.00000000000E+00  0.00000000000E+00 -0.23209095917E+03  0.23209095919E+03  0.25500000920E-02 0.  1.
    10030    2    1    2    0    0  0.00000000000E+00  0.00000000000E+00  0.15918360820E+04  0.20560180004E+04  0.13012562799E+04 0.  0.
        2    1    3    3  502    0  0.20057256118E+03  0.59908783365E+02 -0.17743220136E+03  0.27440954923E+03  0.25500000920E-02 0.  1.
       -2    1    3    3    0  502 -0.20057256118E+03 -0.59908783365E+02  0.17692682834E+04  0.17816084512E+04  0.25500000920E-02 0. -1.
</event>
<event>
 5   0  0.2723209E-04  0.1300033E+04  0.7818609E-02  0.9029539E-01
        2   -1    0    0  501    0  0.00000000000E+00  0.00000000000E+00  0.12544007577E+04  0.12544007577E+04  0.25500000920E-02 0.  1.
       -2   -1    0    0    0  501  0.00000000000E+00  0.00000000000E+00 -0.33683137786E+03  0.33683137787E+03  0.25500000920E-02 0. -1.
    10030    2    1    2    0    0  0.00000000000E+00  0.00000000000E+00  0.91756937980E+03  0.15912321355E+04  0.13000331313E+04 0.  0.
        2    1    3    3  502    0  0.10355299634E+03 -0.51862348000E+03  0.92136356507E+03  0.10623579228E+04  0.25500000920E-02 0.  1.
       -2    1    3    3    0  502 -0.10355299634E+03  0.51862348000E+03 -0.37941852763E+01  0.52887421275E+03  0.25500000920E-02 0. -1.
</event>
<event>
 5   0  0.1430636E-04  0.1298759E+04  0.7818609E-02  0.9030550E-01
        1   -1    0    0  501    0  0.00000000000E+00  0.00000000000E+00  0.64194022491E+03  0.64194022493E+03  0.50400001928E-02 0.  1.
       -1   -1    0    0    0  501  0.00000000000E+00  0.00000000000E+00 -0.65690490950E+03  0.65690490952E+03  0.50400001928E-02 0. -1.
    10030    2    1    2    0    0  0.00000000000E+00  0.00000000000E+00 -0.14964684588E+02  0.12988451345E+04  0.12987589236E+04 0.  0.
        4    1    3    3  502    0 -0.33401134442E+03 -0.27931905677E+03  0.47432692952E+03  0.64387138673E+03  0.12699999809E+01 0.  1.
       -4    1    3    3    0  502  0.33401134442E+03  0.27931905677E+03 -0.48929161411E+03  0.65497374773E+03  0.12699999809E+01 0. -1.
</event>
<event>
 5   0  0.1479690E-04  0.1300292E+04  0.7818609E-02  0.9029334E-01
        1   -1    0    0  501    0  0.00000000000E+00  0.00000000000E+00  0.81691333689E+03  0.81691333690E+03  0.50400001928E-02 0. -1.
       -1   -1    0    0    0  501  0.00000000000E+00  0.00000000000E+00 -0.51742297171E+03  0.51742297173E+03  0.50400001928E-02 0.  1.
    10030    2    1    2    0    0  0.00000000000E+00  0.00000000000E+00  0.29949036518E+03  0.13343363086E+04  0.13002918541E+04 0.  0.
        1    1    3    3  502    0 -0.28502903859E+03 -0.17612877488E+02  0.74910757061E+03  0.80169440479E+03  0.50400001928E-02 0. -1.
       -1    1    3    3    0  502  0.28502903859E+03  0.17612877488E+02 -0.44961720543E+03  0.53264190385E+03  0.50400001928E-02 0.  1.
</event>
<event>
 5   0  0.1479690E-04  0.1286800E+04  0.7818609E-02  0.9040099E-01
        1   -1    0    0  501    0  0.00000000000E+00  0.00000000000E+00  0.36754565866E+03  0.36754565869E+03  0.50400001928E-02 0.  1.
       -1   -1    0    0    0  501  0.00000000000E+00  0.00000000000E+00 -0.11262911235E+04  0.11262911235E+04  0.50400001928E-02 0. -1.
    10030    2    1    2    0    0  0.00000000000E+00  0.00000000000E+00 -0.75874546487E+03  0.14938367822E+04  0.12867997713E+04 0.  0.
        1    1    3    3  502    0 -0.40583766022E+03  0.43926275074E+03 -0.65484321735E+03  0.88683460125E+03  0.50400001928E-02 0. -1.
       -1    1    3    3    0  502  0.40583766022E+03 -0.43926275074E+03 -0.10390224752E+03  0.60700218097E+03  0.50400001928E-02 0.  1.
</event>
<event>
 5   0  0.1002887E-04  0.1300495E+04  0.7818609E-02  0.9029173E-01
        3   -1    0    0  501    0  0.00000000000E+00  0.00000000000E+00  0.46035572538E+03  0.46035573645E+03  0.10100000352E+00 0. -1.
       -3   -1    0    0    0  501  0.00000000000E+00  0.00000000000E+00 -0.91846778573E+03  0.91846779129E+03  0.10100000352E+00 0.  1.
    10030    2    1    2    0    0  0.00000000000E+00  0.00000000000E+00 -0.45811206036E+03  0.13788235277E+04  0.13004951599E+04 0.  0.
        5    1    3    3  502    0  0.54707169845E+03  0.32788711915E+03 -0.94936271050E+02  0.64485067396E+03  0.46999998093E+01 0. -1.
       -5    1    3    3    0  502 -0.54707169845E+03 -0.32788711915E+03 -0.36317578931E+03  0.73397285378E+03  0.46999998093E+01 0.  1.
</event>
<event>
 5   0  0.1408341E-04  0.1300265E+04  0.7818609E-02  0.9029355E-01
        1   -1    0    0  501    0  0.00000000000E+00  0.00000000000E+00  0.87186238480E+03  0.87186238482E+03  0.50400001928E-02 0. -1.
       -1   -1    0    0    0  501  0.00000000000E+00  0.00000000000E+00 -0.48479257375E+03  0.48479257377E+03  0.50400001928E-02 0.  1.
    10030    2    1    2    0    0  0.00000000000E+00  0.00000000000E+00  0.38706981105E+03  0.13566549586E+04  0.13002652183E+04 0.  0.
        5    1    3    3  502    0  0.32406394321E+03 -0.49094311165E+02 -0.39226076059E+03  0.51119300169E+03  0.46999998093E+01 0.  1.
       -5    1    3    3    0  502 -0.32406394321E+03  0.49094311165E+02  0.77933057164E+03  0.84546195690E+03  0.46999998093E+01 0. -1.
</event>
<event>
 5   0  0.2794825E-04  0.1301974E+04  0.7818609E-02  0.9028001E-01
       -2   -1    0    0    0  501  0.00000000000E+00  0.00000000000E+00  0.26097903314E+03  0.26097903315E+03  0.25500000920E-02 0. -1.
        2   -1    0    0  501    0  0.00000000000E+00  0.00000000000E+00 -0.16238249056E+04  0.16238249056E+04  0.25500000920E-02 0.  1.
    10030    2    1    2    0    0  0.00000000000E+00  0.00000000000E+00 -0.13628458724E+04  0.18848039387E+04  0.13019742760E+04 0.  0.
        1    1    3    3  502    0  0.24845730537E+03 -0.13460961185E+03 -0.15304098576E+04  0.15562792527E+04  0.50400001928E-02 0.  1.
       -1    1    3    3    0  502 -0.24845730537E+03  0.13460961185E+03  0.16756398513E+03  0.32852468603E+03  0.50400001928E-02 0. -1.
</event>
<event>
 5   0  0.2756984E-04  0.1301171E+04  0.7818609E-02  0.9028637E-01
        2   -1    0    0  501    0  0.00000000000E+00  0.00000000000E+00  0.16225256346E+04  0.16225256346E+04  0.25500000920E-02 0. -1.
       -2   -1    0    0    0  501  0.00000000000E+00  0.00000000000E+00 -0.26086577052E+03  0.26086577053E+03  0.25500000920E-02 0.  1.
    10030    2    1    2    0    0  0.00000000000E+00  0.00000000000E+00  0.13616598641E+04  0.18833914052E+04  0.13011708572E+04 0.  0.
        3    1    3    3  502    0  0.49645860110E+03  0.41976853226E+03  0.64583175135E+03  0.91639261484E+03  0.10100000352E+00 0.  1.
       -3    1    3    3    0  502 -0.49645860110E+03 -0.41976853226E+03  0.71582811277E+03  0.96699879034E+03  0.10100000352E+00 0. -1.
</event>
<event>
 5   0  0.2794825E-04  0.1301912E+04  0.7818609E-02  0.9028050E-01
       -2   -1    0    0    0  501  0.00000000000E+00  0.00000000000E+00  0.59263252942E+03  0.59263252943E+03  0.25500000920E-02 0.  1.
        2   -1    0    0  501    0  0.00000000000E+00  0.00000000000E+00 -0.71501982216E+03  0.71501982216E+03  0.25500000920E-02 0. -1.
    10030    2    1    2    0    0  0.00000000000E+00  0.00000000000E+00 -0.12238729273E+03  0.13076523516E+04  0.13019124484E+04 0.  0.
        1    1    3    3  502    0 -0.20694081478E+03 -0.86979867747E+02  0.55252727486E+03  0.59638610623E+03  0.50400001928E-02 0.  1.
       -1    1    3    3    0  502  0.20694081478E+03  0.86979867747E+02 -0.67491456760E+03  0.71126624536E+03  0.50400001928E-02 0. -1.
</event>
<event>
 5   0  0.2756984E-04  0.1299270E+04  0.7818609E-02  0.9030144E-01
        2   -1    0    0  501    0  0.00000000000E+00  0.00000000000E+00  0.15924286883E+04  0.15924286883E+04  0.25500000920E-02 0.  1.
       -2   -1    0    0    0  501  0.00000000000E+00  0.00000000000E+00 -0.26502027820E+03  0.26502027821E+03  0.25500000920E-02 0. -1.
    10030    2    1    2    0    0  0.00000000000E+00  0.00000000000E+00  0.13274084101E+04  0.18574489665E+04  0.12992704014E+04 0.  0.
        3    1    3    3  502    0  0.55367694234E+03 -0.13664180264E+03  0.11084867365E+04  0.12465841303E+04  0.10100000352E+00 0.  1.
       -3    1    3    3    0  502 -0.55367694234E+03  0.13664180264E+03  0.21892167354E+03  0.61086483616E+03  0.10100000352E+00 0. -1.
</event>
<event>
 5   0  0.2661377E-04  0.1304765E+04  0.7818609E-02  0.9025795E-01
       -2   -1    0    0    0  501  0.00000000000E+00  0.00000000000E+00  0.47329129975E+03  0.47329129976E+03  0.25500000920E-02 0.  1.
        2   -1    0    0  501    0  0.00000000000E+00  0.00000000000E+00 -0.89924141168E+03  0.89924141169E+03  0.25500000920E-02 0. -1.
    10030    2    1    2    0    0  0.00000000000E+00  0.00000000000E+00 -0.42595011193E+03  0.13725327114E+04  0.13047653222E+04 0.  0.
        5    1    3    3  502    0 -0.10530836920E+03  0.79568930692E+02  0.45908101358E+03  0.47770130248E+03  0.46999998093E+01 0.  1.
       -5    1    3    3    0  502  0.10530836920E+03 -0.79568930692E+02 -0.88503112552E+03  0.89483140897E+03  0.46999998093E+01 0. -1.
</event>
<event>
 5   0  0.1002887E-04  0.1299812E+04  0.7818609E-02  0.9029714E-01
        4   -1    0    0  501    0  0.00000000000E+00  0.00000000000E+00  0.67599600957E+03  0.67599720255E+03  0.12699999809E+01 0. -1.
       -4   -1    0    0    0  501  0.00000000000E+00  0.00000000000E+00 -0.62482076569E+03  0.62482205638E+03  0.12699999809E+01 0.  1.
    10030    2    1    2    0    0  0.00000000000E+00  0.00000000000E+00  0.51175243879E+02  0.13008192589E+04  0.12998122321E+04 0.  0.
        5    1    3    3  502    0  0.32047836500E+03  0.34352313207E+02 -0.53918052873E+03  0.62819121007E+03  0.46999998093E+01 0.  1.
       -5    1    3    3    0  502 -0.32047836500E+03 -0.34352313207E+02  0.59035577261E+03  0.67262804886E+03  0.46999998093E+01 0. -1.
</event>
<event>
 5   0  0.1475396E-04  0.1335255E+04  0.7818609E-02  0.9002065E-01
       -1   -1    0    0    0  501  0.00000000000E+00  0.00000000000E+00  0.29251012956E+03  0.29251012960E+03  0.50400001928E-02 0.  1.
        1   -1    0    0  501    0  0.00000000000E+00  0.00000000000E+00 -0.15237988053E+04  0.15237988053E+04  0.50400001928E-02 0. -1.
    10030    2    1    2    0    0  0.00000000000E+00  0.00000000000E+00 -0.12312886757E+04  0.18163089349E+04  0.13352551606E+04 0.  0.
        3    1    3    3  502    0  0.43001025910E+03 -0.23203991217E+03  0.32045905650E+01  0.48863240106E+03  0.10100000352E+00 0. -1.
       -3    1    3    3    0  502 -0.43001025910E+03  0.23203991217E+03 -0.12344932663E+04  0.13276765338E+04  0.10100000352E+00 0.  1.
</event>
<event>
 5   0  0.2794825E-04  0.1298299E+04  0.7818609E-02  0.9030915E-01
       -2   -1    0    0    0  501  0.00000000000E+00  0.00000000000E+00  0.63343627143E+03  0.63343627144E+03  0.25500000920E-02 0.  1.
        2   -1    0    0  501    0  0.00000000000E+00  0.00000000000E+00 -0.66525260346E+03  0.66525260347E+03  0.25500000920E-02 0. -1.
    10030    2    1    2    0    0  0.00000000000E+00  0.00000000000E+00 -0.31816332030E+02  0.12986888749E+04  0.12982990853E+04 0.  0.
        1    1    3    3  502    0 -0.63634548995E+03 -0.12690003810E+03  0.29635107479E+01  0.64888210383E+03  0.50400001928E-02 0.  1.
       -1    1    3    3    0  502  0.63634548995E+03  0.12690003810E+03 -0.34779842778E+02  0.64980677108E+03  0.50400001928E-02 0. -1.
</event>
<event>
 5   0  0.1475396E-04  0.1299626E+04  0.7818609E-02  0.9029862E-01
       -1   -1    0    0    0  501  0.00000000000E+00  0.00000000000E+00  0.97879511577E+03  0.97879511579E+03  0.50400001928E-02 0.  1.
        1   -1    0    0  501    0  0.00000000000E+00  0.00000000000E+00 -0.43140475199E+03  0.43140475202E+03  0.50400001928E-02 0. -1.
    10030    2    1    2    0    0  0.00000000000E+00  0.00000000000E+00  0.54739036379E+03  0.14101998678E+04  0.12996258911E+04 0.  0.
        3    1    3    3  502    0  0.24790043493E+03 -0.59059857646E+03  0.39253785034E+03  0.75123050943E+03  0.10100000352E+00 0.  1.
       -3    1    3    3    0  502 -0.24790043493E+03  0.59059857646E+03  0.15485251345E+03  0.65896935837E+03  0.10100000352E+00 0. -1.
</event>
<event>
 5   0  0.1476511E-04  0.1299995E+04  0.7818609E-02  0.9029569E-01
       -1   -1    0    0    0  501  0.00000000000E+00  0.00000000000E+00  0.41586917612E+03  0.41586917615E+03  0.50400001928E-02 0.  1.
        1   -1    0    0  501    0  0.00000000000E+00  0.00000000000E+00 -0.10159361857E+04  0.10159361857E+04  0.50400001928E-02 0. -1.
    10030    2    1    2    0    0  0.00000000000E+00  0.00000000000E+00 -0.60006700959E+03  0.14318053619E+04  0.12999946839E+04 0.  0.
        2    1    3    3  502    0  0.31691822122E+03 -0.15538508311E+03  0.30112430350E+03  0.46395854250E+03  0.25500000920E-02 0.  1.
       -2    1    3    3    0  502 -0.31691822122E+03  0.15538508311E+03 -0.90119131308E+03  0.96784681938E+03  0.25500000920E-02 0. -1.
</event>
<event>
 5   0  0.1430636E-04  0.1298062E+04  0.7818609E-02  0.9031103E-01
        1   -1    0    0  501    0  0.00000000000E+00  0.00000000000E+00  0.33758113125E+03  0.33758113128E+03  0.50400001928E-02 0. -1.
       -1   -1    0    0    0  501  0.00000000000E+00  0.00000000000E+00 -0.12478224350E+04  0.12478224350E+04  0.50400001928E-02 0.  1.
    10030    2    1    2    0    0  0.00000000000E+00  0.00000000000E+00 -0.91024130371E+03  0.15854035663E+04  0.12980621083E+04 0.  0.
        4    1    3    3  502    0  0.38694157278E+03 -0.32789731971E+03 -0.94973340123E+03  0.10766780296E+04  0.12699999809E+01 0.  1.
       -4    1    3    3    0  502 -0.38694157278E+03  0.32789731971E+03  0.39492097518E+02  0.50872553669E+03  0.12699999809E+01 0. -1.
</event>
<event>
 5   0  0.2573071E-04  0.1298787E+04  0.7818609E-02  0.9030528E-01
       -2   -1    0    0    0  501  0.00000000000E+00  0.00000000000E+00  0.10011469610E+04  0.10011469610E+04  0.25500000920E-02 0.  1.
        2   -1    0    0  501    0  0.00000000000E+00  0.00000000000E+00 -0.42122864799E+03  0.42122864799E+03  0.25500000920E-02 0. -1.
    10030    2    1    2    0    0  0.00000000000E+00  0.00000000000E+00  0.57991831302E+03  0.14223756090E+04  0.12987867890E+04 0.  0.
        4    1    3    3  502    0  0.42184749038E+02 -0.34528521612E+03 -0.31059123630E+03  0.46633674795E+03  0.12699999809E+01 0. -1.
       -4    1    3    3    0  502 -0.42184749038E+02  0.34528521612E+03  0.89050954932E+03  0.95603886105E+03  0.12699999809E+01 0.  1.
</event>
<event>
 5   0  0.1408341E-04  0.1305390E+04  0.7818609E-02  0.9025302E-01
       -1   -1    0    0    0  501  0.00000000000E+00  0.00000000000E+00  0.80240546502E+03  0.80240546503E+03  0.50400001928E-02 0.  1.
        1   -1    0    0  501    0  0.00000000000E+00  0.00000000000E+00 -0.53091671219E+03  0.53091671221E+03  0.50400001928E-02 0. -1.
    10030    2    1    2    0    0  0.00000000000E+00  0.00000000000E+00  0.27148875283E+03  0.13333221772E+04  0.13053895531E+04 0.  0.
        5    1    3    3  502    0 -0.13239702529E+03 -0.11314426062E+03  0.77821729773E+03  0.79748031230E+03  0.46999998093E+01 0.  1.
       -5    1    3    3    0  502  0.13239702529E+03  0.11314426062E+03 -0.50672854490E+03  0.53584186495E+03  0.46999998093E+01 0. -1.
</event>
<event>
 5   0  0.1408341E-04  0.1301976E+04  0.7818609E-02  0.9028000E-01
       -1   -1    0    0    0  501  0.00000000000E+00  0.00000000000E+00  0.59772445272E+03  0.59772445274E+03  0.50400001928E-02 0. -1.
        1   -1    0    0  501    0  0.00000000000E+00  0.00000000000E+00 -0.70899784078E+03  0.70899784080E+03  0.50400001928E-02 0.  1.
    10030    2    1    2    0    0  0.00000000000E+00  0.00000000000E+00 -0.11127338806E+03  0.13067222935E+04  0.13019759543E+04 0.  0.
        5    1    3    3  502    0  0.60826590533E+01  0.26542635319E+03 -0.65217296680E+03  0.70415894252E+03  0.46999998093E+01 0.  1.
       -5    1    3    3    0  502 -0.60826590533E+01 -0.26542635319E+03  0.54089957874E+03  0.60256335102E+03  0.46999998093E+01 0. -1.
</event>
<event>
 5   0  0.1408341E-04  0.1302826E+04  0.7818609E-02  0.9027327E-01
        1   -1    0    0  501    0  0.00000000000E+00  0.00000000000E+00  0.20763197214E+04  0.20763197214E+04  0.50400001928E-02 0. -1.
       -1   -1    0    0    0  501  0.00000000000E+00  0.00000000000E+00 -0.20437070522E+03  0.20437070528E+03  0.50400001928E-02 0.  1.
    10030    2    1    2    0    0  0.00000000000E+00  0.00000000000E+00  0.18719490162E+04  0.22806904267E+04  0.13028260449E+04 0.  0.
        5    1    3    3  502    0  0.23721637158E+03  0.32296141737E+02 -0.12453418880E+03  0.26989905871E+03  0.46999998093E+01 0.  1.
       -5    1    3    3    0  502 -0.23721637158E+03 -0.32296141737E+02  0.19964832050E+04  0.20107913680E+04  0.46999998093E+01 0. -1.
</event>
<event>
 5   0  0.2661377E-04  0.1300673E+04  0.7818609E-02  0.9029031E-01
       -2   -1    0    0    0  501  0.00000000000E+00  0.00000000000E+00  0.10886434619E+04  0.10886434619E+04  0.25500000920E-02 0.  1.
        2   -1    0    0  501    0  0.00000000000E+00  0.00000000000E+00 -0.38849988943E+03  0.38849988943E+03  0.25500000920E-02 0. -1.
    10030    2    1    2    0    0  0.00000000000E+00  0.00000000000E+00  0.70014357252E+03  0.14771433514E+04  0.13006734634E+04 0.  0.
        5    1    3    3  502    0  0.49020605736E+03 -0.42363192093E+03  0.41380932182E+03  0.76878230204E+03  0.46999998093E+01 0.  1.
       -5    1    3    3    0  502 -0.49020605736E+03  0.42363192093E+03  0.28633425070E+03  0.70836104934E+03  0.46999998093E+01 0. -1.
</event>
<event>
 5   0  0.2794825E-04  0.1299476E+04  0.7818609E-02  0.9029981E-01
       -2   -1    0    0    0  501  0.00000000000E+00  0.00000000000E+00  0.50390485004E+03  0.50390485004E+03  0.25500000920E-02 0. -1.
        2   -1    0    0  501    0  0.00000000000E+00  0.00000000000E+00 -0.83777634861E+03  0.83777634862E+03  0.25500000920E-02 0.  1.
    10030    2    1    2    0    0  0.00000000000E+00  0.00000000000E+00 -0.33387149858E+03  0.13416811987E+04  0.12994761488E+04 0.  0.
        1    1    3    3  502    0  0.42951098791E+03  0.37058976785E+03 -0.49399375136E+03  0.75222755279E+03  0.50400001928E-02 0. -1.
       -1    1    3    3    0  502 -0.42951098791E+03 -0.37058976785E+03  0.16012225278E+03  0.58945364587E+03  0.50400001928E-02 0.  1.
</event>
<event>
 5   0  0.1476511E-04  0.1300865E+04  0.7818609E-02  0.9028879E-01
        1   -1    0    0  501    0  0.00000000000E+00  0.00000000000E+00  0.45253261905E+03  0.45253261908E+03  0.50400001928E-02 0. -1.
       -1   -1    0    0    0  501  0.00000000000E+00  0.00000000000E+00 -0.93487782451E+03  0.93487782453E+03  0.50400001928E-02 0.  1.
    10030    2    1    2    0    0  0.00000000000E+00  0.00000000000E+00 -0.48234520546E+03  0.13874104436E+04  0.13008654203E+04 0.  0.
        2    1    3    3  502    0 -0.13677763677E+03 -0.63885819267E+02  0.43358974621E+03  0.45911827218E+03  0.25500000920E-02 0. -1.
       -2    1    3    3    0  502  0.13677763677E+03  0.63885819267E+02 -0.91593495167E+03  0.92829217143E+03  0.25500000920E-02 0.  1.
</event>
<event>
 5   0  0.1002887E-04  0.1300399E+04  0.7818609E-02  0.9029249E-01
        4   -1    0    0  501    0  0.00000000000E+00  0.00000000000E+00  0.91228563344E+03  0.91228651743E+03  0.12699999809E+01 0. -1.
       -4   -1    0    0    0  501  0.00000000000E+00  0.00000000000E+00 -0.46340463365E+03  0.46340637392E+03  0.12699999809E+01 0.  1.
    10030    2    1    2    0    0  0.00000000000E+00  0.00000000000E+00  0.44888099979E+03  0.13756928913E+04  0.13003987001E+04 0.  0.
        3    1    3    3  502    0 -0.26068832085E+03  0.11302631343E+03  0.84313239002E+03  0.88972219567E+03  0.10100000352E+00 0. -1.
       -3    1    3    3    0  502  0.26068832085E+03 -0.11302631343E+03 -0.39425139023E+03  0.48597069568E+03  0.10100000352E+00 0.  1.
</event>
<event>
 5   0  0.2794825E-04  0.1300205E+04  0.7818609E-02  0.9029403E-01
        2   -1    0    0  501    0  0.00000000000E+00  0.00000000000E+00  0.10482160715E+04  0.10482160716E+04  0.25500000920E-02 0.  1.
       -2   -1    0    0    0  501  0.00000000000E+00  0.00000000000E+00 -0.40319288064E+03  0.40319288065E+03  0.25500000920E-02 0. -1.
    10030    2    1    2    0    0  0.00000000000E+00  0.00000000000E+00  0.64502319090E+03  0.14514089522E+04  0.13002049953E+04 0.  0.
        1    1    3    3  502    0 -0.62532172320E+03 -0.17761404069E+03  0.31391886582E+03  0.72188576610E+03  0.50400001928E-02 0. -1.
       -1    1    3    3    0  502  0.62532172320E+03  0.17761404069E+03  0.33110432508E+03  0.72952318611E+03  0.50400001928E-02 0.  1.
</event>
<event>
 5   0  0.1002887E-04  0.1304112E+04  0.7818609E-02  0.9026311E-01
       -3   -1    0    0    0  501  0.00000000000E+00  0.00000000000E+00  0.14135463852E+04  0.14135463888E+04  0.10100000352E+00 0. -1.
        3   -1    0    0  501    0  0.00000000000E+00  0.00000000000E+00 -0.30078745983E+03  0.30078747679E+03  0.10100000352E+00 0.  1.
    10030    2    1    2    0    0  0.00000000000E+00  0.00000000000E+00  0.11127589253E+04  0.17143338656E+04  0.13041120261E+04 0.  0.
        1    1    3    3  502    0  0.20278229523E+03  0.43461331325E+03 -0.24364126274E+02  0.48021141385E+03  0.50400001928E-02 0.  1.
       -1    1    3    3    0  502 -0.20278229523E+03 -0.43461331325E+03  0.11371230516E+04  0.12341224517E+04  0.50400001928E-02 0. -1.
</event>
<event>
 5   0  0.2794825E-04  0.1302690E+04  0.7818609E-02  0.9027435E-01
       -2   -1    0    0    0  501  0.00000000000E+00  0.00000000000E+00  0.45160518502E+03  0.45160518503E+03  0.25500000920E-02 0.  1.
        2   -1    0    0  501    0  0.00000000000E+00  0.00000000000E+00 -0.93942676584E+03  0.93942676585E+03  0.25500000920E-02 0. -1.
    10030    2    1    2    0    0  0.00000000000E+00  0.00000000000E+00 -0.48782158082E+03  0.13910319509E+04  0.13026895231E+04 0.  0.
        1    1    3    3  502    0  0.31572255681E+03 -0.11080668477E+03  0.35281666413E+03  0.48624937304E+03  0.50400001928E-02 0.  1.
       -1    1    3    3    0  502 -0.31572255681E+03  0.11080668477E+03 -0.84063824495E+03  0.90478257784E+03  0.50400001928E-02 0. -1.
</event>
<event>
 5   0  0.2756984E-04  0.1294785E+04  0.7818609E-02  0.9033711E-01
        2   -1    0    0  501    0  0.00000000000E+00  0.00000000000E+00  0.75853170473E+03  0.75853170473E+03  0.25500000920E-02 0.  1.
       -2   -1    0    0    0  501  0.00000000000E+00  0.00000000000E+00 -0.55253708042E+03  0.55253708043E+03  0.25500000920E-02 0. -1.
    10030    2    1    2    0    0  0.00000000000E+00  0.00000000000E+00  0.20599462431E+03  0.13110687852E+04  0.12947847598E+04 0.  0.
        3    1    3    3  502    0  0.39128926044E+03  0.51535211188E+03  0.82201276051E+02  0.65226692737E+03  0.10100000352E+00 0. -1.
       -3    1    3    3    0  502 -0.39128926044E+03 -0.51535211188E+03  0.12379334825E+03  0.65880185779E+03  0.10100000352E+00 0.  1.
</event>
<event>
 5   0  0.1430636E-04  0.1299191E+04  0.7818609E-02  0.9030207E-01
        1   -1    0    0  501    0  0.00000000000E+00  0.00000000000E+00  0.10925107829E+04  0.10925107829E+04  0.50400001928E-02 0. -1.
       -1   -1    0    0    0  501  0.00000000000E+00  0.00000000000E+00 -0.38624265601E+03  0.38624265605E+03  0.50400001928E-02 0.  1.
    10030    2    1    2    0    0  0.00000000000E+00  0.00000000000E+00  0.70626812685E+03  0.14787534389E+04  0.12991909275E+04 0.  0.
        4    1    3    3  502    0  0.13160938115E+03  0.17032230500E+03 -0.34447132103E+03  0.40619308303E+03  0.12699999809E+01 0.  1.
       -4    1    3    3    0  502 -0.13160938115E+03 -0.17032230500E+03  0.10507394479E+04  0.10725603559E+04  0.12699999809E+01 0. -1.
</event>
<event>
 5   0  0.1430636E-04  0.1301293E+04  0.7818609E-02  0.9028540E-01
       -1   -1    0    0    0  501  0.00000000000E+00  0.00000000000E+00  0.19812620714E+03  0.19812620720E+03  0.50400001928E-02 0.  1.
        1   -1    0    0  501    0  0.00000000000E+00  0.00000000000E+00 -0.21367241733E+04  0.21367241733E+04  0.50400001928E-02 0. -1.
    10030    2    1    2    0    0  0.00000000000E+00  0.00000000000E+00 -0.19385979661E+04  0.23348503805E+04  0.13012932894E+04 0.  0.
        4    1    3    3  502    0  0.28184437442E+03 -0.46832268952E+03 -0.16025893582E+04  0.16932385115E+04  0.12699999809E+01 0. -1.
       -4    1    3    3    0  502 -0.28184437442E+03  0.46832268952E+03 -0.33600860792E+03  0.64161186897E+03  0.12699999809E+01 0.  1.
</event>
<event>
 5   0  0.1479690E-04  0.1298357E+04  0.7818609E-02  0.9030869E-01
       -1   -1    0    0    0  501  0.00000000000E+00  0.00000000000E+00  0.11013406571E+04  0.11013406571E+04  0.50400001928E-02 0. -1.
        1   -1    0    0  501    0  0.00000000000E+00  0.00000000000E+00 -0.38265433973E+03  0.38265433976E+03  0.50400001928E-02 0.  1.
    10030    2    1    2    0    0  0.00000000000E+00  0.00000000000E+00  0.71868631735E+03  0.14839949968E+04  0.12983570880E+04 0.  0.
        1    1    3    3  502    0  0.17711238163E+03 -0.16279150566E+03 -0.32982954869E+03  0.40823694254E+03  0.50400001928E-02 0.  1.
       -1    1    3    3    0  502 -0.17711238163E+03  0.16279150566E+03  0.10485158660E+04  0.10757580543E+04  0.50400001928E-02 0. -1.
</event>
<event>
 5   0  0.2661377E-04  0.1299617E+04  0.7818609E-02  0.9029869E-01
       -2   -1    0    0    0  501  0.00000000000E+00  0.00000000000E+00  0.40584609882E+03  0.40584609883E+03  0.25500000920E-02 0. -1.
        2   -1    0    0  501    0  0.00000000000E+00  0.00000000000E+00 -0.10404211226E+04  0.10404211226E+04  0.25500000920E-02 0.  1.
    10030    2    1    2    0    0  0.00000000000E+00  0.00000000000E+00 -0.63457502382E+03  0.14462672215E+04  0.12996166416E+04 0.  0.
        5    1    3    3  502    0  0.35921828298E+03 -0.45943919857E+03  0.15888635210E+01  0.58322102713E+03  0.46999998093E+01 0.  1.
       -5    1    3    3    0  502 -0.35921828298E+03  0.45943919857E+03 -0.63616388734E+03  0.86304619434E+03  0.46999998093E+01 0. -1.
</event>
<event>
 5   0  0.1479690E-04  0.1304299E+04  0.7818609E-02  0.9026163E-01
       -1   -1    0    0    0  501  0.00000000000E+00  0.00000000000E+00  0.27219275385E+03  0.27219275390E+03  0.50400001928E-02 0.  1.
        1   -1    0    0  501    0  0.00000000000E+00  0.00000000000E+00 -0.15624915201E+04  0.15624915201E+04  0.50400001928E-02 0. -1.
    10030    2    1    2    0    0  0.00000000000E+00  0.00000000000E+00 -0.12902987663E+04  0.18346842740E+04  0.13042988458E+04 0.  0.
        1    1    3    3  502    0  0.10213373136E+03 -0.47405342644E+03 -0.12585186666E+04  0.13487131586E+04  0.50400001928E-02 0. -1.
       -1    1    3    3    0  502 -0.10213373136E+03  0.47405342644E+03 -0.31780099689E+02  0.48597111536E+03  0.50400001928E-02 0.  1.
</event>
<event>
 5   0  0.1002887E-04  0.1302036E+04  0.7818609E-02  0.9027952E-01
       -3   -1    0    0    0  501  0.00000000000E+00  0.00000000000E+00  0.13825256425E+04  0.13825256462E+04  0.10100000352E+00 0.  1.
        3   -1    0    0  501    0  0.00000000000E+00  0.00000000000E+00 -0.30655801779E+03  0.30655803443E+03  0.10100000352E+00 0. -1.
    10030    2    1    2    0    0  0.00000000000E+00  0.00000000000E+00  0.10759676247E+04  0.16890836806E+04  0.13020358485E+04 0.  0.
        3    1    3    3  502    0 -0.45911847793E+03 -0.45377024347E+03  0.42846589825E+03  0.77477754665E+03  0.10100000352E+00 0. -1.
       -3    1    3    3    0  502  0.45911847793E+03  0.45377024347E+03  0.64750172649E+03  0.91430613398E+03  0.10100000352E+00 0.  1.
</event>
<event>
 5   0  0.1002887E-04  0.1298821E+04  0.7818609E-02  0.9030500E-01
        4   -1    0    0  501    0  0.00000000000E+00  0.00000000000E+00  0.88327711468E+03  0.88327802770E+03  0.12699999809E+01 0.  1.
       -4   -1    0    0    0  501  0.00000000000E+00  0.00000000000E+00 -0.47746323682E+03  0.47746492585E+03  0.12699999809E+01 0. -1.
    10030    2    1    2    0    0  0.00000000000E+00  0.00000000000E+00  0.40581387786E+03  0.13607429535E+04  0.12988211895E+04 0.  0.
        2    1    3    3  502    0  0.38458825989E+03  0.29530907824E+03 -0.24968219362E+03  0.54539598381E+03  0.25500000920E-02 0. -1.
       -2    1    3    3    0  502 -0.38458825989E+03 -0.29530907824E+03  0.65549607148E+03  0.81534696974E+03  0.25500000920E-02 0.  1.
</event>
<event>
 5   0  0.2794825E-04  0.1298885E+04  0.7818609E-02  0.9030450E-01
       -2   -1    0    0    0  501  0.00000000000E+00  0.00000000000E+00  0.60288552630E+03  0.60288552631E+03  0.25500000920E-02 0. -1.
        2   -1    0    0  501    0  0.00000000000E+00  0.00000000000E+00 -0.69959487411E+03  0.69959487411E+03  0.25500000920E-02 0.  1.
    10030    2    1    2    0    0  0.00000000000E+00  0.00000000000E+00 -0.96709347803E+02  0.13024804004E+04  0.12988850971E+04 0.  0.
        1    1    3    3  502    0 -0.47580421076E+03  0.29989990732E+03 -0.37397804197E+03  0.67541777981E+03  0.50400001928E-02 0.  1.
       -1    1    3    3    0  502  0.47580421076E+03 -0.29989990732E+03  0.27726869417E+03  0.62706262061E+03  0.50400001928E-02 0. -1.
</event>
<event>
 5   0  0.2573071E-04  0.1299650E+04  0.7818609E-02  0.9029843E-01
        2   -1    0    0  501    0  0.00000000000E+00  0.00000000000E+00  0.17507451055E+04  0.17507451055E+04  0.25500000920E-02 0.  1.
       -2   -1    0    0    0  501  0.00000000000E+00  0.00000000000E+00 -0.24119591793E+03  0.24119591794E+03  0.25500000920E-02 0. -1.
    10030    2    1    2    0    0  0.00000000000E+00  0.00000000000E+00  0.15095491876E+04  0.19919410234E+04  0.12996500649E+04 0.  0.
        4    1    3    3  502    0 -0.21792384452E+03 -0.22131998407E+03  0.16296052602E+04  0.16589419081E+04  0.12699999809E+01 0.  1.
       -4    1    3    3    0  502  0.21792384452E+03  0.22131998407E+03 -0.12005607264E+03  0.33299911537E+03  0.12699999809E+01 0. -1.
</event>
<event>
 5   0  0.2661377E-04  0.1300335E+04  0.7818609E-02  0.9029300E-01
       -2   -1    0    0    0  501  0.00000000000E+00  0.00000000000E+00  0.38044482343E+03  0.38044482344E+03  0.25500000920E-02 0.  1.
        2   -1    0    0  501    0  0.00000000000E+00  0.00000000000E+00 -0.11111140555E+04  0.11111140555E+04  0.25500000920E-02 0. -1.
    10030    2    1    2    0    0  0.00000000000E+00  0.00000000000E+00 -0.73066923209E+03  0.14915588790E+04  0.13003347118E+04 0.  0.
        5    1    3    3  502    0  0.17571672156E+03  0.80050094080E+02 -0.10774450750E+04  0.10946206482E+04  0.46999998093E+01 0. -1.
       -5    1    3    3    0  502 -0.17571672156E+03 -0.80050094080E+02  0.34677584293E+03  0.39693823076E+03  0.46999998093E+01 0.  1.
</event>
<event>
 5   0  0.1430636E-04  0.1299164E+04  0.7818609E-02  0.9030228E-01
       -1   -1    0    0    0  501  0.00000000000E+00  0.00000000000E+00  0.38095908503E+03  0.38095908507E+03  0.50400001928E-02 0. -1.
        1   -1    0    0  501    0  0.00000000000E+00  0.00000000000E+00 -0.11076169246E+04  0.11076169246E+04  0.50400001928E-02 0.  1.
    10030    2    1    2    0    0  0.00000000000E+00  0.00000000000E+00 -0.72665783953E+03  0.14885760096E+04  0.12991639314E+04 0.  0.
        4    1    3    3  502    0 -0.31993559357E+02 -0.45946249760E+03 -0.88818042281E+03  0.10004976016E+04  0.12699999809E+01 0.  1.
       -4    1    3    3    0  502  0.31993559357E+02  0.45946249760E+03  0.16152258328E+03  0.48807840799E+03  0.12699999809E+01 0. -1.
</event>
<event>
 5   0  0.2794825E-04  0.1306359E+04  0.7818609E-02  0.9024538E-01
        2   -1    0    0  501    0  0.00000000000E+00  0.00000000000E+00  0.59187783338E+03  0.59187783338E+03  0.25500000920E-02 0. -1.
       -2   -1    0    0    0  501  0.00000000000E+00  0.00000000000E+00 -0.72082975320E+03  0.72082975320E+03  0.25500000920E-02 0.  1.
    10030    2    1    2    0    0  0.00000000000E+00  0.00000000000E+00 -0.12895191982E+03  0.13127075866E+04  0.13063585305E+04 0.  0.
        1    1    3    3  502    0 -0.24530254173E+03  0.58335774570E+03  0.98061697285E+02  0.64038714302E+03  0.50400001928E-02 0. -1.
       -1    1    3    3    0  502  0.24530254173E+03 -0.58335774570E+03 -0.22701361711E+03  0.67232044356E+03  0.50400001928E-02 0.  1.
</event>
<event>
 5   0  0.1430636E-04  0.1305290E+04  0.7818609E-02  0.9025381E-01
        1   -1    0    0  501    0  0.00000000000E+00  0.00000000000E+00  0.10420441252E+04  0.10420441252E+04  0.50400001928E-02 0. -1.
       -1   -1    0    0    0  501  0.00000000000E+00  0.00000000000E+00 -0.40875964448E+03  0.40875964451E+03  0.50400001928E-02 0.  1.
    10030    2    1    2    0    0  0.00000000000E+00  0.00000000000E+00  0.63328448068E+03  0.14508037697E+04  0.13052901381E+04 0.  0.
        4    1    3    3  502    0 -0.48662984676E+03 -0.19105171822E+03 -0.11759605812E+03  0.53585428297E+03  0.12699999809E+01 0.  1.
       -4    1    3    3    0  502  0.48662984676E+03  0.19105171822E+03  0.75088053879E+03  0.91494948671E+03  0.12699999809E+01 0. -1.
</event>
<event>
 5   0  0.1476511E-04  0.1298905E+04  0.7818609E-02  0.9030434E-01
       -1   -1    0    0    0  501  0.00000000000E+00  0.00000000000E+00  0.24688334307E+03  0.24688334312E+03  0.50400001928E-02 0. -1.
        1   -1    0    0  501    0  0.00000000000E+00  0.00000000000E+00 -0.17084534363E+04  0.17084534363E+04  0.50400001928E-02 0.  1.
    10030    2    1    2    0    0  0.00000000000E+00  0.00000000000E+00 -0.14615700932E+04  0.19553367794E+04  0.12989052250E+04 0.  0.
        2    1    3    3  502    0 -0.31685661823E+02  0.60288888112E+03 -0.10911630024E+04  0.12470427747E+04  0.25500000920E-02 0.  1.
       -2    1    3    3    0  502  0.31685661823E+02 -0.60288888112E+03 -0.37040709078E+03  0.70829400467E+03  0.25500000920E-02 0. -1.
</event>
<event>
 5   0  0.1476511E-04  0.1300178E+04  0.7818609E-02  0.9029424E-01
       -1   -1    0    0    0  501  0.00000000000E+00  0.00000000000E+00  0.43776718859E+03  0.43776718862E+03  0.50400001928E-02 0. -1.
        1   -1    0    0  501    0  0.00000000000E+00  0.00000000000E+00 -0.96538909666E+03  0.96538909668E+03  0.50400001928E-02 0.  1.
    10030    2    1    2    0    0  0.00000000000E+00  0.00000000000E+00 -0.52762190807E+03  0.14031562853E+04  0.13001779429E+04 0.  0.
        2    1    3    3  502    0 -0.21220942422E+02 -0.31889397290E+03  0.34712865306E+03  0.47184954820E+03  0.25500000920E-02 0. -1.
       -2    1    3    3    0  502  0.21220942422E+02  0.31889397290E+03 -0.87475056114E+03  0.93130673710E+03  0.25500000920E-02 0.  1.
</event>
<event>
 5   0  0.1479690E-04  0.1316003E+04  0.7818609E-02  0.9016970E-01
       -1   -1    0    0    0  501  0.00000000000E+00  0.00000000000E+00  0.47138555298E+03  0.47138555301E+03  0.50400001928E-02 0. -1.
        1   -1    0    0  501    0  0.00000000000E+00  0.00000000000E+00 -0.91849606118E+03  0.91849606120E+03  0.50400001928E-02 0.  1.
    10030    2    1    2    0    0  0.00000000000E+00  0.00000000000E+00 -0.44711050820E+03  0.13898816142E+04  0.13160026957E+04 0.  0.
        1    1    3    3  502    0 -0.31547522210E+03 -0.26627327115E+03 -0.76470632962E+03  0.86902349869E+03  0.50400001928E-02 0.  1.
       -1    1    3    3    0  502  0.31547522210E+03  0.26627327115E+03  0.31759582142E+03  0.52085811552E+03  0.50400001928E-02 0. -1.
</event>
<event>
 5   0  0.1430636E-04  0.1301271E+04  0.7818609E-02  0.9028558E-01
        1   -1    0    0  501    0  0.00000000000E+00  0.00000000000E+00  0.14672794160E+04  0.14672794160E+04  0.50400001928E-02 0.  1.
       -1   -1    0    0    0  501  0.00000000000E+00  0.00000000000E+00 -0.28851117150E+03  0.28851117154E+03  0.50400001928E-02 0. -1.
    10030    2    1    2    0    0  0.00000000000E+00  0.00000000000E+00  0.11787682445E+04  0.17557905876E+04  0.13012709223E+04 0.  0.
        4    1    3    3  502    0 -0.52381856110E+03  0.38204248449E+03  0.51569582382E+03  0.82842388939E+03  0.12699999809E+01 0.  1.
       -4    1    3    3    0  502  0.52381856110E+03 -0.38204248449E+03  0.66307242072E+03  0.92736669819E+03  0.12699999809E+01 0. -1.
</event>
<event>
 5   0  0.2573071E-04  0.1300120E+04  0.7818609E-02  0.9029470E-01
       -2   -1    0    0    0  501  0.00000000000E+00  0.00000000000E+00  0.46728122763E+03  0.46728122764E+03  0.25500000920E-02 0.  1.
        2   -1    0    0  501    0  0.00000000000E+00  0.00000000000E+00 -0.90433384508E+03  0.90433384508E+03  0.25500000920E-02 0. -1.
    10030    2    1    2    0    0  0.00000000000E+00  0.00000000000E+00 -0.43705261745E+03  0.13716150727E+04  0.13001203472E+04 0.  0.
        4    1    3    3  502    0 -0.62443250182E+03 -0.85831944328E+02 -0.38631146618E+03  0.73927074459E+03  0.12699999809E+01 0.  1.
       -4    1    3    3    0  502  0.62443250182E+03  0.85831944328E+02 -0.50741151262E+02  0.63234432814E+03  0.12699999809E+01 0. -1.
</event>
<event>
 5   0  0.2573071E-04  0.1299288E+04  0.7818609E-02  0.9030130E-01
        2   -1    0    0  501    0  0.00000000000E+00  0.00000000000E+00  0.87148067848E+03  0.87148067848E+03  0.25500000920E-02 0.  1.
       -2   -1    0    0    0  501  0.00000000000E+00  0.00000000000E+00 -0.48427584197E+03  0.48427584197E+03  0.25500000920E-02 0. -1.
    10030    2    1    2    0    0  0.00000000000E+00  0.00000000000E+00  0.38720483651E+03  0.13557565205E+04  0.12992875576E+04 0.  0.
        4    1    3    3  502    0 -0.14151865311E+03 -0.34382969084E+03 -0.36226885713E+03  0.51912110652E+03  0.12699999809E+01 0. -1.
       -4    1    3    3    0  502  0.14151865311E+03  0.34382969084E+03  0.74947369364E+03  0.83663541393E+03  0.12699999809E+01 0.  1.
</event>
<event>
 5   0  0.1408341E-04  0.1299168E+04  0.7818609E-02  0.9030225E-01
        1   -1    0    0  501    0  0.00000000000E+00  0.00000000000E+00  0.12819927105E+04  0.12819927105E+04  0.50400001928E-02 0.  1.
       -1   -1    0    0    0  501  0.00000000000E+00  0.00000000000E+00 -0.32914329200E+03  0.32914329204E+03  0.50400001928E-02 0. -1.
    10030    2    1    2    0    0  0.00000000000E+00  0.00000000000E+00  0.95284941847E+03  0.16111360025E+04  0.12991678892E+04 0.  0.
        5    1    3    3  502    0 -0.39548281774E+03  0.76433236105E+02 -0.15554067998E+03  0.43181441828E+03  0.46999998093E+01 0. -1.
       -5    1    3    3    0  502  0.39548281774E+03 -0.76433236105E+02  0.11083900985E+04  0.11793215842E+04  0.46999998093E+01 0.  1.
</event>
<event>
 5   0  0.2723209E-04  0.1299734E+04  0.7818609E-02  0.9029776E-01
       -2   -1    0    0    0  501  0.00000000000E+00  0.00000000000E+00  0.17487595749E+03  0.17487595751E+03  0.25500000920E-02 0.  1.
        2   -1    0    0  501    0  0.00000000000E+00  0.00000000000E+00 -0.24150086441E+04  0.24150086441E+04  0.25500000920E-02 0. -1.
    10030    2    1    2    0    0  0.00000000000E+00  0.00000000000E+00 -0.22401326866E+04  0.25898846016E+04  0.12997337405E+04 0.  0.
        2    1    3    3  502    0  0.59332681303E+03  0.22750159646E+01 -0.59179439533E+03  0.83801103162E+03  0.25500000920E-02 0.  1.
       -2    1    3    3    0  502 -0.59332681303E+03 -0.22750159646E+01 -0.16483382913E+04  0.17518735700E+04  0.25500000920E-02 0. -1.
</event>
<event>
 5   0  0.1408341E-04  0.1288893E+04  0.7818609E-02  0.9038420E-01
       -1   -1    0    0    0  501  0.00000000000E+00  0.00000000000E+00  0.55343214224E+03  0.55343214226E+03  0.50400001928E-02 0. -1.
        1   -1    0    0  501    0  0.00000000000E+00  0.00000000000E+00 -0.75042842828E+03  0.75042842830E+03  0.50400001928E-02 0.  1.
    10030    2    1    2    0    0  0.00000000000E+00  0.00000000000E+00 -0.19699628604E+03  0.13038605706E+04  0.12888928779E+04 0.  0.
        5    1    3    3  502    0 -0.34569287242E+03 -0.52426380651E+03  0.47864516241E+02  0.62981680096E+03  0.46999998093E+01 0. -1.
       -5    1    3    3    0  502  0.34569287242E+03  0.52426380651E+03 -0.24486080228E+03  0.67404376961E+03  0.46999998093E+01 0.  1.
</event>
<event>
 5   0  0.2794825E-04  0.1296406E+04  0.7818609E-02  0.9032420E-01
        2   -1    0    0  501    0  0.00000000000E+00  0.00000000000E+00  0.79416523204E+03  0.79416523205E+03  0.25500000920E-02 0.  1.
       -2   -1    0    0    0  501  0.00000000000E+00  0.00000000000E+00 -0.52906724970E+03  0.52906724971E+03  0.25500000920E-02 0. -1.
    10030    2    1    2    0    0  0.00000000000E+00  0.00000000000E+00  0.26509798234E+03  0.13232324818E+04  0.12964055155E+04 0.  0.
        1    1    3    3  502    0 -0.47796230359E+03  0.43756328170E+03  0.14891914213E+03  0.66489585655E+03  0.50400001928E-02 0.  1.
       -1    1    3    3    0  502  0.47796230359E+03 -0.43756328170E+03  0.11617884021E+03  0.65833662520E+03  0.50400001928E-02 0. -1.
</event>
<event>
 5   0  0.2573071E-04  0.1315220E+04  0.7818609E-02  0.9017582E-01
        2   -1    0    0  501    0  0.00000000000E+00  0.00000000000E+00  0.96921433114E+03  0.96921433115E+03  0.25500000920E-02 0. -1.
       -2   -1    0    0    0  501  0.00000000000E+00  0.00000000000E+00 -0.44618697510E+03  0.44618697511E+03  0.25500000920E-02 0.  1.
    10030    2    1    2    0    0  0.00000000000E+00  0.00000000000E+00  0.52302735604E+03  0.14154013063E+04  0.13152198457E+04 0.  0.
        4    1    3    3  502    0  0.25684091802E+03 -0.60533863452E+02  0.90973812654E+03  0.94723633671E+03  0.12699999809E+01 0. -1.
       -4    1    3    3    0  502 -0.25684091802E+03  0.60533863452E+02 -0.38671077050E+03  0.46816496955E+03  0.12699999809E+01 0.  1.
</event>
<event>
 5   0  0.1408341E-04  0.1302247E+04  0.7818609E-02  0.9027785E-01
       -1   -1    0    0    0  501  0.00000000000E+00  0.00000000000E+00  0.48050358874E+03  0.48050358877E+03  0.50400001928E-02 0.  1.
        1   -1    0    0  501    0  0.00000000000E+00  0.00000000000E+00 -0.88232806071E+03  0.88232806072E+03  0.50400001928E-02 0. -1.
    10030    2    1    2    0    0  0.00000000000E+00  0.00000000000E+00 -0.40182447197E+03  0.13628316495E+04  0.13022469806E+04 0.  0.
        5    1    3    3  502    0  0.63432238245E+03  0.59463566927E+02 -0.34146972343E+03  0.72285853573E+03  0.46999998093E+01 0. -1.
       -5    1    3    3    0  502 -0.63432238245E+03 -0.59463566927E+02 -0.60354748544E+02  0.63997311376E+03  0.46999998093E+01 0.  1.
</event>
<event>
 5   0  0.2573071E-04  0.1301461E+04  0.7818609E-02  0.9028408E-01
       -2   -1    0    0    0  501  0.00000000000E+00  0.00000000000E+00  0.23545558541E+03  0.23545558543E+03  0.25500000920E-02 0.  1.
        2   -1    0    0  501    0  0.00000000000E+00  0.00000000000E+00 -0.17984284165E+04  0.17984284165E+04  0.25500000920E-02 0. -1.
    10030    2    1    2    0    0  0.00000000000E+00  0.00000000000E+00 -0.15629728311E+04  0.20338840019E+04  0.13014607419E+04 0.  0.
        4    1    3    3  502    0  0.55850100024E+02 -0.24239438711E+03  0.15822344289E+03  0.29480594186E+03  0.12699999809E+01 0.  1.
       -4    1    3    3    0  502 -0.55850100024E+02  0.24239438711E+03 -0.17211962740E+04  0.17390780601E+04  0.12699999809E+01 0. -1.
</event>
<event>
 5   0  0.2661377E-04  0.1299217E+04  0.7818609E-02  0.9030186E-01
       -2   -1    0    0    0  501  0.00000000000E+00  0.00000000000E+00  0.19781566863E+03  0.19781566864E+03  0.25500000920E-02 0. -1.
        2   -1    0    0  501    0  0.00000000000E+00  0.00000000000E+00 -0.21332546921E+04  0.21332546921E+04  0.25500000920E-02 0.  1.
    10030    2    1    2    0    0  0.00000000000E+00  0.00000000000E+00 -0.19354390234E+04  0.23310703607E+04  0.12992170000E+04 0.  0.
        5    1    3    3  502    0 -0.17942640128E+03  0.15335265291E+03  0.11812437855E+03  0.26398168201E+03  0.46999998093E+01 0. -1.
       -5    1    3    3    0  502  0.17942640128E+03 -0.15335265291E+03 -0.20535634020E+04  0.20670886787E+04  0.46999998093E+01 0.  1.
</event>
<event>
 5   0  0.2794825E-04  0.1302601E+04  0.7818609E-02  0.9027505E-01
       -2   -1    0    0    0  501  0.00000000000E+00  0.00000000000E+00  0.73670427075E+03  0.73670427076E+03  0.25500000920E-02 0. -1.
        2   -1    0    0  501    0  0.00000000000E+00  0.00000000000E+00 -0.57579709669E+03  0.57579709670E+03  0.25500000920E-02 0.  1.
    10030    2    1    2    0    0  0.00000000000E+00  0.00000000000E+00  0.16090717406E+03  0.13125013675E+04  0.13026007527E+04 0.  0.
        1    1    3    3  502    0  0.47697591774E+03 -0.72276425052E+02 -0.36043620574E+03  0.60219944052E+03  0.50400001928E-02 0.  1.
       -1    1    3    3    0  502 -0.47697591774E+03  0.72276425052E+02  0.52134337980E+03  0.71030192694E+03  0.50400001928E-02 0. -1.
</event>
<event>
 5   0  0.1430636E-04  0.1298369E+04  0.7818609E-02  0.9030859E-01
        1   -1    0    0  501    0  0.00000000000E+00  0.00000000000E+00  0.74814307031E+03  0.74814307032E+03  0.50400001928E-02 0.  1.
       -1   -1    0    0    0  501  0.00000000000E+00  0.00000000000E+00 -0.56331568636E+03  0.56331568638E+03  0.50400001928E-02 0. -1.
    10030    2    1    2    0    0  0.00000000000E+00  0.00000000000E+00  0.18482738394E+03  0.13114587567E+04  0.12983693268E+04 0.  0.
        4    1    3    3  502    0  0.72660001722E+02  0.17642628817E+03  0.71917992997E+03  0.74406121763E+03  0.12699999809E+01 0.  1.
       -4    1    3    3    0  502 -0.72660001722E+02 -0.17642628817E+03 -0.53435254603E+03  0.56739753908E+03  0.12699999809E+01 0. -1.
</event>
<event>
 5   0  0.2794825E-04  0.1299359E+04  0.7818609E-02  0.9030073E-01
       -2   -1    0    0    0  501  0.00000000000E+00  0.00000000000E+00  0.88823894473E+03  0.88823894474E+03  0.25500000920E-02 0.  1.
        2   -1    0    0  501    0  0.00000000000E+00  0.00000000000E+00 -0.47519152790E+03  0.47519152791E+03  0.25500000920E-02 0. -1.
    10030    2    1    2    0    0  0.00000000000E+00  0.00000000000E+00  0.41304741683E+03  0.13634304726E+04  0.12993592595E+04 0.  0.
        1    1    3    3  502    0  0.10136628443E+03 -0.63269923742E+03  0.93996918380E+02  0.64762556260E+03  0.50400001928E-02 0. -1.
       -1    1    3    3    0  502 -0.10136628443E+03  0.63269923742E+03  0.31905049845E+03  0.71580491004E+03  0.50400001928E-02 0.  1.
</event>
<event>
 5   0  0.1476511E-04  0.1300071E+04  0.7818609E-02  0.9029509E-01
        1   -1    0    0  501    0  0.00000000000E+00  0.00000000000E+00  0.13743003847E+04  0.13743003847E+04  0.50400001928E-02 0.  1.
       -1   -1    0    0    0  501  0.00000000000E+00  0.00000000000E+00 -0.30746257802E+03  0.30746257806E+03  0.50400001928E-02 0. -1.
    10030    2    1    2    0    0  0.00000000000E+00  0.00000000000E+00  0.10668378067E+04  0.16817629627E+04  0.13000706739E+04 0.  0.
        2    1    3    3  502    0 -0.64880328177E+03  0.39857601780E+02  0.53782708241E+03  0.84367783984E+03  0.25500000920E-02 0.  1.
       -2    1    3    3    0  502  0.64880328177E+03 -0.39857601780E+02  0.52901072425E+03  0.83808512291E+03  0.25500000920E-02 0. -1.
</event>
<event>
 5   0  0.2756984E-04  0.1313585E+04  0.7818609E-02  0.9018861E-01
        2   -1    0    0  501    0  0.00000000000E+00  0.00000000000E+00  0.10230738664E+04  0.10230738664E+04  0.25500000920E-02 0.  1.
       -2   -1    0    0    0  501  0.00000000000E+00  0.00000000000E+00 -0.42164720319E+03  0.42164720320E+03  0.25500000920E-02 0. -1.
    10030    2    1    2    0    0  0.00000000000E+00  0.00000000000E+00  0.60142666318E+03  0.14447210696E+04  0.13135847661E+04 0.  0.
        3    1    3    3  502    0 -0.36966637842E+03  0.14843004652E+03  0.87504361311E+03  0.96144997014E+03  0.10100000352E+00 0.  1.
       -3    1    3    3    0  502  0.36966637842E+03 -0.14843004652E+03 -0.27361694993E+03  0.48327109942E+03  0.10100000352E+00 0. -1.
</event>
<event>
 5   0  0.1430636E-04  0.1300047E+04  0.7818609E-02  0.9029528E-01
        1   -1    0    0  501    0  0.00000000000E+00  0.00000000000E+00  0.77850914596E+03  0.77850914598E+03  0.50400001928E-02 0. -1.
       -1   -1    0    0    0  501  0.00000000000E+00  0.00000000000E+00 -0.54274348294E+03  0.54274348297E+03  0.50400001928E-02 0.  1.
    10030    2    1    2    0    0  0.00000000000E+00  0.00000000000E+00  0.23576566302E+03  0.13212526289E+04  0.13000473305E+04 0.  0.
        4    1    3    3  502    0  0.48748456867E+03 -0.37687992659E+03 -0.92494732239E+02  0.62308632801E+03  0.12699999809E+01 0.  1.
       -4    1    3    3    0  502 -0.48748456867E+03  0.37687992659E+03  0.32826039526E+03  0.69816630093E+03  0.12699999809E+01 0. -1.
</event>
<event>
 5   0  0.1479690E-04  0.1315939E+04  0.7818609E-02  0.9017020E-01
       -1   -1    0    0    0  501  0.00000000000E+00  0.00000000000E+00  0.72978743366E+03  0.72978743368E+03  0.50400001928E-02 0. -1.
        1   -1    0    0  501    0  0.00000000000E+00  0.00000000000E+00 -0.59321913338E+03  0.59321913340E+03  0.50400001928E-02 0.  1.
    10030    2    1    2    0    0  0.00000000000E+00  0.00000000000E+00  0.13656830028E+03  0.13230065671E+04  0.13159390092E+04 0.  0.
        1    1    3    3  502    0 -0.26247841974E+03  0.90043199949E+02 -0.53151127526E+03  0.59958897125E+03  0.50400001928E-02 0.  1.
       -1    1    3    3    0  502  0.26247841974E+03 -0.90043199949E+02  0.66807957554E+03  0.72341759584E+03  0.50400001928E-02 0. -1.
</event>
<event>
 5   0  0.2756984E-04  0.1297989E+04  0.7818609E-02  0.9031162E-01
       -2   -1    0    0    0  501  0.00000000000E+00  0.00000000000E+00  0.59457009541E+03  0.59457009541E+03  0.25500000920E-02 0. -1.
        2   -1    0    0  501    0  0.00000000000E+00  0.00000000000E+00 -0.70840026198E+03  0.70840026199E+03  0.25500000920E-02 0.  1.
    10030    2    1    2    0    0  0.00000000000E+00  0.00000000000E+00 -0.11383016658E+03  0.13029703574E+04  0.12979886153E+04 0.  0.
        3    1    3    3  502    0 -0.24808258932E+03 -0.55664872100E+03  0.16707992572E+03  0.63191651465E+03  0.10100000352E+00 0. -1.
       -3    1    3    3    0  502  0.24808258932E+03  0.55664872100E+03 -0.28091009230E+03  0.67105384275E+03  0.10100000352E+00 0.  1.
</event>
<event>
 5   0  0.2573071E-04  0.1298978E+04  0.7818609E-02  0.9030376E-01
       -2   -1    0    0    0  501  0.00000000000E+00  0.00000000000E+00  0.25311151118E+03  0.25311151119E+03  0.25500000920E-02 0.  1.
        2   -1    0    0  501    0  0.00000000000E+00  0.00000000000E+00 -0.16666017582E+04  0.16666017582E+04  0.25500000920E-02 0. -1.
    10030    2    1    2    0    0  0.00000000000E+00  0.00000000000E+00 -0.14134902470E+04  0.19197132694E+04  0.12989781977E+04 0.  0.
        4    1    3    3  502    0 -0.47124797995E+03  0.36074792017E+03 -0.10966905875E+04  0.12469745700E+04  0.12699999809E+01 0. -1.
       -4    1    3    3    0  502  0.47124797995E+03 -0.36074792017E+03 -0.31679965946E+03  0.67273869938E+03  0.12699999809E+01 0.  1.
</event>
<event>
 5   0  0.1408341E-04  0.1301623E+04  0.7818609E-02  0.9028279E-01
       -1   -1    0    0    0  501  0.00000000000E+00  0.00000000000E+00  0.88764127001E+03  0.88764127002E+03  0.50400001928E-02 0.  1.
        1   -1    0    0  501    0  0.00000000000E+00  0.00000000000E+00 -0.47716958018E+03  0.47716958020E+03  0.50400001928E-02 0. -1.
    10030    2    1    2    0    0  0.00000000000E+00  0.00000000000E+00  0.41047168983E+03  0.13648108502E+04  0.13016226983E+04 0.  0.
        5    1    3    3  502    0  0.14064006773E+03 -0.38439559037E+03 -0.32528446155E+03  0.52284956677E+03  0.46999998093E+01 0. -1.
       -5    1    3    3    0  502 -0.14064006773E+03  0.38439559037E+03  0.73575615138E+03  0.84196128345E+03  0.46999998093E+01 0.  1.
</event>
<event>
 5   0  0.2794825E-04  0.1299876E+04  0.7818609E-02  0.9029664E-01
       -2   -1    0    0    0  501  0.00000000000E+00  0.00000000000E+00  0.19167032434E+03  0.19167032436E+03  0.25500000920E-02 0.  1.
        2   -1    0    0  501    0  0.00000000000E+00  0.00000000000E+00 -0.22038843110E+04  0.22038843110E+04  0.25500000920E-02 0. -1.
    10030    2    1    2    0    0  0.00000000000E+00  0.00000000000E+00 -0.20122139867E+04  0.23955546354E+04  0.12998757183E+04 0.  0.
        1    1    3    3  502    0  0.47629053687E+03  0.22425051996E+03 -0.17085394140E+04  0.17878053307E+04  0.50400001928E-02 0. -1.
       -1    1    3    3    0  502 -0.47629053687E+03 -0.22425051996E+03 -0.30367457262E+03  0.60774930464E+03  0.50400001928E-02 0.  1.
</event>
<event>
 5   0  0.2756984E-04  0.1299372E+04  0.7818609E-02  0.9030064E-01
        2   -1    0    0  501    0  0.00000000000E+00  0.00000000000E+00  0.79764136764E+03  0.79764136764E+03  0.25500000920E-02 0.  1.
       -2   -1    0    0    0  501  0.00000000000E+00  0.00000000000E+00 -0.52917472139E+03  0.52917472139E+03  0.25500000920E-02 0. -1.
    10030    2    1    2    0    0  0.00000000000E+00  0.00000000000E+00  0.26846664625E+03  0.13268160890E+04  0.12993716150E+04 0.  0.
        3    1    3    3  502    0 -0.33958658034E+02 -0.54973575462E+03 -0.21761529241E+03  0.59221534601E+03  0.10100000352E+00 0.  1.
       -3    1    3    3    0  502  0.33958658034E+02  0.54973575462E+03  0.48608193866E+03  0.73460074303E+03  0.10100000352E+00 0. -1.
</event>
<event>
 5   0  0.1479690E-04  0.1298321E+04  0.7818609E-02  0.9030898E-01
       -1   -1    0    0    0  501  0.00000000000E+00  0.00000000000E+00  0.44571153664E+03  0.44571153667E+03  0.50400001928E-02 0. -1.
        1   -1    0    0  501    0  0.00000000000E+00  0.00000000000E+00 -0.94547572591E+03  0.94547572593E+03  0.50400001928E-02 0.  1.
    10030    2    1    2    0    0  0.00000000000E+00  0.00000000000E+00 -0.49976418927E+03  0.13911872626E+04  0.12983211293E+04 0.  0.
        1    1    3    3  502    0 -0.47315473241E+03 -0.39185831408E+03 -0.47459939509E+03  0.77632011759E+03  0.50400001928E-02 0. -1.
       -1    1    3    3    0  502  0.47315473241E+03  0.39185831408E+03 -0.25164794179E+02  0.61486714501E+03  0.50400001928E-02 0.  1.
</event>
<event>
 5   0  0.1479690E-04  0.1299505E+04  0.7818609E-02  0.9029958E-01
        1   -1    0    0  501    0  0.00000000000E+00  0.00000000000E+00  0.17276190215E+04  0.17276190215E+04  0.50400001928E-02 0. -1.
       -1   -1    0    0    0  501  0.00000000000E+00  0.00000000000E+00 -0.24437006601E+03  0.24437006606E+03  0.50400001928E-02 0.  1.
    10030    2    1    2    0    0  0.00000000000E+00  0.00000000000E+00  0.14832489555E+04  0.19719890876E+04  0.12995050972E+04 0.  0.
        1    1    3    3  502    0  0.43969447820E+03 -0.38738095649E+03  0.31568965409E+03  0.66562391584E+03  0.50400001928E-02 0. -1.
       -1    1    3    3    0  502 -0.43969447820E+03  0.38738095649E+03  0.11675593014E+04  0.13063651717E+04  0.50400001928E-02 0.  1.
</event>
<event>
 5   0  0.1475396E-04  0.1299543E+04  0.7818609E-02  0.9029928E-01
       -1   -1    0    0    0  501  0.00000000000E+00  0.00000000000E+00  0.99796475305E+03  0.99796475307E+03  0.50400001928E-02 0. -1.
        1   -1    0    0  501    0  0.00000000000E+00  0.00000000000E+00 -0.42306400336E+03  0.42306400339E+03  0.50400001928E-02 0.  1.
    10030    2    1    2    0    0  0.00000000000E+00  0.00000000000E+00  0.57490074970E+03  0.14210287565E+04  0.12995429407E+04 0.  0.
        3    1    3    3  502    0 -0.30912531224E+03 -0.38129141584E+03  0.75299877489E+03  0.89885970410E+03  0.10100000352E+00 0. -1.
       -3    1    3    3    0  502  0.30912531224E+03  0.38129141584E+03 -0.17809802519E+03  0.52216905236E+03  0.10100000352E+00 0.  1.
</event>
<event>
 5   0  0.1408341E-04  0.1295752E+04  0.7818609E-02  0.9032940E-01
       -1   -1    0    0    0  501  0.00000000000E+00  0.00000000000E+00  0.81042285491E+03  0.81042285492E+03  0.50400001928E-02 0. -1.
        1   -1    0    0  501    0  0.00000000000E+00  0.00000000000E+00 -0.51793158705E+03  0.51793158708E+03  0.50400001928E-02 0.  1.
    10030    2    1    2    0    0  0.00000000000E+00  0.00000000000E+00  0.29249126786E+03  0.13283544420E+04  0.12957524385E+04 0.  0.
        5    1    3    3  502    0  0.47626158646E+03  0.26947512889E+03  0.50178513272E+03  0.74246370500E+03  0.46999998093E+01 0. -1.
       -5    1    3    3    0  502 -0.47626158646E+03 -0.26947512889E+03 -0.20929386486E+03  0.58589073700E+03  0.46999998093E+01 0.  1.
</event>
<event>
 5   0  0.1475396E-04  0.1299902E+04  0.7818609E-02  0.9029643E-01
       -1   -1    0    0    0  501  0.00000000000E+00  0.00000000000E+00  0.29563749673E+03  0.29563749677E+03  0.50400001928E-02 0. -1.
        1   -1    0    0  501    0  0.00000000000E+00  0.00000000000E+00 -0.14289005502E+04  0.14289005502E+04  0.50400001928E-02 0.  1.
    10030    2    1    2    0    0  0.00000000000E+00  0.00000000000E+00 -0.11332630535E+04  0.17245380470E+04  0.12999024299E+04 0.  0.
        3    1    3    3  502    0 -0.39013790716E+03 -0.46195400951E+03 -0.88288930548E+03  0.10700946825E+04  0.10100000352E+00 0. -1.
       -3    1    3    3    0  502  0.39013790716E+03  0.46195400951E+03 -0.25037374803E+03  0.65444336455E+03  0.10100000352E+00 0.  1.
</event>
<event>
 5   0  0.2573071E-04  0.1302341E+04  0.7818609E-02  0.9027710E-01
        2   -1    0    0  501    0  0.00000000000E+00  0.00000000000E+00  0.14292527657E+04  0.14292527657E+04  0.25500000920E-02 0.  1.
       -2   -1    0    0    0  501  0.00000000000E+00  0.00000000000E+00 -0.29667483810E+03  0.29667483811E+03  0.25500000920E-02 0. -1.
    10030    2    1    2    0    0  0.00000000000E+00  0.00000000000E+00  0.11325779276E+04  0.17259276038E+04  0.13023414804E+04 0.  0.
        4    1    3    3  502    0  0.22032354782E+03  0.41148493213E+03 -0.35437728977E+02  0.46810229718E+03  0.12699999809E+01 0. -1.
       -4    1    3    3    0  502 -0.22032354782E+03 -0.41148493213E+03  0.11680156566E+04  0.12578253067E+04  0.12699999809E+01 0.  1.
</event>
<event>
 5   0  0.2794825E-04  0.1300422E+04  0.7818609E-02  0.9029230E-01
        2   -1    0    0  501    0  0.00000000000E+00  0.00000000000E+00  0.14635465184E+04  0.14635465184E+04  0.25500000920E-02 0.  1.
       -2   -1    0    0    0  501  0.00000000000E+00  0.00000000000E+00 -0.28886996629E+03  0.28886996631E+03  0.25500000920E-02 0. -1.
    10030    2    1    2    0    0  0.00000000000E+00  0.00000000000E+00  0.11746765521E+04  0.17524164847E+04  0.13004224443E+04 0.  0.
        1    1    3    3  502    0 -0.44898464996E+03  0.21715253856E+03  0.25168271842E+02  0.49937549283E+03  0.50400001928E-02 0. -1.
       -1    1    3    3    0  502  0.44898464996E+03 -0.21715253856E+03  0.11495082802E+04  0.12530409918E+04  0.50400001928E-02 0.  1.
</event>
<event>
 5   0  0.1476511E-04  0.1302056E+04  0.7818609E-02  0.9027936E-01
        1   -1    0    0  501    0  0.00000000000E+00  0.00000000000E+00  0.27416951663E+04  0.27416951663E+04  0.50400001928E-02 0. -1.
       -1   -1    0    0    0  501  0.00000000000E+00  0.00000000000E+00 -0.15458951473E+03  0.15458951481E+03  0.50400001928E-02 0.  1.
    10030    2    1    2    0    0  0.00000000000E+00  0.00000000000E+00  0.25871056516E+04  0.28962846811E+04  0.13020557982E+04 0.  0.
        2    1    3    3  502    0 -0.14730287276E+03  0.26928772090E+02 -0.11576169071E+03  0.18927246004E+03  0.25500000920E-02 0.  1.
       -2    1    3    3    0  502  0.14730287276E+03 -0.26928772090E+02  0.27028673423E+04  0.27070122211E+04  0.25500000920E-02 0. -1.
</event>
<event>
 5   0  0.2661377E-04  0.1300054E+04  0.7818609E-02  0.9029522E-01
       -2   -1    0    0    0  501  0.00000000000E+00  0.00000000000E+00  0.29436306945E+03  0.29436306946E+03  0.25500000920E-02 0.  1.
        2   -1    0    0  501    0  0.00000000000E+00  0.00000000000E+00 -0.14354226564E+04  0.14354226564E+04  0.25500000920E-02 0. -1.
    10030    2    1    2    0    0  0.00000000000E+00  0.00000000000E+00 -0.11410595869E+04  0.17297857258E+04  0.13000544898E+04 0.  0.
        5    1    3    3  502    0 -0.22017583557E+03 -0.56603751424E+03 -0.26237788091E+03  0.66161930782E+03  0.46999998093E+01 0.  1.
       -5    1    3    3    0  502  0.22017583557E+03  0.56603751424E+03 -0.87868170601E+03  0.10681664180E+04  0.46999998093E+01 0. -1.
</event>
<event>
 5   0  0.1476511E-04  0.1300361E+04  0.7818609E-02  0.9029279E-01
       -1   -1    0    0    0  501  0.00000000000E+00  0.00000000000E+00  0.51822028368E+03  0.51822028370E+03  0.50400001928E-02 0.  1.
        1   -1    0    0  501    0  0.00000000000E+00  0.00000000000E+00 -0.81574302057E+03  0.81574302059E+03  0.50400001928E-02 0. -1.
    10030    2    1    2    0    0  0.00000000000E+00  0.00000000000E+00 -0.29752273690E+03  0.13339633043E+04  0.13003608415E+04 0.  0.
        2    1    3    3  502    0 -0.58137696246E+03 -0.29108821341E+03 -0.15055559058E+03  0.66738182948E+03  0.25500000920E-02 0. -1.
       -2    1    3    3    0  502  0.58137696246E+03  0.29108821341E+03 -0.14696714632E+03  0.66658147481E+03  0.25500000920E-02 0.  1.
</event>
<event>
 5   0  0.2723209E-04  0.1289985E+04  0.7818609E-02  0.9037545E-01
        2   -1    0    0  501    0  0.00000000000E+00  0.00000000000E+00  0.10492630980E+04  0.10492630980E+04  0.25500000920E-02 0. -1.
       -2   -1    0    0    0  501  0.00000000000E+00  0.00000000000E+00 -0.39648302229E+03  0.39648302230E+03  0.25500000920E-02 0.  1.
    10030    2    1    2    0    0  0.00000000000E+00  0.00000000000E+00  0.65278007568E+03  0.14457461203E+04  0.12899845027E+04 0.  0.
        2    1    3    3  502    0  0.12313221938E+03  0.61516315028E+03  0.15854809947E+03  0.64708944108E+03  0.25500000920E-02 0.  1.
       -2    1    3    3    0  502 -0.12313221938E+03 -0.61516315028E+03  0.49423197622E+03  0.79865667920E+03  0.25500000920E-02 0. -1.
</event>
<event>
 5   0  0.2756984E-04  0.1300643E+04  0.7818609E-02  0.9029056E-01
        2   -1    0    0  501    0  0.00000000000E+00  0.00000000000E+00  0.12005919811E+04  0.12005919811E+04  0.25500000920E-02 0.  1.
       -2   -1    0    0    0  501  0.00000000000E+00  0.00000000000E+00 -0.35225777978E+03  0.35225777979E+03  0.25500000920E-02 0. -1.
    10030    2    1    2    0    0  0.00000000000E+00  0.00000000000E+00  0.84833420135E+03  0.15528497609E+04  0.13006427114E+04 0.  0.
        3    1    3    3  502    0 -0.51237567408E+03 -0.32362631283E+03  0.70582611374E+03  0.93029744426E+03  0.10100000352E+00 0.  1.
       -3    1    3    3    0  502  0.51237567408E+03  0.32362631283E+03  0.14250808761E+03  0.62255231666E+03  0.10100000352E+00 0. -1.
</event>
<event>
 5   0  0.1002887E-04  0.1300144E+04  0.7818609E-02  0.9029451E-01
       -3   -1    0    0    0  501  0.00000000000E+00  0.00000000000E+00  0.26087898198E+03  0.26087900153E+03  0.10100000352E+00 0. -1.
        3   -1    0    0  501    0  0.00000000000E+00  0.00000000000E+00 -0.16198829224E+04  0.16198829256E+04  0.10100000352E+00 0.  1.
    10030    2    1    2    0    0  0.00000000000E+00  0.00000000000E+00 -0.13590039405E+04  0.18807619271E+04  0.13001437291E+04 0.  0.
        1    1    3    3  502    0 -0.41489275077E+03 -0.33942006170E+03 -0.14749976351E+03  0.55596596406E+03  0.50400001928E-02 0. -1.
       -1    1    3    3    0  502  0.41489275077E+03  0.33942006170E+03 -0.12115041769E+04  0.13247959630E+04  0.50400001928E-02 0.  1.
</event>
<event>
 5   0  0.2794825E-04  0.1298170E+04  0.7818609E-02  0.9031018E-01
       -2   -1    0    0    0  501  0.00000000000E+00  0.00000000000E+00  0.46812245414E+03  0.46812245415E+03  0.25500000920E-02 0. -1.
        2   -1    0    0  501    0  0.00000000000E+00  0.00000000000E+00 -0.90000175120E+03  0.90000175121E+03  0.25500000920E-02 0.  1.
    10030    2    1    2    0    0  0.00000000000E+00  0.00000000000E+00 -0.43187929707E+03  0.13681242054E+04  0.12981695244E+04 0.  0.
        1    1    3    3  502    0  0.13694267862E+03  0.26809028225E+03 -0.82198005788E+03  0.87537244201E+03  0.50400001928E-02 0.  1.
       -1    1    3    3    0  502 -0.13694267862E+03 -0.26809028225E+03  0.39010076081E+03  0.49275176334E+03  0.50400001928E-02 0. -1.
</event>
<event>
 5   0  0.2573071E-04  0.1305758E+04  0.7818609E-02  0.9025011E-01
        2   -1    0    0  501    0  0.00000000000E+00  0.00000000000E+00  0.12614260417E+04  0.12614260417E+04  0.25500000920E-02 0.  1.
       -2   -1    0    0    0  501  0.00000000000E+00  0.00000000000E+00 -0.33791198882E+03  0.33791198883E+03  0.25500000920E-02 0. -1.
    10030    2    1    2    0    0  0.00000000000E+00  0.00000000000E+00  0.92351405289E+03  0.15993380305E+04  0.13057579906E+04 0.  0.
        4    1    3    3  502    0  0.28354839808E+03 -0.18021110256E+03  0.11474170026E+04  0.11955932110E+04  0.12699999809E+01 0.  1.
       -4    1    3    3    0  502 -0.28354839808E+03  0.18021110256E+03 -0.22390294967E+03  0.40374481954E+03  0.12699999809E+01 0. -1.
</event>
<event>
 5   0  0.1408341E-04  0.1297677E+04  0.7818609E-02  0.9031409E-01
       -1   -1    0    0    0  501  0.00000000000E+00  0.00000000000E+00  0.83917675566E+03  0.83917675568E+03  0.50400001928E-02 0.  1.
        1   -1    0    0  501    0  0.00000000000E+00  0.00000000000E+00 -0.50167182517E+03  0.50167182520E+03  0.50400001928E-02 0. -1.
    10030    2    1    2    0    0  0.00000000000E+00  0.00000000000E+00  0.33750493049E+03  0.13408485809E+04  0.12976769007E+04 0.  0.
        5    1    3    3  502    0  0.10172892750E+03  0.59310274888E+03  0.41941239729E+03  0.73351788963E+03  0.46999998093E+01 0.  1.
       -5    1    3    3    0  502 -0.10172892750E+03 -0.59310274888E+03 -0.81907466799E+02  0.60733069125E+03  0.46999998093E+01 0. -1.
</event>
<event>
 5   0  0.1430636E-04  0.1300535E+04  0.7818609E-02  0.9029141E-01
        1   -1    0    0  501    0  0.00000000000E+00  0.00000000000E+00  0.11970446347E+04  0.11970446347E+04  0.50400001928E-02 0. -1.
       -1   -1    0    0    0  501  0.00000000000E+00  0.00000000000E+00 -0.35324294744E+03  0.35324294748E+03  0.50400001928E-02 0.  1.
    10030    2    1    2    0    0  0.00000000000E+00  0.00000000000E+00  0.84380168722E+03  0.15502875822E+04  0.13005346208E+04 0.  0.
        4    1    3    3  502    0 -0.12802581546E+03 -0.60671595154E+03  0.18845867892E+03  0.64808420891E+03  0.12699999809E+01 0.  1.
       -4    1    3    3    0  502  0.12802581546E+03  0.60671595154E+03  0.65534300829E+03  0.90220337325E+03  0.12699999809E+01 0. -1.
</event>
<event>
 5   0  0.1408341E-04  0.1300040E+04  0.7818609E-02  0.9029534E-01
       -1   -1    0    0    0  501  0.00000000000E+00  0.00000000000E+00  0.28393271764E+03  0.28393271769E+03  0.50400001928E-02 0.  1.
        1   -1    0    0  501    0  0.00000000000E+00  0.00000000000E+00 -0.14881190453E+04  0.14881190453E+04  0.50400001928E-02 0. -1.
    10030    2    1    2    0    0  0.00000000000E+00  0.00000000000E+00 -0.12041863277E+04  0.17720517630E+04  0.13000395144E+04 0.  0.
        5    1    3    3  502    0 -0.37964174804E+03  0.51739533130E+03 -0.74294448531E+03  0.98174048708E+03  0.46999998093E+01 0. -1.
       -5    1    3    3    0  502  0.37964174804E+03 -0.51739533130E+03 -0.46124184234E+03  0.79031127591E+03  0.46999998093E+01 0.  1.
</event>
<event>
 5   0  0.2756984E-04  0.1300910E+04  0.7818609E-02  0.9028844E-01
       -2   -1    0    0    0  501  0.00000000000E+00  0.00000000000E+00  0.23267687424E+03  0.23267687426E+03  0.25500000920E-02 0.  1.
        2   -1    0    0  501    0  0.00000000000E+00  0.00000000000E+00 -0.18183666084E+04  0.18183666084E+04  0.25500000920E-02 0. -1.
    10030    2    1    2    0    0  0.00000000000E+00  0.00000000000E+00 -0.15856897341E+04  0.20510434826E+04  0.13009102332E+04 0.  0.
        3    1    3    3  502    0  0.45779367255E+03  0.26420049760E+03 -0.19515150231E+03  0.56343683641E+03  0.10100000352E+00 0.  1.
       -3    1    3    3    0  502 -0.45779367255E+03 -0.26420049760E+03 -0.13905382318E+04  0.14876066462E+04  0.10100000352E+00 0. -1.
</event>
<event>
 5   0  0.2723209E-04  0.1300314E+04  0.7818609E-02  0.9029316E-01
        2   -1    0    0  501    0  0.00000000000E+00  0.00000000000E+00  0.82821985641E+03  0.82821985641E+03  0.25500000920E-02 0.  1.
       -2   -1    0    0    0  501  0.00000000000E+00  0.00000000000E+00 -0.51037705620E+03  0.51037705621E+03  0.25500000920E-02 0. -1.
    10030    2    1    2    0    0  0.00000000000E+00  0.00000000000E+00  0.31784280021E+03  0.13385969126E+04  0.13003144423E+04 0.  0.
        2    1    3    3  502    0  0.71753093435E+01  0.59738210642E+03  0.42296355983E+03  0.73199387913E+03  0.25500000920E-02 0.  1.
       -2    1    3    3    0  502 -0.71753093435E+01 -0.59738210642E+03 -0.10512075962E+03  0.60660303349E+03  0.25500000920E-02 0. -1.
</event>
<event>
 5   0  0.2661377E-04  0.1299703E+04  0.7818609E-02  0.9029801E-01
       -2   -1    0    0    0  501  0.00000000000E+00  0.00000000000E+00  0.55586796863E+03  0.55586796864E+03  0.25500000920E-02 0. -1.
        2   -1    0    0  501    0  0.00000000000E+00  0.00000000000E+00 -0.75972559872E+03  0.75972559873E+03  0.25500000920E-02 0.  1.
    10030    2    1    2    0    0  0.00000000000E+00  0.00000000000E+00 -0.20385763009E+03  0.13155935674E+04  0.12997032358E+04 0.  0.
        5    1    3    3  502    0 -0.94189188039E+02  0.11693470161E+03  0.53805086718E+03  0.55862881528E+03  0.46999998093E+01 0. -1.
       -5    1    3    3    0  502  0.94189188039E+02 -0.11693470161E+03 -0.74190849727E+03  0.75696475209E+03  0.46999998093E+01 0.  1.
</event>
<event>
 5   0  0.1430636E-04  0.1297404E+04  0.7818609E-02  0.9031627E-01
        1   -1    0    0  501    0  0.00000000000E+00  0.00000000000E+00  0.55930539582E+03  0.55930539584E+03  0.50400001928E-02 0.  1.
       -1   -1    0    0    0  501  0.00000000000E+00  0.00000000000E+00 -0.75238700058E+03  0.75238700060E+03  0.50400001928E-02 0. -1.
    10030    2    1    2    0    0  0.00000000000E+00  0.00000000000E+00 -0.19308160477E+03  0.13116923964E+04  0.12974037293E+04 0.  0.
        4    1    3    3  502    0  0.50347386680E+03 -0.36023712175E+03 -0.29246823151E+03  0.68468678809E+03  0.12699999809E+01 0. -1.
       -4    1    3    3    0  502 -0.50347386680E+03  0.36023712175E+03  0.99386626744E+02  0.62700560836E+03  0.12699999809E+01 0.  1.
</event>
<event>
 5   0  0.1479690E-04  0.1293836E+04  0.7818609E-02  0.9034468E-01
        1   -1    0    0  501    0  0.00000000000E+00  0.00000000000E+00  0.62516926594E+03  0.62516926596E+03  0.50400001928E-02 0.  1.
       -1   -1    0    0    0  501  0.00000000000E+00  0.00000000000E+00 -0.66942339143E+03  0.66942339145E+03  0.50400001928E-02 0. -1.
    10030    2    1    2    0    0  0.00000000000E+00  0.00000000000E+00 -0.44254125489E+02  0.12945926574E+04  0.12938360487E+04 0.  0.
        1    1    3    3  502    0  0.36655342121E+03 -0.43120104428E+03 -0.33569056779E+03  0.65801512788E+03  0.50400001928E-02 0. -1.
       -1    1    3    3    0  502 -0.36655342121E+03  0.43120104428E+03  0.29143644230E+03  0.63657752954E+03  0.50400001928E-02 0.  1.
</event>
<event>
 5   0  0.2723209E-04  0.1299595E+04  0.7818609E-02  0.9029886E-01
        2   -1    0    0  501    0  0.00000000000E+00  0.00000000000E+00  0.98380123817E+03  0.98380123817E+03  0.25500000920E-02 0. -1.
       -2   -1    0    0    0  501  0.00000000000E+00  0.00000000000E+00 -0.42918914718E+03  0.42918914719E+03  0.25500000920E-02 0.  1.
    10030    2    1    2    0    0  0.00000000000E+00  0.00000000000E+00  0.55461209099E+03  0.14129903854E+04  0.12995950360E+04 0.  0.
        2    1    3    3  502    0  0.33959042444E+03  0.90609976091E+02 -0.31692098313E+03  0.47325546346E+03  0.25500000920E-02 0.  1.
       -2    1    3    3    0  502 -0.33959042444E+03 -0.90609976091E+02  0.87153307412E+03  0.93973492190E+03  0.25500000920E-02 0. -1.
</event>
<event>
 5   0  0.1002887E-04  0.1296733E+04  0.7818609E-02  0.9032160E-01
        3   -1    0    0  501    0  0.00000000000E+00  0.00000000000E+00  0.52110004110E+03  0.52110005089E+03  0.10100000352E+00 0. -1.
       -3   -1    0    0    0  501  0.00000000000E+00  0.00000000000E+00 -0.80671532403E+03  0.80671533035E+03  0.10100000352E+00 0.  1.
    10030    2    1    2    0    0  0.00000000000E+00  0.00000000000E+00 -0.28561528293E+03  0.13278153812E+04  0.12967334332E+04 0.  0.
        1    1    3    3  502    0  0.75727774927E+02 -0.64308953572E+03 -0.17646731432E+03  0.67114794188E+03  0.50400001928E-02 0. -1.
       -1    1    3    3    0  502 -0.75727774927E+02  0.64308953572E+03 -0.10914796861E+03  0.65666743936E+03  0.50400001928E-02 0.  1.
</event>
<event>
 5   0  0.1430636E-04  0.1298942E+04  0.7818609E-02  0.9030404E-01
       -1   -1    0    0    0  501  0.00000000000E+00  0.00000000000E+00  0.50126511092E+03  0.50126511094E+03  0.50400001928E-02 0. -1.
        1   -1    0    0  501    0  0.00000000000E+00  0.00000000000E+00 -0.84149663211E+03  0.84149663213E+03  0.50400001928E-02 0.  1.
    10030    2    1    2    0    0  0.00000000000E+00  0.00000000000E+00 -0.34023152120E+03  0.13427617431E+04  0.12989424970E+04 0.  0.
        4    1    3    3  502    0  0.25434341108E+03  0.59642952150E+03 -0.20869144454E+03  0.68115525161E+03  0.12699999809E+01 0. -1.
       -4    1    3    3    0  502 -0.25434341108E+03 -0.59642952150E+03 -0.13154007665E+03  0.66160649146E+03  0.12699999809E+01 0.  1.
</event>
<event>
 5   0  0.2573071E-04  0.1300020E+04  0.7818609E-02  0.9029549E-01
       -2   -1    0    0    0  501  0.00000000000E+00  0.00000000000E+00  0.23531403208E+03  0.23531403210E+03  0.25500000920E-02 0.  1.
        2   -1    0    0  501    0  0.00000000000E+00  0.00000000000E+00 -0.17955277295E+04  0.17955277295E+04  0.25500000920E-02 0. -1.
    10030    2    1    2    0    0  0.00000000000E+00  0.00000000000E+00 -0.15602136974E+04  0.20308417616E+04  0.13000197995E+04 0.  0.
        4    1    3    3  502    0  0.50416397415E+03 -0.18608851791E+03 -0.20889993047E+03  0.57658567722E+03  0.12699999809E+01 0.  1.
       -4    1    3    3    0  502 -0.50416397415E+03  0.18608851791E+03 -0.13513137669E+04  0.14542560844E+04  0.12699999809E+01 0. -1.
</event>
<event>
 5   0  0.1408341E-04  0.1300992E+04  0.7818609E-02  0.9028779E-01
        1   -1    0    0  501    0  0.00000000000E+00  0.00000000000E+00  0.98270572100E+03  0.98270572101E+03  0.50400001928E-02 0. -1.
       -1   -1    0    0    0  501  0.00000000000E+00  0.00000000000E+00 -0.43059193874E+03  0.43059193877E+03  0.50400001928E-02 0.  1.
    10030    2    1    2    0    0  0.00000000000E+00  0.00000000000E+00  0.55211378226E+03  0.14132976598E+04  0.13009921778E+04 0.  0.
        5    1    3    3  502    0  0.49748434301E+03  0.41758423678E+03  0.23756049175E+03  0.69160996492E+03  0.46999998093E+01 0.  1.
       -5    1    3    3    0  502 -0.49748434301E+03 -0.41758423678E+03  0.31455329051E+03  0.72168769486E+03  0.46999998093E+01 0. -1.
</event>
<event>
 5   0  0.2661377E-04  0.1300275E+04  0.7818609E-02  0.9029347E-01
        2   -1    0    0  501    0  0.00000000000E+00  0.00000000000E+00  0.44801356108E+03  0.44801356109E+03  0.25500000920E-02 0. -1.
       -2   -1    0    0    0  501  0.00000000000E+00  0.00000000000E+00 -0.94345128199E+03  0.94345128199E+03  0.25500000920E-02 0.  1.
    10030    2    1    2    0    0  0.00000000000E+00  0.00000000000E+00 -0.49543772091E+03  0.13914648431E+04  0.13002753071E+04 0.  0.
        5    1    3    3  502    0  0.46642496474E+03  0.45283277945E+03 -0.25506347386E+03  0.69834750631E+03  0.46999998093E+01 0.  1.
       -5    1    3    3    0  502 -0.46642496474E+03 -0.45283277945E+03 -0.24037424705E+03  0.69311733676E+03  0.46999998093E+01 0. -1.
</event>
<event>
 5   0  0.2794825E-04  0.1280109E+04  0.7818609E-02  0.9045490E-01
       -2   -1    0    0    0  501  0.00000000000E+00  0.00000000000E+00  0.61388620323E+03  0.61388620324E+03  0.25500000920E-02 0. -1.
        2   -1    0    0  501    0  0.00000000000E+00  0.00000000000E+00 -0.66733776225E+03  0.66733776226E+03  0.25500000920E-02 0.  1.
    10030    2    1    2    0    0  0.00000000000E+00  0.00000000000E+00 -0.53451559021E+02  0.12812239655E+04  0.12801085034E+04 0.  0.
        1    1    3    3  502    0  0.42595827326E+03  0.44232762887E+03  0.15391767862E+03  0.63307569345E+03  0.50400001928E-02 0.  1.
       -1    1    3    3    0  502 -0.42595827326E+03 -0.44232762887E+03 -0.20736923764E+03  0.64814827205E+03  0.50400001928E-02 0. -1.
</event>
<event>
 5   0  0.1475396E-04  0.1293878E+04  0.7818609E-02  0.9034434E-01
        1   -1    0    0  501    0  0.00000000000E+00  0.00000000000E+00  0.17943704124E+04  0.17943704124E+04  0.50400001928E-02 0. -1.
       -1   -1    0    0    0  501  0.00000000000E+00  0.00000000000E+00 -0.23324625687E+03  0.23324625693E+03  0.50400001928E-02 0.  1.
    10030    2    1    2    0    0  0.00000000000E+00  0.00000000000E+00  0.15611241556E+04  0.20276166694E+04  0.12938781739E+04 0.  0.
        3    1    3    3  502    0  0.35703330861E+03 -0.37643423818E+03  0.13861843586E+04  0.14800954717E+04  0.10100000352E+00 0. -1.
       -3    1    3    3    0  502 -0.35703330861E+03  0.37643423818E+03  0.17493979696E+03  0.54752119767E+03  0.10100000352E+00 0.  1.
</event>
<event>
 5   0  0.1430636E-04  0.1300325E+04  0.7818609E-02  0.9029307E-01
        1   -1    0    0  501    0  0.00000000000E+00  0.00000000000E+00  0.57492217659E+03  0.57492217661E+03  0.50400001928E-02 0. -1.
       -1   -1    0    0    0  501  0.00000000000E+00  0.00000000000E+00 -0.73524999026E+03  0.73524999028E+03  0.50400001928E-02 0.  1.
    10030    2    1    2    0    0  0.00000000000E+00  0.00000000000E+00 -0.16032781367E+03  0.13101721669E+04  0.13003253820E+04 0.  0.
        4    1    3    3  502    0 -0.22122574530E+03 -0.75013103833E+02 -0.69150569245E+03  0.72989693225E+03  0.12699999809E+01 0.  1.
       -4    1    3    3    0  502  0.22122574530E+03  0.75013103833E+02  0.53117787878E+03  0.58027523464E+03  0.12699999809E+01 0. -1.
</event>
<event>
 5   0  0.1430636E-04  0.1299112E+04  0.7818609E-02  0.9030270E-01
        1   -1    0    0  501    0  0.00000000000E+00  0.00000000000E+00  0.83449302640E+03  0.83449302642E+03  0.50400001928E-02 0. -1.
       -1   -1    0    0    0  501  0.00000000000E+00  0.00000000000E+00 -0.50560388677E+03  0.50560388680E+03  0.50400001928E-02 0.  1.
    10030    2    1    2    0    0  0.00000000000E+00  0.00000000000E+00  0.32888913963E+03  0.13400969132E+04  0.12991118776E+04 0.  0.
        4    1    3    3  502    0  0.24993312773E+03  0.25582334724E+03 -0.39488795970E+03  0.53277600073E+03  0.12699999809E+01 0.  1.
       -4    1    3    3    0  502 -0.24993312773E+03 -0.25582334724E+03  0.72377709933E+03  0.80732091249E+03  0.12699999809E+01 0. -1.
</event>
<event>
 5   0  0.1430636E-04  0.1334520E+04  0.7818609E-02  0.9002630E-01
        1   -1    0    0  501    0  0.00000000000E+00  0.00000000000E+00  0.74997530133E+03  0.74997530134E+03  0.50400001928E-02 0.  1.
       -1   -1    0    0    0  501  0.00000000000E+00  0.00000000000E+00 -0.59366744398E+03  0.59366744400E+03  0.50400001928E-02 0. -1.
    10030    2    1    2    0    0  0.00000000000E+00  0.00000000000E+00  0.15630785735E+03  0.13436427453E+04  0.13345200189E+04 0.  0.
        4    1    3    3  502    0  0.66683135500E+02  0.17816672672E+03 -0.56578381704E+03  0.59691118568E+03  0.12699999809E+01 0. -1.
       -4    1    3    3    0  502 -0.66683135500E+02 -0.17816672672E+03  0.72209167439E+03  0.74673155966E+03  0.12699999809E+01 0.  1.
</event>
<event>
 5   0  0.1475396E-04  0.1301099E+04  0.7818609E-02  0.9028694E-01
        1   -1    0    0  501    0  0.00000000000E+00  0.00000000000E+00  0.14654450265E+04  0.14654450265E+04  0.50400001928E-02 0. -1.
       -1   -1    0    0    0  501  0.00000000000E+00  0.00000000000E+00 -0.28879598920E+03  0.28879598924E+03  0.50400001928E-02 0.  1.
    10030    2    1    2    0    0  0.00000000000E+00  0.00000000000E+00  0.11766490373E+04  0.17542410158E+04  0.13010989910E+04 0.  0.
        3    1    3    3  502    0  0.48291957386E+03  0.63634537243E+02  0.69156601972E+01  0.48714320862E+03  0.10100000352E+00 0.  1.
       -3    1    3    3    0  502 -0.48291957386E+03 -0.63634537243E+02  0.11697333771E+04  0.12670978072E+04  0.10100000352E+00 0. -1.
</event>
<event>
 5   0  0.2661377E-04  0.1301588E+04  0.7818609E-02  0.9028306E-01
       -2   -1    0    0    0  501  0.00000000000E+00  0.00000000000E+00  0.45840289139E+03  0.45840289139E+03  0.25500000920E-02 0. -1.
        2   -1    0    0  501    0  0.00000000000E+00  0.00000000000E+00 -0.92393200772E+03  0.92393200772E+03  0.25500000920E-02 0.  1.
    10030    2    1    2    0    0  0.00000000000E+00  0.00000000000E+00 -0.46552911633E+03  0.13823348991E+04  0.13015884200E+04 0.  0.
        5    1    3    3  502    0 -0.26276700258E+03  0.46674483075E+03 -0.62530720735E+03  0.82336409215E+03  0.46999998093E+01 0.  1.
       -5    1    3    3    0  502  0.26276700258E+03 -0.46674483075E+03  0.15977809102E+03  0.55897080697E+03  0.46999998093E+01 0. -1.
</event>
<event>
 5   0  0.2723209E-04  0.1302268E+04  0.7818609E-02  0.9027769E-01
       -2   -1    0    0    0  501  0.00000000000E+00  0.00000000000E+00  0.14256276162E+04  0.14256276162E+04  0.25500000920E-02 0. -1.
        2   -1    0    0  501    0  0.00000000000E+00  0.00000000000E+00 -0.29739567604E+03  0.29739567605E+03  0.25500000920E-02 0.  1.
    10030    2    1    2    0    0  0.00000000000E+00  0.00000000000E+00  0.11282319401E+04  0.17230232922E+04  0.13022680042E+04 0.  0.
        2    1    3    3  502    0  0.45450011955E+02 -0.57266924097E+03  0.15854986888E+03  0.59594783670E+03  0.25500000920E-02 0. -1.
       -2    1    3    3    0  502 -0.45450011955E+02  0.57266924097E+03  0.96968207124E+03  0.11270754555E+04  0.25500000920E-02 0.  1.
</event>
<event>
 5   0  0.1476511E-04  0.1300773E+04  0.7818609E-02  0.9028952E-01
        1   -1    0    0  501    0  0.00000000000E+00  0.00000000000E+00  0.79592063570E+03  0.79592063572E+03  0.50400001928E-02 0.  1.
       -1   -1    0    0    0  501  0.00000000000E+00  0.00000000000E+00 -0.53146359065E+03  0.53146359067E+03  0.50400001928E-02 0. -1.
    10030    2    1    2    0    0  0.00000000000E+00  0.00000000000E+00  0.26445704505E+03  0.13273842264E+04  0.13007733683E+04 0.  0.
        2    1    3    3  502    0  0.50290697843E+03  0.22086440455E+03  0.48764432900E+03  0.73450221631E+03  0.25500000920E-02 0.  1.
       -2    1    3    3    0  502 -0.50290697843E+03 -0.22086440455E+03 -0.22318728395E+03  0.59288201008E+03  0.25500000920E-02 0. -1.
</event>
<event>
 5   0  0.1479690E-04  0.1300159E+04  0.7818609E-02  0.9029439E-01
        1   -1    0    0  501    0  0.00000000000E+00  0.00000000000E+00  0.61618231322E+03  0.61618231324E+03  0.50400001928E-02 0. -1.
       -1   -1    0    0    0  501  0.00000000000E+00  0.00000000000E+00 -0.68584148034E+03  0.68584148036E+03  0.50400001928E-02 0.  1.
    10030    2    1    2    0    0  0.00000000000E+00  0.00000000000E+00 -0.69659167119E+02  0.13020237936E+04  0.13001590516E+04 0.  0.
        1    1    3    3  502    0 -0.13595202674E+03 -0.40418853516E+03 -0.52619823614E+03  0.67730045716E+03  0.50400001928E-02 0.  1.
       -1    1    3    3    0  502  0.13595202674E+03  0.40418853516E+03  0.45653906902E+03  0.62472333644E+03  0.50400001928E-02 0. -1.
</event>
<event>
 5   0  0.1475396E-04  0.1298665E+04  0.7818609E-02  0.9030624E-01
        1   -1    0    0  501    0  0.00000000000E+00  0.00000000000E+00  0.94499759196E+03  0.94499759198E+03  0.50400001928E-02 0. -1.
       -1   -1    0    0    0  501  0.00000000000E+00  0.00000000000E+00 -0.44617362327E+03  0.44617362329E+03  0.50400001928E-02 0.  1.
    10030    2    1    2    0    0  0.00000000000E+00  0.00000000000E+00  0.49882396870E+03  0.13911712153E+04  0.12986654683E+04 0.  0.
        3    1    3    3  502    0  0.76685084449E+02  0.23586393845E+03 -0.39343449052E+03  0.46508397970E+03  0.10100000352E+00 0.  1.
       -3    1    3    3    0  502 -0.76685084449E+02 -0.23586393845E+03  0.89225845922E+03  0.92608723557E+03  0.10100000352E+00 0. -1.
</event>
<event>
 5   0  0.1479690E-04  0.1291418E+04  0.7818609E-02  0.9036398E-01
       -1   -1    0    0    0  501  0.00000000000E+00  0.00000000000E+00  0.33357069955E+03  0.33357069959E+03  0.50400001928E-02 0.  1.
        1   -1    0    0  501    0  0.00000000000E+00  0.00000000000E+00 -0.12499306261E+04  0.12499306261E+04  0.50400001928E-02 0. -1.
    10030    2    1    2    0    0  0.00000000000E+00  0.00000000000E+00 -0.91635992651E+03  0.15835013257E+04  0.12914181869E+04 0.  0.
        1    1    3    3  502    0 -0.30410610191E+03 -0.28696394555E+03 -0.10615158498E+04  0.11408964575E+04  0.50400001928E-02 0. -1.
       -1    1    3    3    0  502  0.30410610191E+03  0.28696394555E+03  0.14515592328E+03  0.44260486820E+03  0.50400001928E-02 0.  1.
</event>
<event>
 5   0  0.1430636E-04  0.1308925E+04  0.7818609E-02  0.9022517E-01
        1   -1    0    0  501    0  0.00000000000E+00  0.00000000000E+00  0.12508665825E+04  0.12508665825E+04  0.50400001928E-02 0. -1.
       -1   -1    0    0    0  501  0.00000000000E+00  0.00000000000E+00 -0.34241961660E+03  0.34241961664E+03  0.50400001928E-02 0.  1.
    10030    2    1    2    0    0  0.00000000000E+00  0.00000000000E+00  0.90844696590E+03  0.15932861991E+04  0.13089251402E+04 0.  0.
        4    1    3    3  502    0 -0.22037215589E+02 -0.10991902222E+03 -0.33064350143E+03  0.34913402620E+03  0.12699999809E+01 0.  1.
       -4    1    3    3    0  502  0.22037215589E+02  0.10991902222E+03  0.12390904673E+04  0.12441521729E+04  0.12699999809E+01 0. -1.
</event>
<event>
 5   0  0.1430636E-04  0.1297472E+04  0.7818609E-02  0.9031573E-01
       -1   -1    0    0    0  501  0.00000000000E+00  0.00000000000E+00  0.94983465351E+03  0.94983465353E+03  0.50400001928E-02 0.  1.
        1   -1    0    0  501    0  0.00000000000E+00  0.00000000000E+00 -0.44308564145E+03  0.44308564148E+03  0.50400001928E-02 0. -1.
    10030    2    1    2    0    0  0.00000000000E+00  0.00000000000E+00  0.50674901206E+03  0.13929202950E+04  0.12974715361E+04 0.  0.
        4    1    3    3  502    0 -0.44326830552E+03 -0.31816801379E+03 -0.12335175910E+03  0.55940588578E+03  0.12699999809E+01 0. -1.
       -4    1    3    3    0  502  0.44326830552E+03  0.31816801379E+03  0.63010077116E+03  0.83351440923E+03  0.12699999809E+01 0.  1.
</event>
<event>
 5   0  0.1475396E-04  0.1274760E+04  0.7818609E-02  0.9049824E-01
        1   -1    0    0  501    0  0.00000000000E+00  0.00000000000E+00  0.11883179726E+04  0.11883179726E+04  0.50400001928E-02 0.  1.
       -1   -1    0    0    0  501  0.00000000000E+00  0.00000000000E+00 -0.34187257092E+03  0.34187257096E+03  0.50400001928E-02 0. -1.
    10030    2    1    2    0    0  0.00000000000E+00  0.00000000000E+00  0.84644540167E+03  0.15301905436E+04  0.12747600878E+04 0.  0.
        3    1    3    3  502    0 -0.51294488827E+03  0.30486999751E+03  0.69215804105E+03  0.91386045859E+03  0.10100000352E+00 0.  1.
       -3    1    3    3    0  502  0.51294488827E+03 -0.30486999751E+03  0.15428736061E+03  0.61633008496E+03  0.10100000352E+00 0. -1.
</event>
<event>
 5   0  0.2723209E-04  0.1299532E+04  0.7818609E-02  0.9029936E-01
       -2   -1    0    0    0  501  0.00000000000E+00  0.00000000000E+00  0.82081915627E+03  0.82081915627E+03  0.25500000920E-02 0.  1.
        2   -1    0    0  501    0  0.00000000000E+00  0.00000000000E+00 -0.51435913395E+03  0.51435913396E+03  0.25500000920E-02 0. -1.
    10030    2    1    2    0    0  0.00000000000E+00  0.00000000000E+00  0.30646002232E+03  0.13351782902E+04  0.12995319625E+04 0.  0.
        2    1    3    3  502    0 -0.15505873092E+03 -0.53898179727E+03 -0.18387236984E+03  0.59021490681E+03  0.25500000920E-02 0. -1.
       -2    1    3    3    0  502  0.15505873092E+03  0.53898179727E+03  0.49033239216E+03  0.74496338342E+03  0.25500000920E-02 0.  1.
</event>
<event>
 5   0  0.1408341E-04  0.1304038E+04  0.7818609E-02  0.9026369E-01
        1   -1    0    0  501    0  0.00000000000E+00  0.00000000000E+00  0.12635105594E+04  0.12635105594E+04  0.50400001928E-02 0. -1.
       -1   -1    0    0    0  501  0.00000000000E+00  0.00000000000E+00 -0.33646659723E+03  0.33646659727E+03  0.50400001928E-02 0.  1.
    10030    2    1    2    0    0  0.00000000000E+00  0.00000000000E+00  0.92704396216E+03  0.15999771567E+04  0.13040384941E+04 0.  0.
        5    1    3    3  502    0 -0.32769028415E+03 -0.16095830602E+03 -0.19927388091E+03  0.41595753175E+03  0.46999998093E+01 0.  1.
       -5    1    3    3    0  502  0.32769028415E+03  0.16095830602E+03  0.11263178431E+04  0.11840196249E+04  0.46999998093E+01 0. -1.
</event>
<event>
 5   0  0.2794825E-04  0.1300459E+04  0.7818609E-02  0.9029201E-01
        2   -1    0    0  501    0  0.00000000000E+00  0.00000000000E+00  0.10494822570E+04  0.10494822570E+04  0.25500000920E-02 0. -1.
       -2   -1    0    0    0  501  0.00000000000E+00  0.00000000000E+00 -0.40286409875E+03  0.40286409876E+03  0.25500000920E-02 0.  1.
    10030    2    1    2    0    0  0.00000000000E+00  0.00000000000E+00  0.64661815827E+03  0.14523463558E+04  0.13004594936E+04 0.  0.
        1    1    3    3  502    0 -0.30732865400E+03 -0.15632131502E+03 -0.29235939317E+03  0.45206334722E+03  0.50400001928E-02 0.  1.
       -1    1    3    3    0  502  0.30732865400E+03  0.15632131502E+03  0.93897755143E+03  0.10002830086E+04  0.50400001928E-02 0. -1.
</event>
<event>
 5   0  0.1475396E-04  0.1300191E+04  0.7818609E-02  0.9029414E-01
       -1   -1    0    0    0  501  0.00000000000E+00  0.00000000000E+00  0.52876000424E+03  0.52876000426E+03  0.50400001928E-02 0.  1.
        1   -1    0    0  501    0  0.00000000000E+00  0.00000000000E+00 -0.79927396597E+03  0.79927396599E+03  0.50400001928E-02 0. -1.
    10030    2    1    2    0    0  0.00000000000E+00  0.00000000000E+00 -0.27051396173E+03  0.13280339702E+04  0.13001909178E+04 0.  0.
        3    1    3    3  502    0 -0.57715846153E+03 -0.26962904681E+03 -0.26769622449E+03  0.69099420505E+03  0.10100000352E+00 0. -1.
       -3    1    3    3    0  502  0.57715846153E+03  0.26962904681E+03 -0.28177372441E+01  0.63703976520E+03  0.10100000352E+00 0.  1.
</event>
<event>
 5   0  0.2794825E-04  0.1300738E+04  0.7818609E-02  0.9028980E-01
       -2   -1    0    0    0  501  0.00000000000E+00  0.00000000000E+00  0.32500436622E+03  0.32500436623E+03  0.25500000920E-02 0. -1.
        2   -1    0    0  501    0  0.00000000000E+00  0.00000000000E+00 -0.13014582616E+04  0.13014582616E+04  0.25500000920E-02 0.  1.
    10030    2    1    2    0    0  0.00000000000E+00  0.00000000000E+00 -0.97645389537E+03  0.16264626278E+04  0.13007376638E+04 0.  0.
        1    1    3    3  502    0 -0.49865794167E+03 -0.40604881682E+03 -0.60974413819E+03  0.88618468646E+03  0.50400001928E-02 0.  1.
       -1    1    3    3    0  502  0.49865794167E+03  0.40604881682E+03 -0.36670975718E+03  0.74027794137E+03  0.50400001928E-02 0. -1.
</event>
<event>
 5   0  0.1479690E-04  0.1319294E+04  0.7818609E-02  0.9014403E-01
       -1   -1    0    0    0  501  0.00000000000E+00  0.00000000000E+00  0.21329756379E+03  0.21329756385E+03  0.50400001928E-02 0. -1.
        1   -1    0    0  501    0  0.00000000000E+00  0.00000000000E+00 -0.20400334675E+04  0.20400334675E+04  0.50400001928E-02 0.  1.
    10030    2    1    2    0    0  0.00000000000E+00  0.00000000000E+00 -0.18267359037E+04  0.22533310314E+04  0.13192940063E+04 0.  0.
        1    1    3    3  502    0  0.40908584798E+03  0.27465762363E+03 -0.16429324723E+03  0.51940380470E+03  0.50400001928E-02 0. -1.
       -1    1    3    3    0  502 -0.40908584798E+03 -0.27465762363E+03 -0.16624426565E+04  0.17339272267E+04  0.50400001928E-02 0.  1.
</event>
<event>
 5   0  0.2661377E-04  0.1296157E+04  0.7818609E-02  0.9032619E-01
       -2   -1    0    0    0  501  0.00000000000E+00  0.00000000000E+00  0.54667866463E+03  0.54667866464E+03  0.25500000920E-02 0.  1.
        2   -1    0    0  501    0  0.00000000000E+00  0.00000000000E+00 -0.76828577787E+03  0.76828577788E+03  0.25500000920E-02 0. -1.
    10030    2    1    2    0    0  0.00000000000E+00  0.00000000000E+00 -0.22160711324E+03  0.13149644425E+04  0.12961565386E+04 0.  0.
        5    1    3    3  502    0 -0.32887151727E+03  0.43151068807E+03 -0.47038336002E+03  0.71808115430E+03  0.46999998093E+01 0. -1.
       -5    1    3    3    0  502  0.32887151727E+03 -0.43151068807E+03  0.24877624677E+03  0.59688328821E+03  0.46999998093E+01 0.  1.
</event>
<event>
 5   0  0.1476511E-04  0.1303392E+04  0.7818609E-02  0.9026880E-01
        1   -1    0    0  501    0  0.00000000000E+00  0.00000000000E+00  0.77572590365E+03  0.77572590366E+03  0.50400001928E-02 0. -1.
       -1   -1    0    0    0  501  0.00000000000E+00  0.00000000000E+00 -0.54749673020E+03  0.54749673022E+03  0.50400001928E-02 0.  1.
    10030    2    1    2    0    0  0.00000000000E+00  0.00000000000E+00  0.22822917345E+03  0.13232226339E+04  0.13033915694E+04 0.  0.
        2    1    3    3  502    0  0.11669178130E+03  0.23915437766E+03  0.71805709671E+03  0.76577919945E+03  0.25500000920E-02 0. -1.
       -2    1    3    3    0  502 -0.11669178130E+03 -0.23915437766E+03 -0.48982792326E+03  0.55744343443E+03  0.25500000920E-02 0.  1.
</event>
<event>
 5   0  0.2756984E-04  0.1309716E+04  0.7818609E-02  0.9021896E-01
        2   -1    0    0  501    0  0.00000000000E+00  0.00000000000E+00  0.90073333185E+03  0.90073333186E+03  0.25500000920E-02 0.  1.
       -2   -1    0    0    0  501  0.00000000000E+00  0.00000000000E+00 -0.47609962285E+03  0.47609962285E+03  0.25500000920E-02 0. -1.
    10030    2    1    2    0    0  0.00000000000E+00  0.00000000000E+00  0.42463370901E+03  0.13768329547E+04  0.13097156937E+04 0.  0.
        3    1    3    3  502    0 -0.41014954239E+03  0.15934333065E+03  0.72217192152E+03  0.84566260327E+03  0.10100000352E+00 0.  1.
       -3    1    3    3    0  502  0.41014954239E+03 -0.15934333065E+03 -0.29753821251E+03  0.53117035144E+03  0.10100000352E+00 0. -1.
</event>
<event>
 5   0  0.2723209E-04  0.1300571E+04  0.7818609E-02  0.9029113E-01
       -2   -1    0    0    0  501  0.00000000000E+00  0.00000000000E+00  0.43520202929E+03  0.43520202930E+03  0.25500000920E-02 0.  1.
        2   -1    0    0  501    0  0.00000000000E+00  0.00000000000E+00 -0.97166588014E+03  0.97166588014E+03  0.25500000920E-02 0. -1.
    10030    2    1    2    0    0  0.00000000000E+00  0.00000000000E+00 -0.53646385085E+03  0.14068679094E+04  0.13005705868E+04 0.  0.
        2    1    3    3  502    0  0.54202270341E+03 -0.35177290874E+03 -0.18919760975E+03  0.67329675915E+03  0.25500000920E-02 0.  1.
       -2    1    3    3    0  502 -0.54202270341E+03  0.35177290874E+03 -0.34726624110E+03  0.73357115030E+03  0.25500000920E-02 0. -1.
</event>
<event>
 5   0  0.1476511E-04  0.1301081E+04  0.7818609E-02  0.9028708E-01
        1   -1    0    0  501    0  0.00000000000E+00  0.00000000000E+00  0.68176017584E+03  0.68176017586E+03  0.50400001928E-02 0. -1.
       -1   -1    0    0    0  501  0.00000000000E+00  0.00000000000E+00 -0.62075040625E+03  0.62075040627E+03  0.50400001928E-02 0.  1.
    10030    2    1    2    0    0  0.00000000000E+00  0.00000000000E+00  0.61009769592E+02  0.13025105821E+04  0.13010809447E+04 0.  0.
        2    1    3    3  502    0  0.38714144696E+03 -0.52077985659E+03  0.76520020406E+02  0.65341064616E+03  0.25500000920E-02 0. -1.
       -2    1    3    3    0  502 -0.38714144696E+03  0.52077985659E+03 -0.15510250814E+02  0.64909993597E+03  0.25500000920E-02 0.  1.
</event>
<event>
 5   0  0.1002887E-04  0.1299811E+04  0.7818609E-02  0.9029715E-01
        4   -1    0    0  501    0  0.00000000000E+00  0.00000000000E+00  0.50803956569E+03  0.50804115306E+03  0.12699999809E+01 0.  1.
       -4   -1    0    0    0  501  0.00000000000E+00  0.00000000000E+00 -0.83138259299E+03  0.83138356300E+03  0.12699999809E+01 0. -1.
    10030    2    1    2    0    0  0.00000000000E+00  0.00000000000E+00 -0.32334302729E+03  0.13394247161E+04  0.12998107003E+04 0.  0.
        4    1    3    3  502    0 -0.63331030971E+03 -0.13211577090E+03 -0.97824966869E+02  0.65429952036E+03  0.12699999809E+01 0. -1.
       -4    1    3    3    0  502  0.63331030971E+03  0.13211577090E+03 -0.22551806043E+03  0.68512519570E+03  0.12699999809E+01 0.  1.
</event>
<event>
 5   0  0.2661377E-04  0.1299717E+04  0.7818609E-02  0.9029790E-01
       -2   -1    0    0    0  501  0.00000000000E+00  0.00000000000E+00  0.83926799594E+03  0.83926799594E+03  0.25500000920E-02 0.  1.
        2   -1    0    0  501    0  0.00000000000E+00  0.00000000000E+00 -0.50319540284E+03  0.50319540284E+03  0.25500000920E-02 0. -1.
    10030    2    1    2    0    0  0.00000000000E+00  0.00000000000E+00  0.33607259311E+03  0.13424633988E+04  0.12997165804E+04 0.  0.
        5    1    3    3  502    0  0.36910209879E+03  0.37019773633E+03  0.56675162836E+03  0.77104618640E+03  0.46999998093E+01 0.  1.
       -5    1    3    3    0  502 -0.36910209879E+03 -0.37019773633E+03 -0.23067903525E+03  0.57141721239E+03  0.46999998093E+01 0. -1.
</event>
<event>
 5   0  0.2756984E-04  0.1300754E+04  0.7818609E-02  0.9028967E-01
       -2   -1    0    0    0  501  0.00000000000E+00  0.00000000000E+00  0.13880398633E+04  0.13880398633E+04  0.25500000920E-02 0.  1.
        2   -1    0    0  501    0  0.00000000000E+00  0.00000000000E+00 -0.30473942685E+03  0.30473942686E+03  0.25500000920E-02 0. -1.
    10030    2    1    2    0    0  0.00000000000E+00  0.00000000000E+00  0.10833004364E+04  0.16927792901E+04  0.13007543540E+04 0.  0.
        3    1    3    3  502    0  0.20040610494E+03  0.27651196106E+03 -0.17867306320E+03  0.38541606767E+03  0.10100000352E+00 0. -1.
       -3    1    3    3    0  502 -0.20040610494E+03 -0.27651196106E+03  0.12619734996E+04  0.13073632225E+04  0.10100000352E+00 0.  1.
</event>
<event>
 5   0  0.2794825E-04  0.1300021E+04  0.7818609E-02  0.9029549E-01
        2   -1    0    0  501    0  0.00000000000E+00  0.00000000000E+00  0.46432307755E+03  0.46432307756E+03  0.25500000920E-02 0. -1.
       -2   -1    0    0    0  501  0.00000000000E+00  0.00000000000E+00 -0.90995552036E+03  0.90995552037E+03  0.25500000920E-02 0.  1.
    10030    2    1    2    0    0  0.00000000000E+00  0.00000000000E+00 -0.44563244281E+03  0.13742785979E+04  0.13000205347E+04 0.  0.
        1    1    3    3  502    0  0.82547365631E+02 -0.28324876180E+03 -0.83509758266E+03  0.88568160262E+03  0.50400001928E-02 0.  1.
       -1    1    3    3    0  502 -0.82547365631E+02  0.28324876180E+03  0.38946513985E+03  0.48859699530E+03  0.50400001928E-02 0. -1.
</event>
<event>
 5   0  0.1408341E-04  0.1293606E+04  0.7818609E-02  0.9034651E-01
        1   -1    0    0  501    0  0.00000000000E+00  0.00000000000E+00  0.22918879286E+04  0.22918879286E+04  0.50400001928E-02 0. -1.
       -1   -1    0    0    0  501  0.00000000000E+00  0.00000000000E+00 -0.18253698765E+03  0.18253698772E+03  0.50400001928E-02 0.  1.
    10030    2    1    2    0    0  0.00000000000E+00  0.00000000000E+00  0.21093509410E+04  0.24744249164E+04  0.12936063058E+04 0.  0.
        5    1    3    3  502    0 -0.15085574854E+03 -0.57118781071E+03  0.15582909897E+04  0.16665250885E+04  0.46999998093E+01 0. -1.
       -5    1    3    3    0  502  0.15085574854E+03  0.57118781071E+03  0.55105995130E+03  0.80789982789E+03  0.46999998093E+01 0.  1.
</event>
<event>
 5   0  0.1479690E-04  0.1302087E+04  0.7818609E-02  0.9027912E-01
       -1   -1    0    0    0  501  0.00000000000E+00  0.00000000000E+00  0.58089945584E+03  0.58089945586E+03  0.50400001928E-02 0.  1.
        1   -1    0    0  501    0  0.00000000000E+00  0.00000000000E+00 -0.72965728121E+03  0.72965728123E+03  0.50400001928E-02 0. -1.
    10030    2    1    2    0    0  0.00000000000E+00  0.00000000000E+00 -0.14875782537E+03  0.13105567371E+04  0.13020868137E+04 0.  0.
        1    1    3    3  502    0 -0.52910001963E+03 -0.55151713648E+02 -0.45214551866E+03  0.69815765581E+03  0.50400001928E-02 0. -1.
       -1    1    3    3    0  502  0.52910001963E+03  0.55151713648E+02  0.30338769329E+03  0.61239908128E+03  0.50400001928E-02 0.  1.
</event>
<event>
 5   0  0.1002887E-04  0.1298311E+04  0.7818609E-02  0.9030906E-01
       -3   -1    0    0    0  501  0.00000000000E+00  0.00000000000E+00  0.49314937704E+03  0.49314938738E+03  0.10100000352E+00 0. -1.
        3   -1    0    0  501    0  0.00000000000E+00  0.00000000000E+00 -0.85451309777E+03  0.85451310374E+03  0.10100000352E+00 0.  1.
    10030    2    1    2    0    0  0.00000000000E+00  0.00000000000E+00 -0.36136372073E+03  0.13476624911E+04  0.12983106143E+04 0.  0.
        5    1    3    3  502    0 -0.63341381883E+03  0.14193629608E+03 -0.18549993845E+03  0.67512317038E+03  0.46999998093E+01 0.  1.
       -5    1    3    3    0  502  0.63341381883E+03 -0.14193629608E+03 -0.17586378228E+03  0.67253932074E+03  0.46999998093E+01 0. -1.
</event>
<event>
 5   0  0.2723209E-04  0.1317140E+04  0.7818609E-02  0.9016082E-01
       -2   -1    0    0    0  501  0.00000000000E+00  0.00000000000E+00  0.35916742168E+03  0.35916742169E+03  0.25500000920E-02 0. -1.
        2   -1    0    0  501    0  0.00000000000E+00  0.00000000000E+00 -0.12075552441E+04  0.12075552441E+04  0.25500000920E-02 0.  1.
    10030    2    1    2    0    0  0.00000000000E+00  0.00000000000E+00 -0.84838782243E+03  0.15667226658E+04  0.13171400891E+04 0.  0.
        2    1    3    3  502    0  0.25892463289E+03  0.68644916044E+02 -0.11398274664E+04  0.11708803283E+04  0.25500000920E-02 0.  1.
       -2    1    3    3    0  502 -0.25892463289E+03 -0.68644916044E+02  0.29143964401E+03  0.39584233746E+03  0.25500000920E-02 0. -1.
</event>
<event>
 5   0  0.1476511E-04  0.1300625E+04  0.7818609E-02  0.9029069E-01
        1   -1    0    0  501    0  0.00000000000E+00  0.00000000000E+00  0.37959758379E+03  0.37959758383E+03  0.50400001928E-02 0.  1.
       -1   -1    0    0    0  501  0.00000000000E+00  0.00000000000E+00 -0.11140917525E+04  0.11140917525E+04  0.50400001928E-02 0. -1.
    10030    2    1    2    0    0  0.00000000000E+00  0.00000000000E+00 -0.73449416873E+03  0.14936893364E+04  0.13006252918E+04 0.  0.
        2    1    3    3  502    0 -0.49423942179E+03  0.41612078969E+03 -0.28225155230E+03  0.70504968367E+03  0.25500000920E-02 0.  1.
       -2    1    3    3    0  502  0.49423942179E+03 -0.41612078969E+03 -0.45224261644E+03  0.78863965269E+03  0.25500000920E-02 0. -1.
</event>
<event>
 5   0  0.2756984E-04  0.1299338E+04  0.7818609E-02  0.9030090E-01
       -2   -1    0    0    0  501  0.00000000000E+00  0.00000000000E+00  0.29026060605E+03  0.29026060606E+03  0.25500000920E-02 0.  1.
        2   -1    0    0  501    0  0.00000000000E+00  0.00000000000E+00 -0.14541059107E+04  0.14541059107E+04  0.25500000920E-02 0. -1.
    10030    2    1    2    0    0  0.00000000000E+00  0.00000000000E+00 -0.11638453047E+04  0.17443665168E+04  0.12993377743E+04 0.  0.
        3    1    3    3  502    0 -0.50572410186E+03 -0.71599158219E+02 -0.42933775729E+02  0.51256865488E+03  0.10100000352E+00 0.  1.
       -3    1    3    3    0  502  0.50572410186E+03  0.71599158219E+02 -0.11209115290E+04  0.12317978619E+04  0.10100000352E+00 0. -1.
</event>
<event>
 5   0  0.2661377E-04  0.1301534E+04  0.7818609E-02  0.9028350E-01
        2   -1    0    0  501    0  0.00000000000E+00  0.00000000000E+00  0.12734846597E+04  0.12734846597E+04  0.25500000920E-02 0. -1.
       -2   -1    0    0    0  501  0.00000000000E+00  0.00000000000E+00 -0.33255027402E+03  0.33255027403E+03  0.25500000920E-02 0.  1.
    10030    2    1    2    0    0  0.00000000000E+00  0.00000000000E+00  0.94093438566E+03  0.16060349337E+04  0.13015339758E+04 0.  0.
        5    1    3    3  502    0  0.45397026935E+01  0.34516924854E+03 -0.21023922840E+03  0.40420915650E+03  0.46999998093E+01 0.  1.
       -5    1    3    3    0  502 -0.45397026935E+01 -0.34516924854E+03  0.11511736141E+04  0.12018257772E+04  0.46999998093E+01 0. -1.
</event>
<event>
 5   0  0.1002887E-04  0.1299636E+04  0.7818609E-02  0.9029854E-01
        3   -1    0    0  501    0  0.00000000000E+00  0.00000000000E+00  0.56314188082E+03  0.56314188988E+03  0.10100000352E+00 0. -1.
       -3   -1    0    0    0  501  0.00000000000E+00  0.00000000000E+00 -0.74983460986E+03  0.74983461667E+03  0.10100000352E+00 0.  1.
    10030    2    1    2    0    0  0.00000000000E+00  0.00000000000E+00 -0.18669272904E+03  0.13129765065E+04  0.12996357688E+04 0.  0.
        5    1    3    3  502    0 -0.51020994804E+03 -0.91943194221E+01  0.31307969226E+03  0.59869834666E+03  0.46999998093E+01 0. -1.
       -5    1    3    3    0  502  0.51020994804E+03  0.91943194221E+01 -0.49977242130E+03  0.71427815988E+03  0.46999998093E+01 0.  1.
</event>
<event>
 5   0  0.1475396E-04  0.1300277E+04  0.7818609E-02  0.9029345E-01
        1   -1    0    0  501    0  0.00000000000E+00  0.00000000000E+00  0.43864648962E+03  0.43864648965E+03  0.50400001928E-02 0. -1.
       -1   -1    0    0    0  501  0.00000000000E+00  0.00000000000E+00 -0.96360105535E+03  0.96360105536E+03  0.50400001928E-02 0.  1.
    10030    2    1    2    0    0  0.00000000000E+00  0.00000000000E+00 -0.52495456573E+03  0.14022475450E+04  0.13002772325E+04 0.  0.
        3    1    3    3  502    0  0.10644963764E+02 -0.37055738005E+03 -0.83845369109E+03  0.91675006925E+03  0.10100000352E+00 0.  1.
       -3    1    3    3    0  502 -0.10644963764E+02  0.37055738005E+03  0.31349912536E+03  0.48549747576E+03  0.10100000352E+00 0. -1.
</event>
<event>
 5   0  0.1408341E-04  0.1293240E+04  0.7818609E-02  0.9034943E-01
        1   -1    0    0  501    0  0.00000000000E+00  0.00000000000E+00  0.10135191314E+04  0.10135191314E+04  0.50400001928E-02 0. -1.
       -1   -1    0    0    0  501  0.00000000000E+00  0.00000000000E+00 -0.41254036147E+03  0.41254036150E+03  0.50400001928E-02 0.  1.
    10030    2    1    2    0    0  0.00000000000E+00  0.00000000000E+00  0.60097876989E+03  0.14260594929E+04  0.12932401924E+04 0.  0.
        5    1    3    3  502    0 -0.21370128735E+03 -0.81793612333E+02 -0.36638327609E+03  0.43199216455E+03  0.46999998093E+01 0.  1.
       -5    1    3    3    0  502  0.21370128735E+03  0.81793612333E+02  0.96736204598E+03  0.99406732832E+03  0.46999998093E+01 0. -1.
</event>
<event>
 5   0  0.2794825E-04  0.1315367E+04  0.7818609E-02  0.9017467E-01
        2   -1    0    0  501    0  0.00000000000E+00  0.00000000000E+00  0.72911737576E+03  0.72911737576E+03  0.25500000920E-02 0. -1.
       -2   -1    0    0    0  501  0.00000000000E+00  0.00000000000E+00 -0.59324799170E+03  0.59324799171E+03  0.25500000920E-02 0.  1.
    10030    2    1    2    0    0  0.00000000000E+00  0.00000000000E+00  0.13586938406E+03  0.13223653675E+04  0.13153667457E+04 0.  0.
        1    1    3    3  502    0  0.60164875425E+03 -0.25753969273E+03  0.13339258673E+03  0.66790830137E+03  0.50400001928E-02 0.  1.
       -1    1    3    3    0  502 -0.60164875425E+03  0.25753969273E+03  0.24767973317E+01  0.65445706610E+03  0.50400001928E-02 0. -1.
</event>
<event>
 5   0  0.2573071E-04  0.1302094E+04  0.7818609E-02  0.9027906E-01
        2   -1    0    0  501    0  0.00000000000E+00  0.00000000000E+00  0.93439053883E+03  0.93439053884E+03  0.25500000920E-02 0. -1.
       -2   -1    0    0    0  501  0.00000000000E+00  0.00000000000E+00 -0.45362402861E+03  0.45362402862E+03  0.25500000920E-02 0.  1.
    10030    2    1    2    0    0  0.00000000000E+00  0.00000000000E+00  0.48076651022E+03  0.13880145675E+04  0.13020936994E+04 0.  0.
        4    1    3    3  502    0  0.33704320173E+03 -0.29669277471E+03  0.74290940432E+03  0.86806723145E+03  0.12699999809E+01 0. -1.
       -4    1    3    3    0  502 -0.33704320173E+03  0.29669277471E+03 -0.26214289409E+03  0.51994733601E+03  0.12699999809E+01 0.  1.
</event>
<event>
 5   0  0.1476511E-04  0.1300543E+04  0.7818609E-02  0.9029135E-01
       -1   -1    0    0    0  501  0.00000000000E+00  0.00000000000E+00  0.80364652398E+03  0.80364652399E+03  0.50400001928E-02 0. -1.
        1   -1    0    0  501    0  0.00000000000E+00  0.00000000000E+00 -0.52616796837E+03  0.52616796839E+03  0.50400001928E-02 0.  1.
    10030    2    1    2    0    0  0.00000000000E+00  0.00000000000E+00  0.27747855561E+03  0.13298144924E+04  0.13005430540E+04 0.  0.
        2    1    3    3  502    0 -0.81897752032E+02  0.25318267662E+03 -0.46794817974E+03  0.53831608601E+03  0.25500000920E-02 0.  1.
       -2    1    3    3    0  502  0.81897752032E+02 -0.25318267662E+03  0.74542673535E+03  0.79149840638E+03  0.25500000920E-02 0. -1.
</event>
<event>
 5   0  0.1430636E-04  0.1288714E+04  0.7818609E-02  0.9038563E-01
        1   -1    0    0  501    0  0.00000000000E+00  0.00000000000E+00  0.19289020413E+04  0.19289020414E+04  0.50400001928E-02 0. -1.
       -1   -1    0    0    0  501  0.00000000000E+00  0.00000000000E+00 -0.21524985898E+03  0.21524985904E+03  0.50400001928E-02 0.  1.
    10030    2    1    2    0    0  0.00000000000E+00  0.00000000000E+00  0.17136521824E+04  0.21441519004E+04  0.12887139209E+04 0.  0.
        4    1    3    3  502    0 -0.99306087096E+02  0.78896220965E+02  0.19079265557E+04  0.19121379834E+04  0.12699999809E+01 0. -1.
       -4    1    3    3    0  502  0.99306087096E+02 -0.78896220965E+02 -0.19427437338E+03  0.23201391697E+03  0.12699999809E+01 0.  1.
</event>
<event>
 5   0  0.2661377E-04  0.1309647E+04  0.7818609E-02  0.9021950E-01
       -2   -1    0    0    0  501  0.00000000000E+00  0.00000000000E+00  0.39216108158E+03  0.39216108159E+03  0.25500000920E-02 0. -1.
        2   -1    0    0  501    0  0.00000000000E+00  0.00000000000E+00 -0.10934118791E+04  0.10934118791E+04  0.25500000920E-02 0.  1.
    10030    2    1    2    0    0  0.00000000000E+00  0.00000000000E+00 -0.70125079751E+03  0.14855729607E+04  0.13096466472E+04 0.  0.
        5    1    3    3  502    0  0.32256005112E+02 -0.16837989816E+03 -0.10674825169E+04  0.10811721666E+04  0.46999998093E+01 0.  1.
       -5    1    3    3    0  502 -0.32256005112E+02  0.16837989816E+03  0.36623171939E+03  0.40440079408E+03  0.46999998093E+01 0. -1.
</event>
<event>
 5   0  0.1479690E-04  0.1298409E+04  0.7818609E-02  0.9030828E-01
        1   -1    0    0  501    0  0.00000000000E+00  0.00000000000E+00  0.78777890985E+03  0.78777890987E+03  0.50400001928E-02 0.  1.
       -1   -1    0    0    0  501  0.00000000000E+00  0.00000000000E+00 -0.53500605011E+03  0.53500605014E+03  0.50400001928E-02 0. -1.
    10030    2    1    2    0    0  0.00000000000E+00  0.00000000000E+00  0.25277285974E+03  0.13227849600E+04  0.12984090002E+04 0.  0.
        1    1    3    3  502    0 -0.39453338799E+03 -0.51233294343E+03  0.67642451930E+02  0.65016700969E+03  0.50400001928E-02 0. -1.
       -1    1    3    3    0  502  0.39453338799E+03  0.51233294343E+03  0.18513040781E+03  0.67261795031E+03  0.50400001928E-02 0.  1.
</event>
<event>
 5   0  0.2661377E-04  0.1300430E+04  0.7818609E-02  0.9029224E-01
        2   -1    0    0  501    0  0.00000000000E+00  0.00000000000E+00  0.57379436890E+03  0.57379436891E+03  0.25500000920E-02 0.  1.
       -2   -1    0    0    0  501  0.00000000000E+00  0.00000000000E+00 -0.73681388416E+03  0.73681388417E+03  0.25500000920E-02 0. -1.
    10030    2    1    2    0    0  0.00000000000E+00  0.00000000000E+00 -0.16301951526E+03  0.13106082531E+04  0.13004301714E+04 0.  0.
        5    1    3    3  502    0  0.39141710197E+03  0.48680264716E+03  0.10038384525E+03  0.63267935907E+03  0.46999998093E+01 0.  1.
       -5    1    3    3    0  502 -0.39141710197E+03 -0.48680264716E+03 -0.26340336051E+03  0.67792889401E+03  0.46999998093E+01 0. -1.
</event>
<event>
 5   0  0.1476511E-04  0.1306495E+04  0.7818609E-02  0.9024431E-01
       -1   -1    0    0    0  501  0.00000000000E+00  0.00000000000E+00  0.25437815467E+03  0.25437815472E+03  0.50400001928E-02 0.  1.
        1   -1    0    0  501    0  0.00000000000E+00  0.00000000000E+00 -0.16775502037E+04  0.16775502037E+04  0.50400001928E-02 0. -1.
    10030    2    1    2    0    0  0.00000000000E+00  0.00000000000E+00 -0.14231720490E+04  0.19319283584E+04  0.13064947382E+04 0.  0.
        2    1    3    3  502    0 -0.60196104460E+03 -0.18768803609E+03 -0.96404419173E+03  0.11519397127E+04  0.25500000920E-02 0.  1.
       -2    1    3    3    0  502  0.60196104460E+03  0.18768803609E+03 -0.45912785732E+03  0.77998864573E+03  0.25500000920E-02 0. -1.
</event>
<event>
 5   0  0.2794825E-04  0.1300908E+04  0.7818609E-02  0.9028846E-01
        2   -1    0    0  501    0  0.00000000000E+00  0.00000000000E+00  0.18827266070E+04  0.18827266070E+04  0.25500000920E-02 0.  1.
       -2   -1    0    0    0  501  0.00000000000E+00  0.00000000000E+00 -0.22472202569E+03  0.22472202571E+03  0.25500000920E-02 0. -1.
    10030    2    1    2    0    0  0.00000000000E+00  0.00000000000E+00  0.16580045813E+04  0.21074486327E+04  0.13009075862E+04 0.  0.
        1    1    3    3  502    0 -0.23176960899E+03  0.52429446071E+03  0.13269681608E+04  0.14454917271E+04  0.50400001928E-02 0. -1.
       -1    1    3    3    0  502  0.23176960899E+03 -0.52429446071E+03  0.33103642047E+03  0.66195690561E+03  0.50400001928E-02 0.  1.
</event>
<event>
 5   0  0.2723209E-04  0.1299235E+04  0.7818609E-02  0.9030172E-01
        2   -1    0    0  501    0  0.00000000000E+00  0.00000000000E+00  0.88199582480E+03  0.88199582481E+03  0.25500000920E-02 0.  1.
       -2   -1    0    0    0  501  0.00000000000E+00  0.00000000000E+00 -0.47846337297E+03  0.47846337298E+03  0.25500000920E-02 0. -1.
    10030    2    1    2    0    0  0.00000000000E+00  0.00000000000E+00  0.40353245184E+03  0.13604591978E+04  0.12992346936E+04 0.  0.
        2    1    3    3  502    0  0.23871468517E+03  0.50342458753E+03  0.55154573355E+03  0.78397940818E+03  0.25500000920E-02 0.  1.
       -2    1    3    3    0  502 -0.23871468517E+03 -0.50342458753E+03 -0.14801328172E+03  0.57647978960E+03  0.25500000920E-02 0. -1.
</event>
<event>
 5   0  0.1002887E-04  0.1299868E+04  0.7818609E-02  0.9029670E-01
        3   -1    0    0  501    0  0.00000000000E+00  0.00000000000E+00  0.40362798668E+03  0.40362799931E+03  0.10100000352E+00 0.  1.
       -3   -1    0    0    0  501  0.00000000000E+00  0.00000000000E+00 -0.10465438956E+04  0.10465439005E+04  0.10100000352E+00 0. -1.
    10030    2    1    2    0    0  0.00000000000E+00  0.00000000000E+00 -0.64291590896E+03  0.14501718998E+04  0.12998683291E+04 0.  0.
        4    1    3    3  502    0  0.57384576361E+03 -0.13424743802E+03 -0.62717202465E+03  0.86062052986E+03  0.12699999809E+01 0. -1.
       -4    1    3    3    0  502 -0.57384576361E+03  0.13424743802E+03 -0.15743884306E+02  0.58955136995E+03  0.12699999809E+01 0.  1.
</event>
<event>
 5   0  0.1430636E-04  0.1300112E+04  0.7818609E-02  0.9029476E-01
        1   -1    0    0  501    0  0.00000000000E+00  0.00000000000E+00  0.11757040344E+04  0.11757040344E+04  0.50400001928E-02 0.  1.
       -1   -1    0    0    0  501  0.00000000000E+00  0.00000000000E+00 -0.35942097158E+03  0.35942097162E+03  0.50400001928E-02 0. -1.
    10030    2    1    2    0    0  0.00000000000E+00  0.00000000000E+00  0.81628306283E+03  0.15351250060E+04  0.13001118204E+04 0.  0.
        4    1    3    3  502    0  0.38786664723E+03  0.43073266554E+03  0.60667978238E+02  0.58279789094E+03  0.12699999809E+01 0. -1.
       -4    1    3    3    0  502 -0.38786664723E+03 -0.43073266554E+03  0.75561508459E+03  0.95232711510E+03  0.12699999809E+01 0.  1.
</event>
<event>
 5   0  0.1002887E-04  0.1305735E+04  0.7818609E-02  0.9025029E-01
        3   -1    0    0  501    0  0.00000000000E+00  0.00000000000E+00  0.11727403588E+04  0.11727403632E+04  0.10100000352E+00 0. -1.
       -3   -1    0    0    0  501  0.00000000000E+00  0.00000000000E+00 -0.36345318264E+03  0.36345319668E+03  0.10100000352E+00 0.  1.
    10030    2    1    2    0    0  0.00000000000E+00  0.00000000000E+00  0.80928717619E+03  0.15361935599E+04  0.13057353943E+04 0.  0.
        3    1    3    3  502    0 -0.24752501958E+03 -0.35076697804E+03 -0.17403275239E+03  0.46324239585E+03  0.10100000352E+00 0.  1.
       -3    1    3    3    0  502  0.24752501958E+03  0.35076697804E+03  0.98331992858E+03  0.10729511640E+04  0.10100000352E+00 0. -1.
</event>
<event>
 5   0  0.2573071E-04  0.1301531E+04  0.7818609E-02  0.9028352E-01
       -2   -1    0    0    0  501  0.00000000000E+00  0.00000000000E+00  0.10870255568E+04  0.10870255568E+04  0.25500000920E-02 0. -1.
        2   -1    0    0  501    0  0.00000000000E+00  0.00000000000E+00 -0.38959143834E+03  0.38959143835E+03  0.25500000920E-02 0.  1.
    10030    2    1    2    0    0  0.00000000000E+00  0.00000000000E+00  0.69743411842E+03  0.14766169951E+04  0.13015311755E+04 0.  0.
        4    1    3    3  502    0 -0.14482031298E+03 -0.56409790121E+03  0.19285364710E+02  0.58271168118E+03  0.12699999809E+01 0.  1.
       -4    1    3    3    0  502  0.14482031298E+03  0.56409790121E+03  0.67814875371E+03  0.89390531392E+03  0.12699999809E+01 0. -1.
</event>
<event>
 5   0  0.2661377E-04  0.1296367E+04  0.7818609E-02  0.9032451E-01
        2   -1    0    0  501    0  0.00000000000E+00  0.00000000000E+00  0.12298519984E+04  0.12298519984E+04  0.25500000920E-02 0.  1.
       -2   -1    0    0    0  501  0.00000000000E+00  0.00000000000E+00 -0.34161985407E+03  0.34161985408E+03  0.25500000920E-02 0. -1.
    10030    2    1    2    0    0  0.00000000000E+00  0.00000000000E+00  0.88823214429E+03  0.15714718524E+04  0.12963670163E+04 0.  0.
        5    1    3    3  502    0 -0.42806001903E+03  0.14961823048E+03  0.10055401605E+04  0.11030657728E+04  0.46999998093E+01 0.  1.
       -5    1    3    3    0  502  0.42806001903E+03 -0.14961823048E+03 -0.11730801619E+03  0.46840607964E+03  0.46999998093E+01 0. -1.
</event>
<event>
 5   0  0.1479690E-04  0.1300935E+04  0.7818609E-02  0.9028824E-01
       -1   -1    0    0    0  501  0.00000000000E+00  0.00000000000E+00  0.27221918987E+03  0.27221918992E+03  0.50400001928E-02 0. -1.
        1   -1    0    0  501    0  0.00000000000E+00  0.00000000000E+00 -0.15542906388E+04  0.15542906388E+04  0.50400001928E-02 0.  1.
    10030    2    1    2    0    0  0.00000000000E+00  0.00000000000E+00 -0.12820714489E+04  0.18265098287E+04  0.13009346464E+04 0.  0.
        1    1    3    3  502    0  0.37199986492E+03  0.52788670455E+03 -0.75032655268E+03  0.98996879144E+03  0.50400001928E-02 0.  1.
       -1    1    3    3    0  502 -0.37199986492E+03 -0.52788670455E+03 -0.53174489621E+03  0.83654103726E+03  0.50400001928E-02 0. -1.
</event>
<event>
 5   0  0.2573071E-04  0.1299961E+04  0.7818609E-02  0.9029596E-01
        2   -1    0    0  501    0  0.00000000000E+00  0.00000000000E+00  0.89209045900E+03  0.89209045901E+03  0.25500000920E-02 0.  1.
       -2   -1    0    0    0  501  0.00000000000E+00  0.00000000000E+00 -0.47357842973E+03  0.47357842973E+03  0.25500000920E-02 0. -1.
    10030    2    1    2    0    0  0.00000000000E+00  0.00000000000E+00  0.41851202928E+03  0.13656688887E+04  0.12999612283E+04 0.  0.
        4    1    3    3  502    0 -0.11868527281E+03  0.49649359415E+03 -0.21342534286E+03  0.55330287627E+03  0.12699999809E+01 0. -1.
       -4    1    3    3    0  502  0.11868527281E+03 -0.49649359415E+03  0.63193737214E+03  0.81236601247E+03  0.12699999809E+01 0.  1.
</event>
<event>
 5   0  0.1002887E-04  0.1297232E+04  0.7818609E-02  0.9031763E-01
       -3   -1    0    0    0  501  0.00000000000E+00  0.00000000000E+00  0.58769614349E+03  0.58769615217E+03  0.10100000352E+00 0.  1.
        3   -1    0    0  501    0  0.00000000000E+00  0.00000000000E+00 -0.71585026818E+03  0.71585027531E+03  0.10100000352E+00 0. -1.
    10030    2    1    2    0    0  0.00000000000E+00  0.00000000000E+00 -0.12815412469E+03  0.13035464275E+04  0.12972315942E+04 0.  0.
        3    1    3    3  502    0  0.31127856120E+03  0.38855499899E+02 -0.63455391453E+03  0.70785787640E+03  0.10100000352E+00 0. -1.
       -3    1    3    3    0  502 -0.31127856120E+03 -0.38855499899E+02  0.50639978984E+03  0.59568855108E+03  0.10100000352E+00 0.  1.
</event>
<event>
 5   0  0.1475396E-04  0.1298503E+04  0.7818609E-02  0.9030753E-01
       -1   -1    0    0    0  501  0.00000000000E+00  0.00000000000E+00  0.48944154205E+03  0.48944154207E+03  0.50400001928E-02 0.  1.
        1   -1    0    0  501    0  0.00000000000E+00  0.00000000000E+00 -0.86124165973E+03  0.86124165975E+03  0.50400001928E-02 0. -1.
    10030    2    1    2    0    0  0.00000000000E+00  0.00000000000E+00 -0.37180011768E+03  0.13506832018E+04  0.12985029011E+04 0.  0.
        3    1    3    3  502    0  0.40360724350E+03  0.37543918716E+03  0.17092136074E+03  0.57712001526E+03  0.10100000352E+00 0.  1.
       -3    1    3    3    0  502 -0.40360724350E+03 -0.37543918716E+03 -0.54272147842E+03  0.77356318656E+03  0.10100000352E+00 0. -1.
</event>
<event>
 5   0  0.1476511E-04  0.1304652E+04  0.7818609E-02  0.9025884E-01
       -1   -1    0    0    0  501  0.00000000000E+00  0.00000000000E+00  0.68418345892E+03  0.68418345894E+03  0.50400001928E-02 0.  1.
        1   -1    0    0  501    0  0.00000000000E+00  0.00000000000E+00 -0.62195164723E+03  0.62195164725E+03  0.50400001928E-02 0. -1.
    10030    2    1    2    0    0  0.00000000000E+00  0.00000000000E+00  0.62231811690E+02  0.13061351062E+04  0.13046517226E+04 0.  0.
        2    1    3    3  502    0  0.13026996577E+03 -0.62489759706E+03  0.16566275324E+03  0.65947814112E+03  0.25500000920E-02 0.  1.
       -2    1    3    3    0  502 -0.13026996577E+03  0.62489759706E+03 -0.10343094155E+03  0.64665696507E+03  0.25500000920E-02 0. -1.
</event>
<event>
 5   0  0.1476511E-04  0.1302227E+04  0.7818609E-02  0.9027801E-01
        1   -1    0    0  501    0  0.00000000000E+00  0.00000000000E+00  0.99363966257E+03  0.99363966258E+03  0.50400001928E-02 0.  1.
       -1   -1    0    0    0  501  0.00000000000E+00  0.00000000000E+00 -0.42666242887E+03  0.42666242890E+03  0.50400001928E-02 0. -1.
    10030    2    1    2    0    0  0.00000000000E+00  0.00000000000E+00  0.56697723370E+03  0.14203020915E+04  0.13022268802E+04 0.  0.
        2    1    3    3  502    0 -0.24005273215E+03 -0.11394177249E+03 -0.36483357121E+03  0.45134418842E+03  0.25500000920E-02 0. -1.
       -2    1    3    3    0  502  0.24005273215E+03  0.11394177249E+03  0.93181080491E+03  0.96895790305E+03  0.25500000920E-02 0.  1.
</event>
<event>
 5   0  0.1479690E-04  0.1299656E+04  0.7818609E-02  0.9029838E-01
        1   -1    0    0  501    0  0.00000000000E+00  0.00000000000E+00  0.13079924284E+04  0.13079924284E+04  0.50400001928E-02 0.  1.
       -1   -1    0    0    0  501  0.00000000000E+00  0.00000000000E+00 -0.32284309944E+03  0.32284309948E+03  0.50400001928E-02 0. -1.
    10030    2    1    2    0    0  0.00000000000E+00  0.00000000000E+00  0.98514932891E+03  0.16308355278E+04  0.12996558462E+04 0.  0.
        1    1    3    3  502    0 -0.11674375916E+03 -0.41970548963E+03 -0.11247101717E+03  0.44992391918E+03  0.50400001928E-02 0.  1.
       -1    1    3    3    0  502  0.11674375916E+03  0.41970548963E+03  0.10976203461E+04  0.11809116087E+04  0.50400001928E-02 0. -1.
</event>
<event>
 5   0  0.1408341E-04  0.1301516E+04  0.7818609E-02  0.9028364E-01
       -1   -1    0    0    0  501  0.00000000000E+00  0.00000000000E+00  0.77660028376E+03  0.77660028377E+03  0.50400001928E-02 0. -1.
        1   -1    0    0  501    0  0.00000000000E+00  0.00000000000E+00 -0.54530785221E+03  0.54530785223E+03  0.50400001928E-02 0.  1.
    10030    2    1    2    0    0  0.00000000000E+00  0.00000000000E+00  0.23129243155E+03  0.13219081360E+04  0.13015163968E+04 0.  0.
        5    1    3    3  502    0 -0.84237593049E+02  0.19694695301E+03  0.73974906051E+03  0.77015247640E+03  0.46999998093E+01 0. -1.
       -5    1    3    3    0  502  0.84237593049E+02 -0.19694695301E+03 -0.50845662896E+03  0.55175565961E+03  0.46999998093E+01 0.  1.
</event>
<event>
 5   0  0.1476511E-04  0.1296238E+04  0.7818609E-02  0.9032554E-01
        1   -1    0    0  501    0  0.00000000000E+00  0.00000000000E+00  0.83451738705E+03  0.83451738706E+03  0.50400001928E-02 0.  1.
       -1   -1    0    0    0  501  0.00000000000E+00  0.00000000000E+00 -0.50335463789E+03  0.50335463791E+03  0.50400001928E-02 0. -1.
    10030    2    1    2    0    0  0.00000000000E+00  0.00000000000E+00  0.33116274916E+03  0.13378720250E+04  0.12962379368E+04 0.  0.
        2    1    3    3  502    0  0.41846661511E+03 -0.24706089730E+03 -0.27703388235E+03  0.55937569388E+03  0.25500000920E-02 0. -1.
       -2    1    3    3    0  502 -0.41846661511E+03  0.24706089730E+03  0.60819663151E+03  0.77849633109E+03  0.25500000920E-02 0.  1.
</event>
<event>
 5   0  0.2573071E-04  0.1301724E+04  0.7818609E-02  0.9028199E-01
        2   -1    0    0  501    0  0.00000000000E+00  0.00000000000E+00  0.10319286891E+04  0.10319286891E+04  0.25500000920E-02 0. -1.
       -2   -1    0    0    0  501  0.00000000000E+00  0.00000000000E+00 -0.41051419598E+03  0.41051419598E+03  0.25500000920E-02 0.  1.
    10030    2    1    2    0    0  0.00000000000E+00  0.00000000000E+00  0.62141449314E+03  0.14424428851E+04  0.13017240508E+04 0.  0.
        4    1    3    3  502    0  0.61485412757E+02 -0.19076493988E+03  0.99687919689E+03  0.10168291225E+04  0.12699999809E+01 0. -1.
       -4    1    3    3    0  502 -0.61485412757E+02  0.19076493988E+03 -0.37546470374E+03  0.42561376261E+03  0.12699999809E+01 0.  1.
</event>
<event>
 5   0  0.2573071E-04  0.1299348E+04  0.7818609E-02  0.9030082E-01
        2   -1    0    0  501    0  0.00000000000E+00  0.00000000000E+00  0.63379075652E+03  0.63379075652E+03  0.25500000920E-02 0. -1.
       -2   -1    0    0    0  501  0.00000000000E+00  0.00000000000E+00 -0.66595553770E+03  0.66595553770E+03  0.25500000920E-02 0.  1.
    10030    2    1    2    0    0  0.00000000000E+00  0.00000000000E+00 -0.32164781180E+02  0.12997462942E+04  0.12993482429E+04 0.  0.
        4    1    3    3  502    0  0.34823507960E+03 -0.54081889393E+03  0.75171125175E+02  0.64761489919E+03  0.12699999809E+01 0. -1.
       -4    1    3    3    0  502 -0.34823507960E+03  0.54081889393E+03 -0.10733590635E+03  0.65213139503E+03  0.12699999809E+01 0.  1.
</event>
<event>
 5   0  0.2794825E-04  0.1300938E+04  0.7818609E-02  0.9028822E-01
        2   -1    0    0  501    0  0.00000000000E+00  0.00000000000E+00  0.60107661569E+03  0.60107661569E+03  0.25500000920E-02 0. -1.
       -2   -1    0    0    0  501  0.00000000000E+00  0.00000000000E+00 -0.70391988248E+03  0.70391988248E+03  0.25500000920E-02 0.  1.
    10030    2    1    2    0    0  0.00000000000E+00  0.00000000000E+00 -0.10284326679E+03  0.13049964982E+04  0.13009377859E+04 0.  0.
        1    1    3    3  502    0 -0.28961625176E+03 -0.88211470881E+02 -0.62893554228E+03  0.69801056815E+03  0.50400001928E-02 0.  1.
       -1    1    3    3    0  502  0.28961625176E+03  0.88211470881E+02  0.52609227549E+03  0.60698593002E+03  0.50400001928E-02 0. -1.
</event>
<event>
 5   0  0.1430636E-04  0.1301777E+04  0.7818609E-02  0.9028157E-01
        1   -1    0    0  501    0  0.00000000000E+00  0.00000000000E+00  0.62759904417E+03  0.62759904419E+03  0.50400001928E-02 0. -1.
       -1   -1    0    0    0  501  0.00000000000E+00  0.00000000000E+00 -0.67504219857E+03  0.67504219859E+03  0.50400001928E-02 0.  1.
    10030    2    1    2    0    0  0.00000000000E+00  0.00000000000E+00 -0.47443154398E+02  0.13026412428E+04  0.13017769988E+04 0.  0.
        4    1    3    3  502    0  0.34508385871E+03 -0.29010091900E+03  0.44607153931E+03  0.63421040975E+03  0.12699999809E+01 0. -1.
       -4    1    3    3    0  502 -0.34508385871E+03  0.29010091900E+03 -0.49351469371E+03  0.66843083304E+03  0.12699999809E+01 0.  1.
</event>
<event>
 5   0  0.1430636E-04  0.1300101E+04  0.7818609E-02  0.9029485E-01
       -1   -1    0    0    0  501  0.00000000000E+00  0.00000000000E+00  0.42085272932E+03  0.42085272935E+03  0.50400001928E-02 0. -1.
        1   -1    0    0  501    0  0.00000000000E+00  0.00000000000E+00 -0.10040695217E+04  0.10040695217E+04  0.50400001928E-02 0.  1.
    10030    2    1    2    0    0  0.00000000000E+00  0.00000000000E+00 -0.58321679240E+03  0.14249222511E+04  0.13001006095E+04 0.  0.
        4    1    3    3  502    0 -0.10109344481E+03 -0.29170356752E+03  0.33537491077E+03  0.45583856744E+03  0.12699999809E+01 0. -1.
       -4    1    3    3    0  502  0.10109344481E+03  0.29170356752E+03 -0.91859170317E+03  0.96908368365E+03  0.12699999809E+01 0.  1.
</event>
<event>
 5   0  0.2661377E-04  0.1297637E+04  0.7818609E-02  0.9031441E-01
        2   -1    0    0  501    0  0.00000000000E+00  0.00000000000E+00  0.12508050023E+04  0.12508050023E+04  0.25500000920E-02 0.  1.
       -2   -1    0    0    0  501  0.00000000000E+00  0.00000000000E+00 -0.33655559443E+03  0.33655559444E+03  0.25500000920E-02 0. -1.
    10030    2    1    2    0    0  0.00000000000E+00  0.00000000000E+00  0.91424940790E+03  0.15873605968E+04  0.12976369617E+04 0.  0.
        5    1    3    3  502    0  0.49299926546E+03  0.40174639008E+03  0.61423228603E+03  0.88416730820E+03  0.46999998093E+01 0.  1.
       -5    1    3    3    0  502 -0.49299926546E+03 -0.40174639008E+03  0.30001712187E+03  0.70319328858E+03  0.46999998093E+01 0. -1.
</event>
<event>
 5   0  0.1408341E-04  0.1297304E+04  0.7818609E-02  0.9031706E-01
        1   -1    0    0  501    0  0.00000000000E+00  0.00000000000E+00  0.11329945922E+04  0.11329945922E+04  0.50400001928E-02 0. -1.
       -1   -1    0    0    0  501  0.00000000000E+00  0.00000000000E+00 -0.37136034609E+03  0.37136034613E+03  0.50400001928E-02 0.  1.
    10030    2    1    2    0    0  0.00000000000E+00  0.00000000000E+00  0.76163424611E+03  0.15043549383E+04  0.12973037638E+04 0.  0.
        5    1    3    3  502    0 -0.11003118155E+03  0.61545947132E+03  0.58109589345E+03  0.85357586021E+03  0.46999998093E+01 0. -1.
       -5    1    3    3    0  502  0.11003118155E+03 -0.61545947132E+03  0.18053835266E+03  0.65077907813E+03  0.46999998093E+01 0.  1.
</event>
<event>
 5   0  0.1408341E-04  0.1301316E+04  0.7818609E-02  0.9028522E-01
       -1   -1    0    0    0  501  0.00000000000E+00  0.00000000000E+00  0.38231076708E+03  0.38231076711E+03  0.50400001928E-02 0.  1.
        1   -1    0    0  501    0  0.00000000000E+00  0.00000000000E+00 -0.11073611499E+04  0.11073611499E+04  0.50400001928E-02 0. -1.
    10030    2    1    2    0    0  0.00000000000E+00  0.00000000000E+00 -0.72505038285E+03  0.14896719171E+04  0.13013163961E+04 0.  0.
        5    1    3    3  502    0  0.33678726039E+03  0.28098806097E+03 -0.91266176919E+03  0.10125974245E+04  0.46999998093E+01 0. -1.
       -5    1    3    3    0  502 -0.33678726039E+03 -0.28098806097E+03  0.18761138633E+03  0.47707449256E+03  0.46999998093E+01 0.  1.
</event>
<event>
 5   0  0.2723209E-04  0.1301841E+04  0.7818609E-02  0.9028106E-01
        2   -1    0    0  501    0  0.00000000000E+00  0.00000000000E+00  0.16254774123E+04  0.16254774123E+04  0.25500000920E-02 0.  1.
       -2   -1    0    0    0  501  0.00000000000E+00  0.00000000000E+00 -0.26066035026E+03  0.26066035028E+03  0.25500000920E-02 0. -1.
    10030    2    1    2    0    0  0.00000000000E+00  0.00000000000E+00  0.13648170620E+04  0.18861377626E+04  0.13018410220E+04 0.  0.
        2    1    3    3  502    0 -0.95949361319E+02  0.31459708370E+03  0.14962294334E+04  0.15319530419E+04  0.25500000920E-02 0.  1.
       -2    1    3    3    0  502  0.95949361319E+02 -0.31459708370E+03 -0.13141237141E+03  0.35418472070E+03  0.25500000920E-02 0. -1.
</event>
<event>
 5   0  0.1475396E-04  0.1300439E+04  0.7818609E-02  0.9029217E-01
        1   -1    0    0  501    0  0.00000000000E+00  0.00000000000E+00  0.14693332272E+04  0.14693332272E+04  0.50400001928E-02 0.  1.
       -1   -1    0    0    0  501  0.00000000000E+00  0.00000000000E+00 -0.28773951372E+03  0.28773951376E+03  0.50400001928E-02 0. -1.
    10030    2    1    2    0    0  0.00000000000E+00  0.00000000000E+00  0.11815937134E+04  0.17570727409E+04  0.13004387388E+04 0.  0.
        3    1    3    3  502    0  0.47218359432E+03 -0.85964235149E+02  0.11835109922E+04  0.12771239076E+04  0.10100000352E+00 0.  1.
       -3    1    3    3    0  502 -0.47218359432E+03  0.85964235149E+02 -0.19172787576E+01  0.47994883334E+03  0.10100000352E+00 0. -1.
</event>
<event>
 5   0  0.2756984E-04  0.1302090E+04  0.7818609E-02  0.9027909E-01
        2   -1    0    0  501    0  0.00000000000E+00  0.00000000000E+00  0.11623763349E+04  0.11623763349E+04  0.25500000920E-02 0. -1.
       -2   -1    0    0    0  501  0.00000000000E+00  0.00000000000E+00 -0.36464913945E+03  0.36464913946E+03  0.25500000920E-02 0.  1.
    10030    2    1    2    0    0  0.00000000000E+00  0.00000000000E+00  0.79772719545E+03  0.15270254744E+04  0.13020899051E+04 0.  0.
        3    1    3    3  502    0  0.34659221039E+03 -0.15320295696E+03  0.10197148827E+04  0.10878491432E+04  0.10100000352E+00 0. -1.
       -3    1    3    3    0  502 -0.34659221039E+03  0.15320295696E+03 -0.22198768722E+03  0.43917633110E+03  0.10100000352E+00 0.  1.
</event>
<event>
 5   0  0.1002887E-04  0.1300905E+04  0.7818609E-02  0.9028848E-01
       -3   -1    0    0    0  501  0.00000000000E+00  0.00000000000E+00  0.47025032278E+03  0.47025033363E+03  0.10100000352E+00 0. -1.
        3   -1    0    0  501    0  0.00000000000E+00  0.00000000000E+00 -0.89970847090E+03  0.89970847657E+03  0.10100000352E+00 0.  1.
    10030    2    1    2    0    0  0.00000000000E+00  0.00000000000E+00 -0.42945814812E+03  0.13699588102E+04  0.13009046240E+04 0.  0.
        3    1    3    3  502    0  0.22539915018E+03 -0.35430193199E+02  0.42672485230E+03  0.48389480806E+03  0.10100000352E+00 0. -1.
       -3    1    3    3    0  502 -0.22539915018E+03  0.35430193199E+02 -0.85618300042E+03  0.88606400215E+03  0.10100000352E+00 0.  1.
</event>
<event>
 5   0  0.2573071E-04  0.1300324E+04  0.7818609E-02  0.9029308E-01
       -2   -1    0    0    0  501  0.00000000000E+00  0.00000000000E+00  0.96438777594E+03  0.96438777595E+03  0.25500000920E-02 0. -1.
        2   -1    0    0  501    0  0.00000000000E+00  0.00000000000E+00 -0.43832039832E+03  0.43832039833E+03  0.25500000920E-02 0.  1.
    10030    2    1    2    0    0  0.00000000000E+00  0.00000000000E+00  0.52606737762E+03  0.14027081743E+04  0.13003243197E+04 0.  0.
        4    1    3    3  502    0 -0.16211579880E+03  0.57257295717E+03 -0.19479930123E+02  0.59540104474E+03  0.12699999809E+01 0.  1.
       -4    1    3    3    0  502  0.16211579880E+03 -0.57257295717E+03  0.54554730775E+03  0.80730712953E+03  0.12699999809E+01 0. -1.
</event>
<event>
 5   0  0.2573071E-04  0.1299441E+04  0.7818609E-02  0.9030008E-01
        2   -1    0    0  501    0  0.00000000000E+00  0.00000000000E+00  0.86401779935E+03  0.86401779935E+03  0.25500000920E-02 0.  1.
       -2   -1    0    0    0  501  0.00000000000E+00  0.00000000000E+00 -0.48857429805E+03  0.48857429805E+03  0.25500000920E-02 0. -1.
    10030    2    1    2    0    0  0.00000000000E+00  0.00000000000E+00  0.37544350130E+03  0.13525920974E+04  0.12994412489E+04 0.  0.
        4    1    3    3  502    0  0.72353987709E+02 -0.32671135404E+03  0.76742134833E+03  0.83720520015E+03  0.12699999809E+01 0.  1.
       -4    1    3    3    0  502 -0.72353987709E+02  0.32671135404E+03 -0.39197784703E+03  0.51538689725E+03  0.12699999809E+01 0. -1.
</event>
<event>
 5   0  0.1476511E-04  0.1295679E+04  0.7818609E-02  0.9032999E-01
        1   -1    0    0  501    0  0.00000000000E+00  0.00000000000E+00  0.18993376671E+04  0.18993376671E+04  0.50400001928E-02 0. -1.
       -1   -1    0    0    0  501  0.00000000000E+00  0.00000000000E+00 -0.22096970426E+03  0.22096970432E+03  0.50400001928E-02 0.  1.
    10030    2    1    2    0    0  0.00000000000E+00  0.00000000000E+00  0.16783679629E+04  0.21203073715E+04  0.12956791002E+04 0.  0.
        2    1    3    3  502    0  0.36577140772E+03 -0.27246885654E+03  0.86298266241E+02  0.46419326929E+03  0.25500000920E-02 0. -1.
       -2    1    3    3    0  502 -0.36577140772E+03  0.27246885654E+03  0.15920696966E+04  0.16561141022E+04  0.25500000920E-02 0.  1.
</event>
<event>
 5   0  0.2794825E-04  0.1297851E+04  0.7818609E-02  0.9031271E-01
       -2   -1    0    0    0  501  0.00000000000E+00  0.00000000000E+00  0.92441900113E+03  0.92441900114E+03  0.25500000920E-02 0. -1.
        2   -1    0    0  501    0  0.00000000000E+00  0.00000000000E+00 -0.45553409218E+03  0.45553409218E+03  0.25500000920E-02 0.  1.
    10030    2    1    2    0    0  0.00000000000E+00  0.00000000000E+00  0.46888490896E+03  0.13799530933E+04  0.12978511016E+04 0.  0.
        1    1    3    3  502    0  0.16544569476E+03  0.53815992638E+03  0.57752463591E+03  0.80655011585E+03  0.50400001928E-02 0. -1.
       -1    1    3    3    0  502 -0.16544569476E+03 -0.53815992638E+03 -0.10863972695E+03  0.57340297747E+03  0.50400001928E-02 0.  1.
</event>
<event>
 5   0  0.1479690E-04  0.1300540E+04  0.7818609E-02  0.9029137E-01
        1   -1    0    0  501    0  0.00000000000E+00  0.00000000000E+00  0.10541086461E+04  0.10541086461E+04  0.50400001928E-02 0.  1.
       -1   -1    0    0    0  501  0.00000000000E+00  0.00000000000E+00 -0.40114546763E+03  0.40114546766E+03  0.50400001928E-02 0. -1.
    10030    2    1    2    0    0  0.00000000000E+00  0.00000000000E+00  0.65296317848E+03  0.14552541138E+04  0.13005397430E+04 0.  0.
        1    1    3    3  502    0  0.19184249500E+03  0.54370196224E+03  0.66298136053E+03  0.87861234402E+03  0.50400001928E-02 0.  1.
       -1    1    3    3    0  502 -0.19184249500E+03 -0.54370196224E+03 -0.10018182049E+02  0.57664176976E+03  0.50400001928E-02 0. -1.
</event>
<event>
 5   0  0.1408341E-04  0.1300161E+04  0.7818609E-02  0.9029438E-01
       -1   -1    0    0    0  501  0.00000000000E+00  0.00000000000E+00  0.80010660645E+03  0.80010660647E+03  0.50400001928E-02 0. -1.
        1   -1    0    0  501    0  0.00000000000E+00  0.00000000000E+00 -0.52818524275E+03  0.52818524277E+03  0.50400001928E-02 0.  1.
    10030    2    1    2    0    0  0.00000000000E+00  0.00000000000E+00  0.27192136370E+03  0.13282918492E+04  0.13001607626E+04 0.  0.
        5    1    3    3  502    0  0.33429882660E+03  0.44194029390E+03 -0.21126876792E+03  0.59306282225E+03  0.46999998093E+01 0.  1.
       -5    1    3    3    0  502 -0.33429882660E+03 -0.44194029390E+03  0.48319013162E+03  0.73522902699E+03  0.46999998093E+01 0. -1.
</event>
<event>
 5   0  0.2794825E-04  0.1300944E+04  0.7818609E-02  0.9028817E-01
        2   -1    0    0  501    0  0.00000000000E+00  0.00000000000E+00  0.11556664043E+04  0.11556664043E+04  0.25500000920E-02 0. -1.
       -2   -1    0    0    0  501  0.00000000000E+00  0.00000000000E+00 -0.36612110362E+03  0.36612110363E+03  0.25500000920E-02 0.  1.
    10030    2    1    2    0    0  0.00000000000E+00  0.00000000000E+00  0.78954530070E+03  0.15217875080E+04  0.13009440563E+04 0.  0.
        1    1    3    3  502    0  0.60312451230E+03 -0.61812722731E+02  0.11911226399E+03  0.61787354814E+03  0.50400001928E-02 0. -1.
       -1    1    3    3    0  502 -0.60312451230E+03  0.61812722731E+02  0.67043303671E+03  0.90391395982E+03  0.50400001928E-02 0.  1.
</event>
<event>
 5   0  0.1408341E-04  0.1302546E+04  0.7818609E-02  0.9027549E-01
       -1   -1    0    0    0  501  0.00000000000E+00  0.00000000000E+00  0.46262281946E+03  0.46262281949E+03  0.50400001928E-02 0. -1.
        1   -1    0    0  501    0  0.00000000000E+00  0.00000000000E+00 -0.91685169269E+03  0.91685169270E+03  0.50400001928E-02 0.  1.
    10030    2    1    2    0    0  0.00000000000E+00  0.00000000000E+00 -0.45422887323E+03  0.13794745122E+04  0.13025459917E+04 0.  0.
        5    1    3    3  502    0 -0.29054877487E+03 -0.36395036047E+03  0.25502664535E+03  0.53097941137E+03  0.46999998093E+01 0. -1.
       -5    1    3    3    0  502  0.29054877487E+03  0.36395036047E+03 -0.70925551858E+03  0.84849510081E+03  0.46999998093E+01 0.  1.
</event>
<event>
 5   0  0.1475396E-04  0.1301286E+04  0.7818609E-02  0.9028546E-01
        1   -1    0    0  501    0  0.00000000000E+00  0.00000000000E+00  0.56608516791E+03  0.56608516793E+03  0.50400001928E-02 0.  1.
       -1   -1    0    0    0  501  0.00000000000E+00  0.00000000000E+00 -0.74783137809E+03  0.74783137811E+03  0.50400001928E-02 0. -1.
    10030    2    1    2    0    0  0.00000000000E+00  0.00000000000E+00 -0.18174621018E+03  0.13139165460E+04  0.13012859044E+04 0.  0.
        3    1    3    3  502    0  0.12226354347E+03 -0.63632177557E+03 -0.31287900899E+02  0.64871620842E+03  0.10100000352E+00 0. -1.
       -3    1    3    3    0  502 -0.12226354347E+03  0.63632177557E+03 -0.15045830928E+03  0.66520033761E+03  0.10100000352E+00 0.  1.
</event>
<event>
 5   0  0.1430636E-04  0.1294277E+04  0.7818609E-02  0.9034116E-01
        1   -1    0    0  501    0  0.00000000000E+00  0.00000000000E+00  0.23214700622E+04  0.23214700622E+04  0.50400001928E-02 0. -1.
       -1   -1    0    0    0  501  0.00000000000E+00  0.00000000000E+00 -0.18039788322E+03  0.18039788329E+03  0.50400001928E-02 0.  1.
    10030    2    1    2    0    0  0.00000000000E+00  0.00000000000E+00  0.21410721789E+04  0.25018679455E+04  0.12942770728E+04 0.  0.
        4    1    3    3  502    0  0.63099279674E+03 -0.10004601457E+03  0.87127936176E+03  0.10804121684E+04  0.12699999809E+01 0. -1.
       -4    1    3    3    0  502 -0.63099279674E+03  0.10004601457E+03  0.12697928172E+04  0.14214557770E+04  0.12699999809E+01 0.  1.
</event>
<event>
 5   0  0.2661377E-04  0.1300770E+04  0.7818609E-02  0.9028954E-01
        2   -1    0    0  501    0  0.00000000000E+00  0.00000000000E+00  0.16494821733E+04  0.16494821733E+04  0.25500000920E-02 0.  1.
       -2   -1    0    0    0  501  0.00000000000E+00  0.00000000000E+00 -0.25644466311E+03  0.25644466312E+03  0.25500000920E-02 0. -1.
    10030    2    1    2    0    0  0.00000000000E+00  0.00000000000E+00  0.13930375102E+04  0.19059268365E+04  0.13007703875E+04 0.  0.
        5    1    3    3  502    0 -0.56284382356E+03 -0.17597924701E+03  0.10983682523E+04  0.12466742850E+04  0.46999998093E+01 0.  1.
       -5    1    3    3    0  502  0.56284382356E+03  0.17597924701E+03  0.29466925792E+03  0.65925255150E+03  0.46999998093E+01 0. -1.
</event>
<event>
 5   0  0.2794825E-04  0.1300766E+04  0.7818609E-02  0.9028958E-01
        2   -1    0    0  501    0  0.00000000000E+00  0.00000000000E+00  0.85434171928E+03  0.85434171928E+03  0.25500000920E-02 0.  1.
       -2   -1    0    0    0  501  0.00000000000E+00  0.00000000000E+00 -0.49511557078E+03  0.49511557079E+03  0.25500000920E-02 0. -1.
    10030    2    1    2    0    0  0.00000000000E+00  0.00000000000E+00  0.35922614850E+03  0.13494572901E+04  0.13007657560E+04 0.  0.
        1    1    3    3  502    0 -0.28061503790E+03  0.41545546432E+03 -0.25020211331E+03  0.56031164530E+03  0.50400001928E-02 0. -1.
       -1    1    3    3    0  502  0.28061503790E+03 -0.41545546432E+03  0.60942826181E+03  0.78914564476E+03  0.50400001928E-02 0.  1.
</event>
<event>
 5   0  0.1476511E-04  0.1299443E+04  0.7818609E-02  0.9030007E-01
       -1   -1    0    0    0  501  0.00000000000E+00  0.00000000000E+00  0.78958537908E+03  0.78958537909E+03  0.50400001928E-02 0. -1.
        1   -1    0    0  501    0  0.00000000000E+00  0.00000000000E+00 -0.53463218268E+03  0.53463218270E+03  0.50400001928E-02 0.  1.
    10030    2    1    2    0    0  0.00000000000E+00  0.00000000000E+00  0.25495319640E+03  0.13242175618E+04  0.12994425800E+04 0.  0.
        2    1    3    3  502    0 -0.62317035614E+03  0.11339617773E+03 -0.19981099590E+02  0.63371857337E+03  0.25500000920E-02 0.  1.
       -2    1    3    3    0  502  0.62317035614E+03 -0.11339617773E+03  0.27493429599E+03  0.69049898842E+03  0.25500000920E-02 0. -1.
</event>
<event>
 5   0  0.1408341E-04  0.1300157E+04  0.7818609E-02  0.9029441E-01
        1   -1    0    0  501    0  0.00000000000E+00  0.00000000000E+00  0.14230680973E+04  0.14230680974E+04  0.50400001928E-02 0.  1.
       -1   -1    0    0    0  501  0.00000000000E+00  0.00000000000E+00 -0.29696525021E+03  0.29696525025E+03  0.50400001928E-02 0. -1.
    10030    2    1    2    0    0  0.00000000000E+00  0.00000000000E+00  0.11261028471E+04  0.17200333476E+04  0.13001565654E+04 0.  0.
        5    1    3    3  502    0  0.32470415706E+03  0.53613084316E+03  0.33501878104E+03  0.71072409854E+03  0.46999998093E+01 0. -1.
       -5    1    3    3    0  502 -0.32470415706E+03 -0.53613084316E+03  0.79108406610E+03  0.10093092491E+04  0.46999998093E+01 0.  1.
</event>
<event>
 5   0  0.2756984E-04  0.1304281E+04  0.7818609E-02  0.9026177E-01
       -2   -1    0    0    0  501  0.00000000000E+00  0.00000000000E+00  0.19019779947E+03  0.19019779949E+03  0.25500000920E-02 0.  1.
        2   -1    0    0  501    0  0.00000000000E+00  0.00000000000E+00 -0.22360272127E+04  0.22360272127E+04  0.25500000920E-02 0. -1.
    10030    2    1    2    0    0  0.00000000000E+00  0.00000000000E+00 -0.20458294132E+04  0.24262250121E+04  0.13042813430E+04 0.  0.
        3    1    3    3  502    0 -0.61178791056E+03  0.21760778428E+03 -0.11352968467E+04  0.13078748165E+04  0.10100000352E+00 0. -1.
       -3    1    3    3    0  502  0.61178791056E+03 -0.21760778428E+03 -0.91053256647E+03  0.11183501956E+04  0.10100000352E+00 0.  1.
</event>
<event>
 5   0  0.2794825E-04  0.1322586E+04  0.7818609E-02  0.9011844E-01
       -2   -1    0    0    0  501  0.00000000000E+00  0.00000000000E+00  0.34722301134E+03  0.34722301135E+03  0.25500000920E-02 0. -1.
        2   -1    0    0  501    0  0.00000000000E+00  0.00000000000E+00 -0.12594449112E+04  0.12594449112E+04  0.25500000920E-02 0.  1.
    10030    2    1    2    0    0  0.00000000000E+00  0.00000000000E+00 -0.91222189989E+03  0.16066679226E+04  0.13225857321E+04 0.  0.
        1    1    3    3  502    0  0.66906010076E+02  0.14901359376E+03 -0.12345523578E+04  0.12453116034E+04  0.50400001928E-02 0.  1.
       -1    1    3    3    0  502 -0.66906010076E+02 -0.14901359376E+03  0.32233045792E+03  0.36135631921E+03  0.50400001928E-02 0. -1.
</event>
<event>
 5   0  0.1408341E-04  0.1301646E+04  0.7818609E-02  0.9028261E-01
       -1   -1    0    0    0  501  0.00000000000E+00  0.00000000000E+00  0.79301167544E+03  0.79301167545E+03  0.50400001928E-02 0. -1.
        1   -1    0    0  501    0  0.00000000000E+00  0.00000000000E+00 -0.53412940588E+03  0.53412940590E+03  0.50400001928E-02 0.  1.
    10030    2    1    2    0    0  0.00000000000E+00  0.00000000000E+00  0.25888226956E+03  0.13271410814E+04  0.13016464268E+04 0.  0.
        5    1    3    3  502    0  0.44671530208E+03  0.12052719985E+03 -0.33719920689E+03  0.57254411371E+03  0.46999998093E+01 0.  1.
       -5    1    3    3    0  502 -0.44671530208E+03 -0.12052719985E+03  0.59608147645E+03  0.75459696765E+03  0.46999998093E+01 0. -1.
</event>
<event>
 5   0  0.1476511E-04  0.1295349E+04  0.7818609E-02  0.9033262E-01
        1   -1    0    0  501    0  0.00000000000E+00  0.00000000000E+00  0.75288003825E+03  0.75288003826E+03  0.50400001928E-02 0. -1.
       -1   -1    0    0    0  501  0.00000000000E+00  0.00000000000E+00 -0.55717012087E+03  0.55717012089E+03  0.50400001928E-02 0.  1.
    10030    2    1    2    0    0  0.00000000000E+00  0.00000000000E+00  0.19570991738E+03  0.13100501592E+04  0.12953490061E+04 0.  0.
        2    1    3    3  502    0 -0.55033446337E+03 -0.33683555134E+03  0.41038628027E+02  0.64653722184E+03  0.25500000920E-02 0.  1.
       -2    1    3    3    0  502  0.55033446337E+03  0.33683555134E+03  0.15467128935E+03  0.66351293731E+03  0.25500000920E-02 0. -1.
</event>
<event>
 5   0  0.1408341E-04  0.1300225E+04  0.7818609E-02  0.9029387E-01
        1   -1    0    0  501    0  0.00000000000E+00  0.00000000000E+00  0.79843204330E+03  0.79843204332E+03  0.50400001928E-02 0. -1.
       -1   -1    0    0    0  501  0.00000000000E+00  0.00000000000E+00 -0.52934533372E+03  0.52934533374E+03  0.50400001928E-02 0.  1.
    10030    2    1    2    0    0  0.00000000000E+00  0.00000000000E+00  0.26908670958E+03  0.13277773771E+04  0.13002250212E+04 0.  0.
        5    1    3    3  502    0  0.48001006661E+03  0.43330120999E+03  0.20277678987E+03  0.67771684289E+03  0.46999998093E+01 0.  1.
       -5    1    3    3    0  502 -0.48001006661E+03 -0.43330120999E+03  0.66309919717E+02  0.65006053417E+03  0.46999998093E+01 0. -1.
</event>
<event>
 5   0  0.1476511E-04  0.1300665E+04  0.7818609E-02  0.9029038E-01
       -1   -1    0    0    0  501  0.00000000000E+00  0.00000000000E+00  0.94623156119E+03  0.94623156120E+03  0.50400001928E-02 0.  1.
        1   -1    0    0  501    0  0.00000000000E+00  0.00000000000E+00 -0.44696490782E+03  0.44696490785E+03  0.50400001928E-02 0. -1.
    10030    2    1    2    0    0  0.00000000000E+00  0.00000000000E+00  0.49926665337E+03  0.13931964691E+04  0.13006649108E+04 0.  0.
        2    1    3    3  502    0 -0.59314232273E+03 -0.26664459847E+03  0.25380193209E+03  0.69809209825E+03  0.25500000920E-02 0.  1.
       -2    1    3    3    0  502  0.59314232273E+03  0.26664459847E+03  0.24546472128E+03  0.69510437080E+03  0.25500000920E-02 0. -1.
</event>
<event>
 5   0  0.1408341E-04  0.1289912E+04  0.7818609E-02  0.9037603E-01
       -1   -1    0    0    0  501  0.00000000000E+00  0.00000000000E+00  0.36557036149E+03  0.36557036152E+03  0.50400001928E-02 0.  1.
        1   -1    0    0  501    0  0.00000000000E+00  0.00000000000E+00 -0.11378612851E+04  0.11378612851E+04  0.50400001928E-02 0. -1.
    10030    2    1    2    0    0  0.00000000000E+00  0.00000000000E+00 -0.77229092364E+03  0.15034316467E+04  0.12899121852E+04 0.  0.
        5    1    3    3  502    0 -0.40646177939E+02  0.22634335151E+03  0.31614124298E+03  0.39096137925E+03  0.46999998093E+01 0.  1.
       -5    1    3    3    0  502  0.40646177939E+02 -0.22634335151E+03 -0.10884321666E+04  0.11124702674E+04  0.46999998093E+01 0. -1.
</event>
<event>
 5   0  0.1476511E-04  0.1299971E+04  0.7818609E-02  0.9029588E-01
        1   -1    0    0  501    0  0.00000000000E+00  0.00000000000E+00  0.56840106757E+03  0.56840106760E+03  0.50400001928E-02 0.  1.
       -1   -1    0    0    0  501  0.00000000000E+00  0.00000000000E+00 -0.74328004689E+03  0.74328004691E+03  0.50400001928E-02 0. -1.
    10030    2    1    2    0    0  0.00000000000E+00  0.00000000000E+00 -0.17487897932E+03  0.13116811145E+04  0.12999710338E+04 0.  0.
        2    1    3    3  502    0  0.45809578365E+03 -0.10307700092E+03 -0.54093727833E+03  0.71630283694E+03  0.25500000920E-02 0. -1.
       -2    1    3    3    0  502 -0.45809578365E+03  0.10307700092E+03  0.36605829901E+03  0.59537827757E+03  0.25500000920E-02 0.  1.
</event>
<event>
 5   0  0.2756984E-04  0.1301070E+04  0.7818609E-02  0.9028717E-01
        2   -1    0    0  501    0  0.00000000000E+00  0.00000000000E+00  0.41565756575E+03  0.41565756575E+03  0.25500000920E-02 0.  1.
       -2   -1    0    0    0  501  0.00000000000E+00  0.00000000000E+00 -0.10181353114E+04  0.10181353114E+04  0.25500000920E-02 0. -1.
    10030    2    1    2    0    0  0.00000000000E+00  0.00000000000E+00 -0.60247774566E+03  0.14337928772E+04  0.13010697831E+04 0.  0.
        3    1    3    3  502    0 -0.29639177788E+03  0.50487838293E+03 -0.61380099553E+03  0.84823460190E+03  0.10100000352E+00 0. -1.
       -3    1    3    3    0  502  0.29639177788E+03 -0.50487838293E+03  0.11323249869E+02  0.58555827527E+03  0.10100000352E+00 0.  1.
</event>
<event>
 5   0  0.2723209E-04  0.1301120E+04  0.7818609E-02  0.9028678E-01
        2   -1    0    0  501    0  0.00000000000E+00  0.00000000000E+00  0.25646698816E+04  0.25646698816E+04  0.25500000920E-02 0. -1.
       -2   -1    0    0    0  501  0.00000000000E+00  0.00000000000E+00 -0.16502246591E+03  0.16502246593E+03  0.25500000920E-02 0.  1.
    10030    2    1    2    0    0  0.00000000000E+00  0.00000000000E+00  0.23996474157E+04  0.27296923475E+04  0.13011197457E+04 0.  0.
        2    1    3    3  502    0 -0.43903108593E+03 -0.44950826704E+03  0.15535155663E+04  0.16757734308E+04  0.25500000920E-02 0.  1.
       -2    1    3    3    0  502  0.43903108593E+03  0.44950826704E+03  0.84613184935E+03  0.10539189167E+04  0.25500000920E-02 0. -1.
</event>
<event>
 5   0  0.2794825E-04  0.1297988E+04  0.7818609E-02  0.9031162E-01
        2   -1    0    0  501    0  0.00000000000E+00  0.00000000000E+00  0.28148358974E+03  0.28148358975E+03  0.25500000920E-02 0.  1.
       -2   -1    0    0    0  501  0.00000000000E+00  0.00000000000E+00 -0.14963327341E+04  0.14963327341E+04  0.25500000920E-02 0. -1.
    10030    2    1    2    0    0  0.00000000000E+00  0.00000000000E+00 -0.12148491443E+04  0.17778163238E+04  0.12979878419E+04 0.  0.
        1    1    3    3  502    0 -0.12141309687E+03 -0.14024680287E+03  0.24439937194E+03  0.30682463858E+03  0.50400001928E-02 0.  1.
       -1    1    3    3    0  502  0.12141309687E+03  0.14024680287E+03 -0.14592485163E+04  0.14709916852E+04  0.50400001928E-02 0. -1.
</event>
<event>
 5   0  0.1476511E-04  0.1305229E+04  0.7818609E-02  0.9025429E-01
       -1   -1    0    0    0  501  0.00000000000E+00  0.00000000000E+00  0.25363958254E+03  0.25363958259E+03  0.50400001928E-02 0.  1.
        1   -1    0    0  501    0  0.00000000000E+00  0.00000000000E+00 -0.16791754997E+04  0.16791754997E+04  0.50400001928E-02 0. -1.
    10030    2    1    2    0    0  0.00000000000E+00  0.00000000000E+00 -0.14255359172E+04  0.19328150823E+04  0.13052285207E+04 0.  0.
        2    1    3    3  502    0 -0.29848067137E+03  0.56997011087E+03 -0.55089857851E+03  0.84702177202E+03  0.25500000920E-02 0. -1.
       -2    1    3    3    0  502  0.29848067137E+03 -0.56997011087E+03 -0.87463733870E+03  0.10857933103E+04  0.25500000920E-02 0.  1.
</event>
<event>
 5   0  0.2573071E-04  0.1299071E+04  0.7818609E-02  0.9030302E-01
        2   -1    0    0  501    0  0.00000000000E+00  0.00000000000E+00  0.70725331120E+03  0.70725331120E+03  0.25500000920E-02 0. -1.
       -2   -1    0    0    0  501  0.00000000000E+00  0.00000000000E+00 -0.59652812013E+03  0.59652812013E+03  0.25500000920E-02 0.  1.
    10030    2    1    2    0    0  0.00000000000E+00  0.00000000000E+00  0.11072519107E+03  0.13037814313E+04  0.12990711885E+04 0.  0.
        4    1    3    3  502    0 -0.39681082935E+03  0.50271993903E+03  0.16396170209E+03  0.66111362415E+03  0.12699999809E+01 0. -1.
       -4    1    3    3    0  502  0.39681082935E+03 -0.50271993903E+03 -0.53236511018E+02  0.64266780718E+03  0.12699999809E+01 0.  1.
</event>
<event>
 5   0  0.1479690E-04  0.1298021E+04  0.7818609E-02  0.9031136E-01
       -1   -1    0    0    0  501  0.00000000000E+00  0.00000000000E+00  0.35360085047E+03  0.35360085050E+03  0.50400001928E-02 0. -1.
        1   -1    0    0  501    0  0.00000000000E+00  0.00000000000E+00 -0.11912151405E+04  0.11912151405E+04  0.50400001928E-02 0.  1.
    10030    2    1    2    0    0  0.00000000000E+00  0.00000000000E+00 -0.83761429003E+03  0.15448159910E+04  0.12980210889E+04 0.  0.
        1    1    3    3  502    0 -0.53677992614E+03  0.23813599409E+03 -0.74770847713E+03  0.95074150409E+03  0.50400001928E-02 0.  1.
       -1    1    3    3    0  502  0.53677992614E+03 -0.23813599409E+03 -0.89905812895E+02  0.59407448692E+03  0.50400001928E-02 0. -1.
</event>
<event>
 5   0  0.1430636E-04  0.1301721E+04  0.7818609E-02  0.9028201E-01
       -1   -1    0    0    0  501  0.00000000000E+00  0.00000000000E+00  0.11010067968E+04  0.11010067968E+04  0.50400001928E-02 0. -1.
        1   -1    0    0  501    0  0.00000000000E+00  0.00000000000E+00 -0.38475661740E+03  0.38475661743E+03  0.50400001928E-02 0.  1.
    10030    2    1    2    0    0  0.00000000000E+00  0.00000000000E+00  0.71625017935E+03  0.14857634142E+04  0.13017214001E+04 0.  0.
        4    1    3    3  502    0  0.21821413427E+03  0.35689917916E+03 -0.21099353121E+03  0.46852354860E+03  0.12699999809E+01 0. -1.
       -4    1    3    3    0  502 -0.21821413427E+03 -0.35689917916E+03  0.92724371056E+03  0.10172398656E+04  0.12699999809E+01 0.  1.
</event>
<event>
 5   0  0.2756984E-04  0.1300544E+04  0.7818609E-02  0.9029134E-01
       -2   -1    0    0    0  501  0.00000000000E+00  0.00000000000E+00  0.78179057931E+03  0.78179057931E+03  0.25500000920E-02 0.  1.
        2   -1    0    0  501    0  0.00000000000E+00  0.00000000000E+00 -0.54087833737E+03  0.54087833738E+03  0.25500000920E-02 0. -1.
    10030    2    1    2    0    0  0.00000000000E+00  0.00000000000E+00  0.24091224194E+03  0.13226689167E+04  0.13005438689E+04 0.  0.
        3    1    3    3  502    0 -0.53360699234E+03 -0.11436657887E+03 -0.23916582064E+03  0.59583255752E+03  0.10100000352E+00 0. -1.
       -3    1    3    3    0  502  0.53360699234E+03  0.11436657887E+03  0.48007806257E+03  0.72683635917E+03  0.10100000352E+00 0.  1.
</event>
<event>
 5   0  0.1408341E-04  0.1300599E+04  0.7818609E-02  0.9029090E-01
       -1   -1    0    0    0  501  0.00000000000E+00  0.00000000000E+00  0.73214987596E+03  0.73214987598E+03  0.50400001928E-02 0. -1.
        1   -1    0    0  501    0  0.00000000000E+00  0.00000000000E+00 -0.57759968179E+03  0.57759968181E+03  0.50400001928E-02 0.  1.
    10030    2    1    2    0    0  0.00000000000E+00  0.00000000000E+00  0.15455019417E+03  0.13097495578E+04  0.13005991472E+04 0.  0.
        5    1    3    3  502    0  0.17031099599E+03  0.62752491411E+03  0.85943340619E+02  0.65589762995E+03  0.46999998093E+01 0. -1.
       -5    1    3    3    0  502 -0.17031099599E+03 -0.62752491411E+03  0.68606853552E+02  0.65385192783E+03  0.46999998093E+01 0.  1.
</event>
<event>
 5   0  0.2756984E-04  0.1298447E+04  0.7818609E-02  0.9030797E-01
        2   -1    0    0  501    0  0.00000000000E+00  0.00000000000E+00  0.71586434434E+03  0.71586434434E+03  0.25500000920E-02 0. -1.
       -2   -1    0    0    0  501  0.00000000000E+00  0.00000000000E+00 -0.58878672020E+03  0.58878672021E+03  0.25500000920E-02 0.  1.
    10030    2    1    2    0    0  0.00000000000E+00  0.00000000000E+00  0.12707762413E+03  0.13046510646E+04  0.12984474104E+04 0.  0.
        3    1    3    3  502    0 -0.51042362197E+03 -0.27484144692E+03  0.35720445065E+03  0.68092960324E+03  0.10100000352E+00 0. -1.
       -3    1    3    3    0  502  0.51042362197E+03  0.27484144692E+03 -0.23012682652E+03  0.62372146131E+03  0.10100000352E+00 0.  1.
</event>
<event>
 5   0  0.1430636E-04  0.1301170E+04  0.7818609E-02  0.9028638E-01
       -1   -1    0    0    0  501  0.00000000000E+00  0.00000000000E+00  0.45825226962E+03  0.45825226965E+03  0.50400001928E-02 0.  1.
        1   -1    0    0  501    0  0.00000000000E+00  0.00000000000E+00 -0.92364172491E+03  0.92364172493E+03  0.50400001928E-02 0. -1.
    10030    2    1    2    0    0  0.00000000000E+00  0.00000000000E+00 -0.46538945529E+03  0.13818939946E+04  0.13011701146E+04 0.  0.
        4    1    3    3  502    0 -0.21326521455E+03 -0.16198604653E+03  0.39699505743E+03  0.47888226061E+03  0.12699999809E+01 0.  1.
       -4    1    3    3    0  502  0.21326521455E+03  0.16198604653E+03 -0.86238451272E+03  0.90301173397E+03  0.12699999809E+01 0. -1.
</event>
<event>
 5   0  0.1408341E-04  0.1301221E+04  0.7818609E-02  0.9028597E-01
        1   -1    0    0  501    0  0.00000000000E+00  0.00000000000E+00  0.43228987979E+03  0.43228987982E+03  0.50400001928E-02 0. -1.
       -1   -1    0    0    0  501  0.00000000000E+00  0.00000000000E+00 -0.97919027280E+03  0.97919027282E+03  0.50400001928E-02 0.  1.
    10030    2    1    2    0    0  0.00000000000E+00  0.00000000000E+00 -0.54690039302E+03  0.14114801526E+04  0.13012210348E+04 0.  0.
        5    1    3    3  502    0 -0.22946201237E+02 -0.49472154738E+03  0.18419493176E+03  0.52841820605E+03  0.46999998093E+01 0. -1.
       -5    1    3    3    0  502  0.22946201237E+02  0.49472154738E+03 -0.73109532478E+03  0.88306194658E+03  0.46999998093E+01 0.  1.
</event>
<event>
 5   0  0.2661377E-04  0.1329314E+04  0.7818609E-02  0.9006637E-01
        2   -1    0    0  501    0  0.00000000000E+00  0.00000000000E+00  0.10047291785E+04  0.10047291785E+04  0.25500000920E-02 0. -1.
       -2   -1    0    0    0  501  0.00000000000E+00  0.00000000000E+00 -0.43968943359E+03  0.43968943360E+03  0.25500000920E-02 0.  1.
    10030    2    1    2    0    0  0.00000000000E+00  0.00000000000E+00  0.56503974491E+03  0.14444186121E+04  0.13293138131E+04 0.  0.
        5    1    3    3  502    0  0.62743861650E+03  0.11014425697E+03  0.48850167106E+03  0.80278698759E+03  0.46999998093E+01 0. -1.
       -5    1    3    3    0  502 -0.62743861650E+03 -0.11014425697E+03  0.76538073849E+02  0.64163162451E+03  0.46999998093E+01 0.  1.
</event>
<event>
 5   0  0.1479690E-04  0.1303506E+04  0.7818609E-02  0.9026790E-01
       -1   -1    0    0    0  501  0.00000000000E+00  0.00000000000E+00  0.32411976859E+03  0.32411976863E+03  0.50400001928E-02 0. -1.
        1   -1    0    0  501    0  0.00000000000E+00  0.00000000000E+00 -0.13105700402E+04  0.13105700402E+04  0.50400001928E-02 0.  1.
    10030    2    1    2    0    0  0.00000000000E+00  0.00000000000E+00 -0.98645027160E+03  0.16346898088E+04  0.13035055170E+04 0.  0.
        1    1    3    3  502    0 -0.14158164570E+02  0.52681230528E+03 -0.97412537739E+03  0.11075431863E+04  0.50400001928E-02 0.  1.
       -1    1    3    3    0  502  0.14158164570E+02 -0.52681230528E+03 -0.12324894214E+02  0.52714662254E+03  0.50400001928E-02 0. -1.
</event>
<event>
 5   0  0.2661377E-04  0.1322044E+04  0.7818609E-02  0.9012264E-01
        2   -1    0    0  501    0  0.00000000000E+00  0.00000000000E+00  0.86874835691E+03  0.86874835691E+03  0.25500000920E-02 0.  1.
       -2   -1    0    0    0  501  0.00000000000E+00  0.00000000000E+00 -0.50296514427E+03  0.50296514428E+03  0.25500000920E-02 0. -1.
    10030    2    1    2    0    0  0.00000000000E+00  0.00000000000E+00  0.36578321264E+03  0.13717135012E+04  0.13220440880E+04 0.  0.
        5    1    3    3  502    0 -0.21177733066E+03 -0.28003661675E+03  0.76398454190E+03  0.84081187835E+03  0.46999998093E+01 0.  1.
       -5    1    3    3    0  502  0.21177733066E+03  0.28003661675E+03 -0.39820132927E+03  0.53090162284E+03  0.46999998093E+01 0. -1.
</event>
<event>
 5   0  0.1476511E-04  0.1300529E+04  0.7818609E-02  0.9029146E-01
       -1   -1    0    0    0  501  0.00000000000E+00  0.00000000000E+00  0.42504231682E+03  0.42504231685E+03  0.50400001928E-02 0. -1.
        1   -1    0    0  501    0  0.00000000000E+00  0.00000000000E+00 -0.99482776683E+03  0.99482776684E+03  0.50400001928E-02 0.  1.
    10030    2    1    2    0    0  0.00000000000E+00  0.00000000000E+00 -0.56978545001E+03  0.14198700837E+04  0.13005289676E+04 0.  0.
        2    1    3    3  502    0  0.26228166240E+03  0.34683530934E+03  0.24295827986E+03  0.49811156180E+03  0.25500000920E-02 0. -1.
       -2    1    3    3    0  502 -0.26228166240E+03 -0.34683530934E+03 -0.81274372987E+03  0.92175852189E+03  0.25500000920E-02 0.  1.
</event>
<event>
 5   0  0.1475396E-04  0.1300826E+04  0.7818609E-02  0.9028911E-01
        1   -1    0    0  501    0  0.00000000000E+00  0.00000000000E+00  0.66027746506E+03  0.66027746508E+03  0.50400001928E-02 0.  1.
       -1   -1    0    0    0  501  0.00000000000E+00  0.00000000000E+00 -0.64069553421E+03  0.64069553423E+03  0.50400001928E-02 0. -1.
    10030    2    1    2    0    0  0.00000000000E+00  0.00000000000E+00  0.19581930843E+02  0.13009729993E+04  0.13008256197E+04 0.  0.
        3    1    3    3  502    0  0.53709282534E+03 -0.27723223611E+03  0.25004806692E+03  0.65410279142E+03  0.10100000352E+00 0. -1.
       -3    1    3    3    0  502 -0.53709282534E+03  0.27723223611E+03 -0.23046613608E+03  0.64687020789E+03  0.10100000352E+00 0.  1.
</event>
<event>
 5   0  0.1408341E-04  0.1303821E+04  0.7818609E-02  0.9026541E-01
       -1   -1    0    0    0  501  0.00000000000E+00  0.00000000000E+00  0.36550215470E+03  0.36550215473E+03  0.50400001928E-02 0.  1.
        1   -1    0    0  501    0  0.00000000000E+00  0.00000000000E+00 -0.11627489701E+04  0.11627489702E+04  0.50400001928E-02 0. -1.
    10030    2    1    2    0    0  0.00000000000E+00  0.00000000000E+00 -0.79724681544E+03  0.15282511249E+04  0.13038209294E+04 0.  0.
        5    1    3    3  502    0  0.44966140974E+03 -0.22415290736E+03 -0.88548230887E+03  0.10181065360E+04  0.46999998093E+01 0. -1.
       -5    1    3    3    0  502 -0.44966140974E+03  0.22415290736E+03  0.88235493429E+02  0.51014458890E+03  0.46999998093E+01 0.  1.
</event>
<event>
 5   0  0.2723209E-04  0.1300258E+04  0.7818609E-02  0.9029360E-01
       -2   -1    0    0    0  501  0.00000000000E+00  0.00000000000E+00  0.47720613449E+03  0.47720613450E+03  0.25500000920E-02 0.  1.
        2   -1    0    0  501    0  0.00000000000E+00  0.00000000000E+00 -0.88571354981E+03  0.88571354981E+03  0.25500000920E-02 0. -1.
    10030    2    1    2    0    0  0.00000000000E+00  0.00000000000E+00 -0.40850741532E+03  0.13629196843E+04  0.13002583426E+04 0.  0.
        2    1    3    3  502    0 -0.64883528443E+03  0.28829919373E+02 -0.17370204989E+03  0.67230260502E+03  0.25500000920E-02 0.  1.
       -2    1    3    3    0  502  0.64883528443E+03 -0.28829919373E+02 -0.23480536543E+03  0.69061707930E+03  0.25500000920E-02 0. -1.
</event>
<event>
 5   0  0.2794825E-04  0.1308632E+04  0.7818609E-02  0.9022748E-01
        2   -1    0    0  501    0  0.00000000000E+00  0.00000000000E+00  0.42590326409E+03  0.42590326410E+03  0.25500000920E-02 0. -1.
       -2   -1    0    0    0  501  0.00000000000E+00  0.00000000000E+00 -0.10052263047E+04  0.10052263047E+04  0.25500000920E-02 0.  1.
    10030    2    1    2    0    0  0.00000000000E+00  0.00000000000E+00 -0.57932304064E+03  0.14311295688E+04  0.13086315973E+04 0.  0.
        1    1    3    3  502    0 -0.40851741546E+03  0.25551758673E+03 -0.77376478115E+03  0.91153039030E+03  0.50400001928E-02 0.  1.
       -1    1    3    3    0  502  0.40851741546E+03 -0.25551758673E+03  0.19444174051E+03  0.51959917854E+03  0.50400001928E-02 0. -1.
</event>
<event>
 5   0  0.1479690E-04  0.1299591E+04  0.7818609E-02  0.9029889E-01
        1   -1    0    0  501    0  0.00000000000E+00  0.00000000000E+00  0.84575166890E+03  0.84575166891E+03  0.50400001928E-02 0. -1.
       -1   -1    0    0    0  501  0.00000000000E+00  0.00000000000E+00 -0.49924142896E+03  0.49924142899E+03  0.50400001928E-02 0.  1.
    10030    2    1    2    0    0  0.00000000000E+00  0.00000000000E+00  0.34651023994E+03  0.13449930979E+04  0.12995911230E+04 0.  0.
        1    1    3    3  502    0  0.18854423024E+03 -0.10854917967E+03  0.80693868228E+03  0.83575228875E+03  0.50400001928E-02 0. -1.
       -1    1    3    3    0  502 -0.18854423024E+03  0.10854917967E+03 -0.46042844234E+03  0.50924080915E+03  0.50400001928E-02 0.  1.
</event>
<event>
 5   0  0.1475396E-04  0.1300379E+04  0.7818609E-02  0.9029265E-01
        1   -1    0    0  501    0  0.00000000000E+00  0.00000000000E+00  0.42987774600E+03  0.42987774602E+03  0.50400001928E-02 0.  1.
       -1   -1    0    0    0  501  0.00000000000E+00  0.00000000000E+00 -0.98340997635E+03  0.98340997636E+03  0.50400001928E-02 0. -1.
    10030    2    1    2    0    0  0.00000000000E+00  0.00000000000E+00 -0.55353223035E+03  0.14132877224E+04  0.13003785050E+04 0.  0.
        3    1    3    3  502    0  0.32599699049E+03 -0.35327871994E+03 -0.75257607367E+03  0.89300092308E+03  0.10100000352E+00 0. -1.
       -3    1    3    3    0  502 -0.32599699049E+03  0.35327871994E+03  0.19904384331E+03  0.52028679931E+03  0.10100000352E+00 0.  1.
</event>
<event>
 5   0  0.1475396E-04  0.1299790E+04  0.7818609E-02  0.9029732E-01
       -1   -1    0    0    0  501  0.00000000000E+00  0.00000000000E+00  0.38883970507E+03  0.38883970510E+03  0.50400001928E-02 0.  1.
        1   -1    0    0  501    0  0.00000000000E+00  0.00000000000E+00 -0.10862150534E+04  0.10862150534E+04  0.50400001928E-02 0. -1.
    10030    2    1    2    0    0  0.00000000000E+00  0.00000000000E+00 -0.69737534831E+03  0.14750547585E+04  0.12997900462E+04 0.  0.
        3    1    3    3  502    0 -0.17341208603E+01 -0.22976771893E+03  0.34120528999E+03  0.41136027027E+03  0.10100000352E+00 0.  1.
       -3    1    3    3    0  502  0.17341208603E+01  0.22976771893E+03 -0.10385806383E+04  0.10636944882E+04  0.10100000352E+00 0. -1.
</event>
<event>
 5   0  0.1476511E-04  0.1301334E+04  0.7818609E-02  0.9028508E-01
       -1   -1    0    0    0  501  0.00000000000E+00  0.00000000000E+00  0.32186961776E+03  0.32186961780E+03  0.50400001928E-02 0.  1.
        1   -1    0    0  501    0  0.00000000000E+00  0.00000000000E+00 -0.13153394787E+04  0.13153394788E+04  0.50400001928E-02 0. -1.
    10030    2    1    2    0    0  0.00000000000E+00  0.00000000000E+00 -0.99346986099E+03  0.16372090966E+04  0.13013344156E+04 0.  0.
        2    1    3    3  502    0  0.27576824140E+03  0.53515815157E+03 -0.80727281417E+03  0.10070410948E+04  0.25500000920E-02 0. -1.
       -2    1    3    3    0  502 -0.27576824140E+03 -0.53515815157E+03 -0.18619704682E+03  0.63016800173E+03  0.25500000920E-02 0.  1.
</event>
<event>
 5   0  0.2794825E-04  0.1299314E+04  0.7818609E-02  0.9030109E-01
       -2   -1    0    0    0  501  0.00000000000E+00  0.00000000000E+00  0.36551567612E+03  0.36551567613E+03  0.25500000920E-02 0.  1.
        2   -1    0    0  501    0  0.00000000000E+00  0.00000000000E+00 -0.11546821125E+04  0.11546821125E+04  0.25500000920E-02 0. -1.
    10030    2    1    2    0    0  0.00000000000E+00  0.00000000000E+00 -0.78916643643E+03  0.15201977887E+04  0.12993143008E+04 0.  0.
        1    1    3    3  502    0  0.40773142585E+03  0.13651038426E+02  0.19695930051E+03  0.45301681267E+03  0.50400001928E-02 0.  1.
       -1    1    3    3    0  502 -0.40773142585E+03 -0.13651038426E+02 -0.98612573694E+03  0.10671809760E+04  0.50400001928E-02 0. -1.
</event>
<event>
 5   0  0.2756984E-04  0.1305428E+04  0.7818609E-02  0.9025272E-01
       -2   -1    0    0    0  501  0.00000000000E+00  0.00000000000E+00  0.20227795007E+03  0.20227795008E+03  0.25500000920E-02 0.  1.
        2   -1    0    0  501    0  0.00000000000E+00  0.00000000000E+00 -0.21061898032E+04  0.21061898032E+04  0.25500000920E-02 0. -1.
    10030    2    1    2    0    0  0.00000000000E+00  0.00000000000E+00 -0.19039118531E+04  0.23084677533E+04  0.13054282912E+04 0.  0.
        3    1    3    3  502    0  0.17078600931E+03 -0.58694134213E+03 -0.54728432248E+03  0.82048043237E+03  0.10100000352E+00 0.  1.
       -3    1    3    3    0  502 -0.17078600931E+03  0.58694134213E+03 -0.13566275307E+04  0.14879873209E+04  0.10100000352E+00 0. -1.
</event>
<event>
 5   0  0.1475396E-04  0.1300734E+04  0.7818609E-02  0.9028983E-01
       -1   -1    0    0    0  501  0.00000000000E+00  0.00000000000E+00  0.90808978694E+03  0.90808978695E+03  0.50400001928E-02 0.  1.
        1   -1    0    0  501    0  0.00000000000E+00  0.00000000000E+00 -0.46578786880E+03  0.46578786883E+03  0.50400001928E-02 0. -1.
    10030    2    1    2    0    0  0.00000000000E+00  0.00000000000E+00  0.44230191814E+03  0.13738776558E+04  0.13007339568E+04 0.  0.
        3    1    3    3  502    0 -0.19550077671E+03 -0.36069434520E+03  0.75416265239E+03  0.85853496191E+03  0.10100000352E+00 0.  1.
       -3    1    3    3    0  502  0.19550077671E+03  0.36069434520E+03 -0.31186073426E+03  0.51534269387E+03  0.10100000352E+00 0. -1.
</event>
<event>
 5   0  0.2573071E-04  0.1297875E+04  0.7818609E-02  0.9031252E-01
        2   -1    0    0  501    0  0.00000000000E+00  0.00000000000E+00  0.12196191997E+04  0.12196191997E+04  0.25500000920E-02 0.  1.
       -2   -1    0    0    0  501  0.00000000000E+00  0.00000000000E+00 -0.34528809655E+03  0.34528809656E+03  0.25500000920E-02 0. -1.
    10030    2    1    2    0    0  0.00000000000E+00  0.00000000000E+00  0.87433110315E+03  0.15649072963E+04  0.12978751742E+04 0.  0.
        4    1    3    3  502    0 -0.31314139998E+02  0.22290031950E+03 -0.29670995886E+03  0.37242924212E+03  0.12699999809E+01 0. -1.
       -4    1    3    3    0  502  0.31314139998E+02 -0.22290031950E+03  0.11710410620E+04  0.11924780541E+04  0.12699999809E+01 0.  1.
</event>
<event>
 5   0  0.1475396E-04  0.1302498E+04  0.7818609E-02  0.9027586E-01
       -1   -1    0    0    0  501  0.00000000000E+00  0.00000000000E+00  0.68144981425E+03  0.68144981427E+03  0.50400001928E-02 0.  1.
        1   -1    0    0  501    0  0.00000000000E+00  0.00000000000E+00 -0.62238689747E+03  0.62238689749E+03  0.50400001928E-02 0. -1.
    10030    2    1    2    0    0  0.00000000000E+00  0.00000000000E+00  0.59062916783E+02  0.13038367118E+04  0.13024982698E+04 0.  0.
        3    1    3    3  502    0  0.28069739160E+03  0.31463746359E+03 -0.46730271682E+03  0.62941210545E+03  0.10100000352E+00 0. -1.
       -3    1    3    3    0  502 -0.28069739160E+03 -0.31463746359E+03  0.52636563360E+03  0.67442460630E+03  0.10100000352E+00 0.  1.
</event>
<event>
 5   0  0.1475396E-04  0.1298398E+04  0.7818609E-02  0.9030836E-01
       -1   -1    0    0    0  501  0.00000000000E+00  0.00000000000E+00  0.66935903218E+03  0.66935903220E+03  0.50400001928E-02 0.  1.
        1   -1    0    0  501    0  0.00000000000E+00  0.00000000000E+00 -0.62964636623E+03  0.62964636625E+03  0.50400001928E-02 0. -1.
    10030    2    1    2    0    0  0.00000000000E+00  0.00000000000E+00  0.39712665949E+02  0.12990053985E+04  0.12983982168E+04 0.  0.
        3    1    3    3  502    0  0.31266863432E+03 -0.18544385770E+03 -0.51826913560E+03  0.63305134576E+03  0.10100000352E+00 0. -1.
       -3    1    3    3    0  502 -0.31266863432E+03  0.18544385770E+03  0.55798180155E+03  0.66595405270E+03  0.10100000352E+00 0.  1.
</event>
<event>
 5   0  0.2661377E-04  0.1302492E+04  0.7818609E-02  0.9027592E-01
       -2   -1    0    0    0  501  0.00000000000E+00  0.00000000000E+00  0.40804069351E+03  0.40804069351E+03  0.25500000920E-02 0.  1.
        2   -1    0    0  501    0  0.00000000000E+00  0.00000000000E+00 -0.10394090352E+04  0.10394090352E+04  0.25500000920E-02 0. -1.
    10030    2    1    2    0    0  0.00000000000E+00  0.00000000000E+00 -0.63136834167E+03  0.14474497287E+04  0.13024917406E+04 0.  0.
        5    1    3    3  502    0 -0.59871840366E+03  0.25559194638E+03 -0.29617714705E+03  0.71521602497E+03  0.46999998093E+01 0. -1.
       -5    1    3    3    0  502  0.59871840366E+03 -0.25559194638E+03 -0.33519119462E+03  0.73223370373E+03  0.46999998093E+01 0.  1.
</event>
<event>
 5   0  0.1430636E-04  0.1299319E+04  0.7818609E-02  0.9030105E-01
        1   -1    0    0  501    0  0.00000000000E+00  0.00000000000E+00  0.21984158266E+04  0.21984158266E+04  0.50400001928E-02 0. -1.
       -1   -1    0    0    0  501  0.00000000000E+00  0.00000000000E+00 -0.19198255956E+03  0.19198255963E+03  0.50400001928E-02 0.  1.
    10030    2    1    2    0    0  0.00000000000E+00  0.00000000000E+00  0.20064332671E+04  0.23903983862E+04  0.12993190485E+04 0.  0.
        4    1    3    3  502    0  0.40091306604E+03  0.46665337380E+03  0.13871842187E+04  0.15174907997E+04  0.12699999809E+01 0. -1.
       -4    1    3    3    0  502 -0.40091306604E+03 -0.46665337380E+03  0.61924904840E+03  0.87290758654E+03  0.12699999809E+01 0.  1.
</event>
<event>
 5   0  0.1475396E-04  0.1301326E+04  0.7818609E-02  0.9028514E-01
       -1   -1    0    0    0  501  0.00000000000E+00  0.00000000000E+00  0.11276267981E+04  0.11276267981E+04  0.50400001928E-02 0. -1.
        1   -1    0    0  501    0  0.00000000000E+00  0.00000000000E+00 -0.37544535382E+03  0.37544535385E+03  0.50400001928E-02 0.  1.
    10030    2    1    2    0    0  0.00000000000E+00  0.00000000000E+00  0.75218144430E+03  0.15030721520E+04  0.13013258504E+04 0.  0.
        3    1    3    3  502    0 -0.44434914265E+03 -0.35765739530E+02  0.92352792006E+03  0.10254897260E+04  0.10100000352E+00 0. -1.
       -3    1    3    3    0  502  0.44434914265E+03  0.35765739530E+02 -0.17134647576E+03  0.47758242603E+03  0.10100000352E+00 0.  1.
</event>
<event>
 5   0  0.2723209E-04  0.1300139E+04  0.7818609E-02  0.9029455E-01
       -2   -1    0    0    0  501  0.00000000000E+00  0.00000000000E+00  0.65305787004E+03  0.65305787005E+03  0.25500000920E-02 0.  1.
        2   -1    0    0  501    0  0.00000000000E+00  0.00000000000E+00 -0.64709441756E+03  0.64709441756E+03  0.25500000920E-02 0. -1.
    10030    2    1    2    0    0  0.00000000000E+00  0.00000000000E+00  0.59634524836E+01  0.13001522876E+04  0.13001386112E+04 0.  0.
        2    1    3    3  502    0  0.34094651793E+03 -0.55315785878E+03 -0.16043647269E+02  0.64998887948E+03  0.25500000920E-02 0.  1.
       -2    1    3    3    0  502 -0.34094651793E+03  0.55315785878E+03  0.22007099753E+02  0.65016340813E+03  0.25500000920E-02 0. -1.
</event>
<event>
 5   0  0.1430636E-04  0.1300612E+04  0.7818609E-02  0.9029080E-01
        1   -1    0    0  501    0  0.00000000000E+00  0.00000000000E+00  0.87270029336E+03  0.87270029338E+03  0.50400001928E-02 0. -1.
       -1   -1    0    0    0  501  0.00000000000E+00  0.00000000000E+00 -0.48458539938E+03  0.48458539941E+03  0.50400001928E-02 0.  1.
    10030    2    1    2    0    0  0.00000000000E+00  0.00000000000E+00  0.38811489399E+03  0.13572856928E+04  0.13006118871E+04 0.  0.
        4    1    3    3  502    0  0.44590500907E+03 -0.84681993706E+02  0.68006969193E+03  0.81761770771E+03  0.12699999809E+01 0. -1.
       -4    1    3    3    0  502 -0.44590500907E+03  0.84681993706E+02 -0.29195479795E+03  0.53966798508E+03  0.12699999809E+01 0.  1.
</event>
<event>
 5   0  0.2794825E-04  0.1300140E+04  0.7818609E-02  0.9029454E-01
       -2   -1    0    0    0  501  0.00000000000E+00  0.00000000000E+00  0.51098965160E+03  0.51098965160E+03  0.25500000920E-02 0. -1.
        2   -1    0    0  501    0  0.00000000000E+00  0.00000000000E+00 -0.82700450184E+03  0.82700450185E+03  0.25500000920E-02 0.  1.
    10030    2    1    2    0    0  0.00000000000E+00  0.00000000000E+00 -0.31601485025E+03  0.13379941535E+04  0.13001395960E+04 0.  0.
        1    1    3    3  502    0 -0.54818045450E+03 -0.30490393176E+03  0.17614501118E+02  0.62751772005E+03  0.50400001928E-02 0. -1.
       -1    1    3    3    0  502  0.54818045450E+03  0.30490393176E+03 -0.33362935137E+03  0.71047643340E+03  0.50400001928E-02 0.  1.
</event>
<event>
 5   0  0.1476511E-04  0.1295999E+04  0.7818609E-02  0.9032744E-01
        1   -1    0    0  501    0  0.00000000000E+00  0.00000000000E+00  0.92558954913E+03  0.92558954914E+03  0.50400001928E-02 0.  1.
       -1   -1    0    0    0  501  0.00000000000E+00  0.00000000000E+00 -0.45366067971E+03  0.45366067973E+03  0.50400001928E-02 0. -1.
    10030    2    1    2    0    0  0.00000000000E+00  0.00000000000E+00  0.47192886942E+03  0.13792502289E+04  0.12959993581E+04 0.  0.
        2    1    3    3  502    0  0.46654800230E+02  0.33304746822E+03  0.82544625124E+03  0.89132418354E+03  0.25500000920E-02 0.  1.
       -2    1    3    3    0  502 -0.46654800230E+02 -0.33304746822E+03 -0.35351738181E+03  0.48792604534E+03  0.25500000920E-02 0. -1.
</event>
<event>
 5   0  0.1430636E-04  0.1292730E+04  0.7818609E-02  0.9035350E-01
       -1   -1    0    0    0  501  0.00000000000E+00  0.00000000000E+00  0.73806030098E+03  0.73806030099E+03  0.50400001928E-02 0. -1.
        1   -1    0    0  501    0  0.00000000000E+00  0.00000000000E+00 -0.56606155285E+03  0.56606155287E+03  0.50400001928E-02 0.  1.
    10030    2    1    2    0    0  0.00000000000E+00  0.00000000000E+00  0.17199874812E+03  0.13041218539E+04  0.12927297631E+04 0.  0.
        4    1    3    3  502    0  0.26345198939E+03  0.82052785761E+02 -0.50365674411E+03  0.57429203299E+03  0.12699999809E+01 0.  1.
       -4    1    3    3    0  502 -0.26345198939E+03 -0.82052785761E+02  0.67565549223E+03  0.72982982088E+03  0.12699999809E+01 0. -1.
</event>
<event>
 5   0  0.2756984E-04  0.1303064E+04  0.7818609E-02  0.9027139E-01
       -2   -1    0    0    0  501  0.00000000000E+00  0.00000000000E+00  0.32573324580E+03  0.32573324581E+03  0.25500000920E-02 0.  1.
        2   -1    0    0  501    0  0.00000000000E+00  0.00000000000E+00 -0.13031948582E+04  0.13031948582E+04  0.25500000920E-02 0. -1.
    10030    2    1    2    0    0  0.00000000000E+00  0.00000000000E+00 -0.97746161238E+03  0.16289281040E+04  0.13030639141E+04 0.  0.
        3    1    3    3  502    0  0.81822178943E+01  0.38363981871E+03  0.16948749952E+03  0.41949074112E+03  0.10100000352E+00 0.  1.
       -3    1    3    3    0  502 -0.81822178943E+01 -0.38363981871E+03 -0.11469491119E+04  0.12094373629E+04  0.10100000352E+00 0. -1.
</event>
<event>
 5   0  0.1475396E-04  0.1299149E+04  0.7818609E-02  0.9030241E-01
        1   -1    0    0  501    0  0.00000000000E+00  0.00000000000E+00  0.84383745368E+03  0.84383745369E+03  0.50400001928E-02 0. -1.
       -1   -1    0    0    0  501  0.00000000000E+00  0.00000000000E+00 -0.50003325852E+03  0.50003325855E+03  0.50400001928E-02 0.  1.
    10030    2    1    2    0    0  0.00000000000E+00  0.00000000000E+00  0.34380419515E+03  0.13438707122E+04  0.12991486315E+04 0.  0.
        3    1    3    3  502    0 -0.31120157209E+03  0.26186695325E+03 -0.35201720098E+03  0.53790039939E+03  0.10100000352E+00 0.  1.
       -3    1    3    3    0  502  0.31120157209E+03 -0.26186695325E+03  0.69582139613E+03  0.80597031285E+03  0.10100000352E+00 0. -1.
</event>
<event>
 5   0  0.2723209E-04  0.1300389E+04  0.7818609E-02  0.9029257E-01
        2   -1    0    0  501    0  0.00000000000E+00  0.00000000000E+00  0.93860653963E+03  0.93860653963E+03  0.25500000920E-02 0.  1.
       -2   -1    0    0    0  501  0.00000000000E+00  0.00000000000E+00 -0.45040467396E+03  0.45040467397E+03  0.25500000920E-02 0. -1.
    10030    2    1    2    0    0  0.00000000000E+00  0.00000000000E+00  0.48820186567E+03  0.13890112136E+04  0.13003888226E+04 0.  0.
        2    1    3    3  502    0 -0.39930155015E+03  0.24520324711E+03  0.72558270988E+03  0.86373411953E+03  0.25500000920E-02 0.  1.
       -2    1    3    3    0  502  0.39930155015E+03 -0.24520324711E+03 -0.23738084422E+03  0.52527709407E+03  0.25500000920E-02 0. -1.
</event>
<event>
 5   0  0.2756984E-04  0.1299387E+04  0.7818609E-02  0.9030051E-01
       -2   -1    0    0    0  501  0.00000000000E+00  0.00000000000E+00  0.69736365854E+03  0.69736365855E+03  0.25500000920E-02 0.  1.
        2   -1    0    0  501    0  0.00000000000E+00  0.00000000000E+00 -0.60528225683E+03  0.60528225684E+03  0.25500000920E-02 0. -1.
    10030    2    1    2    0    0  0.00000000000E+00  0.00000000000E+00  0.92081401708E+02  0.13026459154E+04  0.12993873157E+04 0.  0.
        3    1    3    3  502    0 -0.23934630772E+03 -0.80095706286E+01  0.65150149039E+03  0.69412175476E+03  0.10100000352E+00 0.  1.
       -3    1    3    3    0  502  0.23934630772E+03  0.80095706286E+01 -0.55942008869E+03  0.60852416063E+03  0.10100000352E+00 0. -1.
</event>
<event>
 5   0  0.2723209E-04  0.1302658E+04  0.7818609E-02  0.9027460E-01
       -2   -1    0    0    0  501  0.00000000000E+00  0.00000000000E+00  0.15758624450E+04  0.15758624450E+04  0.25500000920E-02 0.  1.
        2   -1    0    0  501    0  0.00000000000E+00  0.00000000000E+00 -0.26920469950E+03  0.26920469951E+03  0.25500000920E-02 0. -1.
    10030    2    1    2    0    0  0.00000000000E+00  0.00000000000E+00  0.13066577455E+04  0.18450671445E+04  0.13026581685E+04 0.  0.
        2    1    3    3  502    0  0.93275467203E+02  0.64226528399E+03  0.73122455696E+03  0.97769850185E+03  0.25500000920E-02 0. -1.
       -2    1    3    3    0  502 -0.93275467203E+02 -0.64226528399E+03  0.57543318856E+03  0.86736864268E+03  0.25500000920E-02 0.  1.
</event>
<event>
 5   0  0.2573071E-04  0.1300505E+04  0.7818609E-02  0.9029165E-01
        2   -1    0    0  501    0  0.00000000000E+00  0.00000000000E+00  0.25091438695E+04  0.25091438695E+04  0.25500000920E-02 0. -1.
       -2   -1    0    0    0  501  0.00000000000E+00  0.00000000000E+00 -0.16851506057E+03  0.16851506059E+03  0.25500000920E-02 0.  1.
    10030    2    1    2    0    0  0.00000000000E+00  0.00000000000E+00  0.23406288089E+04  0.26776589301E+04  0.13005053343E+04 0.  0.
        4    1    3    3  502    0 -0.26148246001E+03  0.50330045089E+03  0.51551246624E+03  0.76644578184E+03  0.12699999809E+01 0.  1.
       -4    1    3    3    0  502  0.26148246001E+03 -0.50330045089E+03  0.18251163427E+04  0.19112131483E+04  0.12699999809E+01 0. -1.
</event>
<event>
 5   0  0.1408341E-04  0.1301315E+04  0.7818609E-02  0.9028523E-01
        1   -1    0    0  501    0  0.00000000000E+00  0.00000000000E+00  0.10036478744E+04  0.10036478744E+04  0.50400001928E-02 0. -1.
       -1   -1    0    0    0  501  0.00000000000E+00  0.00000000000E+00 -0.42181622636E+03  0.42181622639E+03  0.50400001928E-02 0.  1.
    10030    2    1    2    0    0  0.00000000000E+00  0.00000000000E+00  0.58183164806E+03  0.14254641008E+04  0.13013146568E+04 0.  0.
        5    1    3    3  502    0 -0.36418963720E+03  0.31474490452E+03 -0.18860859073E+03  0.51700458147E+03  0.46999998093E+01 0.  1.
       -5    1    3    3    0  502  0.36418963720E+03 -0.31474490452E+03  0.77044023879E+03  0.90845951936E+03  0.46999998093E+01 0. -1.
</event>
<event>
 5   0  0.1430636E-04  0.1300214E+04  0.7818609E-02  0.9029395E-01
        1   -1    0    0  501    0  0.00000000000E+00  0.00000000000E+00  0.12805795441E+04  0.12805795441E+04  0.50400001928E-02 0.  1.
       -1   -1    0    0    0  501  0.00000000000E+00  0.00000000000E+00 -0.33003737878E+03  0.33003737882E+03  0.50400001928E-02 0. -1.
    10030    2    1    2    0    0  0.00000000000E+00  0.00000000000E+00  0.95054216533E+03  0.16106169229E+04  0.13002140071E+04 0.  0.
        4    1    3    3  502    0 -0.12384340142E+02 -0.74086417742E+02 -0.32464239700E+03  0.33322134987E+03  0.12699999809E+01 0. -1.
       -4    1    3    3    0  502  0.12384340142E+02  0.74086417742E+02  0.12751845623E+04  0.12773955731E+04  0.12699999809E+01 0.  1.
</event>
<event>
 5   0  0.2723209E-04  0.1300478E+04  0.7818609E-02  0.9029186E-01
       -2   -1    0    0    0  501  0.00000000000E+00  0.00000000000E+00  0.41188926713E+03  0.41188926714E+03  0.25500000920E-02 0. -1.
        2   -1    0    0  501    0  0.00000000000E+00  0.00000000000E+00 -0.10265163010E+04  0.10265163010E+04  0.25500000920E-02 0.  1.
    10030    2    1    2    0    0  0.00000000000E+00  0.00000000000E+00 -0.61462703383E+03  0.14384055681E+04  0.13004784457E+04 0.  0.
        2    1    3    3  502    0  0.11129526506E+03 -0.27780295216E+03  0.33118990761E+03  0.44637189782E+03  0.25500000920E-02 0. -1.
       -2    1    3    3    0  502 -0.11129526506E+03  0.27780295216E+03 -0.94581694144E+03  0.99203367028E+03  0.25500000920E-02 0.  1.
</event>
<event>
 5   0  0.2723209E-04  0.1297282E+04  0.7818609E-02  0.9031723E-01
       -2   -1    0    0    0  501  0.00000000000E+00  0.00000000000E+00  0.77491991981E+03  0.77491991981E+03  0.25500000920E-02 0.  1.
        2   -1    0    0  501    0  0.00000000000E+00  0.00000000000E+00 -0.54294006517E+03  0.54294006517E+03  0.25500000920E-02 0. -1.
    10030    2    1    2    0    0  0.00000000000E+00  0.00000000000E+00  0.23197985464E+03  0.13178599850E+04  0.12972818842E+04 0.  0.
        2    1    3    3  502    0  0.37229405407E+03 -0.72937970147E+02 -0.41848529888E+03  0.56484755073E+03  0.25500000920E-02 0. -1.
       -2    1    3    3    0  502 -0.37229405407E+03  0.72937970147E+02  0.65046515352E+03  0.75301243425E+03  0.25500000920E-02 0.  1.
</event>
<event>
 5   0  0.1002887E-04  0.1300824E+04  0.7818609E-02  0.9028912E-01
        3   -1    0    0  501    0  0.00000000000E+00  0.00000000000E+00  0.97571318000E+03  0.97571318523E+03  0.10100000352E+00 0.  1.
       -3   -1    0    0    0  501  0.00000000000E+00  0.00000000000E+00 -0.43356593983E+03  0.43356595159E+03  0.10100000352E+00 0. -1.
    10030    2    1    2    0    0  0.00000000000E+00  0.00000000000E+00  0.54214724017E+03  0.14092791368E+04  0.13008243753E+04 0.  0.
        1    1    3    3  502    0 -0.51916506171E+03 -0.29298862641E+03  0.55287854637E+03  0.81304943489E+03  0.50400001928E-02 0.  1.
       -1    1    3    3    0  502  0.51916506171E+03  0.29298862641E+03 -0.10731306196E+02  0.59622970193E+03  0.50400001928E-02 0. -1.
</event>
<event>
 5   0  0.2756984E-04  0.1297264E+04  0.7818609E-02  0.9031738E-01
        2   -1    0    0  501    0  0.00000000000E+00  0.00000000000E+00  0.14465823929E+04  0.14465823929E+04  0.25500000920E-02 0.  1.
       -2   -1    0    0    0  501  0.00000000000E+00  0.00000000000E+00 -0.29083960360E+03  0.29083960361E+03  0.25500000920E-02 0. -1.
    10030    2    1    2    0    0  0.00000000000E+00  0.00000000000E+00  0.11557427893E+04  0.17374219965E+04  0.12972639666E+04 0.  0.
        3    1    3    3  502    0 -0.74597365479E+02  0.35436507019E+03 -0.14284482188E+03  0.38928655672E+03  0.10100000352E+00 0. -1.
       -3    1    3    3    0  502  0.74597365479E+02 -0.35436507019E+03  0.12985876112E+04  0.13481354398E+04  0.10100000352E+00 0.  1.
</event>
<event>
 5   0  0.1476511E-04  0.1299456E+04  0.7818609E-02  0.9029997E-01
        1   -1    0    0  501    0  0.00000000000E+00  0.00000000000E+00  0.36066716986E+03  0.36066716989E+03  0.50400001928E-02 0. -1.
       -1   -1    0    0    0  501  0.00000000000E+00  0.00000000000E+00 -0.11704602252E+04  0.11704602252E+04  0.50400001928E-02 0.  1.
    10030    2    1    2    0    0  0.00000000000E+00  0.00000000000E+00 -0.80979305533E+03  0.15311273951E+04  0.12994561584E+04 0.  0.
        2    1    3    3  502    0 -0.26353289001E+03  0.53972326333E+03 -0.11293945695E+03  0.61115145917E+03  0.25500000920E-02 0. -1.
       -2    1    3    3    0  502  0.26353289001E+03 -0.53972326333E+03 -0.69685359839E+03  0.91997593593E+03  0.25500000920E-02 0.  1.
</event>
<event>
 5   0  0.1479690E-04  0.1284886E+04  0.7818609E-02  0.9041637E-01
       -1   -1    0    0    0  501  0.00000000000E+00  0.00000000000E+00  0.85363217900E+03  0.85363217901E+03  0.50400001928E-02 0. -1.
        1   -1    0    0  501    0  0.00000000000E+00  0.00000000000E+00 -0.48350199529E+03  0.48350199532E+03  0.50400001928E-02 0.  1.
    10030    2    1    2    0    0  0.00000000000E+00  0.00000000000E+00  0.37013018371E+03  0.13371341743E+04  0.12848857721E+04 0.  0.
        1    1    3    3  502    0  0.25560856764E+03  0.57609881402E+03  0.31465711227E+03  0.70443926757E+03  0.50400001928E-02 0. -1.
       -1    1    3    3    0  502 -0.25560856764E+03 -0.57609881402E+03  0.55473071441E+02  0.63269490676E+03  0.50400001928E-02 0.  1.
</event>
<event>
 5   0  0.2723209E-04  0.1292066E+04  0.7818609E-02  0.9035881E-01
        2   -1    0    0  501    0  0.00000000000E+00  0.00000000000E+00  0.89952631398E+03  0.89952631398E+03  0.25500000920E-02 0.  1.
       -2   -1    0    0    0  501  0.00000000000E+00  0.00000000000E+00 -0.46397578453E+03  0.46397578454E+03  0.25500000920E-02 0. -1.
    10030    2    1    2    0    0  0.00000000000E+00  0.00000000000E+00  0.43555052944E+03  0.13635020985E+04  0.12920656752E+04 0.  0.
        2    1    3    3  502    0 -0.96495217376E+02 -0.28863842103E+03  0.81913693833E+03  0.87384711982E+03  0.25500000920E-02 0.  1.
       -2    1    3    3    0  502  0.96495217376E+02  0.28863842103E+03 -0.38358640889E+03  0.48965497870E+03  0.25500000920E-02 0. -1.
</event>
<event>
 5   0  0.2661377E-04  0.1323027E+04  0.7818609E-02  0.9011501E-01
       -2   -1    0    0    0  501  0.00000000000E+00  0.00000000000E+00  0.57935102003E+03  0.57935102004E+03  0.25500000920E-02 0. -1.
        2   -1    0    0  501    0  0.00000000000E+00  0.00000000000E+00 -0.75532828090E+03  0.75532828090E+03  0.25500000920E-02 0.  1.
    10030    2    1    2    0    0  0.00000000000E+00  0.00000000000E+00 -0.17597726087E+03  0.13346793009E+04  0.13230271501E+04 0.  0.
        5    1    3    3  502    0 -0.91622339612E+02 -0.50555692019E+02 -0.74690855043E+03  0.75421814073E+03  0.46999998093E+01 0.  1.
       -5    1    3    3    0  502  0.91622339612E+02  0.50555692019E+02  0.57093128956E+03  0.58046116021E+03  0.46999998093E+01 0. -1.
</event>
<event>
 5   0  0.1476511E-04  0.1305477E+04  0.7818609E-02  0.9025233E-01
        1   -1    0    0  501    0  0.00000000000E+00  0.00000000000E+00  0.19323390710E+04  0.19323390710E+04  0.50400001928E-02 0. -1.
       -1   -1    0    0    0  501  0.00000000000E+00  0.00000000000E+00 -0.22049312639E+03  0.22049312644E+03  0.50400001928E-02 0.  1.
    10030    2    1    2    0    0  0.00000000000E+00  0.00000000000E+00  0.17118459446E+04  0.21528321974E+04  0.13054768984E+04 0.  0.
        2    1    3    3  502    0 -0.23707207491E+03  0.60422020004E+03  0.96996312035E+03  0.11670962572E+04  0.25500000920E-02 0.  1.
       -2    1    3    3    0  502  0.23707207491E+03 -0.60422020004E+03  0.74188282423E+03  0.98573594017E+03  0.25500000920E-02 0. -1.
</event>
<event>
 5   0  0.1408341E-04  0.1299840E+04  0.7818609E-02  0.9029692E-01
       -1   -1    0    0    0  501  0.00000000000E+00  0.00000000000E+00  0.22393826424E+03  0.22393826430E+03  0.50400001928E-02 0.  1.
        1   -1    0    0  501    0  0.00000000000E+00  0.00000000000E+00 -0.18862152813E+04  0.18862152813E+04  0.50400001928E-02 0. -1.
    10030    2    1    2    0    0  0.00000000000E+00  0.00000000000E+00 -0.16622770170E+04  0.21101535456E+04  0.12998396457E+04 0.  0.
        5    1    3    3  502    0 -0.37648766024E+02  0.46832127412E+03 -0.10217899937E+03  0.48083768913E+03  0.46999998093E+01 0.  1.
       -5    1    3    3    0  502  0.37648766024E+02 -0.46832127412E+03 -0.15600980177E+04  0.16293158565E+04  0.46999998093E+01 0. -1.
</event>
<event>
 5   0  0.2573071E-04  0.1301711E+04  0.7818609E-02  0.9028210E-01
       -2   -1    0    0    0  501  0.00000000000E+00  0.00000000000E+00  0.30490038380E+03  0.30490038381E+03  0.25500000920E-02 0.  1.
        2   -1    0    0  501    0  0.00000000000E+00  0.00000000000E+00 -0.13893474116E+04  0.13893474116E+04  0.25500000920E-02 0. -1.
    10030    2    1    2    0    0  0.00000000000E+00  0.00000000000E+00 -0.10844470278E+04  0.16942477954E+04  0.13017105040E+04 0.  0.
        4    1    3    3  502    0  0.56999393702E+03  0.29184612732E+03 -0.69369508011E+03  0.94407718294E+03  0.12699999809E+01 0.  1.
       -4    1    3    3    0  502 -0.56999393702E+03 -0.29184612732E+03 -0.39075194764E+03  0.75017061243E+03  0.12699999809E+01 0. -1.
</event>
<event>
 5   0  0.1475396E-04  0.1302455E+04  0.7818609E-02  0.9027620E-01
       -1   -1    0    0    0  501  0.00000000000E+00  0.00000000000E+00  0.32214244890E+03  0.32214244894E+03  0.50400001928E-02 0.  1.
        1   -1    0    0  501    0  0.00000000000E+00  0.00000000000E+00 -0.13164907824E+04  0.13164907824E+04  0.50400001928E-02 0. -1.
    10030    2    1    2    0    0  0.00000000000E+00  0.00000000000E+00 -0.99434833345E+03  0.16386332313E+04  0.13024554727E+04 0.  0.
        3    1    3    3  502    0 -0.31305208546E+03 -0.36228782141E+03 -0.10525178197E+04  0.11563078504E+04  0.10100000352E+00 0. -1.
       -3    1    3    3    0  502  0.31305208546E+03  0.36228782141E+03  0.58169486282E+02  0.48232538093E+03  0.10100000352E+00 0.  1.
</event>
<event>
 5   0  0.1476511E-04  0.1305360E+04  0.7818609E-02  0.9025326E-01
        1   -1    0    0  501    0  0.00000000000E+00  0.00000000000E+00  0.21396189635E+03  0.21396189641E+03  0.50400001928E-02 0. -1.
       -1   -1    0    0    0  501  0.00000000000E+00  0.00000000000E+00 -0.19909671202E+04  0.19909671202E+04  0.50400001928E-02 0.  1.
    10030    2    1    2    0    0  0.00000000000E+00  0.00000000000E+00 -0.17770052239E+04  0.22049290166E+04  0.13053598748E+04 0.  0.
        2    1    3    3  502    0 -0.11396339368E+03 -0.64250828694E+03 -0.91157317739E+03  0.11210576308E+04  0.25500000920E-02 0.  1.
       -2    1    3    3    0  502  0.11396339368E+03  0.64250828694E+03 -0.86543204646E+03  0.10838713858E+04  0.25500000920E-02 0. -1.
</event>
<event>
 5   0  0.2723209E-04  0.1299188E+04  0.7818609E-02  0.9030209E-01
        2   -1    0    0  501    0  0.00000000000E+00  0.00000000000E+00  0.10840618894E+04  0.10840618894E+04  0.25500000920E-02 0.  1.
       -2   -1    0    0    0  501  0.00000000000E+00  0.00000000000E+00 -0.38925120043E+03  0.38925120043E+03  0.25500000920E-02 0. -1.
    10030    2    1    2    0    0  0.00000000000E+00  0.00000000000E+00  0.69481068900E+03  0.14733130899E+04  0.12991880415E+04 0.  0.
        2    1    3    3  502    0  0.19498171948E+03  0.28248456389E+03 -0.27801490041E+03  0.44170995532E+03  0.25500000920E-02 0. -1.
       -2    1    3    3    0  502 -0.19498171948E+03 -0.28248456389E+03  0.97282558942E+03  0.10316031345E+04  0.25500000920E-02 0.  1.
</event>
<event>
 5   0  0.2661377E-04  0.1299663E+04  0.7818609E-02  0.9029833E-01
       -2   -1    0    0    0  501  0.00000000000E+00  0.00000000000E+00  0.19460894697E+03  0.19460894699E+03  0.25500000920E-02 0. -1.
        2   -1    0    0  501    0  0.00000000000E+00  0.00000000000E+00 -0.21698941125E+04  0.21698941125E+04  0.25500000920E-02 0.  1.
    10030    2    1    2    0    0  0.00000000000E+00  0.00000000000E+00 -0.19752851655E+04  0.23645030595E+04  0.12996627382E+04 0.  0.
        5    1    3    3  502    0 -0.40153148904E+03 -0.42117689910E+03 -0.15138044176E+04  0.16218025224E+04  0.46999998093E+01 0. -1.
       -5    1    3    3    0  502  0.40153148904E+03  0.42117689910E+03 -0.46148074791E+03  0.74270053704E+03  0.46999998093E+01 0.  1.
</event>
<event>
 5   0  0.1430636E-04  0.1298463E+04  0.7818609E-02  0.9030785E-01
       -1   -1    0    0    0  501  0.00000000000E+00  0.00000000000E+00  0.44397457781E+03  0.44397457784E+03  0.50400001928E-02 0.  1.
        1   -1    0    0  501    0  0.00000000000E+00  0.00000000000E+00 -0.94938152402E+03  0.94938152404E+03  0.50400001928E-02 0. -1.
    10030    2    1    2    0    0  0.00000000000E+00  0.00000000000E+00 -0.50540694621E+03  0.13933561019E+04  0.12984625699E+04 0.  0.
        4    1    3    3  502    0  0.23578594696E+03 -0.30130814574E+03  0.31014594429E+03  0.49251774703E+03  0.12699999809E+01 0.  1.
       -4    1    3    3    0  502 -0.23578594696E+03  0.30130814574E+03 -0.81555289050E+03  0.90083835485E+03  0.12699999809E+01 0. -1.
</event>
<event>
 5   0  0.2661377E-04  0.1297755E+04  0.7818609E-02  0.9031347E-01
       -2   -1    0    0    0  501  0.00000000000E+00  0.00000000000E+00  0.47303079630E+03  0.47303079631E+03  0.25500000920E-02 0. -1.
        2   -1    0    0  501    0  0.00000000000E+00  0.00000000000E+00 -0.89009436983E+03  0.89009436983E+03  0.25500000920E-02 0.  1.
    10030    2    1    2    0    0  0.00000000000E+00  0.00000000000E+00 -0.41706357352E+03  0.13631251661E+04  0.12977550594E+04 0.  0.
        5    1    3    3  502    0 -0.12648143671E+03  0.97690509712E+02  0.45201669978E+03  0.47946029699E+03  0.46999998093E+01 0. -1.
       -5    1    3    3    0  502  0.12648143671E+03 -0.97690509712E+02 -0.86908027330E+03  0.88366486914E+03  0.46999998093E+01 0.  1.
</event>
<event>
 5   0  0.1475396E-04  0.1302502E+04  0.7818609E-02  0.9027584E-01
        1   -1    0    0  501    0  0.00000000000E+00  0.00000000000E+00  0.43326671474E+03  0.43326671477E+03  0.50400001928E-02 0. -1.
       -1   -1    0    0    0  501  0.00000000000E+00  0.00000000000E+00 -0.97890654866E+03  0.97890654868E+03  0.50400001928E-02 0.  1.
    10030    2    1    2    0    0  0.00000000000E+00  0.00000000000E+00 -0.54563983392E+03  0.14121732634E+04  0.13025016306E+04 0.  0.
        3    1    3    3  502    0 -0.15868123491E+03 -0.29898241446E+03  0.33040642924E+03  0.47301018715E+03  0.10100000352E+00 0. -1.
       -3    1    3    3    0  502  0.15868123491E+03  0.29898241446E+03 -0.87604626316E+03  0.93916307629E+03  0.10100000352E+00 0.  1.
</event>
<event>
 5   0  0.2723209E-04  0.1298406E+04  0.7818609E-02  0.9030830E-01
       -2   -1    0    0    0  501  0.00000000000E+00  0.00000000000E+00  0.53221973942E+03  0.53221973942E+03  0.25500000920E-02 0.  1.
        2   -1    0    0  501    0  0.00000000000E+00  0.00000000000E+00 -0.79189935149E+03  0.79189935149E+03  0.25500000920E-02 0. -1.
    10030    2    1    2    0    0  0.00000000000E+00  0.00000000000E+00 -0.25967961207E+03  0.13241190909E+04  0.12984058942E+04 0.  0.
        2    1    3    3  502    0 -0.38992695990E+03 -0.50389597031E+03 -0.28331629365E+01  0.63715163798E+03  0.25500000920E-02 0.  1.
       -2    1    3    3    0  502  0.38992695990E+03  0.50389597031E+03 -0.25684644914E+03  0.68696745294E+03  0.25500000920E-02 0. -1.
</event>
<event>
 5   0  0.2756984E-04  0.1298364E+04  0.7818609E-02  0.9030863E-01
        2   -1    0    0  501    0  0.00000000000E+00  0.00000000000E+00  0.68614320856E+03  0.68614320857E+03  0.25500000920E-02 0. -1.
       -2   -1    0    0    0  501  0.00000000000E+00  0.00000000000E+00 -0.61421196446E+03  0.61421196446E+03  0.25500000920E-02 0.  1.
    10030    2    1    2    0    0  0.00000000000E+00  0.00000000000E+00  0.71931244107E+02  0.13003551730E+04  0.12983641524E+04 0.  0.
        3    1    3    3  502    0  0.34171958684E+03  0.37874955378E+03  0.43809579273E+03  0.67242206562E+03  0.10100000352E+00 0. -1.
       -3    1    3    3    0  502 -0.34171958684E+03 -0.37874955378E+03 -0.36616454863E+03  0.62793310742E+03  0.10100000352E+00 0.  1.
</event>
<event>
 5   0  0.2794825E-04  0.1299235E+04  0.7818609E-02  0.9030172E-01
        2   -1    0    0  501    0  0.00000000000E+00  0.00000000000E+00  0.18036154847E+04  0.18036154847E+04  0.25500000920E-02 0.  1.
       -2   -1    0    0    0  501  0.00000000000E+00  0.00000000000E+00 -0.23397622765E+03  0.23397622767E+03  0.25500000920E-02 0. -1.
    10030    2    1    2    0    0  0.00000000000E+00  0.00000000000E+00  0.15696392571E+04  0.20375917124E+04  0.12992353863E+04 0.  0.
        1    1    3    3  502    0 -0.15440178356E+03 -0.59559574980E+03  0.11116473875E+04  0.12705644896E+04  0.50400001928E-02 0.  1.
       -1    1    3    3    0  502  0.15440178356E+03  0.59559574980E+03  0.45799186955E+03  0.76702722282E+03  0.50400001928E-02 0. -1.
</event>
<event>
 5   0  0.1479690E-04  0.1298683E+04  0.7818609E-02  0.9030610E-01
        1   -1    0    0  501    0  0.00000000000E+00  0.00000000000E+00  0.89780389463E+03  0.89780389464E+03  0.50400001928E-02 0.  1.
       -1   -1    0    0    0  501  0.00000000000E+00  0.00000000000E+00 -0.46963993707E+03  0.46963993710E+03  0.50400001928E-02 0. -1.
    10030    2    1    2    0    0  0.00000000000E+00  0.00000000000E+00  0.42816395755E+03  0.13674438317E+04  0.12986832787E+04 0.  0.
        1    1    3    3  502    0 -0.91887886192E+02 -0.42879553268E+03  0.71832739538E+03  0.84160753292E+03  0.50400001928E-02 0.  1.
       -1    1    3    3    0  502  0.91887886192E+02  0.42879553268E+03 -0.29016343783E+03  0.52583629882E+03  0.50400001928E-02 0. -1.
</event>
<event>
 5   0  0.2756984E-04  0.1306509E+04  0.7818609E-02  0.9024420E-01
        2   -1    0    0  501    0  0.00000000000E+00  0.00000000000E+00  0.46762167761E+03  0.46762167762E+03  0.25500000920E-02 0.  1.
       -2   -1    0    0    0  501  0.00000000000E+00  0.00000000000E+00 -0.91257770946E+03  0.91257770946E+03  0.25500000920E-02 0. -1.
    10030    2    1    2    0    0  0.00000000000E+00  0.00000000000E+00 -0.44495603185E+03  0.13801993871E+04  0.13065085066E+04 0.  0.
        3    1    3    3  502    0 -0.10614285076E+03 -0.27185722678E+02 -0.90280127691E+03  0.90942593105E+03  0.10100000352E+00 0. -1.
       -3    1    3    3    0  502  0.10614285076E+03  0.27185722678E+02  0.45784524505E+03  0.47077345603E+03  0.10100000352E+00 0.  1.
</event>
<event>
 5   0  0.1430636E-04  0.1302105E+04  0.7818609E-02  0.9027898E-01
       -1   -1    0    0    0  501  0.00000000000E+00  0.00000000000E+00  0.38452582877E+03  0.38452582880E+03  0.50400001928E-02 0.  1.
        1   -1    0    0  501    0  0.00000000000E+00  0.00000000000E+00 -0.11023168508E+04  0.11023168509E+04  0.50400001928E-02 0. -1.
    10030    2    1    2    0    0  0.00000000000E+00  0.00000000000E+00 -0.71779102207E+03  0.14868426797E+04  0.13021049123E+04 0.  0.
        4    1    3    3  502    0  0.93669966492E+02 -0.14154040049E+03  0.35881703574E+03  0.39693705500E+03  0.12699999809E+01 0.  1.
       -4    1    3    3    0  502 -0.93669966492E+02  0.14154040049E+03 -0.10766080578E+04  0.10899056247E+04  0.12699999809E+01 0. -1.
</event>
<event>
 5   0  0.2661377E-04  0.1300801E+04  0.7818609E-02  0.9028930E-01
        2   -1    0    0  501    0  0.00000000000E+00  0.00000000000E+00  0.54790137247E+03  0.54790137248E+03  0.25500000920E-02 0. -1.
       -2   -1    0    0    0  501  0.00000000000E+00  0.00000000000E+00 -0.77207463486E+03  0.77207463486E+03  0.25500000920E-02 0.  1.
    10030    2    1    2    0    0  0.00000000000E+00  0.00000000000E+00 -0.22417326239E+03  0.13199760073E+04  0.13008009104E+04 0.  0.
        5    1    3    3  502    0  0.20113680683E+03 -0.36653310698E+03 -0.61762335143E+03  0.74584397014E+03  0.46999998093E+01 0.  1.
       -5    1    3    3    0  502 -0.20113680683E+03  0.36653310698E+03  0.39345008904E+03  0.57413203720E+03  0.46999998093E+01 0. -1.
</event>
<event>
 5   0  0.1430636E-04  0.1302210E+04  0.7818609E-02  0.9027814E-01
        1   -1    0    0  501    0  0.00000000000E+00  0.00000000000E+00  0.88119255355E+03  0.88119255357E+03  0.50400001928E-02 0.  1.
       -1   -1    0    0    0  501  0.00000000000E+00  0.00000000000E+00 -0.48109571551E+03  0.48109571554E+03  0.50400001928E-02 0. -1.
    10030    2    1    2    0    0  0.00000000000E+00  0.00000000000E+00  0.40009683804E+03  0.13622882691E+04  0.13022103702E+04 0.  0.
        4    1    3    3  502    0 -0.26031178283E+03 -0.11670512312E+03 -0.41223488020E+03  0.50131977758E+03  0.12699999809E+01 0. -1.
       -4    1    3    3    0  502  0.26031178283E+03  0.11670512312E+03  0.81233171824E+03  0.86096849152E+03  0.12699999809E+01 0.  1.
</event>
<event>
 5   0  0.1475396E-04  0.1302831E+04  0.7818609E-02  0.9027323E-01
        1   -1    0    0  501    0  0.00000000000E+00  0.00000000000E+00  0.12335816849E+04  0.12335816850E+04  0.50400001928E-02 0. -1.
       -1   -1    0    0    0  501  0.00000000000E+00  0.00000000000E+00 -0.34399186665E+03  0.34399186669E+03  0.50400001928E-02 0.  1.
    10030    2    1    2    0    0  0.00000000000E+00  0.00000000000E+00  0.88958981829E+03  0.15775735516E+04  0.13028308662E+04 0.  0.
        3    1    3    3  502    0 -0.14205883730E+03 -0.58199896081E+03  0.75454997669E+03  0.96345689118E+03  0.10100000352E+00 0. -1.
       -3    1    3    3    0  502  0.14205883730E+03  0.58199896081E+03  0.13503984160E+03  0.61411666046E+03  0.10100000352E+00 0.  1.
</event>
<event>
 5   0  0.2794825E-04  0.1295915E+04  0.7818609E-02  0.9032811E-01
        2   -1    0    0  501    0  0.00000000000E+00  0.00000000000E+00  0.15915220601E+04  0.15915220601E+04  0.25500000920E-02 0.  1.
       -2   -1    0    0    0  501  0.00000000000E+00  0.00000000000E+00 -0.26380322966E+03  0.26380322967E+03  0.25500000920E-02 0. -1.
    10030    2    1    2    0    0  0.00000000000E+00  0.00000000000E+00  0.13277188304E+04  0.18553252897E+04  0.12959145952E+04 0.  0.
        1    1    3    3  502    0 -0.55279619440E+03 -0.33670788761E+03  0.70663805275E+03  0.95827614587E+03  0.50400001928E-02 0.  1.
       -1    1    3    3    0  502  0.55279619440E+03  0.33670788761E+03  0.62108077764E+03  0.89704914386E+03  0.50400001928E-02 0. -1.
</event>
<event>
 5   0  0.2573071E-04  0.1304490E+04  0.7818609E-02  0.9026012E-01
       -2   -1    0    0    0  501  0.00000000000E+00  0.00000000000E+00  0.13103210618E+04  0.13103210618E+04  0.25500000920E-02 0.  1.
        2   -1    0    0  501    0  0.00000000000E+00  0.00000000000E+00 -0.32467124290E+03  0.32467124291E+03  0.25500000920E-02 0. -1.
    10030    2    1    2    0    0  0.00000000000E+00  0.00000000000E+00  0.98564981888E+03  0.16349923047E+04  0.13044900425E+04 0.  0.
        4    1    3    3  502    0 -0.25856414431E+03  0.19384989998E+03  0.12029254664E+04  0.12455779747E+04  0.12699999809E+01 0.  1.
       -4    1    3    3    0  502  0.25856414431E+03 -0.19384989998E+03 -0.21727564757E+03  0.38941432995E+03  0.12699999809E+01 0. -1.
</event>
<event>
 5   0  0.2756984E-04  0.1294212E+04  0.7818609E-02  0.9034167E-01
        2   -1    0    0  501    0  0.00000000000E+00  0.00000000000E+00  0.46043785366E+03  0.46043785367E+03  0.25500000920E-02 0. -1.
       -2   -1    0    0    0  501  0.00000000000E+00  0.00000000000E+00 -0.90945272000E+03  0.90945272001E+03  0.25500000920E-02 0.  1.
    10030    2    1    2    0    0  0.00000000000E+00  0.00000000000E+00 -0.44901486634E+03  0.13698905737E+04  0.12942124376E+04 0.  0.
        3    1    3    3  502    0  0.25155924280E+03  0.17101166491E+03  0.38004671361E+03  0.48678799995E+03  0.10100000352E+00 0. -1.
       -3    1    3    3    0  502 -0.25155924280E+03 -0.17101166491E+03 -0.82906157994E+03  0.88310257372E+03  0.10100000352E+00 0.  1.
</event>
<event>
 5   0  0.1430636E-04  0.1298192E+04  0.7818609E-02  0.9031000E-01
        1   -1    0    0  501    0  0.00000000000E+00  0.00000000000E+00  0.12675581152E+04  0.12675581153E+04  0.50400001928E-02 0.  1.
       -1   -1    0    0    0  501  0.00000000000E+00  0.00000000000E+00 -0.33239139279E+03  0.33239139283E+03  0.50400001928E-02 0. -1.
    10030    2    1    2    0    0  0.00000000000E+00  0.00000000000E+00  0.93516672246E+03  0.15999495081E+04  0.12981916768E+04 0.  0.
        4    1    3    3  502    0 -0.10024400178E+03  0.28523708472E+03  0.11754775003E+04  0.12137372125E+04  0.12699999809E+01 0.  1.
       -4    1    3    3    0  502  0.10024400178E+03 -0.28523708472E+03 -0.24031077786E+03  0.38621229557E+03  0.12699999809E+01 0. -1.
</event>
<event>
 5   0  0.1476511E-04  0.1300706E+04  0.7818609E-02  0.9029005E-01
       -1   -1    0    0    0  501  0.00000000000E+00  0.00000000000E+00  0.50799146548E+03  0.50799146551E+03  0.50400001928E-02 0. -1.
        1   -1    0    0  501    0  0.00000000000E+00  0.00000000000E+00 -0.83261106639E+03  0.83261106640E+03  0.50400001928E-02 0.  1.
    10030    2    1    2    0    0  0.00000000000E+00  0.00000000000E+00 -0.32461960091E+03  0.13406025319E+04  0.13007064478E+04 0.  0.
        2    1    3    3  502    0 -0.13798206675E+03  0.24373038904E+03 -0.76726789290E+03  0.81678857286E+03  0.25500000920E-02 0.  1.
       -2    1    3    3    0  502  0.13798206675E+03 -0.24373038904E+03  0.44264829199E+03  0.52381395905E+03  0.25500000920E-02 0. -1.
</event>
<event>
 5   0  0.2661377E-04  0.1299481E+04  0.7818609E-02  0.9029977E-01
       -2   -1    0    0    0  501  0.00000000000E+00  0.00000000000E+00  0.97924901120E+03  0.97924901121E+03  0.25500000920E-02 0. -1.
        2   -1    0    0  501    0  0.00000000000E+00  0.00000000000E+00 -0.43110860865E+03  0.43110860866E+03  0.25500000920E-02 0.  1.
    10030    2    1    2    0    0  0.00000000000E+00  0.00000000000E+00  0.54814040255E+03  0.14103576199E+04  0.12994809406E+04 0.  0.
        5    1    3    3  502    0  0.34940448778E+03 -0.26808834545E+03 -0.24437585779E+03  0.50368294285E+03  0.46999998093E+01 0.  1.
       -5    1    3    3    0  502 -0.34940448778E+03  0.26808834545E+03  0.79251626035E+03  0.90667467702E+03  0.46999998093E+01 0. -1.
</event>
<event>
 5   0  0.1479690E-04  0.1299084E+04  0.7818609E-02  0.9030292E-01
        1   -1    0    0  501    0  0.00000000000E+00  0.00000000000E+00  0.10097950354E+04  0.10097950354E+04  0.50400001928E-02 0.  1.
       -1   -1    0    0    0  501  0.00000000000E+00  0.00000000000E+00 -0.41781254775E+03  0.41781254778E+03  0.50400001928E-02 0. -1.
    10030    2    1    2    0    0  0.00000000000E+00  0.00000000000E+00  0.59198248764E+03  0.14276075832E+04  0.12990843490E+04 0.  0.
        1    1    3    3  502    0 -0.30760745640E+03 -0.35424715475E+02 -0.33148718176E+03  0.45360887270E+03  0.50400001928E-02 0. -1.
       -1    1    3    3    0  502  0.30760745640E+03  0.35424715475E+02  0.92346966939E+03  0.97399871048E+03  0.50400001928E-02 0.  1.
</event>
<event>
 5   0  0.2756984E-04  0.1300513E+04  0.7818609E-02  0.9029158E-01
        2   -1    0    0  501    0  0.00000000000E+00  0.00000000000E+00  0.14085214632E+04  0.14085214632E+04  0.25500000920E-02 0. -1.
       -2   -1    0    0    0  501  0.00000000000E+00  0.00000000000E+00 -0.30019693210E+03  0.30019693211E+03  0.25500000920E-02 0.  1.
    10030    2    1    2    0    0  0.00000000000E+00  0.00000000000E+00  0.11083245311E+04  0.17087183953E+04  0.13005134710E+04 0.  0.
        3    1    3    3  502    0  0.36758558979E+03  0.52380891176E+03  0.70590753451E+03  0.95278559988E+03  0.10100000352E+00 0. -1.
       -3    1    3    3    0  502 -0.36758558979E+03 -0.52380891176E+03  0.40241699661E+03  0.75593279544E+03  0.10100000352E+00 0.  1.
</event>
<event>
 5   0  0.1476511E-04  0.1303341E+04  0.7818609E-02  0.9026920E-01
        1   -1    0    0  501    0  0.00000000000E+00  0.00000000000E+00  0.10641394332E+04  0.10641394332E+04  0.50400001928E-02 0.  1.
       -1   -1    0    0    0  501  0.00000000000E+00  0.00000000000E+00 -0.39907782273E+03  0.39907782276E+03  0.50400001928E-02 0. -1.
    10030    2    1    2    0    0  0.00000000000E+00  0.00000000000E+00  0.66506161044E+03  0.14632172559E+04  0.13033410116E+04 0.  0.
        2    1    3    3  502    0 -0.13385642261E+02  0.25288939385E+03 -0.34157617097E+03  0.42521347758E+03  0.25500000920E-02 0. -1.
       -2    1    3    3    0  502  0.13385642261E+02 -0.25288939385E+03  0.10066377814E+04  0.10380037784E+04  0.25500000920E-02 0.  1.
</event>
<event>
 5   0  0.1430636E-04  0.1301864E+04  0.7818609E-02  0.9028088E-01
       -1   -1    0    0    0  501  0.00000000000E+00  0.00000000000E+00  0.85252931754E+03  0.85252931756E+03  0.50400001928E-02 0. -1.
        1   -1    0    0  501    0  0.00000000000E+00  0.00000000000E+00 -0.49700627531E+03  0.49700627534E+03  0.50400001928E-02 0.  1.
    10030    2    1    2    0    0  0.00000000000E+00  0.00000000000E+00  0.35552304223E+03  0.13495355929E+04  0.13018639264E+04 0.  0.
        4    1    3    3  502    0  0.31971463469E+03  0.19904679196E+03  0.72812049838E+03  0.81975493050E+03  0.12699999809E+01 0. -1.
       -4    1    3    3    0  502 -0.31971463469E+03 -0.19904679196E+03 -0.37259745615E+03  0.52978066240E+03  0.12699999809E+01 0.  1.
</event>
<event>
 5   0  0.1002887E-04  0.1301519E+04  0.7818609E-02  0.9028361E-01
        3   -1    0    0  501    0  0.00000000000E+00  0.00000000000E+00  0.57396950742E+03  0.57396951631E+03  0.10100000352E+00 0. -1.
       -3   -1    0    0    0  501  0.00000000000E+00  0.00000000000E+00 -0.73782301235E+03  0.73782301927E+03  0.10100000352E+00 0.  1.
    10030    2    1    2    0    0  0.00000000000E+00  0.00000000000E+00 -0.16385350493E+03  0.13117925356E+04  0.13015189915E+04 0.  0.
        2    1    3    3  502    0  0.28324767530E+02  0.49798891916E+03 -0.50318845742E+03  0.70851526430E+03  0.25500000920E-02 0.  1.
       -2    1    3    3    0  502 -0.28324767530E+02 -0.49798891916E+03  0.33933495248E+03  0.60327727128E+03  0.25500000920E-02 0. -1.
</event>
<event>
 5   0  0.2573071E-04  0.1301649E+04  0.7818609E-02  0.9028259E-01
       -2   -1    0    0    0  501  0.00000000000E+00  0.00000000000E+00  0.35320279361E+03  0.35320279362E+03  0.25500000920E-02 0.  1.
        2   -1    0    0  501    0  0.00000000000E+00  0.00000000000E+00 -0.11992330918E+04  0.11992330918E+04  0.25500000920E-02 0. -1.
    10030    2    1    2    0    0  0.00000000000E+00  0.00000000000E+00 -0.84603029815E+03  0.15524358854E+04  0.13016489207E+04 0.  0.
        4    1    3    3  502    0 -0.64605643557E+03 -0.57548477465E+02 -0.48691058633E+03  0.81103901089E+03  0.12699999809E+01 0.  1.
       -4    1    3    3    0  502  0.64605643557E+03  0.57548477465E+02 -0.35911971181E+03  0.74139687450E+03  0.12699999809E+01 0. -1.
</event>
<event>
 5   0  0.1408341E-04  0.1300407E+04  0.7818609E-02  0.9029243E-01
       -1   -1    0    0    0  501  0.00000000000E+00  0.00000000000E+00  0.37501505561E+03  0.37501505564E+03  0.50400001928E-02 0. -1.
        1   -1    0    0  501    0  0.00000000000E+00  0.00000000000E+00 -0.11273266942E+04  0.11273266942E+04  0.50400001928E-02 0.  1.
    10030    2    1    2    0    0  0.00000000000E+00  0.00000000000E+00 -0.75231163857E+03  0.15023417498E+04  0.13004068332E+04 0.  0.
        5    1    3    3  502    0 -0.36462260883E+03 -0.83402552424E+02 -0.99056460966E+03  0.10588418052E+04  0.46999998093E+01 0.  1.
       -5    1    3    3    0  502  0.36462260883E+03  0.83402552424E+02  0.23825297109E+03  0.44349994459E+03  0.46999998093E+01 0. -1.
</event>
<event>
 5   0  0.2723209E-04  0.1301762E+04  0.7818609E-02  0.9028169E-01
        2   -1    0    0  501    0  0.00000000000E+00  0.00000000000E+00  0.21388184128E+04  0.21388184128E+04  0.25500000920E-02 0.  1.
       -2   -1    0    0    0  501  0.00000000000E+00  0.00000000000E+00 -0.19807494622E+03  0.19807494624E+03  0.25500000920E-02 0. -1.
    10030    2    1    2    0    0  0.00000000000E+00  0.00000000000E+00  0.19407434666E+04  0.23368933590E+04  0.13017624086E+04 0.  0.
        2    1    3    3  502    0  0.74835344440E+02  0.56203068279E+03  0.39656768954E+03  0.69191383103E+03  0.25500000920E-02 0. -1.
       -2    1    3    3    0  502 -0.74835344440E+02 -0.56203068279E+03  0.15441757770E+04  0.16449795280E+04  0.25500000920E-02 0.  1.
</event>
<event>
 5   0  0.1430636E-04  0.1299456E+04  0.7818609E-02  0.9029996E-01
       -1   -1    0    0    0  501  0.00000000000E+00  0.00000000000E+00  0.66065978262E+03  0.66065978263E+03  0.50400001928E-02 0. -1.
        1   -1    0    0  501    0  0.00000000000E+00  0.00000000000E+00 -0.63897756542E+03  0.63897756544E+03  0.50400001928E-02 0.  1.
    10030    2    1    2    0    0  0.00000000000E+00  0.00000000000E+00  0.21682217197E+02  0.12996373481E+04  0.12994564702E+04 0.  0.
        4    1    3    3  502    0 -0.44985596926E+03 -0.30207569472E+03 -0.34771269594E+03  0.64383681958E+03  0.12699999809E+01 0.  1.
       -4    1    3    3    0  502  0.44985596926E+03  0.30207569472E+03  0.36939491314E+03  0.65580052850E+03  0.12699999809E+01 0. -1.
</event>
<event>
 5   0  0.1479690E-04  0.1292394E+04  0.7818609E-02  0.9035619E-01
        1   -1    0    0  501    0  0.00000000000E+00  0.00000000000E+00  0.49074237975E+03  0.49074237978E+03  0.50400001928E-02 0. -1.
       -1   -1    0    0    0  501  0.00000000000E+00  0.00000000000E+00 -0.85089577032E+03  0.85089577033E+03  0.50400001928E-02 0.  1.
    10030    2    1    2    0    0  0.00000000000E+00  0.00000000000E+00 -0.36015339057E+03  0.13416381501E+04  0.12923940812E+04 0.  0.
        1    1    3    3  502    0 -0.28643106917E+03  0.10696883456E+03 -0.77105325653E+03  0.82946260518E+03  0.50400001928E-02 0.  1.
       -1    1    3    3    0  502  0.28643106917E+03 -0.10696883456E+03  0.41089986597E+03  0.51217554494E+03  0.50400001928E-02 0. -1.
</event>
<event>
 5   0  0.2723209E-04  0.1297739E+04  0.7818609E-02  0.9031360E-01
       -2   -1    0    0    0  501  0.00000000000E+00  0.00000000000E+00  0.33064526910E+03  0.33064526911E+03  0.25500000920E-02 0.  1.
        2   -1    0    0  501    0  0.00000000000E+00  0.00000000000E+00 -0.12733632633E+04  0.12733632633E+04  0.25500000920E-02 0. -1.
    10030    2    1    2    0    0  0.00000000000E+00  0.00000000000E+00 -0.94271799420E+03  0.16040085324E+04  0.12977388626E+04 0.  0.
        2    1    3    3  502    0  0.11986980888E+03 -0.71752922260E+01  0.31679135984E+03  0.33878757589E+03  0.25500000920E-02 0.  1.
       -2    1    3    3    0  502 -0.11986980888E+03  0.71752922260E+01 -0.12595093540E+04  0.12652209565E+04  0.25500000920E-02 0. -1.
</event>
<event>
 5   0  0.2794825E-04  0.1299092E+04  0.7818609E-02  0.9030286E-01
       -2   -1    0    0    0  501  0.00000000000E+00  0.00000000000E+00  0.20485913041E+03  0.20485913042E+03  0.25500000920E-02 0.  1.
        2   -1    0    0  501    0  0.00000000000E+00  0.00000000000E+00 -0.20595123800E+04  0.20595123800E+04  0.25500000920E-02 0. -1.
    10030    2    1    2    0    0  0.00000000000E+00  0.00000000000E+00 -0.18546532496E+04  0.22643715105E+04  0.12990918601E+04 0.  0.
        1    1    3    3  502    0  0.52655924222E+03 -0.36128603645E+03 -0.11344310985E+04  0.13018164820E+04  0.50400001928E-02 0. -1.
       -1    1    3    3    0  502 -0.52655924222E+03  0.36128603645E+03 -0.72022215117E+03  0.96255502843E+03  0.50400001928E-02 0.  1.
</event>
<event>
 5   0  0.1476511E-04  0.1298050E+04  0.7818609E-02  0.9031113E-01
       -1   -1    0    0    0  501  0.00000000000E+00  0.00000000000E+00  0.40390300554E+03  0.40390300557E+03  0.50400001928E-02 0.  1.
        1   -1    0    0  501    0  0.00000000000E+00  0.00000000000E+00 -0.10429071433E+04  0.10429071433E+04  0.50400001928E-02 0. -1.
    10030    2    1    2    0    0  0.00000000000E+00  0.00000000000E+00 -0.63900413773E+03  0.14468101488E+04  0.12980498137E+04 0.  0.
        2    1    3    3  502    0 -0.30674461270E+03 -0.52673388499E+03 -0.56796725867E+03  0.83314323495E+03  0.25500000920E-02 0. -1.
       -2    1    3    3    0  502  0.30674461270E+03  0.52673388499E+03 -0.71036879056E+02  0.61366691390E+03  0.25500000920E-02 0.  1.
</event>
<event>
 5   0  0.1479690E-04  0.1299216E+04  0.7818609E-02  0.9030187E-01
       -1   -1    0    0    0  501  0.00000000000E+00  0.00000000000E+00  0.52477251505E+03  0.52477251507E+03  0.50400001928E-02 0.  1.
        1   -1    0    0  501    0  0.00000000000E+00  0.00000000000E+00 -0.80413998334E+03  0.80413998336E+03  0.50400001928E-02 0. -1.
    10030    2    1    2    0    0  0.00000000000E+00  0.00000000000E+00 -0.27936746830E+03  0.13289124984E+04  0.12992160121E+04 0.  0.
        1    1    3    3  502    0 -0.15688923688E+03  0.50940224377E+03 -0.51950091749E+03  0.74430241294E+03  0.50400001928E-02 0. -1.
       -1    1    3    3    0  502  0.15688923688E+03 -0.50940224377E+03  0.24013344920E+03  0.58461008549E+03  0.50400001928E-02 0.  1.
</event>
<event>
 5   0  0.1430636E-04  0.1321816E+04  0.7818609E-02  0.9012442E-01
        1   -1    0    0  501    0  0.00000000000E+00  0.00000000000E+00  0.82204156118E+03  0.82204156120E+03  0.50400001928E-02 0.  1.
       -1   -1    0    0    0  501  0.00000000000E+00  0.00000000000E+00 -0.53135897268E+03  0.53135897270E+03  0.50400001928E-02 0. -1.
    10030    2    1    2    0    0  0.00000000000E+00  0.00000000000E+00  0.29068258850E+03  0.13534005339E+04  0.13218156596E+04 0.  0.
        4    1    3    3  502    0  0.13159311933E+03 -0.63009676861E+03  0.29878507899E+03  0.70965683481E+03  0.12699999809E+01 0.  1.
       -4    1    3    3    0  502 -0.13159311933E+03  0.63009676861E+03 -0.81024904887E+01  0.64374369909E+03  0.12699999809E+01 0. -1.
</event>
<event>
 5   0  0.2573071E-04  0.1306428E+04  0.7818609E-02  0.9024483E-01
       -2   -1    0    0    0  501  0.00000000000E+00  0.00000000000E+00  0.19516004651E+03  0.19516004653E+03  0.25500000920E-02 0.  1.
        2   -1    0    0  501    0  0.00000000000E+00  0.00000000000E+00 -0.21863534651E+04  0.21863534651E+04  0.25500000920E-02 0. -1.
    10030    2    1    2    0    0  0.00000000000E+00  0.00000000000E+00 -0.19911934185E+04  0.23815135116E+04  0.13064284809E+04 0.  0.
        4    1    3    3  502    0 -0.26635174218E+01  0.64408115028E+03 -0.11939484804E+04  0.13565995021E+04  0.12699999809E+01 0. -1.
       -4    1    3    3    0  502  0.26635174218E+01 -0.64408115028E+03 -0.79724493817E+03  0.10249140095E+04  0.12699999809E+01 0.  1.
</event>
<event>
 5   0  0.1475396E-04  0.1316978E+04  0.7818609E-02  0.9016209E-01
       -1   -1    0    0    0  501  0.00000000000E+00  0.00000000000E+00  0.37182081964E+03  0.37182081968E+03  0.50400001928E-02 0. -1.
        1   -1    0    0  501    0  0.00000000000E+00  0.00000000000E+00 -0.11661737630E+04  0.11661737630E+04  0.50400001928E-02 0.  1.
    10030    2    1    2    0    0  0.00000000000E+00  0.00000000000E+00 -0.79435294337E+03  0.15379945827E+04  0.13169778805E+04 0.  0.
        3    1    3    3  502    0  0.22993488003E+02  0.23028933963E+03  0.32276019034E+03  0.39715995658E+03  0.10100000352E+00 0. -1.
       -3    1    3    3    0  502 -0.22993488003E+02 -0.23028933963E+03 -0.11171131337E+04  0.11408346261E+04  0.10100000352E+00 0.  1.
</event>
<event>
 5   0  0.1479690E-04  0.1298007E+04  0.7818609E-02  0.9031147E-01
        1   -1    0    0  501    0  0.00000000000E+00  0.00000000000E+00  0.15244675457E+04  0.15244675457E+04  0.50400001928E-02 0.  1.
       -1   -1    0    0    0  501  0.00000000000E+00  0.00000000000E+00 -0.27629684914E+03  0.27629684918E+03  0.50400001928E-02 0. -1.
    10030    2    1    2    0    0  0.00000000000E+00  0.00000000000E+00  0.12481706966E+04  0.18007643949E+04  0.12980070563E+04 0.  0.
        1    1    3    3  502    0  0.42253442665E+03  0.45248468088E+03  0.35390176200E+03  0.71310881730E+03  0.50400001928E-02 0.  1.
       -1    1    3    3    0  502 -0.42253442665E+03 -0.45248468088E+03  0.89426893461E+03  0.10876555776E+04  0.50400001928E-02 0. -1.
</event>
<event>
 5   0  0.1479690E-04  0.1303537E+04  0.7818609E-02  0.9026765E-01
        1   -1    0    0  501    0  0.00000000000E+00  0.00000000000E+00  0.14321201417E+04  0.14321201417E+04  0.50400001928E-02 0. -1.
       -1   -1    0    0    0  501  0.00000000000E+00  0.00000000000E+00 -0.29662474815E+03  0.29662474820E+03  0.50400001928E-02 0.  1.
    10030    2    1    2    0    0  0.00000000000E+00  0.00000000000E+00  0.11354953936E+04  0.17287448899E+04  0.13035371516E+04 0.  0.
        1    1    3    3  502    0 -0.39738228145E+03 -0.12864100177E+03  0.12312975641E+04  0.13002133965E+04  0.50400001928E-02 0. -1.
       -1    1    3    3    0  502  0.39738228145E+03  0.12864100177E+03 -0.95802170577E+02  0.42853149343E+03  0.50400001928E-02 0.  1.
</event>
<event>
 5   0  0.2573071E-04  0.1307980E+04  0.7818609E-02  0.9023261E-01
        2   -1    0    0  501    0  0.00000000000E+00  0.00000000000E+00  0.73752803281E+03  0.73752803282E+03  0.25500000920E-02 0. -1.
       -2   -1    0    0    0  501  0.00000000000E+00  0.00000000000E+00 -0.57991422418E+03  0.57991422418E+03  0.25500000920E-02 0.  1.
    10030    2    1    2    0    0  0.00000000000E+00  0.00000000000E+00  0.15761380863E+03  0.13174422570E+04  0.13079801175E+04 0.  0.
        4    1    3    3  502    0  0.63733863123E+02  0.28158814366E+03  0.66986328716E+03  0.72943287858E+03  0.12699999809E+01 0. -1.
       -4    1    3    3    0  502 -0.63733863123E+02 -0.28158814366E+03 -0.51224947853E+03  0.58800937842E+03  0.12699999809E+01 0.  1.
</event>
<event>
 5   0  0.2756984E-04  0.1299737E+04  0.7818609E-02  0.9029774E-01
       -2   -1    0    0    0  501  0.00000000000E+00  0.00000000000E+00  0.43959235032E+03  0.43959235033E+03  0.25500000920E-02 0. -1.
        2   -1    0    0  501    0  0.00000000000E+00  0.00000000000E+00 -0.96072888324E+03  0.96072888325E+03  0.25500000920E-02 0.  1.
    10030    2    1    2    0    0  0.00000000000E+00  0.00000000000E+00 -0.52113653292E+03  0.14003212336E+04  0.12997370008E+04 0.  0.
        3    1    3    3  502    0 -0.50065840480E+03  0.37486155106E+03 -0.45071746663E+03  0.77092559024E+03  0.10100000352E+00 0.  1.
       -3    1    3    3    0  502  0.50065840480E+03 -0.37486155106E+03 -0.70419066286E+02  0.62939564334E+03  0.10100000352E+00 0. -1.
</event>
<event>
 5   0  0.2661377E-04  0.1273970E+04  0.7818609E-02  0.9050465E-01
       -2   -1    0    0    0  501  0.00000000000E+00  0.00000000000E+00  0.44899147380E+03  0.44899147381E+03  0.25500000920E-02 0. -1.
        2   -1    0    0  501    0  0.00000000000E+00  0.00000000000E+00 -0.90369232255E+03  0.90369232255E+03  0.25500000920E-02 0.  1.
    10030    2    1    2    0    0  0.00000000000E+00  0.00000000000E+00 -0.45470084875E+03  0.13526837964E+04  0.12739704043E+04 0.  0.
        5    1    3    3  502    0 -0.34955855194E+03  0.61542246995E+02 -0.78894325202E+03  0.86511974565E+03  0.46999998093E+01 0.  1.
       -5    1    3    3    0  502  0.34955855194E+03 -0.61542246995E+02  0.33424240328E+03  0.48756405071E+03  0.46999998093E+01 0. -1.
</event>
<event>
 5   0  0.2756984E-04  0.1295118E+04  0.7818609E-02  0.9033445E-01
       -2   -1    0    0    0  501  0.00000000000E+00  0.00000000000E+00  0.25520888990E+03  0.25520888991E+03  0.25500000920E-02 0. -1.
        2   -1    0    0  501    0  0.00000000000E+00  0.00000000000E+00 -0.16430962963E+04  0.16430962963E+04  0.25500000920E-02 0.  1.
    10030    2    1    2    0    0  0.00000000000E+00  0.00000000000E+00 -0.13878874064E+04  0.18983051862E+04  0.12951181904E+04 0.  0.
        3    1    3    3  502    0  0.34066816838E+03  0.82918349296E+02  0.10404652893E+03  0.36572659731E+03  0.10100000352E+00 0. -1.
       -3    1    3    3    0  502 -0.34066816838E+03 -0.82918349296E+02 -0.14919339353E+04  0.15325785889E+04  0.10100000352E+00 0.  1.
</event>
<event>
 5   0  0.1408341E-04  0.1317126E+04  0.7818609E-02  0.9016093E-01
       -1   -1    0    0    0  501  0.00000000000E+00  0.00000000000E+00  0.23700472376E+03  0.23700472381E+03  0.50400001928E-02 0. -1.
        1   -1    0    0  501    0  0.00000000000E+00  0.00000000000E+00 -0.18299447181E+04  0.18299447181E+04  0.50400001928E-02 0.  1.
    10030    2    1    2    0    0  0.00000000000E+00  0.00000000000E+00 -0.15929399943E+04  0.20669494419E+04  0.13171264821E+04 0.  0.
        5    1    3    3  502    0  0.18011679180E+03  0.19278438453E+03 -0.17433569752E+04  0.17632139719E+04  0.46999998093E+01 0.  1.
       -5    1    3    3    0  502 -0.18011679180E+03 -0.19278438453E+03  0.15041698089E+03  0.30373547002E+03  0.46999998093E+01 0. -1.
</event>
<event>
 5   0  0.2661377E-04  0.1304341E+04  0.7818609E-02  0.9026130E-01
       -2   -1    0    0    0  501  0.00000000000E+00  0.00000000000E+00  0.36109108275E+03  0.36109108276E+03  0.25500000920E-02 0. -1.
        2   -1    0    0  501    0  0.00000000000E+00  0.00000000000E+00 -0.11778913651E+04  0.11778913651E+04  0.25500000920E-02 0.  1.
    10030    2    1    2    0    0  0.00000000000E+00  0.00000000000E+00 -0.81680028233E+03  0.15389824478E+04  0.13043405512E+04 0.  0.
        5    1    3    3  502    0  0.19253475851E+03  0.41720130978E+03  0.13764620295E+03  0.47968232540E+03  0.46999998093E+01 0. -1.
       -5    1    3    3    0  502 -0.19253475851E+03 -0.41720130978E+03 -0.95444648528E+03  0.10593001224E+04  0.46999998093E+01 0.  1.
</event>
<event>
 5   0  0.2723209E-04  0.1299048E+04  0.7818609E-02  0.9030321E-01
       -2   -1    0    0    0  501  0.00000000000E+00  0.00000000000E+00  0.54907299340E+03  0.54907299340E+03  0.25500000920E-02 0.  1.
        2   -1    0    0  501    0  0.00000000000E+00  0.00000000000E+00 -0.76835190640E+03  0.76835190640E+03  0.25500000920E-02 0. -1.
    10030    2    1    2    0    0  0.00000000000E+00  0.00000000000E+00 -0.21927891300E+03  0.13174248998E+04  0.12990477762E+04 0.  0.
        2    1    3    3  502    0 -0.27638630420E+02 -0.24293033891E+03  0.50062257170E+03  0.55713732846E+03  0.25500000920E-02 0.  1.
       -2    1    3    3    0  502  0.27638630420E+02  0.24293033891E+03 -0.71990148471E+03  0.76028757135E+03  0.25500000920E-02 0. -1.
</event>
<event>
 5   0  0.2661377E-04  0.1299517E+04  0.7818609E-02  0.9029948E-01
        2   -1    0    0  501    0  0.00000000000E+00  0.00000000000E+00  0.59410440550E+03  0.59410440551E+03  0.25500000920E-02 0.  1.
       -2   -1    0    0    0  501  0.00000000000E+00  0.00000000000E+00 -0.71062582764E+03  0.71062582765E+03  0.25500000920E-02 0. -1.
    10030    2    1    2    0    0  0.00000000000E+00  0.00000000000E+00 -0.11652142214E+03  0.13047302332E+04  0.12995167331E+04 0.  0.
        5    1    3    3  502    0 -0.43496417535E+03  0.31866455123E+02  0.42528806533E+03  0.60918087077E+03  0.46999998093E+01 0.  1.
       -5    1    3    3    0  502  0.43496417535E+03 -0.31866455123E+02 -0.54180948748E+03  0.69554936239E+03  0.46999998093E+01 0. -1.
</event>
<event>
 5   0  0.1479690E-04  0.1298320E+04  0.7818609E-02  0.9030898E-01
       -1   -1    0    0    0  501  0.00000000000E+00  0.00000000000E+00  0.28499307863E+03  0.28499307868E+03  0.50400001928E-02 0.  1.
        1   -1    0    0  501    0  0.00000000000E+00  0.00000000000E+00 -0.14786635220E+04  0.14786635220E+04  0.50400001928E-02 0. -1.
    10030    2    1    2    0    0  0.00000000000E+00  0.00000000000E+00 -0.11936704434E+04  0.17636566007E+04  0.12983202524E+04 0.  0.
        1    1    3    3  502    0 -0.87548242497E+02  0.57114919658E+03 -0.19493566033E+03  0.60981637500E+03  0.50400001928E-02 0.  1.
       -1    1    3    3    0  502  0.87548242497E+02 -0.57114919658E+03 -0.99873478302E+03  0.11538402257E+04  0.50400001928E-02 0. -1.
</event>
<event>
 5   0  0.2723209E-04  0.1300065E+04  0.7818609E-02  0.9029514E-01
       -2   -1    0    0    0  501  0.00000000000E+00  0.00000000000E+00  0.42902359298E+03  0.42902359299E+03  0.25500000920E-02 0. -1.
        2   -1    0    0  501    0  0.00000000000E+00  0.00000000000E+00 -0.98489268949E+03  0.98489268949E+03  0.25500000920E-02 0.  1.
    10030    2    1    2    0    0  0.00000000000E+00  0.00000000000E+00 -0.55586909651E+03  0.14139162825E+04  0.13000649220E+04 0.  0.
        2    1    3    3  502    0 -0.45023721275E+02  0.26641466849E+03  0.36505813872E+03  0.45417106438E+03  0.25500000920E-02 0. -1.
       -2    1    3    3    0  502  0.45023721275E+02 -0.26641466849E+03 -0.92092723523E+03  0.95974521810E+03  0.25500000920E-02 0.  1.
</event>
<event>
 5   0  0.1408341E-04  0.1300167E+04  0.7818609E-02  0.9029433E-01
       -1   -1    0    0    0  501  0.00000000000E+00  0.00000000000E+00  0.53702718429E+03  0.53702718431E+03  0.50400001928E-02 0. -1.
        1   -1    0    0  501    0  0.00000000000E+00  0.00000000000E+00 -0.78694098887E+03  0.78694098888E+03  0.50400001928E-02 0.  1.
    10030    2    1    2    0    0  0.00000000000E+00  0.00000000000E+00 -0.24991380458E+03  0.13239681732E+04  0.13001672254E+04 0.  0.
        5    1    3    3  502    0  0.88624934369E+02 -0.34191199023E+03 -0.68068378244E+03  0.76688375242E+03  0.46999998093E+01 0.  1.
       -5    1    3    3    0  502 -0.88624934369E+02  0.34191199023E+03  0.43076997786E+03  0.55708442078E+03  0.46999998093E+01 0. -1.
</event>
<event>
 5   0  0.1475396E-04  0.1310012E+04  0.7818609E-02  0.9021663E-01
       -1   -1    0    0    0  501  0.00000000000E+00  0.00000000000E+00  0.24999458230E+03  0.24999458235E+03  0.50400001928E-02 0. -1.
        1   -1    0    0  501    0  0.00000000000E+00  0.00000000000E+00 -0.17161684771E+04  0.17161684771E+04  0.50400001928E-02 0.  1.
    10030    2    1    2    0    0  0.00000000000E+00  0.00000000000E+00 -0.14661738948E+04  0.19661630594E+04  0.13100119414E+04 0.  0.
        3    1    3    3  502    0  0.24663723316E+03  0.51007251678E+03 -0.23978334897E+03  0.61522350557E+03  0.10100000352E+00 0. -1.
       -3    1    3    3    0  502 -0.24663723316E+03 -0.51007251678E+03 -0.12263905458E+04  0.13509395538E+04  0.10100000352E+00 0.  1.
</event>
<event>
 5   0  0.2573071E-04  0.1297982E+04  0.7818609E-02  0.9031167E-01
        2   -1    0    0  501    0  0.00000000000E+00  0.00000000000E+00  0.12098850060E+04  0.12098850060E+04  0.25500000920E-02 0.  1.
       -2   -1    0    0    0  501  0.00000000000E+00  0.00000000000E+00 -0.34812357599E+03  0.34812357599E+03  0.25500000920E-02 0. -1.
    10030    2    1    2    0    0  0.00000000000E+00  0.00000000000E+00  0.86176142999E+03  0.15580085820E+04  0.12979822723E+04 0.  0.
        4    1    3    3  502    0 -0.17233687330E+03  0.25244025721E+03 -0.25631469965E+03  0.39890464965E+03  0.12699999809E+01 0. -1.
       -4    1    3    3    0  502  0.17233687330E+03 -0.25244025721E+03  0.11180761296E+04  0.11591039323E+04  0.12699999809E+01 0.  1.
</event>
<event>
 5   0  0.1408341E-04  0.1298907E+04  0.7818609E-02  0.9030432E-01
        1   -1    0    0  501    0  0.00000000000E+00  0.00000000000E+00  0.46796664059E+03  0.46796664061E+03  0.50400001928E-02 0. -1.
       -1   -1    0    0    0  501  0.00000000000E+00  0.00000000000E+00 -0.90132498084E+03  0.90132498085E+03  0.50400001928E-02 0.  1.
    10030    2    1    2    0    0  0.00000000000E+00  0.00000000000E+00 -0.43335834025E+03  0.13692916215E+04  0.12989072690E+04 0.  0.
        5    1    3    3  502    0  0.64627782065E+03 -0.61024337603E+02 -0.23692786027E+03  0.69105418906E+03  0.46999998093E+01 0. -1.
       -5    1    3    3    0  502 -0.64627782065E+03  0.61024337603E+02 -0.19643047998E+03  0.67823743240E+03  0.46999998093E+01 0.  1.
</event>
<event>
 5   0  0.1479690E-04  0.1307094E+04  0.7818609E-02  0.9023958E-01
        1   -1    0    0  501    0  0.00000000000E+00  0.00000000000E+00  0.57338189547E+03  0.57338189550E+03  0.50400001928E-02 0. -1.
       -1   -1    0    0    0  501  0.00000000000E+00  0.00000000000E+00 -0.74492023721E+03  0.74492023723E+03  0.50400001928E-02 0.  1.
    10030    2    1    2    0    0  0.00000000000E+00  0.00000000000E+00 -0.17153834174E+03  0.13183021327E+04  0.13070941475E+04 0.  0.
        1    1    3    3  502    0 -0.43637995271E+03  0.27291805366E+03 -0.49197826453E+03  0.71200726116E+03  0.50400001928E-02 0.  1.
       -1    1    3    3    0  502  0.43637995271E+03 -0.27291805366E+03  0.32043992279E+03  0.60629487157E+03  0.50400001928E-02 0. -1.
</event>
<event>
 5   0  0.1475396E-04  0.1300156E+04  0.7818609E-02  0.9029441E-01
        1   -1    0    0  501    0  0.00000000000E+00  0.00000000000E+00  0.13346385617E+04  0.13346385617E+04  0.50400001928E-02 0. -1.
       -1   -1    0    0    0  501  0.00000000000E+00  0.00000000000E+00 -0.31664120326E+03  0.31664120330E+03  0.50400001928E-02 0.  1.
    10030    2    1    2    0    0  0.00000000000E+00  0.00000000000E+00  0.10179973584E+04  0.16512797650E+04  0.13001562370E+04 0.  0.
        3    1    3    3  502    0 -0.17355344483E+03 -0.33739883182E+03  0.11794218451E+04  0.12389490179E+04  0.10100000352E+00 0. -1.
       -3    1    3    3    0  502  0.17355344483E+03  0.33739883182E+03 -0.16142448669E+03  0.41233074713E+03  0.10100000352E+00 0.  1.
</event>
<event>
 5   0  0.2661377E-04  0.1299467E+04  0.7818609E-02  0.9029988E-01
        2   -1    0    0  501    0  0.00000000000E+00  0.00000000000E+00  0.13204408354E+04  0.13204408354E+04  0.25500000920E-02 0.  1.
       -2   -1    0    0    0  501  0.00000000000E+00  0.00000000000E+00 -0.31970675013E+03  0.31970675014E+03  0.25500000920E-02 0. -1.
    10030    2    1    2    0    0  0.00000000000E+00  0.00000000000E+00  0.10007340853E+04  0.16401475856E+04  0.12994673497E+04 0.  0.
        5    1    3    3  502    0 -0.68890905403E+01  0.50358700458E+03  0.10184477742E+04  0.11361801307E+04  0.46999998093E+01 0.  1.
       -5    1    3    3    0  502  0.68890905403E+01 -0.50358700458E+03 -0.17713688897E+02  0.50396745482E+03  0.46999998093E+01 0. -1.
</event>
<event>
 5   0  0.1430636E-04  0.1302384E+04  0.7818609E-02  0.9027677E-01
        1   -1    0    0  501    0  0.00000000000E+00  0.00000000000E+00  0.17279921177E+04  0.17279921177E+04  0.50400001928E-02 0. -1.
       -1   -1    0    0    0  501  0.00000000000E+00  0.00000000000E+00 -0.24540103683E+03  0.24540103689E+03  0.50400001928E-02 0.  1.
    10030    2    1    2    0    0  0.00000000000E+00  0.00000000000E+00  0.14825910809E+04  0.19733931546E+04  0.13023840561E+04 0.  0.
        4    1    3    3  502    0  0.22318838137E+03 -0.53840763111E+03  0.11813702314E+04  0.13173204118E+04  0.12699999809E+01 0. -1.
       -4    1    3    3    0  502 -0.22318838137E+03  0.53840763111E+03  0.30122084952E+03  0.65607274284E+03  0.12699999809E+01 0.  1.
</event>
<event>
 5   0  0.1408341E-04  0.1299270E+04  0.7818609E-02  0.9030145E-01
        1   -1    0    0  501    0  0.00000000000E+00  0.00000000000E+00  0.54186927039E+03  0.54186927041E+03  0.50400001928E-02 0.  1.
       -1   -1    0    0    0  501  0.00000000000E+00  0.00000000000E+00 -0.77883243121E+03  0.77883243123E+03  0.50400001928E-02 0. -1.
    10030    2    1    2    0    0  0.00000000000E+00  0.00000000000E+00 -0.23696316082E+03  0.13207017016E+04  0.12992695814E+04 0.  0.
        5    1    3    3  502    0  0.50899188916E+03  0.45759104633E+02  0.28917828072E+03  0.58720763527E+03  0.46999998093E+01 0.  1.
       -5    1    3    3    0  502 -0.50899188916E+03 -0.45759104633E+02 -0.52614144155E+03  0.73349406637E+03  0.46999998093E+01 0. -1.
</event>
<event>
 5   0  0.2661377E-04  0.1298676E+04  0.7818609E-02  0.9030615E-01
        2   -1    0    0  501    0  0.00000000000E+00  0.00000000000E+00  0.12760790504E+04  0.12760790504E+04  0.25500000920E-02 0.  1.
       -2   -1    0    0    0  501  0.00000000000E+00  0.00000000000E+00 -0.33041851306E+03  0.33041851307E+03  0.25500000920E-02 0. -1.
    10030    2    1    2    0    0  0.00000000000E+00  0.00000000000E+00  0.94566053737E+03  0.16064975635E+04  0.12986764684E+04 0.  0.
        5    1    3    3  502    0 -0.54292213737E+03  0.53600299059E+02  0.90839829264E+03  0.10596447458E+04  0.46999998093E+01 0.  1.
       -5    1    3    3    0  502  0.54292213737E+03 -0.53600299059E+02  0.37262244725E+02  0.54685281767E+03  0.46999998093E+01 0. -1.
</event>
<event>
 5   0  0.1408341E-04  0.1309945E+04  0.7818609E-02  0.9021716E-01
        1   -1    0    0  501    0  0.00000000000E+00  0.00000000000E+00  0.98372057515E+03  0.98372057516E+03  0.50400001928E-02 0.  1.
       -1   -1    0    0    0  501  0.00000000000E+00  0.00000000000E+00 -0.43608836958E+03  0.43608836961E+03  0.50400001928E-02 0. -1.
    10030    2    1    2    0    0  0.00000000000E+00  0.00000000000E+00  0.54763220557E+03  0.14198089448E+04  0.13099451924E+04 0.  0.
        5    1    3    3  502    0 -0.59642680990E+03  0.21769500754E+03  0.99549130472E+02  0.64268824111E+03  0.46999998093E+01 0. -1.
       -5    1    3    3    0  502  0.59642680990E+03 -0.21769500754E+03  0.44808307509E+03  0.77712070366E+03  0.46999998093E+01 0.  1.
</event>
<event>
 5   0  0.2573071E-04  0.1298006E+04  0.7818609E-02  0.9031148E-01
        2   -1    0    0  501    0  0.00000000000E+00  0.00000000000E+00  0.18812279645E+04  0.18812279645E+04  0.25500000920E-02 0.  1.
       -2   -1    0    0    0  501  0.00000000000E+00  0.00000000000E+00 -0.22389883760E+03  0.22389883762E+03  0.25500000920E-02 0. -1.
    10030    2    1    2    0    0  0.00000000000E+00  0.00000000000E+00  0.16573291269E+04  0.21051268022E+04  0.12980057851E+04 0.  0.
        4    1    3    3  502    0  0.33683057928E+03  0.54300625900E+03  0.10128139558E+04  0.11975409631E+04  0.12699999809E+01 0. -1.
       -4    1    3    3    0  502 -0.33683057928E+03 -0.54300625900E+03  0.64451517114E+03  0.90758583901E+03  0.12699999809E+01 0.  1.
</event>
<event>
 5   0  0.1430636E-04  0.1298469E+04  0.7818609E-02  0.9030780E-01
       -1   -1    0    0    0  501  0.00000000000E+00  0.00000000000E+00  0.14043801212E+04  0.14043801212E+04  0.50400001928E-02 0.  1.
        1   -1    0    0  501    0  0.00000000000E+00  0.00000000000E+00 -0.30013640019E+03  0.30013640023E+03  0.50400001928E-02 0. -1.
    10030    2    1    2    0    0  0.00000000000E+00  0.00000000000E+00  0.11042437210E+04  0.17045165215E+04  0.12984692436E+04 0.  0.
        4    1    3    3  502    0  0.64768450442E+02  0.24010736387E+03 -0.23513072972E+03  0.34224928242E+03  0.12699999809E+01 0. -1.
       -4    1    3    3    0  502 -0.64768450442E+02 -0.24010736387E+03  0.13393744507E+04  0.13622672390E+04  0.12699999809E+01 0.  1.
</event>
<event>
 5   0  0.1476511E-04  0.1295339E+04  0.7818609E-02  0.9033269E-01
       -1   -1    0    0    0  501  0.00000000000E+00  0.00000000000E+00  0.27428252710E+03  0.27428252714E+03  0.50400001928E-02 0.  1.
        1   -1    0    0  501    0  0.00000000000E+00  0.00000000000E+00 -0.15293574221E+04  0.15293574221E+04  0.50400001928E-02 0. -1.
    10030    2    1    2    0    0  0.00000000000E+00  0.00000000000E+00 -0.12550748950E+04  0.18036399492E+04  0.12953393665E+04 0.  0.
        2    1    3    3  502    0  0.24934956158E+03 -0.58044465726E+03 -0.82633895101E+03  0.10401573275E+04  0.25500000920E-02 0. -1.
       -2    1    3    3    0  502 -0.24934956158E+03  0.58044465726E+03 -0.42873594396E+03  0.76348262171E+03  0.25500000920E-02 0.  1.
</event>
<event>
 5   0  0.1475396E-04  0.1302476E+04  0.7818609E-02  0.9027604E-01
       -1   -1    0    0    0  501  0.00000000000E+00  0.00000000000E+00  0.47417556048E+03  0.47417556050E+03  0.50400001928E-02 0. -1.
        1   -1    0    0  501    0  0.00000000000E+00  0.00000000000E+00 -0.89441732656E+03  0.89441732657E+03  0.50400001928E-02 0.  1.
    10030    2    1    2    0    0  0.00000000000E+00  0.00000000000E+00 -0.42024176608E+03  0.13685928871E+04  0.13024758534E+04 0.  0.
        3    1    3    3  502    0  0.92556163828E+02 -0.47987608734E+03  0.24215047983E+03  0.54542145882E+03  0.10100000352E+00 0. -1.
       -3    1    3    3    0  502 -0.92556163828E+02  0.47987608734E+03 -0.66239224591E+03  0.82317142826E+03  0.10100000352E+00 0.  1.
</event>
<event>
 5   0  0.2756984E-04  0.1298102E+04  0.7818609E-02  0.9031072E-01
       -2   -1    0    0    0  501  0.00000000000E+00  0.00000000000E+00  0.21536291524E+03  0.21536291526E+03  0.25500000920E-02 0.  1.
        2   -1    0    0  501    0  0.00000000000E+00  0.00000000000E+00 -0.19560791689E+04  0.19560791689E+04  0.25500000920E-02 0. -1.
    10030    2    1    2    0    0  0.00000000000E+00  0.00000000000E+00 -0.17407162537E+04  0.21714420842E+04  0.12981015558E+04 0.  0.
        3    1    3    3  502    0 -0.22832938565E+02 -0.70508892106E+02 -0.19489776399E+04  0.19503862945E+04  0.10100000352E+00 0. -1.
       -3    1    3    3    0  502  0.22832938565E+02  0.70508892106E+02  0.20826138620E+03  0.22105578964E+03  0.10100000352E+00 0.  1.
</event>
<event>
 5   0  0.1476511E-04  0.1300799E+04  0.7818609E-02  0.9028932E-01
        1   -1    0    0  501    0  0.00000000000E+00  0.00000000000E+00  0.12010092200E+04  0.12010092200E+04  0.50400001928E-02 0.  1.
       -1   -1    0    0    0  501  0.00000000000E+00  0.00000000000E+00 -0.35222014193E+03  0.35222014197E+03  0.50400001928E-02 0. -1.
    10030    2    1    2    0    0  0.00000000000E+00  0.00000000000E+00  0.84878907806E+03  0.15532293620E+04  0.13007991974E+04 0.  0.
        2    1    3    3  502    0 -0.34913413957E+03 -0.36845208349E+03 -0.61174668097E+02  0.51126698042E+03  0.25500000920E-02 0. -1.
       -2    1    3    3    0  502  0.34913413957E+03  0.36845208349E+03  0.90996374615E+03  0.10419623815E+04  0.25500000920E-02 0.  1.
</event>
<event>
 5   0  0.1476511E-04  0.1298047E+04  0.7818609E-02  0.9031116E-01
       -1   -1    0    0    0  501  0.00000000000E+00  0.00000000000E+00  0.10968021994E+04  0.10968021994E+04  0.50400001928E-02 0.  1.
        1   -1    0    0  501    0  0.00000000000E+00  0.00000000000E+00 -0.38405392543E+03  0.38405392546E+03  0.50400001928E-02 0. -1.
    10030    2    1    2    0    0  0.00000000000E+00  0.00000000000E+00  0.71274827399E+03  0.14808561249E+04  0.12980465171E+04 0.  0.
        2    1    3    3  502    0  0.12571890084E+03  0.39305983780E+02  0.10813930145E+04  0.10893856316E+04  0.25500000920E-02 0.  1.
       -2    1    3    3    0  502 -0.12571890084E+03 -0.39305983780E+02 -0.36864474056E+03  0.39147049331E+03  0.25500000920E-02 0. -1.
</event>
<event>
 5   0  0.2661377E-04  0.1298861E+04  0.7818609E-02  0.9030469E-01
       -2   -1    0    0    0  501  0.00000000000E+00  0.00000000000E+00  0.38384539721E+03  0.38384539722E+03  0.25500000920E-02 0. -1.
        2   -1    0    0  501    0  0.00000000000E+00  0.00000000000E+00 -0.10987749353E+04  0.10987749353E+04  0.25500000920E-02 0.  1.
    10030    2    1    2    0    0  0.00000000000E+00  0.00000000000E+00 -0.71492953806E+03  0.14826203325E+04  0.12988605799E+04 0.  0.
        5    1    3    3  502    0  0.14364372980E+03 -0.63106921777E+03 -0.29646528013E+03  0.71189580070E+03  0.46999998093E+01 0. -1.
       -5    1    3    3    0  502 -0.14364372980E+03  0.63106921777E+03 -0.41846425792E+03  0.77072453178E+03  0.46999998093E+01 0.  1.
</event>
<event>
 5   0  0.2573071E-04  0.1300290E+04  0.7818609E-02  0.9029335E-01
       -2   -1    0    0    0  501  0.00000000000E+00  0.00000000000E+00  0.69211437602E+03  0.69211437602E+03  0.25500000920E-02 0. -1.
        2   -1    0    0  501    0  0.00000000000E+00  0.00000000000E+00 -0.61072031073E+03  0.61072031073E+03  0.25500000920E-02 0.  1.
    10030    2    1    2    0    0  0.00000000000E+00  0.00000000000E+00  0.81394065291E+02  0.13028346868E+04  0.13002896705E+04 0.  0.
        4    1    3    3  502    0  0.39027250324E+03 -0.22008870046E+03  0.51271891161E+03  0.68090671761E+03  0.12699999809E+01 0. -1.
       -4    1    3    3    0  502 -0.39027250324E+03  0.22008870046E+03 -0.43132484632E+03  0.62192796915E+03  0.12699999809E+01 0.  1.
</event>
<event>
 5   0  0.1476511E-04  0.1299457E+04  0.7818609E-02  0.9029996E-01
       -1   -1    0    0    0  501  0.00000000000E+00  0.00000000000E+00  0.79582409150E+03  0.79582409152E+03  0.50400001928E-02 0.  1.
        1   -1    0    0  501    0  0.00000000000E+00  0.00000000000E+00 -0.53045252026E+03  0.53045252028E+03  0.50400001928E-02 0. -1.
    10030    2    1    2    0    0  0.00000000000E+00  0.00000000000E+00  0.26537157124E+03  0.13262766118E+04  0.12994566481E+04 0.  0.
        2    1    3    3  502    0  0.57758097429E+03 -0.29715613456E+03  0.14867255861E+03  0.66633706175E+03  0.25500000920E-02 0. -1.
       -2    1    3    3    0  502 -0.57758097429E+03  0.29715613456E+03  0.11669901264E+03  0.65993955005E+03  0.25500000920E-02 0.  1.
</event>
<event>
 5   0  0.1475396E-04  0.1301901E+04  0.7818609E-02  0.9028059E-01
       -1   -1    0    0    0  501  0.00000000000E+00  0.00000000000E+00  0.49042108914E+03  0.49042108917E+03  0.50400001928E-02 0.  1.
        1   -1    0    0  501    0  0.00000000000E+00  0.00000000000E+00 -0.86402607908E+03  0.86402607910E+03  0.50400001928E-02 0. -1.
    10030    2    1    2    0    0  0.00000000000E+00  0.00000000000E+00 -0.37360498995E+03  0.13544471683E+04  0.13019010881E+04 0.  0.
        3    1    3    3  502    0 -0.11554855730E+03  0.55793247212E+03  0.14069894308E+03  0.58688696980E+03  0.10100000352E+00 0. -1.
       -3    1    3    3    0  502  0.11554855730E+03 -0.55793247212E+03 -0.51430393303E+03  0.76756019846E+03  0.10100000352E+00 0.  1.
</event>
<event>
 5   0  0.1475396E-04  0.1300770E+04  0.7818609E-02  0.9028954E-01
       -1   -1    0    0    0  501  0.00000000000E+00  0.00000000000E+00  0.12509251327E+04  0.12509251327E+04  0.50400001928E-02 0. -1.
        1   -1    0    0  501    0  0.00000000000E+00  0.00000000000E+00 -0.33815045733E+03  0.33815045737E+03  0.50400001928E-02 0.  1.
    10030    2    1    2    0    0  0.00000000000E+00  0.00000000000E+00  0.91277467541E+03  0.15890755901E+04  0.13007703960E+04 0.  0.
        3    1    3    3  502    0  0.61722223256E+03  0.18534163948E+03  0.34928558340E+03  0.73301789655E+03  0.10100000352E+00 0.  1.
       -3    1    3    3    0  502 -0.61722223256E+03 -0.18534163948E+03  0.56348909201E+03  0.85605769356E+03  0.10100000352E+00 0. -1.
</event>
<event>
 5   0  0.2723209E-04  0.1297481E+04  0.7818609E-02  0.9031565E-01
       -2   -1    0    0    0  501  0.00000000000E+00  0.00000000000E+00  0.34010461314E+03  0.34010461315E+03  0.25500000920E-02 0.  1.
        2   -1    0    0  501    0  0.00000000000E+00  0.00000000000E+00 -0.12374545814E+04  0.12374545814E+04  0.25500000920E-02 0. -1.
    10030    2    1    2    0    0  0.00000000000E+00  0.00000000000E+00 -0.89734996822E+03  0.15775591945E+04  0.12974806537E+04 0.  0.
        2    1    3    3  502    0  0.57014015255E+03  0.30931866035E+03 -0.43501696428E+03  0.78101061863E+03  0.25500000920E-02 0.  1.
       -2    1    3    3    0  502 -0.57014015255E+03 -0.30931866035E+03 -0.46233300394E+03  0.79654857588E+03  0.25500000920E-02 0. -1.
</event>
<event>
 5   0  0.1479690E-04  0.1300495E+04  0.7818609E-02  0.9029172E-01
       -1   -1    0    0    0  501  0.00000000000E+00  0.00000000000E+00  0.11442333951E+04  0.11442333951E+04  0.50400001928E-02 0.  1.
        1   -1    0    0  501    0  0.00000000000E+00  0.00000000000E+00 -0.36952429855E+03  0.36952429859E+03  0.50400001928E-02 0. -1.
    10030    2    1    2    0    0  0.00000000000E+00  0.00000000000E+00  0.77470909656E+03  0.15137576937E+04  0.13004953560E+04 0.  0.
        1    1    3    3  502    0 -0.60789106482E+03 -0.16372006569E+03  0.57678843978E+03  0.85382709660E+03  0.50400001928E-02 0.  1.
       -1    1    3    3    0  502  0.60789106482E+03  0.16372006569E+03  0.19792065678E+03  0.65993059711E+03  0.50400001928E-02 0. -1.
</event>
<event>
 5   0  0.2661377E-04  0.1300632E+04  0.7818609E-02  0.9029064E-01
       -2   -1    0    0    0  501  0.00000000000E+00  0.00000000000E+00  0.53331645812E+03  0.53331645813E+03  0.25500000920E-02 0. -1.
        2   -1    0    0  501    0  0.00000000000E+00  0.00000000000E+00 -0.79298308574E+03  0.79298308575E+03  0.25500000920E-02 0.  1.
    10030    2    1    2    0    0  0.00000000000E+00  0.00000000000E+00 -0.25966662762E+03  0.13262995439E+04  0.13006320473E+04 0.  0.
        5    1    3    3  502    0  0.58215816173E+03  0.28694423268E+03 -0.17117626240E+03  0.67124400984E+03  0.46999998093E+01 0. -1.
       -5    1    3    3    0  502 -0.58215816173E+03 -0.28694423268E+03 -0.88490365219E+02  0.65505553404E+03  0.46999998093E+01 0.  1.
</event>
<event>
 5   0  0.1475396E-04  0.1299721E+04  0.7818609E-02  0.9029786E-01
       -1   -1    0    0    0  501  0.00000000000E+00  0.00000000000E+00  0.24391762702E+03  0.24391762708E+03  0.50400001928E-02 0.  1.
        1   -1    0    0  501    0  0.00000000000E+00  0.00000000000E+00 -0.17313998277E+04  0.17313998277E+04  0.50400001928E-02 0. -1.
    10030    2    1    2    0    0  0.00000000000E+00  0.00000000000E+00 -0.14874822007E+04  0.19753174548E+04  0.12997214124E+04 0.  0.
        3    1    3    3  502    0 -0.58665029888E+03  0.14516685353E+03 -0.11068651431E+04  0.12611036610E+04  0.10100000352E+00 0. -1.
       -3    1    3    3    0  502  0.58665029888E+03 -0.14516685353E+03 -0.38061705759E+03  0.71421379381E+03  0.10100000352E+00 0.  1.
</event>
<event>
 5   0  0.2723209E-04  0.1299923E+04  0.7818609E-02  0.9029626E-01
        2   -1    0    0  501    0  0.00000000000E+00  0.00000000000E+00  0.17323525059E+04  0.17323525059E+04  0.25500000920E-02 0.  1.
       -2   -1    0    0    0  501  0.00000000000E+00  0.00000000000E+00 -0.24385928461E+03  0.24385928462E+03  0.25500000920E-02 0. -1.
    10030    2    1    2    0    0  0.00000000000E+00  0.00000000000E+00  0.14884932213E+04  0.19762117905E+04  0.12999234482E+04 0.  0.
        2    1    3    3  502    0 -0.25628843720E+03  0.53851626401E+03  0.35142469716E+03  0.69223034275E+03  0.25500000920E-02 0. -1.
       -2    1    3    3    0  502  0.25628843720E+03 -0.53851626401E+03  0.11370685241E+04  0.12839814478E+04  0.25500000920E-02 0.  1.
</event>
<event>
 5   0  0.1002887E-04  0.1300967E+04  0.7818609E-02  0.9028798E-01
        3   -1    0    0  501    0  0.00000000000E+00  0.00000000000E+00  0.20396122973E+04  0.20396122998E+04  0.10100000352E+00 0. -1.
       -3   -1    0    0    0  501  0.00000000000E+00  0.00000000000E+00 -0.20745563349E+03  0.20745565808E+03  0.10100000352E+00 0.  1.
    10030    2    1    2    0    0  0.00000000000E+00  0.00000000000E+00  0.18321566638E+04  0.22470679579E+04  0.13009674733E+04 0.  0.
        1    1    3    3  502    0  0.24256265238E+03 -0.59829673062E+03  0.10535365611E+04  0.12356111458E+04  0.50400001928E-02 0. -1.
       -1    1    3    3    0  502 -0.24256265238E+03  0.59829673062E+03  0.77862010277E+03  0.10114568121E+04  0.50400001928E-02 0.  1.
</event>
<event>
 5   0  0.2661377E-04  0.1302281E+04  0.7818609E-02  0.9027758E-01
        2   -1    0    0  501    0  0.00000000000E+00  0.00000000000E+00  0.13857060753E+04  0.13857060753E+04  0.25500000920E-02 0.  1.
       -2   -1    0    0    0  501  0.00000000000E+00  0.00000000000E+00 -0.30596951237E+03  0.30596951238E+03  0.25500000920E-02 0. -1.
    10030    2    1    2    0    0  0.00000000000E+00  0.00000000000E+00  0.10797365629E+04  0.16916755877E+04  0.13022807872E+04 0.  0.
        5    1    3    3  502    0  0.31842243337E+02 -0.21296113885E+03 -0.25835752764E+03  0.33635855454E+03  0.46999998093E+01 0. -1.
       -5    1    3    3    0  502 -0.31842243337E+02  0.21296113885E+03  0.13380940906E+04  0.13553170332E+04  0.46999998093E+01 0.  1.
</event>
<event>
 5   0  0.1479690E-04  0.1309921E+04  0.7818609E-02  0.9021735E-01
       -1   -1    0    0    0  501  0.00000000000E+00  0.00000000000E+00  0.79991236307E+03  0.79991236308E+03  0.50400001928E-02 0. -1.
        1   -1    0    0  501    0  0.00000000000E+00  0.00000000000E+00 -0.53627493803E+03  0.53627493805E+03  0.50400001928E-02 0.  1.
    10030    2    1    2    0    0  0.00000000000E+00  0.00000000000E+00  0.26363742504E+03  0.13361873011E+04  0.13099205365E+04 0.  0.
        1    1    3    3  502    0  0.33499025097E+02  0.40811910805E+03 -0.38959616585E+03  0.56521550183E+03  0.50400001928E-02 0.  1.
       -1    1    3    3    0  502 -0.33499025097E+02 -0.40811910805E+03  0.65323359089E+03  0.77097179931E+03  0.50400001928E-02 0. -1.
</event>
<event>
 5   0  0.1430636E-04  0.1298177E+04  0.7818609E-02  0.9031012E-01
       -1   -1    0    0    0  501  0.00000000000E+00  0.00000000000E+00  0.10304193416E+04  0.10304193416E+04  0.50400001928E-02 0.  1.
        1   -1    0    0  501    0  0.00000000000E+00  0.00000000000E+00 -0.40887822731E+03  0.40887822734E+03  0.50400001928E-02 0. -1.
    10030    2    1    2    0    0  0.00000000000E+00  0.00000000000E+00  0.62154111427E+03  0.14392975689E+04  0.12981772357E+04 0.  0.
        4    1    3    3  502    0 -0.27979948778E+02 -0.50254459997E+03 -0.14363747207E+03  0.52341884641E+03  0.12699999809E+01 0. -1.
       -4    1    3    3    0  502  0.27979948778E+02  0.50254459997E+03  0.76517858634E+03  0.91587872253E+03  0.12699999809E+01 0.  1.
</event>
<event>
 5   0  0.2756984E-04  0.1297817E+04  0.7818609E-02  0.9031298E-01
       -2   -1    0    0    0  501  0.00000000000E+00  0.00000000000E+00  0.33765135239E+03  0.33765135240E+03  0.25500000920E-02 0.  1.
        2   -1    0    0  501    0  0.00000000000E+00  0.00000000000E+00 -0.12470918479E+04  0.12470918479E+04  0.25500000920E-02 0. -1.
    10030    2    1    2    0    0  0.00000000000E+00  0.00000000000E+00 -0.90944049550E+03  0.15847432003E+04  0.12978170118E+04 0.  0.
        3    1    3    3  502    0  0.28798209428E+02  0.50626868059E+03  0.39697922587E+02  0.50863862326E+03  0.10100000352E+00 0.  1.
       -3    1    3    3    0  502 -0.28798209428E+02 -0.50626868059E+03 -0.94913841809E+03  0.10761045770E+04  0.10100000352E+00 0. -1.
</event>
<event>
 5   0  0.1408341E-04  0.1293556E+04  0.7818609E-02  0.9034691E-01
        1   -1    0    0  501    0  0.00000000000E+00  0.00000000000E+00  0.75643372215E+03  0.75643372217E+03  0.50400001928E-02 0. -1.
       -1   -1    0    0    0  501  0.00000000000E+00  0.00000000000E+00 -0.55301831242E+03  0.55301831244E+03  0.50400001928E-02 0.  1.
    10030    2    1    2    0    0  0.00000000000E+00  0.00000000000E+00  0.20341540973E+03  0.13094520346E+04  0.12935558751E+04 0.  0.
        5    1    3    3  502    0  0.41072880100E+02 -0.57829808598E+03  0.39190804344E+03  0.69980687496E+03  0.46999998093E+01 0. -1.
       -5    1    3    3    0  502 -0.41072880100E+02  0.57829808598E+03 -0.18849263372E+03  0.60964515965E+03  0.46999998093E+01 0.  1.
</event>
<event>
 5   0  0.2794825E-04  0.1298694E+04  0.7818609E-02  0.9030601E-01
        2   -1    0    0  501    0  0.00000000000E+00  0.00000000000E+00  0.13566291933E+04  0.13566291933E+04  0.25500000920E-02 0.  1.
       -2   -1    0    0    0  501  0.00000000000E+00  0.00000000000E+00 -0.31080836294E+03  0.31080836295E+03  0.25500000920E-02 0. -1.
    10030    2    1    2    0    0  0.00000000000E+00  0.00000000000E+00  0.10458208303E+04  0.16674375562E+04  0.12986942653E+04 0.  0.
        1    1    3    3  502    0  0.46414206982E+03 -0.23653317455E+03  0.10206329656E+04  0.11458915542E+04  0.50400001928E-02 0.  1.
       -1    1    3    3    0  502 -0.46414206982E+03  0.23653317455E+03  0.25187864770E+02  0.52154600199E+03  0.50400001928E-02 0. -1.
</event>
<event>
 5   0  0.1479690E-04  0.1300776E+04  0.7818609E-02  0.9028950E-01
        1   -1    0    0  501    0  0.00000000000E+00  0.00000000000E+00  0.12588071011E+04  0.12588071011E+04  0.50400001928E-02 0. -1.
       -1   -1    0    0    0  501  0.00000000000E+00  0.00000000000E+00 -0.33603582351E+03  0.33603582355E+03  0.50400001928E-02 0.  1.
    10030    2    1    2    0    0  0.00000000000E+00  0.00000000000E+00  0.92277127763E+03  0.15948429247E+04  0.13007755854E+04 0.  0.
        1    1    3    3  502    0 -0.31494378574E+03  0.73328651742E+02 -0.23048947743E+03  0.39710461918E+03  0.50400001928E-02 0.  1.
       -1    1    3    3    0  502  0.31494378574E+03 -0.73328651742E+02  0.11532607551E+04  0.11977383055E+04  0.50400001928E-02 0. -1.
</event>
<event>
 5   0  0.2723209E-04  0.1301023E+04  0.7818609E-02  0.9028754E-01
        2   -1    0    0  501    0  0.00000000000E+00  0.00000000000E+00  0.12056571286E+04  0.12056571286E+04  0.25500000920E-02 0.  1.
       -2   -1    0    0    0  501  0.00000000000E+00  0.00000000000E+00 -0.35098322688E+03  0.35098322689E+03  0.25500000920E-02 0. -1.
    10030    2    1    2    0    0  0.00000000000E+00  0.00000000000E+00  0.85467390172E+03  0.15566403555E+04  0.13010233349E+04 0.  0.
        2    1    3    3  502    0 -0.66810726772E+02 -0.10859855307E+03 -0.33588591354E+03  0.35927241177E+03  0.25500000920E-02 0. -1.
       -2    1    3    3    0  502  0.66810726772E+02  0.10859855307E+03  0.11905598153E+04  0.11973679437E+04  0.25500000920E-02 0.  1.
</event>
<event>
 5   0  0.1475396E-04  0.1297294E+04  0.7818609E-02  0.9031713E-01
       -1   -1    0    0    0  501  0.00000000000E+00  0.00000000000E+00  0.89805762152E+03  0.89805762154E+03  0.50400001928E-02 0. -1.
        1   -1    0    0  501    0  0.00000000000E+00  0.00000000000E+00 -0.46850356862E+03  0.46850356864E+03  0.50400001928E-02 0.  1.
    10030    2    1    2    0    0  0.00000000000E+00  0.00000000000E+00  0.42955405291E+03  0.13665611902E+04  0.12972944161E+04 0.  0.
        3    1    3    3  502    0 -0.87189029633E+02  0.65155175242E+02 -0.45881509736E+03  0.47154896619E+03  0.10100000352E+00 0.  1.
       -3    1    3    3    0  502  0.87189029633E+02 -0.65155175242E+02  0.88836915027E+03  0.89501222399E+03  0.10100000352E+00 0. -1.
</event>
<event>
 5   0  0.2573071E-04  0.1299167E+04  0.7818609E-02  0.9030226E-01
        2   -1    0    0  501    0  0.00000000000E+00  0.00000000000E+00  0.17368214219E+04  0.17368214219E+04  0.25500000920E-02 0.  1.
       -2   -1    0    0    0  501  0.00000000000E+00  0.00000000000E+00 -0.24294896453E+03  0.24294896455E+03  0.25500000920E-02 0. -1.
    10030    2    1    2    0    0  0.00000000000E+00  0.00000000000E+00  0.14938724573E+04  0.19797703864E+04  0.12991673734E+04 0.  0.
        4    1    3    3  502    0 -0.35143542135E+03  0.54536731311E+03  0.79572387434E+03  0.10266988160E+04  0.12699999809E+01 0.  1.
       -4    1    3    3    0  502  0.35143542135E+03 -0.54536731311E+03  0.69814858299E+03  0.95307157045E+03  0.12699999809E+01 0. -1.
</event>
<event>
 5   0  0.2794825E-04  0.1300089E+04  0.7818609E-02  0.9029494E-01
        2   -1    0    0  501    0  0.00000000000E+00  0.00000000000E+00  0.60989691190E+03  0.60989691190E+03  0.25500000920E-02 0. -1.
       -2   -1    0    0    0  501  0.00000000000E+00  0.00000000000E+00 -0.69283530502E+03  0.69283530502E+03  0.25500000920E-02 0.  1.
    10030    2    1    2    0    0  0.00000000000E+00  0.00000000000E+00 -0.82938393123E+02  0.13027322169E+04  0.13000894015E+04 0.  0.
        1    1    3    3  502    0  0.14258059732E+03  0.56066572341E+03 -0.33852220795E+03  0.67027797624E+03  0.50400001928E-02 0.  1.
       -1    1    3    3    0  502 -0.14258059732E+03 -0.56066572341E+03  0.25558381482E+03  0.63245424068E+03  0.50400001928E-02 0. -1.
</event>
<event>
 5   0  0.1475396E-04  0.1302168E+04  0.7818609E-02  0.9027848E-01
        1   -1    0    0  501    0  0.00000000000E+00  0.00000000000E+00  0.83482339309E+03  0.83482339310E+03  0.50400001928E-02 0. -1.
       -1   -1    0    0    0  501  0.00000000000E+00  0.00000000000E+00 -0.50778416406E+03  0.50778416408E+03  0.50400001928E-02 0.  1.
    10030    2    1    2    0    0  0.00000000000E+00  0.00000000000E+00  0.32703922903E+03  0.13426075572E+04  0.13021675757E+04 0.  0.
        3    1    3    3  502    0  0.12288855121E+03 -0.26511120664E+03  0.76341744185E+03  0.81742996558E+03  0.10100000352E+00 0. -1.
       -3    1    3    3    0  502 -0.12288855121E+03  0.26511120664E+03 -0.43637821282E+03  0.52517759161E+03  0.10100000352E+00 0.  1.
</event>
<event>
 5   0  0.1408341E-04  0.1299758E+04  0.7818609E-02  0.9029757E-01
       -1   -1    0    0    0  501  0.00000000000E+00  0.00000000000E+00  0.57119000663E+03  0.57119000665E+03  0.50400001928E-02 0.  1.
        1   -1    0    0  501    0  0.00000000000E+00  0.00000000000E+00 -0.73940895431E+03  0.73940895433E+03  0.50400001928E-02 0. -1.
    10030    2    1    2    0    0  0.00000000000E+00  0.00000000000E+00 -0.16821894769E+03  0.13105989610E+04  0.12997584476E+04 0.  0.
        5    1    3    3  502    0 -0.44373678653E+03 -0.47173656754E+03 -0.29966282238E+02  0.64835005432E+03  0.46999998093E+01 0.  1.
       -5    1    3    3    0  502  0.44373678653E+03  0.47173656754E+03 -0.13825266545E+03  0.66224890666E+03  0.46999998093E+01 0. -1.
</event>
<event>
 5   0  0.1475396E-04  0.1296279E+04  0.7818609E-02  0.9032521E-01
       -1   -1    0    0    0  501  0.00000000000E+00  0.00000000000E+00  0.21085217954E+03  0.21085217960E+03  0.50400001928E-02 0. -1.
        1   -1    0    0  501    0  0.00000000000E+00  0.00000000000E+00 -0.19923188165E+04  0.19923188165E+04  0.50400001928E-02 0.  1.
    10030    2    1    2    0    0  0.00000000000E+00  0.00000000000E+00 -0.17814666370E+04  0.22031709962E+04  0.12962789281E+04 0.  0.
        3    1    3    3  502    0 -0.50158300373E+03 -0.40382589565E+03 -0.10159047512E+04  0.12027981283E+04  0.10100000352E+00 0. -1.
       -3    1    3    3    0  502  0.50158300373E+03  0.40382589565E+03 -0.76556188579E+03  0.10003728679E+04  0.10100000352E+00 0.  1.
</event>
<event>
 5   0  0.1408341E-04  0.1299834E+04  0.7818609E-02  0.9029696E-01
        1   -1    0    0  501    0  0.00000000000E+00  0.00000000000E+00  0.12583334073E+04  0.12583334073E+04  0.50400001928E-02 0. -1.
       -1   -1    0    0    0  501  0.00000000000E+00  0.00000000000E+00 -0.33567605008E+03  0.33567605012E+03  0.50400001928E-02 0.  1.
    10030    2    1    2    0    0  0.00000000000E+00  0.00000000000E+00  0.92265735720E+03  0.15940094574E+04  0.12998344324E+04 0.  0.
        5    1    3    3  502    0 -0.25532057800E+03 -0.12082332896E+03  0.11790998795E+04  0.12124708203E+04  0.46999998093E+01 0. -1.
       -5    1    3    3    0  502  0.25532057800E+03  0.12082332896E+03 -0.25644252226E+03  0.38153863710E+03  0.46999998093E+01 0.  1.
</event>
<event>
 5   0  0.2723209E-04  0.1301772E+04  0.7818609E-02  0.9028161E-01
        2   -1    0    0  501    0  0.00000000000E+00  0.00000000000E+00  0.13464035489E+04  0.13464035489E+04  0.25500000920E-02 0. -1.
       -2   -1    0    0    0  501  0.00000000000E+00  0.00000000000E+00 -0.31465486852E+03  0.31465486853E+03  0.25500000920E-02 0.  1.
    10030    2    1    2    0    0  0.00000000000E+00  0.00000000000E+00  0.10317486804E+04  0.16610584174E+04  0.13017717644E+04 0.  0.
        2    1    3    3  502    0 -0.21788555037E+03 -0.61260065739E+03  0.55412776067E+03  0.85428991194E+03  0.25500000920E-02 0.  1.
       -2    1    3    3    0  502  0.21788555037E+03  0.61260065739E+03  0.47762091972E+03  0.80676850549E+03  0.25500000920E-02 0. -1.
</event>
<event>
 5   0  0.1475396E-04  0.1291187E+04  0.7818609E-02  0.9036583E-01
        1   -1    0    0  501    0  0.00000000000E+00  0.00000000000E+00  0.92711313348E+03  0.92711313349E+03  0.50400001928E-02 0.  1.
       -1   -1    0    0    0  501  0.00000000000E+00  0.00000000000E+00 -0.44955814528E+03  0.44955814531E+03  0.50400001928E-02 0. -1.
    10030    2    1    2    0    0  0.00000000000E+00  0.00000000000E+00  0.47755498820E+03  0.13766712788E+04  0.12911874547E+04 0.  0.
        3    1    3    3  502    0  0.24867545493E+02  0.48026404517E+03 -0.22045806205E+03  0.52903092086E+03  0.10100000352E+00 0. -1.
       -3    1    3    3    0  502 -0.24867545493E+02 -0.48026404517E+03  0.69801305025E+03  0.84764035795E+03  0.10100000352E+00 0.  1.
</event>
<event>
 5   0  0.2794825E-04  0.1299097E+04  0.7818609E-02  0.9030282E-01
        2   -1    0    0  501    0  0.00000000000E+00  0.00000000000E+00  0.14927069190E+04  0.14927069190E+04  0.25500000920E-02 0. -1.
       -2   -1    0    0    0  501  0.00000000000E+00  0.00000000000E+00 -0.28264962256E+03  0.28264962257E+03  0.25500000920E-02 0.  1.
    10030    2    1    2    0    0  0.00000000000E+00  0.00000000000E+00  0.12100572965E+04  0.17753565416E+04  0.12990966820E+04 0.  0.
        1    1    3    3  502    0  0.42971221754E+02 -0.41758455784E+01  0.14907439180E+04  0.14913689660E+04  0.50400001928E-02 0. -1.
       -1    1    3    3    0  502 -0.42971221754E+02  0.41758455784E+01 -0.28068662153E+03  0.28398757564E+03  0.50400001928E-02 0.  1.
</event>
<event>
 5   0  0.2573071E-04  0.1299140E+04  0.7818609E-02  0.9030247E-01
        2   -1    0    0  501    0  0.00000000000E+00  0.00000000000E+00  0.32267350491E+03  0.32267350492E+03  0.25500000920E-02 0. -1.
       -2   -1    0    0    0  501  0.00000000000E+00  0.00000000000E+00 -0.13076421735E+04  0.13076421735E+04  0.25500000920E-02 0.  1.
    10030    2    1    2    0    0  0.00000000000E+00  0.00000000000E+00 -0.98496866857E+03  0.16303156784E+04  0.12991404594E+04 0.  0.
        4    1    3    3  502    0  0.72280569878E+02  0.22045781635E+03 -0.12538733573E+04  0.12751572995E+04  0.12699999809E+01 0.  1.
       -4    1    3    3    0  502 -0.72280569878E+02 -0.22045781635E+03  0.26890468870E+03  0.35515837887E+03  0.12699999809E+01 0. -1.
</event>
<event>
 5   0  0.1475396E-04  0.1300907E+04  0.7818609E-02  0.9028846E-01
       -1   -1    0    0    0  501  0.00000000000E+00  0.00000000000E+00  0.69314531034E+03  0.69314531036E+03  0.50400001928E-02 0.  1.
        1   -1    0    0  501    0  0.00000000000E+00  0.00000000000E+00 -0.61039118112E+03  0.61039118114E+03  0.50400001928E-02 0. -1.
    10030    2    1    2    0    0  0.00000000000E+00  0.00000000000E+00  0.82754129217E+02  0.13035364915E+04  0.13009070446E+04 0.  0.
        3    1    3    3  502    0  0.16053781522E+03 -0.44582202334E+03 -0.40512444134E+03  0.62342240077E+03  0.10100000352E+00 0. -1.
       -3    1    3    3    0  502 -0.16053781522E+03  0.44582202334E+03  0.48787857055E+03  0.68011409073E+03  0.10100000352E+00 0.  1.
</event>
<event>
 5   0  0.2756984E-04  0.1333271E+04  0.7818609E-02  0.9003589E-01
       -2   -1    0    0    0  501  0.00000000000E+00  0.00000000000E+00  0.41296541583E+03  0.41296541584E+03  0.25500000920E-02 0.  1.
        2   -1    0    0  501    0  0.00000000000E+00  0.00000000000E+00 -0.10761256994E+04  0.10761256994E+04  0.25500000920E-02 0. -1.
    10030    2    1    2    0    0  0.00000000000E+00  0.00000000000E+00 -0.66316028355E+03  0.14890911152E+04  0.13332707106E+04 0.  0.
        3    1    3    3  502    0 -0.15667647673E+03  0.41332884932E+03 -0.88891369747E+03  0.99275164456E+03  0.10100000352E+00 0. -1.
       -3    1    3    3    0  502  0.15667647673E+03 -0.41332884932E+03  0.22575341392E+03  0.49633947066E+03  0.10100000352E+00 0.  1.
</event>
<event>
 5   0  0.2756984E-04  0.1297543E+04  0.7818609E-02  0.9031516E-01
       -2   -1    0    0    0  501  0.00000000000E+00  0.00000000000E+00  0.31159655965E+03  0.31159655966E+03  0.25500000920E-02 0.  1.
        2   -1    0    0  501    0  0.00000000000E+00  0.00000000000E+00 -0.13507992032E+04  0.13507992032E+04  0.25500000920E-02 0. -1.
    10030    2    1    2    0    0  0.00000000000E+00  0.00000000000E+00 -0.10392026436E+04  0.16623957629E+04  0.12975428849E+04 0.  0.
        3    1    3    3  502    0 -0.20158787069E+03 -0.40158194888E+03  0.79959732575E+02  0.45639818176E+03  0.10100000352E+00 0.  1.
       -3    1    3    3    0  502  0.20158787069E+03  0.40158194888E+03 -0.11191623762E+04  0.12059975811E+04  0.10100000352E+00 0. -1.
</event>
<event>
 5   0  0.1476511E-04  0.1299567E+04  0.7818609E-02  0.9029908E-01
       -1   -1    0    0    0  501  0.00000000000E+00  0.00000000000E+00  0.23976548416E+03  0.23976548421E+03  0.50400001928E-02 0.  1.
        1   -1    0    0  501    0  0.00000000000E+00  0.00000000000E+00 -0.17609655191E+04  0.17609655192E+04  0.50400001928E-02 0. -1.
    10030    2    1    2    0    0  0.00000000000E+00  0.00000000000E+00 -0.15212000350E+04  0.20007310034E+04  0.12995672362E+04 0.  0.
        2    1    3    3  502    0 -0.53665239973E+03 -0.32937018652E+03 -0.10075899819E+04  0.11881574347E+04  0.25500000920E-02 0.  1.
       -2    1    3    3    0  502  0.53665239973E+03  0.32937018652E+03 -0.51361005305E+03  0.81257356867E+03  0.25500000920E-02 0. -1.
</event>
<event>
 5   0  0.1408341E-04  0.1299063E+04  0.7818609E-02  0.9030309E-01
       -1   -1    0    0    0  501  0.00000000000E+00  0.00000000000E+00  0.46270207417E+03  0.46270207419E+03  0.50400001928E-02 0. -1.
        1   -1    0    0  501    0  0.00000000000E+00  0.00000000000E+00 -0.91179855059E+03  0.91179855061E+03  0.50400001928E-02 0.  1.
    10030    2    1    2    0    0  0.00000000000E+00  0.00000000000E+00 -0.44909647643E+03  0.13745006248E+04  0.12990628632E+04 0.  0.
        5    1    3    3  502    0  0.18039220451E+03  0.51213726573E+03 -0.60167752005E+03  0.81047137798E+03  0.46999998093E+01 0.  1.
       -5    1    3    3    0  502 -0.18039220451E+03 -0.51213726573E+03  0.15258104362E+03  0.56402924682E+03  0.46999998093E+01 0. -1.
</event>
<event>
 5   0  0.1479690E-04  0.1298335E+04  0.7818609E-02  0.9030886E-01
       -1   -1    0    0    0  501  0.00000000000E+00  0.00000000000E+00  0.19871945845E+03  0.19871945852E+03  0.50400001928E-02 0. -1.
        1   -1    0    0  501    0  0.00000000000E+00  0.00000000000E+00 -0.21206718520E+04  0.21206718520E+04  0.50400001928E-02 0.  1.
    10030    2    1    2    0    0  0.00000000000E+00  0.00000000000E+00 -0.19219523936E+04  0.23193913106E+04  0.12983354914E+04 0.  0.
        1    1    3    3  502    0  0.30139191776E+03 -0.52272103292E+03 -0.13887681260E+04  0.15141833687E+04  0.50400001928E-02 0.  1.
       -1    1    3    3    0  502 -0.30139191776E+03  0.52272103292E+03 -0.53318426761E+03  0.80520794184E+03  0.50400001928E-02 0. -1.
</event>
<event>
 5   0  0.2661377E-04  0.1300334E+04  0.7818609E-02  0.9029300E-01
        2   -1    0    0  501    0  0.00000000000E+00  0.00000000000E+00  0.98019936804E+03  0.98019936804E+03  0.25500000920E-02 0. -1.
       -2   -1    0    0    0  501  0.00000000000E+00  0.00000000000E+00 -0.43125638978E+03  0.43125638979E+03  0.25500000920E-02 0.  1.
    10030    2    1    2    0    0  0.00000000000E+00  0.00000000000E+00  0.54894297826E+03  0.14114557578E+04  0.13003341736E+04 0.  0.
        5    1    3    3  502    0  0.29834639176E+03  0.15035448903E+03  0.87987790418E+03  0.94118237240E+03  0.46999998093E+01 0. -1.
       -5    1    3    3    0  502 -0.29834639176E+03 -0.15035448903E+03 -0.33093492593E+03  0.47027338543E+03  0.46999998093E+01 0.  1.
</event>
<event>
 5   0  0.2756984E-04  0.1299060E+04  0.7818609E-02  0.9030311E-01
       -2   -1    0    0    0  501  0.00000000000E+00  0.00000000000E+00  0.18179180434E+03  0.18179180436E+03  0.25500000920E-02 0.  1.
        2   -1    0    0  501    0  0.00000000000E+00  0.00000000000E+00 -0.23207290493E+04  0.23207290493E+04  0.25500000920E-02 0. -1.
    10030    2    1    2    0    0  0.00000000000E+00  0.00000000000E+00 -0.21389372450E+04  0.25025208537E+04  0.12990604625E+04 0.  0.
        3    1    3    3  502    0 -0.32023321662E+03  0.37073038113E+03 -0.18910748338E+04  0.19534979821E+04  0.10100000352E+00 0. -1.
       -3    1    3    3    0  502  0.32023321662E+03 -0.37073038113E+03 -0.24786241115E+03  0.54902287164E+03  0.10100000352E+00 0.  1.
</event>
<event>
 5   0  0.2573071E-04  0.1299857E+04  0.7818609E-02  0.9029679E-01
       -2   -1    0    0    0  501  0.00000000000E+00  0.00000000000E+00  0.63631613377E+03  0.63631613378E+03  0.25500000920E-02 0.  1.
        2   -1    0    0  501    0  0.00000000000E+00  0.00000000000E+00 -0.66383162296E+03  0.66383162296E+03  0.25500000920E-02 0. -1.
    10030    2    1    2    0    0  0.00000000000E+00  0.00000000000E+00 -0.27515489190E+02  0.13001477567E+04  0.12998565641E+04 0.  0.
        4    1    3    3  502    0 -0.10021107170E+03  0.46644331873E+03 -0.45521081699E+03  0.65941650668E+03  0.12699999809E+01 0. -1.
       -4    1    3    3    0  502  0.10021107170E+03 -0.46644331873E+03  0.42769532780E+03  0.64073125006E+03  0.12699999809E+01 0.  1.
</event>
<event>
 5   0  0.2756984E-04  0.1298726E+04  0.7818609E-02  0.9030576E-01
        2   -1    0    0  501    0  0.00000000000E+00  0.00000000000E+00  0.11107869038E+04  0.11107869038E+04  0.25500000920E-02 0. -1.
       -2   -1    0    0    0  501  0.00000000000E+00  0.00000000000E+00 -0.37961561381E+03  0.37961561382E+03  0.25500000920E-02 0.  1.
    10030    2    1    2    0    0  0.00000000000E+00  0.00000000000E+00  0.73117128997E+03  0.14904025176E+04  0.12987256097E+04 0.  0.
        3    1    3    3  502    0  0.10880418932E+03 -0.53171057952E+03  0.77474164872E+03  0.94592765286E+03  0.10100000352E+00 0. -1.
       -3    1    3    3    0  502 -0.10880418932E+03  0.53171057952E+03 -0.43570358749E+02  0.54447486475E+03  0.10100000352E+00 0.  1.
</event>
<event>
 5   0  0.1408341E-04  0.1298024E+04  0.7818609E-02  0.9031134E-01
       -1   -1    0    0    0  501  0.00000000000E+00  0.00000000000E+00  0.92152721009E+03  0.92152721010E+03  0.50400001928E-02 0. -1.
        1   -1    0    0  501    0  0.00000000000E+00  0.00000000000E+00 -0.45708528221E+03  0.45708528223E+03  0.50400001928E-02 0.  1.
    10030    2    1    2    0    0  0.00000000000E+00  0.00000000000E+00  0.46444192788E+03  0.13786124923E+04  0.12980239211E+04 0.  0.
        5    1    3    3  502    0  0.13789408969E+03  0.20443455092E+03 -0.40537208137E+03  0.47450698618E+03  0.46999998093E+01 0.  1.
       -5    1    3    3    0  502 -0.13789408969E+03 -0.20443455092E+03  0.86981400925E+03  0.90410550616E+03  0.46999998093E+01 0. -1.
</event>
<event>
 5   0  0.1430636E-04  0.1299464E+04  0.7818609E-02  0.9029991E-01
        1   -1    0    0  501    0  0.00000000000E+00  0.00000000000E+00  0.94923358903E+03  0.94923358904E+03  0.50400001928E-02 0.  1.
       -1   -1    0    0    0  501  0.00000000000E+00  0.00000000000E+00 -0.44472868129E+03  0.44472868132E+03  0.50400001928E-02 0. -1.
    10030    2    1    2    0    0  0.00000000000E+00  0.00000000000E+00  0.50450490773E+03  0.13939622704E+04  0.12994635852E+04 0.  0.
        4    1    3    3  502    0 -0.51259817524E+03 -0.37690955971E+03  0.39347768606E+03  0.74809358224E+03  0.12699999809E+01 0.  1.
       -4    1    3    3    0  502  0.51259817524E+03  0.37690955971E+03  0.11102722167E+03  0.64586868813E+03  0.12699999809E+01 0. -1.
</event>
<event>
 5   0  0.1408341E-04  0.1299522E+04  0.7818609E-02  0.9029944E-01
        1   -1    0    0  501    0  0.00000000000E+00  0.00000000000E+00  0.13704637715E+04  0.13704637715E+04  0.50400001928E-02 0.  1.
       -1   -1    0    0    0  501  0.00000000000E+00  0.00000000000E+00 -0.30806304259E+03  0.30806304263E+03  0.50400001928E-02 0. -1.
    10030    2    1    2    0    0  0.00000000000E+00  0.00000000000E+00  0.10624007289E+04  0.16785268141E+04  0.12995218186E+04 0.  0.
        5    1    3    3  502    0  0.22318515757E+03 -0.49952222665E+03  0.98389190436E+03  0.11257883633E+04  0.46999998093E+01 0.  1.
       -5    1    3    3    0  502 -0.22318515757E+03  0.49952222665E+03  0.78508824517E+02  0.55273845081E+03  0.46999998093E+01 0. -1.
</event>
<event>
 5   0  0.1430636E-04  0.1298838E+04  0.7818609E-02  0.9030487E-01
       -1   -1    0    0    0  501  0.00000000000E+00  0.00000000000E+00  0.33083360000E+03  0.33083360004E+03  0.50400001928E-02 0.  1.
        1   -1    0    0  501    0  0.00000000000E+00  0.00000000000E+00 -0.12747950168E+04  0.12747950168E+04  0.50400001928E-02 0. -1.
    10030    2    1    2    0    0  0.00000000000E+00  0.00000000000E+00 -0.94396141679E+03  0.16056286168E+04  0.12988379802E+04 0.  0.
        4    1    3    3  502    0  0.10848448775E+03  0.13316488409E+02  0.31938023609E+03  0.33756712080E+03  0.12699999809E+01 0.  1.
       -4    1    3    3    0  502 -0.10848448775E+03 -0.13316488409E+02 -0.12633416529E+04  0.12680614960E+04  0.12699999809E+01 0. -1.
</event>
<event>
 5   0  0.2756984E-04  0.1296674E+04  0.7818609E-02  0.9032207E-01
        2   -1    0    0  501    0  0.00000000000E+00  0.00000000000E+00  0.17444125100E+04  0.17444125100E+04  0.25500000920E-02 0.  1.
       -2   -1    0    0    0  501  0.00000000000E+00  0.00000000000E+00 -0.24096399033E+03  0.24096399034E+03  0.25500000920E-02 0. -1.
    10030    2    1    2    0    0  0.00000000000E+00  0.00000000000E+00  0.15034485197E+04  0.19853765003E+04  0.12966735892E+04 0.  0.
        3    1    3    3  502    0 -0.64757629869E+03  0.18089059311E+02  0.79100939044E+03  0.10224373539E+04  0.10100000352E+00 0.  1.
       -3    1    3    3    0  502  0.64757629869E+03 -0.18089059311E+02  0.71243912922E+03  0.96293914643E+03  0.10100000352E+00 0. -1.
</event>
<event>
 5   0  0.1475396E-04  0.1302211E+04  0.7818609E-02  0.9027813E-01
        1   -1    0    0  501    0  0.00000000000E+00  0.00000000000E+00  0.71278613254E+03  0.71278613256E+03  0.50400001928E-02 0. -1.
       -1   -1    0    0    0  501  0.00000000000E+00  0.00000000000E+00 -0.59476275917E+03  0.59476275919E+03  0.50400001928E-02 0.  1.
    10030    2    1    2    0    0  0.00000000000E+00  0.00000000000E+00  0.11802337337E+03  0.13075488917E+04  0.13022114220E+04 0.  0.
        3    1    3    3  502    0  0.23452980753E+03 -0.54868358173E+03 -0.20259551722E+03  0.63016097727E+03  0.10100000352E+00 0.  1.
       -3    1    3    3    0  502 -0.23452980753E+03  0.54868358173E+03  0.32061889059E+03  0.67738791448E+03  0.10100000352E+00 0. -1.
</event>
<event>
 5   0  0.1002887E-04  0.1299342E+04  0.7818609E-02  0.9030087E-01
        4   -1    0    0  501    0  0.00000000000E+00  0.00000000000E+00  0.11763239323E+04  0.11763246179E+04  0.12699999809E+01 0.  1.
       -4   -1    0    0    0  501  0.00000000000E+00  0.00000000000E+00 -0.35880432314E+03  0.35880657073E+03  0.12699999809E+01 0. -1.
    10030    2    1    2    0    0  0.00000000000E+00  0.00000000000E+00  0.81751960917E+03  0.15351311886E+04  0.12993419315E+04 0.  0.
        1    1    3    3  502    0 -0.58833265146E+03 -0.21856315163E+03  0.60704665214E+03  0.87316138137E+03  0.50400001928E-02 0.  1.
       -1    1    3    3    0  502  0.58833265146E+03  0.21856315163E+03  0.21047295704E+03  0.66196980724E+03  0.50400001928E-02 0. -1.
</event>
<event>
 5   0  0.2756984E-04  0.1300149E+04  0.7818609E-02  0.9029447E-01
       -2   -1    0    0    0  501  0.00000000000E+00  0.00000000000E+00  0.34684966734E+03  0.34684966735E+03  0.25500000920E-02 0.  1.
        2   -1    0    0  501    0  0.00000000000E+00  0.00000000000E+00 -0.12183854042E+04  0.12183854042E+04  0.25500000920E-02 0. -1.
    10030    2    1    2    0    0  0.00000000000E+00  0.00000000000E+00 -0.87153573690E+03  0.15652350716E+04  0.13001485641E+04 0.  0.
        3    1    3    3  502    0  0.76673854826E+02  0.84193415298E+02  0.33474876295E+03  0.35358755025E+03  0.10100000352E+00 0.  1.
       -3    1    3    3    0  502 -0.76673854826E+02 -0.84193415298E+02 -0.12062844999E+04  0.12116475213E+04  0.10100000352E+00 0. -1.
</event>
<event>
 5   0  0.1475396E-04  0.1297823E+04  0.7818609E-02  0.9031293E-01
       -1   -1    0    0    0  501  0.00000000000E+00  0.00000000000E+00  0.28422005493E+03  0.28422005498E+03  0.50400001928E-02 0.  1.
        1   -1    0    0  501    0  0.00000000000E+00  0.00000000000E+00 -0.14815498283E+04  0.14815498283E+04  0.50400001928E-02 0. -1.
    10030    2    1    2    0    0  0.00000000000E+00  0.00000000000E+00 -0.11973297734E+04  0.17657698833E+04  0.12978230598E+04 0.  0.
        3    1    3    3  502    0 -0.78255298341E+02  0.45374203659E+03 -0.12207865397E+04  0.13047319699E+04  0.10100000352E+00 0. -1.
       -3    1    3    3    0  502  0.78255298341E+02 -0.45374203659E+03  0.23456766359E+02  0.46103791339E+03  0.10100000352E+00 0.  1.
</event>
<event>
 5   0  0.2573071E-04  0.1299920E+04  0.7818609E-02  0.9029628E-01
        2   -1    0    0  501    0  0.00000000000E+00  0.00000000000E+00  0.68303599404E+03  0.68303599405E+03  0.25500000920E-02 0. -1.
       -2   -1    0    0    0  501  0.00000000000E+00  0.00000000000E+00 -0.61848592907E+03  0.61848592907E+03  0.25500000920E-02 0.  1.
    10030    2    1    2    0    0  0.00000000000E+00  0.00000000000E+00  0.64550064974E+02  0.13015219231E+04  0.12999202304E+04 0.  0.
        4    1    3    3  502    0 -0.36655002075E+03  0.12171593775E+03  0.55567420208E+03  0.67671937978E+03  0.12699999809E+01 0. -1.
       -4    1    3    3    0  502  0.36655002075E+03 -0.12171593775E+03 -0.49112413710E+03  0.62480254334E+03  0.12699999809E+01 0.  1.
</event>
<event>
 5   0  0.1002887E-04  0.1301523E+04  0.7818609E-02  0.9028358E-01
        4   -1    0    0  501    0  0.00000000000E+00  0.00000000000E+00  0.67749758343E+03  0.67749877377E+03  0.12699999809E+01 0.  1.
       -4   -1    0    0    0  501  0.00000000000E+00  0.00000000000E+00 -0.62507793741E+03  0.62507922757E+03  0.12699999809E+01 0. -1.
    10030    2    1    2    0    0  0.00000000000E+00  0.00000000000E+00  0.52419646024E+02  0.13025780013E+04  0.13015228120E+04 0.  0.
        3    1    3    3  502    0 -0.54777757300E+03  0.34842997928E+03 -0.18845309391E+02  0.64947584699E+03  0.10100000352E+00 0. -1.
       -3    1    3    3    0  502  0.54777757300E+03 -0.34842997928E+03  0.71264955415E+02  0.65310215435E+03  0.10100000352E+00 0.  1.
</event>
<event>
 5   0  0.1476511E-04  0.1298281E+04  0.7818609E-02  0.9030929E-01
       -1   -1    0    0    0  501  0.00000000000E+00  0.00000000000E+00  0.39924271277E+03  0.39924271281E+03  0.50400001928E-02 0.  1.
        1   -1    0    0  501    0  0.00000000000E+00  0.00000000000E+00 -0.10554568535E+04  0.10554568535E+04  0.50400001928E-02 0. -1.
    10030    2    1    2    0    0  0.00000000000E+00  0.00000000000E+00 -0.65621414072E+03  0.14546995663E+04  0.12982811058E+04 0.  0.
        2    1    3    3  502    0  0.63632335711E+03 -0.10947373472E+03 -0.25301356054E+03  0.69347514391E+03  0.25500000920E-02 0.  1.
       -2    1    3    3    0  502 -0.63632335711E+03  0.10947373472E+03 -0.40320058018E+03  0.76122442240E+03  0.25500000920E-02 0. -1.
</event>
<event>
 5   0  0.1430636E-04  0.1299476E+04  0.7818609E-02  0.9029981E-01
       -1   -1    0    0    0  501  0.00000000000E+00  0.00000000000E+00  0.38888968812E+03  0.38888968815E+03  0.50400001928E-02 0.  1.
        1   -1    0    0  501    0  0.00000000000E+00  0.00000000000E+00 -0.10855507802E+04  0.10855507802E+04  0.50400001928E-02 0. -1.
    10030    2    1    2    0    0  0.00000000000E+00  0.00000000000E+00 -0.69666109208E+03  0.14744404684E+04  0.12994760550E+04 0.  0.
        4    1    3    3  502    0 -0.46542076172E+03  0.36645735349E+03 -0.45463056733E+02  0.59411781643E+03  0.12699999809E+01 0. -1.
       -4    1    3    3    0  502  0.46542076172E+03 -0.36645735349E+03 -0.65119803535E+03  0.88032265193E+03  0.12699999809E+01 0.  1.
</event>
<event>
 5   0  0.1475396E-04  0.1295650E+04  0.7818609E-02  0.9033022E-01
       -1   -1    0    0    0  501  0.00000000000E+00  0.00000000000E+00  0.44447828231E+03  0.44447828234E+03  0.50400001928E-02 0.  1.
        1   -1    0    0  501    0  0.00000000000E+00  0.00000000000E+00 -0.94420165311E+03  0.94420165312E+03  0.50400001928E-02 0. -1.
    10030    2    1    2    0    0  0.00000000000E+00  0.00000000000E+00 -0.49972337080E+03  0.13886799355E+04  0.12956498431E+04 0.  0.
        3    1    3    3  502    0  0.37289685072E+03  0.41047604908E+03  0.10904709436E+03  0.56518486103E+03  0.10100000352E+00 0.  1.
       -3    1    3    3    0  502 -0.37289685072E+03 -0.41047604908E+03 -0.60877046516E+03  0.82349507443E+03  0.10100000352E+00 0. -1.
</event>
<event>
 5   0  0.1408341E-04  0.1300721E+04  0.7818609E-02  0.9028994E-01
        1   -1    0    0  501    0  0.00000000000E+00  0.00000000000E+00  0.12299662454E+04  0.12299662454E+04  0.50400001928E-02 0.  1.
       -1   -1    0    0    0  501  0.00000000000E+00  0.00000000000E+00 -0.34388626010E+03  0.34388626014E+03  0.50400001928E-02 0. -1.
    10030    2    1    2    0    0  0.00000000000E+00  0.00000000000E+00  0.88607998527E+03  0.15738525055E+04  0.13007205575E+04 0.  0.
        5    1    3    3  502    0  0.42588625824E+03 -0.11084743624E+03  0.10224196567E+04  0.11131173809E+04  0.46999998093E+01 0.  1.
       -5    1    3    3    0  502 -0.42588625824E+03  0.11084743624E+03 -0.13633967147E+03  0.46073512466E+03  0.46999998093E+01 0. -1.
</event>
<event>
 5   0  0.2756984E-04  0.1299759E+04  0.7818609E-02  0.9029756E-01
        2   -1    0    0  501    0  0.00000000000E+00  0.00000000000E+00  0.85028190315E+03  0.85028190315E+03  0.25500000920E-02 0.  1.
       -2   -1    0    0    0  501  0.00000000000E+00  0.00000000000E+00 -0.49671015824E+03  0.49671015824E+03  0.25500000920E-02 0. -1.
    10030    2    1    2    0    0  0.00000000000E+00  0.00000000000E+00  0.35357174491E+03  0.13469920614E+04  0.12997594526E+04 0.  0.
        3    1    3    3  502    0 -0.63351537923E+03 -0.14379814259E+03  0.19544018308E+03  0.67839259791E+03  0.10100000352E+00 0.  1.
       -3    1    3    3    0  502  0.63351537923E+03  0.14379814259E+03  0.15813156183E+03  0.66859946349E+03  0.10100000352E+00 0. -1.
</event>
<event>
 5   0  0.1479690E-04  0.1298369E+04  0.7818609E-02  0.9030860E-01
        1   -1    0    0  501    0  0.00000000000E+00  0.00000000000E+00  0.16807532613E+04  0.16807532613E+04  0.50400001928E-02 0. -1.
       -1   -1    0    0    0  501  0.00000000000E+00  0.00000000000E+00 -0.25074488910E+03  0.25074488915E+03  0.50400001928E-02 0.  1.
    10030    2    1    2    0    0  0.00000000000E+00  0.00000000000E+00  0.14300083722E+04  0.19314981505E+04  0.12983686536E+04 0.  0.
        1    1    3    3  502    0  0.30751728414E+03  0.12812443825E+02  0.15653136075E+04  0.15952860961E+04  0.50400001928E-02 0. -1.
       -1    1    3    3    0  502 -0.30751728414E+03 -0.12812443825E+02 -0.13530523527E+03  0.33621205433E+03  0.50400001928E-02 0.  1.
</event>
<event>
 5   0  0.2794825E-04  0.1301132E+04  0.7818609E-02  0.9028668E-01
       -2   -1    0    0    0  501  0.00000000000E+00  0.00000000000E+00  0.23206532909E+03  0.23206532910E+03  0.25500000920E-02 0. -1.
        2   -1    0    0  501    0  0.00000000000E+00  0.00000000000E+00 -0.18237808820E+04  0.18237808820E+04  0.25500000920E-02 0.  1.
    10030    2    1    2    0    0  0.00000000000E+00  0.00000000000E+00 -0.15917155530E+04  0.20558462111E+04  0.13011322924E+04 0.  0.
        1    1    3    3  502    0 -0.51239951619E+02  0.60352352881E+03 -0.11709980400E+04  0.13183711891E+04  0.50400001928E-02 0.  1.
       -1    1    3    3    0  502  0.51239951619E+02 -0.60352352881E+03 -0.42071751297E+03  0.73747502209E+03  0.50400001928E-02 0. -1.
</event>
<event>
 5   0  0.1475396E-04  0.1298465E+04  0.7818609E-02  0.9030783E-01
        1   -1    0    0  501    0  0.00000000000E+00  0.00000000000E+00  0.43411767284E+03  0.43411767287E+03  0.50400001928E-02 0. -1.
       -1   -1    0    0    0  501  0.00000000000E+00  0.00000000000E+00 -0.97094151417E+03  0.97094151418E+03  0.50400001928E-02 0.  1.
    10030    2    1    2    0    0  0.00000000000E+00  0.00000000000E+00 -0.53682384132E+03  0.14050591871E+04  0.12984650486E+04 0.  0.
        3    1    3    3  502    0  0.81316679182E+02 -0.11416069756E+03  0.41755086046E+03  0.44044727091E+03  0.10100000352E+00 0. -1.
       -3    1    3    3    0  502 -0.81316679182E+02  0.11416069756E+03 -0.95437470178E+03  0.96461191615E+03  0.10100000352E+00 0.  1.
</event>
<event>
 5   0  0.1476511E-04  0.1301703E+04  0.7818609E-02  0.9028216E-01
       -1   -1    0    0    0  501  0.00000000000E+00  0.00000000000E+00  0.63168657749E+03  0.63168657751E+03  0.50400001928E-02 0. -1.
        1   -1    0    0  501    0  0.00000000000E+00  0.00000000000E+00 -0.67059769839E+03  0.67059769841E+03  0.50400001928E-02 0.  1.
    10030    2    1    2    0    0  0.00000000000E+00  0.00000000000E+00 -0.38911120899E+02  0.13022842759E+04  0.13017028309E+04 0.  0.
        2    1    3    3  502    0  0.27177226695E+03  0.11660468968E+03 -0.59949962529E+03  0.66847334986E+03  0.25500000920E-02 0.  1.
       -2    1    3    3    0  502 -0.27177226695E+03 -0.11660468968E+03  0.56058850439E+03  0.63381092607E+03  0.25500000920E-02 0. -1.
</event>
<event>
 5   0  0.1408341E-04  0.1297738E+04  0.7818609E-02  0.9031361E-01
        1   -1    0    0  501    0  0.00000000000E+00  0.00000000000E+00  0.16128416180E+04  0.16128416181E+04  0.50400001928E-02 0. -1.
       -1   -1    0    0    0  501  0.00000000000E+00  0.00000000000E+00 -0.26104920993E+03  0.26104920998E+03  0.50400001928E-02 0.  1.
    10030    2    1    2    0    0  0.00000000000E+00  0.00000000000E+00  0.13517924081E+04  0.18738908280E+04  0.12977380786E+04 0.  0.
        5    1    3    3  502    0 -0.35501865301E+02  0.61638355133E+03  0.38775379302E+03  0.72908446616E+03  0.46999998093E+01 0. -1.
       -5    1    3    3    0  502  0.35501865301E+02 -0.61638355133E+03  0.96403861509E+03  0.11448063619E+04  0.46999998093E+01 0.  1.
</event>
<event>
 5   0  0.2661377E-04  0.1299595E+04  0.7818609E-02  0.9029887E-01
        2   -1    0    0  501    0  0.00000000000E+00  0.00000000000E+00  0.15739648254E+04  0.15739648254E+04  0.25500000920E-02 0.  1.
       -2   -1    0    0    0  501  0.00000000000E+00  0.00000000000E+00 -0.26826309427E+03  0.26826309428E+03  0.25500000920E-02 0. -1.
    10030    2    1    2    0    0  0.00000000000E+00  0.00000000000E+00  0.13057017311E+04  0.18422279197E+04  0.12995948205E+04 0.  0.
        5    1    3    3  502    0  0.63602603986E+03 -0.93093048782E+02  0.51822823322E+03  0.82569851085E+03  0.46999998093E+01 0.  1.
       -5    1    3    3    0  502 -0.63602603986E+03  0.93093048782E+02  0.78747349787E+03  0.10165294088E+04  0.46999998093E+01 0. -1.
</event>
<event>
 5   0  0.2661377E-04  0.1300901E+04  0.7818609E-02  0.9028851E-01
        2   -1    0    0  501    0  0.00000000000E+00  0.00000000000E+00  0.10436886599E+04  0.10436886599E+04  0.25500000920E-02 0. -1.
       -2   -1    0    0    0  501  0.00000000000E+00  0.00000000000E+00 -0.40537558360E+03  0.40537558361E+03  0.25500000920E-02 0.  1.
    10030    2    1    2    0    0  0.00000000000E+00  0.00000000000E+00  0.63831307627E+03  0.14490642435E+04  0.13009010717E+04 0.  0.
        5    1    3    3  502    0  0.13756521951E+03  0.74904892925E+01  0.10272310049E+04  0.10364390597E+04  0.46999998093E+01 0. -1.
       -5    1    3    3    0  502 -0.13756521951E+03 -0.74904892925E+01 -0.38891792865E+03  0.41262518376E+03  0.46999998093E+01 0.  1.
</event>
<event>
 5   0  0.2661377E-04  0.1300019E+04  0.7818609E-02  0.9029550E-01
        2   -1    0    0  501    0  0.00000000000E+00  0.00000000000E+00  0.21599108076E+04  0.21599108076E+04  0.25500000920E-02 0. -1.
       -2   -1    0    0    0  501  0.00000000000E+00  0.00000000000E+00 -0.19561572005E+03  0.19561572007E+03  0.25500000920E-02 0.  1.
    10030    2    1    2    0    0  0.00000000000E+00  0.00000000000E+00  0.19642950875E+04  0.23555265277E+04  0.13000192428E+04 0.  0.
        5    1    3    3  502    0 -0.59514508351E+03  0.12017730149E+03  0.56168072148E+03  0.82713214005E+03  0.46999998093E+01 0.  1.
       -5    1    3    3    0  502  0.59514508351E+03 -0.12017730149E+03  0.14026143661E+04  0.15283943876E+04  0.46999998093E+01 0. -1.
</event>
<event>
 5   0  0.1430636E-04  0.1299128E+04  0.7818609E-02  0.9030257E-01
       -1   -1    0    0    0  501  0.00000000000E+00  0.00000000000E+00  0.34710430778E+03  0.34710430781E+03  0.50400001928E-02 0.  1.
        1   -1    0    0  501    0  0.00000000000E+00  0.00000000000E+00 -0.12155814448E+04  0.12155814448E+04  0.50400001928E-02 0. -1.
    10030    2    1    2    0    0  0.00000000000E+00  0.00000000000E+00 -0.86847713704E+03  0.15626857526E+04  0.12991282554E+04 0.  0.
        4    1    3    3  502    0  0.30676034781E+02 -0.25400706118E+03 -0.11524162944E+04  0.11804768252E+04  0.12699999809E+01 0. -1.
       -4    1    3    3    0  502 -0.30676034781E+02  0.25400706118E+03  0.28393915738E+03  0.38220892746E+03  0.12699999809E+01 0.  1.
</event>
<event>
 5   0  0.2723209E-04  0.1297361E+04  0.7818609E-02  0.9031660E-01
       -2   -1    0    0    0  501  0.00000000000E+00  0.00000000000E+00  0.23364057454E+03  0.23364057455E+03  0.25500000920E-02 0.  1.
        2   -1    0    0  501    0  0.00000000000E+00  0.00000000000E+00 -0.18010001382E+04  0.18010001382E+04  0.25500000920E-02 0. -1.
    10030    2    1    2    0    0  0.00000000000E+00  0.00000000000E+00 -0.15673595637E+04  0.20346407128E+04  0.12973614871E+04 0.  0.
        2    1    3    3  502    0  0.29064208887E+03 -0.51321339814E+03 -0.36016594744E+03  0.69107186714E+03  0.25500000920E-02 0.  1.
       -2    1    3    3    0  502 -0.29064208887E+03  0.51321339814E+03 -0.12071936163E+04  0.13435688456E+04  0.25500000920E-02 0. -1.
</event>
<event>
 5   0  0.2756984E-04  0.1301338E+04  0.7818609E-02  0.9028505E-01
        2   -1    0    0  501    0  0.00000000000E+00  0.00000000000E+00  0.58787915522E+03  0.58787915523E+03  0.25500000920E-02 0.  1.
       -2   -1    0    0    0  501  0.00000000000E+00  0.00000000000E+00 -0.72016520903E+03  0.72016520904E+03  0.25500000920E-02 0. -1.
    10030    2    1    2    0    0  0.00000000000E+00  0.00000000000E+00 -0.13228605381E+03  0.13080443643E+04  0.13013379495E+04 0.  0.
        3    1    3    3  502    0 -0.39847457008E+02  0.30926915837E+03 -0.64016827971E+03  0.71207490386E+03  0.10100000352E+00 0. -1.
       -3    1    3    3    0  502  0.39847457008E+02 -0.30926915837E+03  0.50788222591E+03  0.59596946041E+03  0.10100000352E+00 0.  1.
</event>
<event>
 5   0  0.1479690E-04  0.1300611E+04  0.7818609E-02  0.9029080E-01
       -1   -1    0    0    0  501  0.00000000000E+00  0.00000000000E+00  0.22444983393E+03  0.22444983398E+03  0.50400001928E-02 0.  1.
        1   -1    0    0  501    0  0.00000000000E+00  0.00000000000E+00 -0.18841516080E+04  0.18841516080E+04  0.50400001928E-02 0. -1.
    10030    2    1    2    0    0  0.00000000000E+00  0.00000000000E+00 -0.16597017741E+04  0.21086014420E+04  0.13006114186E+04 0.  0.
        1    1    3    3  502    0 -0.63416464748E+03 -0.10640398721E+03 -0.98712696702E+03  0.11780943331E+04  0.50400001928E-02 0.  1.
       -1    1    3    3    0  502  0.63416464748E+03  0.10640398721E+03 -0.67257480705E+03  0.93050710890E+03  0.50400001928E-02 0. -1.
</event>
<event>
 5   0  0.2756984E-04  0.1298700E+04  0.7818609E-02  0.9030597E-01
       -2   -1    0    0    0  501  0.00000000000E+00  0.00000000000E+00  0.28593960843E+03  0.28593960844E+03  0.25500000920E-02 0. -1.
        2   -1    0    0  501    0  0.00000000000E+00  0.00000000000E+00 -0.14746299903E+04  0.14746299903E+04  0.25500000920E-02 0.  1.
    10030    2    1    2    0    0  0.00000000000E+00  0.00000000000E+00 -0.11886903818E+04  0.17605695987E+04  0.12986995372E+04 0.  0.
        3    1    3    3  502    0  0.43873897176E+03  0.42810909984E+03 -0.88473661408E+03  0.10763494661E+04  0.10100000352E+00 0.  1.
       -3    1    3    3    0  502 -0.43873897176E+03 -0.42810909984E+03 -0.30395376776E+03  0.68422013259E+03  0.10100000352E+00 0. -1.
</event>
<event>
 5   0  0.1430636E-04  0.1299407E+04  0.7818609E-02  0.9030036E-01
       -1   -1    0    0    0  501  0.00000000000E+00  0.00000000000E+00  0.81360830361E+03  0.81360830362E+03  0.50400001928E-02 0.  1.
        1   -1    0    0  501    0  0.00000000000E+00  0.00000000000E+00 -0.51881785669E+03  0.51881785672E+03  0.50400001928E-02 0. -1.
    10030    2    1    2    0    0  0.00000000000E+00  0.00000000000E+00  0.29479044692E+03  0.13324261603E+04  0.12994068128E+04 0.  0.
        4    1    3    3  502    0 -0.38802193565E+03 -0.22660934902E+03  0.62857431887E+03  0.77267076226E+03  0.12699999809E+01 0.  1.
       -4    1    3    3    0  502  0.38802193565E+03  0.22660934902E+03 -0.33378387196E+03  0.55975539808E+03  0.12699999809E+01 0. -1.
</event>
<event>
 5   0  0.2661377E-04  0.1296809E+04  0.7818609E-02  0.9032099E-01
        2   -1    0    0  501    0  0.00000000000E+00  0.00000000000E+00  0.79497518076E+03  0.79497518076E+03  0.25500000920E-02 0. -1.
       -2   -1    0    0    0  501  0.00000000000E+00  0.00000000000E+00 -0.52885742400E+03  0.52885742400E+03  0.25500000920E-02 0.  1.
    10030    2    1    2    0    0  0.00000000000E+00  0.00000000000E+00  0.26611775676E+03  0.13238326048E+04  0.12968092015E+04 0.  0.
        5    1    3    3  502    0  0.31263849046E+03  0.15790568292E+03 -0.42395735877E+03  0.54994450853E+03  0.46999998093E+01 0.  1.
       -5    1    3    3    0  502 -0.31263849046E+03 -0.15790568292E+03  0.69007511553E+03  0.77388809623E+03  0.46999998093E+01 0. -1.
</event>
<event>
 5   0  0.1475396E-04  0.1300415E+04  0.7818609E-02  0.9029236E-01
        1   -1    0    0  501    0  0.00000000000E+00  0.00000000000E+00  0.10826342022E+04  0.10826342023E+04  0.50400001928E-02 0.  1.
       -1   -1    0    0    0  501  0.00000000000E+00  0.00000000000E+00 -0.39050086647E+03  0.39050086651E+03  0.50400001928E-02 0. -1.
    10030    2    1    2    0    0  0.00000000000E+00  0.00000000000E+00  0.69213333577E+03  0.14731350688E+04  0.13004146940E+04 0.  0.
        3    1    3    3  502    0  0.13290284142E+03 -0.22822506131E+03  0.10191366087E+04  0.10528006845E+04  0.10100000352E+00 0.  1.
       -3    1    3    3    0  502 -0.13290284142E+03  0.22822506131E+03 -0.32700327295E+03  0.42033438425E+03  0.10100000352E+00 0. -1.
</event>
<event>
 5   0  0.2723209E-04  0.1280488E+04  0.7818609E-02  0.9045183E-01
       -2   -1    0    0    0  501  0.00000000000E+00  0.00000000000E+00  0.80676936824E+03  0.80676936825E+03  0.25500000920E-02 0.  1.
        2   -1    0    0  501    0  0.00000000000E+00  0.00000000000E+00 -0.50809098752E+03  0.50809098752E+03  0.25500000920E-02 0. -1.
    10030    2    1    2    0    0  0.00000000000E+00  0.00000000000E+00  0.29867838073E+03  0.13148603558E+04  0.12804877899E+04 0.  0.
        2    1    3    3  502    0 -0.13998504068E+03 -0.59467224866E+02 -0.48927158251E+03  0.51236592774E+03  0.25500000920E-02 0. -1.
       -2    1    3    3    0  502  0.13998504068E+03  0.59467224866E+02  0.78794996324E+03  0.80249442803E+03  0.25500000920E-02 0.  1.
</event>
<event>
 5   0  0.1408341E-04  0.1301168E+04  0.7818609E-02  0.9028640E-01
       -1   -1    0    0    0  501  0.00000000000E+00  0.00000000000E+00  0.11793025570E+04  0.11793025570E+04  0.50400001928E-02 0.  1.
        1   -1    0    0  501    0  0.00000000000E+00  0.00000000000E+00 -0.35890647797E+03  0.35890647800E+03  0.50400001928E-02 0. -1.
    10030    2    1    2    0    0  0.00000000000E+00  0.00000000000E+00  0.82039607899E+03  0.15382090350E+04  0.13011676713E+04 0.  0.
        5    1    3    3  502    0 -0.42805177637E+03 -0.33537760517E+03 -0.11974124514E+02  0.54394110982E+03  0.46999998093E+01 0. -1.
       -5    1    3    3    0  502  0.42805177637E+03  0.33537760517E+03  0.83237020351E+03  0.99426792515E+03  0.46999998093E+01 0.  1.
</event>
<event>
 5   0  0.1476511E-04  0.1304078E+04  0.7818609E-02  0.9026338E-01
       -1   -1    0    0    0  501  0.00000000000E+00  0.00000000000E+00  0.41781701705E+03  0.41781701708E+03  0.50400001928E-02 0.  1.
        1   -1    0    0  501    0  0.00000000000E+00  0.00000000000E+00 -0.10175616382E+04  0.10175616383E+04  0.50400001928E-02 0. -1.
    10030    2    1    2    0    0  0.00000000000E+00  0.00000000000E+00 -0.59974462120E+03  0.14353786553E+04  0.13040775566E+04 0.  0.
        2    1    3    3  502    0  0.32364133060E+03 -0.39359047472E+03 -0.74764607603E+03  0.90478275165E+03  0.25500000920E-02 0. -1.
       -2    1    3    3    0  502 -0.32364133060E+03  0.39359047472E+03  0.14790145484E+03  0.53059590369E+03  0.25500000920E-02 0.  1.
</event>
<event>
 5   0  0.1408341E-04  0.1298709E+04  0.7818609E-02  0.9030590E-01
        1   -1    0    0  501    0  0.00000000000E+00  0.00000000000E+00  0.18280310539E+04  0.18280310539E+04  0.50400001928E-02 0. -1.
       -1   -1    0    0    0  501  0.00000000000E+00  0.00000000000E+00 -0.23066410074E+03  0.23066410080E+03  0.50400001928E-02 0.  1.
    10030    2    1    2    0    0  0.00000000000E+00  0.00000000000E+00  0.15973669532E+04  0.20586951547E+04  0.12987088038E+04 0.  0.
        5    1    3    3  502    0  0.24838575959E+03  0.49779215853E+03  0.26783181739E+03  0.61745322986E+03  0.46999998093E+01 0. -1.
       -5    1    3    3    0  502 -0.24838575959E+03 -0.49779215853E+03  0.13295351358E+04  0.14412419248E+04  0.46999998093E+01 0.  1.
</event>
<event>
 5   0  0.2661377E-04  0.1300112E+04  0.7818609E-02  0.9029476E-01
        2   -1    0    0  501    0  0.00000000000E+00  0.00000000000E+00  0.44265306600E+03  0.44265306601E+03  0.25500000920E-02 0.  1.
       -2   -1    0    0    0  501  0.00000000000E+00  0.00000000000E+00 -0.95463677485E+03  0.95463677485E+03  0.25500000920E-02 0. -1.
    10030    2    1    2    0    0  0.00000000000E+00  0.00000000000E+00 -0.51198370884E+03  0.13972898409E+04  0.13001121418E+04 0.  0.
        5    1    3    3  502    0  0.42559207146E+03 -0.77883453064E+02  0.26540530193E+03  0.50759876659E+03  0.46999998093E+01 0.  1.
       -5    1    3    3    0  502 -0.42559207146E+03  0.77883453064E+02 -0.77738901078E+03  0.88969107427E+03  0.46999998093E+01 0. -1.
</event>
<event>
 5   0  0.1408341E-04  0.1301739E+04  0.7818609E-02  0.9028187E-01
        1   -1    0    0  501    0  0.00000000000E+00  0.00000000000E+00  0.15714471402E+04  0.15714471402E+04  0.50400001928E-02 0. -1.
       -1   -1    0    0    0  501  0.00000000000E+00  0.00000000000E+00 -0.26958015711E+03  0.26958015716E+03  0.50400001928E-02 0.  1.
    10030    2    1    2    0    0  0.00000000000E+00  0.00000000000E+00  0.13018669831E+04  0.18410272974E+04  0.13017387864E+04 0.  0.
        5    1    3    3  502    0 -0.64150912637E+03 -0.59996932992E+02  0.52073271953E+03  0.82844326684E+03  0.46999998093E+01 0.  1.
       -5    1    3    3    0  502  0.64150912637E+03  0.59996932992E+02  0.78113426356E+03  0.10125840305E+04  0.46999998093E+01 0. -1.
</event>
<event>
 5   0  0.2794825E-04  0.1301544E+04  0.7818609E-02  0.9028342E-01
        2   -1    0    0  501    0  0.00000000000E+00  0.00000000000E+00  0.80817115207E+03  0.80817115207E+03  0.25500000920E-02 0.  1.
       -2   -1    0    0    0  501  0.00000000000E+00  0.00000000000E+00 -0.52402762816E+03  0.52402762817E+03  0.25500000920E-02 0. -1.
    10030    2    1    2    0    0  0.00000000000E+00  0.00000000000E+00  0.28414352390E+03  0.13321987802E+04  0.13015437172E+04 0.  0.
        1    1    3    3  502    0 -0.34180905194E+03 -0.10710702847E+03  0.69819042324E+03  0.78471345769E+03  0.50400001928E-02 0.  1.
       -1    1    3    3    0  502  0.34180905194E+03  0.10710702847E+03 -0.41404689934E+03  0.54748532256E+03  0.50400001928E-02 0. -1.
</event>
<event>
 5   0  0.2661377E-04  0.1299612E+04  0.7818609E-02  0.9029873E-01
       -2   -1    0    0    0  501  0.00000000000E+00  0.00000000000E+00  0.37654988232E+03  0.37654988233E+03  0.25500000920E-02 0.  1.
        2   -1    0    0  501    0  0.00000000000E+00  0.00000000000E+00 -0.11213591556E+04  0.11213591556E+04  0.25500000920E-02 0. -1.
    10030    2    1    2    0    0  0.00000000000E+00  0.00000000000E+00 -0.74480927329E+03  0.14979090379E+04  0.12996117237E+04 0.  0.
        5    1    3    3  502    0  0.26241521200E+03 -0.66175655623E+02  0.30848222896E+03  0.41039534167E+03  0.46999998093E+01 0.  1.
       -5    1    3    3    0  502 -0.26241521200E+03  0.66175655623E+02 -0.10532915022E+04  0.10875136963E+04  0.46999998093E+01 0. -1.
</event>
<event>
 5   0  0.2661377E-04  0.1299716E+04  0.7818609E-02  0.9029791E-01
        2   -1    0    0  501    0  0.00000000000E+00  0.00000000000E+00  0.13031586009E+04  0.13031586009E+04  0.25500000920E-02 0.  1.
       -2   -1    0    0    0  501  0.00000000000E+00  0.00000000000E+00 -0.32407046081E+03  0.32407046082E+03  0.25500000920E-02 0. -1.
    10030    2    1    2    0    0  0.00000000000E+00  0.00000000000E+00  0.97908814005E+03  0.16272290617E+04  0.12997156740E+04 0.  0.
        5    1    3    3  502    0  0.11314030925E+03  0.63047823947E+03  0.35245517078E+03  0.73112945326E+03  0.46999998093E+01 0. -1.
       -5    1    3    3    0  502 -0.11314030925E+03 -0.63047823947E+03  0.62663296927E+03  0.89609960841E+03  0.46999998093E+01 0.  1.
</event>
<event>
 5   0  0.1408341E-04  0.1302254E+04  0.7818609E-02  0.9027780E-01
       -1   -1    0    0    0  501  0.00000000000E+00  0.00000000000E+00  0.65950767263E+03  0.65950767265E+03  0.50400001928E-02 0.  1.
        1   -1    0    0  501    0  0.00000000000E+00  0.00000000000E+00 -0.64285285238E+03  0.64285285240E+03  0.50400001928E-02 0. -1.
    10030    2    1    2    0    0  0.00000000000E+00  0.00000000000E+00  0.16654820249E+02  0.13023605250E+04  0.13022540283E+04 0.  0.
        5    1    3    3  502    0  0.10277594379E+03  0.15036996575E+03 -0.61683992218E+03  0.64318551042E+03  0.46999998093E+01 0. -1.
       -5    1    3    3    0  502 -0.10277594379E+03 -0.15036996575E+03  0.63349474243E+03  0.65917501462E+03  0.46999998093E+01 0.  1.
</event>
<event>
 5   0  0.1408341E-04  0.1300668E+04  0.7818609E-02  0.9029035E-01
        1   -1    0    0  501    0  0.00000000000E+00  0.00000000000E+00  0.48951101637E+03  0.48951101639E+03  0.50400001928E-02 0. -1.
       -1   -1    0    0    0  501  0.00000000000E+00  0.00000000000E+00 -0.86399403017E+03  0.86399403018E+03  0.50400001928E-02 0.  1.
    10030    2    1    2    0    0  0.00000000000E+00  0.00000000000E+00 -0.37448301380E+03  0.13535050466E+04  0.13006684372E+04 0.  0.
        5    1    3    3  502    0 -0.14539763106E+03 -0.60829024397E+03 -0.18032095469E+01  0.62544610766E+03  0.46999998093E+01 0. -1.
       -5    1    3    3    0  502  0.14539763106E+03  0.60829024397E+03 -0.37267980425E+03  0.72805893891E+03  0.46999998093E+01 0.  1.
</event>
<event>
 5   0  0.2661377E-04  0.1306142E+04  0.7818609E-02  0.9024709E-01
       -2   -1    0    0    0  501  0.00000000000E+00  0.00000000000E+00  0.50693630157E+03  0.50693630158E+03  0.25500000920E-02 0.  1.
        2   -1    0    0  501    0  0.00000000000E+00  0.00000000000E+00 -0.84133159411E+03  0.84133159411E+03  0.25500000920E-02 0. -1.
    10030    2    1    2    0    0  0.00000000000E+00  0.00000000000E+00 -0.33439529254E+03  0.13482678957E+04  0.13061416871E+04 0.  0.
        5    1    3    3  502    0  0.39857822676E+03  0.14756019537E+03 -0.67901252032E+03  0.80107347157E+03  0.46999998093E+01 0. -1.
       -5    1    3    3    0  502 -0.39857822676E+03 -0.14756019537E+03  0.34461722778E+03  0.54719442412E+03  0.46999998093E+01 0.  1.
</event>
<event>
 5   0  0.1430636E-04  0.1306917E+04  0.7818609E-02  0.9024098E-01
        1   -1    0    0  501    0  0.00000000000E+00  0.00000000000E+00  0.95766754059E+03  0.95766754060E+03  0.50400001928E-02 0.  1.
       -1   -1    0    0    0  501  0.00000000000E+00  0.00000000000E+00 -0.44588310779E+03  0.44588310782E+03  0.50400001928E-02 0. -1.
    10030    2    1    2    0    0  0.00000000000E+00  0.00000000000E+00  0.51178443279E+03  0.14035506484E+04  0.13069166450E+04 0.  0.
        4    1    3    3  502    0 -0.58742069923E+02 -0.23977271302E+02 -0.44256601157E+03  0.44709263896E+03  0.12699999809E+01 0. -1.
       -4    1    3    3    0  502  0.58742069923E+02  0.23977271302E+02  0.95435044436E+03  0.95645800946E+03  0.12699999809E+01 0.  1.
</event>
<event>
 5   0  0.2794825E-04  0.1299912E+04  0.7818609E-02  0.9029635E-01
        2   -1    0    0  501    0  0.00000000000E+00  0.00000000000E+00  0.76241167898E+03  0.76241167899E+03  0.25500000920E-02 0.  1.
       -2   -1    0    0    0  501  0.00000000000E+00  0.00000000000E+00 -0.55408779386E+03  0.55408779387E+03  0.25500000920E-02 0. -1.
    10030    2    1    2    0    0  0.00000000000E+00  0.00000000000E+00  0.20832388512E+03  0.13164994729E+04  0.12999123128E+04 0.  0.
        1    1    3    3  502    0 -0.28900934307E+03 -0.33169178039E+03 -0.38037494081E+03  0.58157624881E+03  0.50400001928E-02 0. -1.
       -1    1    3    3    0  502  0.28900934307E+03  0.33169178039E+03  0.58869882593E+03  0.73492322404E+03  0.50400001928E-02 0.  1.
</event>
<event>
 5   0  0.1408341E-04  0.1298416E+04  0.7818609E-02  0.9030822E-01
        1   -1    0    0  501    0  0.00000000000E+00  0.00000000000E+00  0.17847520529E+04  0.17847520529E+04  0.50400001928E-02 0.  1.
       -1   -1    0    0    0  501  0.00000000000E+00  0.00000000000E+00 -0.23615108620E+03  0.23615108625E+03  0.50400001928E-02 0. -1.
    10030    2    1    2    0    0  0.00000000000E+00  0.00000000000E+00  0.15486009667E+04  0.20209031391E+04  0.12984161674E+04 0.  0.
        5    1    3    3  502    0  0.30909150101E+03 -0.56894577167E+03  0.84750597535E+03  0.10665483183E+04  0.46999998093E+01 0.  1.
       -5    1    3    3    0  502 -0.30909150101E+03  0.56894577167E+03  0.70109499131E+03  0.95435482078E+03  0.46999998093E+01 0. -1.
</event>
<event>
 5   0  0.1479690E-04  0.1298582E+04  0.7818609E-02  0.9030691E-01
        1   -1    0    0  501    0  0.00000000000E+00  0.00000000000E+00  0.78129305649E+03  0.78129305651E+03  0.50400001928E-02 0. -1.
       -1   -1    0    0    0  501  0.00000000000E+00  0.00000000000E+00 -0.53959098208E+03  0.53959098210E+03  0.50400001928E-02 0.  1.
    10030    2    1    2    0    0  0.00000000000E+00  0.00000000000E+00  0.24170207441E+03  0.13208840386E+04  0.12985818229E+04 0.  0.
        1    1    3    3  502    0 -0.59069400958E+02 -0.42035251446E+02 -0.53546094085E+03  0.54034671804E+03  0.50400001928E-02 0.  1.
       -1    1    3    3    0  502  0.59069400958E+02  0.42035251446E+02  0.77716301526E+03  0.78053732057E+03  0.50400001928E-02 0. -1.
</event>
<event>
 5   0  0.1479690E-04  0.1303808E+04  0.7818609E-02  0.9026551E-01
       -1   -1    0    0    0  501  0.00000000000E+00  0.00000000000E+00  0.39346611592E+03  0.39346611595E+03  0.50400001928E-02 0.  1.
        1   -1    0    0  501    0  0.00000000000E+00  0.00000000000E+00 -0.10800898715E+04  0.10800898715E+04  0.50400001928E-02 0. -1.
    10030    2    1    2    0    0  0.00000000000E+00  0.00000000000E+00 -0.68662375555E+03  0.14735559874E+04  0.13038079101E+04 0.  0.
        1    1    3    3  502    0 -0.10486165008E+03 -0.61781766259E+02 -0.10671355132E+04  0.10740536094E+04  0.50400001928E-02 0. -1.
       -1    1    3    3    0  502  0.10486165008E+03  0.61781766259E+02  0.38051175766E+03  0.39950237802E+03  0.50400001928E-02 0.  1.
</event>
<event>
 5   0  0.1430636E-04  0.1298859E+04  0.7818609E-02  0.9030470E-01
        1   -1    0    0  501    0  0.00000000000E+00  0.00000000000E+00  0.20683082597E+04  0.20683082597E+04  0.50400001928E-02 0. -1.
       -1   -1    0    0    0  501  0.00000000000E+00  0.00000000000E+00 -0.20391487250E+03  0.20391487256E+03  0.50400001928E-02 0.  1.
    10030    2    1    2    0    0  0.00000000000E+00  0.00000000000E+00  0.18643933872E+04  0.22722231323E+04  0.12988592151E+04 0.  0.
        4    1    3    3  502    0 -0.13035541335E+03  0.30156269040E+03 -0.47817571524E+02  0.33199506484E+03  0.12699999809E+01 0.  1.
       -4    1    3    3    0  502  0.13035541335E+03 -0.30156269040E+03  0.19122109588E+04  0.19402280675E+04  0.12699999809E+01 0. -1.
</event>
<event>
 5   0  0.2573071E-04  0.1289870E+04  0.7818609E-02  0.9037637E-01
        2   -1    0    0  501    0  0.00000000000E+00  0.00000000000E+00  0.18810191890E+04  0.18810191890E+04  0.25500000920E-02 0. -1.
       -2   -1    0    0    0  501  0.00000000000E+00  0.00000000000E+00 -0.22112543005E+03  0.22112543006E+03  0.25500000920E-02 0.  1.
    10030    2    1    2    0    0  0.00000000000E+00  0.00000000000E+00  0.16598937589E+04  0.21021446190E+04  0.12898700355E+04 0.  0.
        4    1    3    3  502    0  0.50349341879E+03 -0.12460146070E+03  0.20529223033E+03  0.55783300324E+03  0.12699999809E+01 0.  1.
       -4    1    3    3    0  502 -0.50349341879E+03  0.12460146070E+03  0.14546015286E+04  0.15443116158E+04  0.12699999809E+01 0. -1.
</event>
<event>
 5   0  0.2756984E-04  0.1299070E+04  0.7818609E-02  0.9030303E-01
        2   -1    0    0  501    0  0.00000000000E+00  0.00000000000E+00  0.85857960396E+03  0.85857960396E+03  0.25500000920E-02 0.  1.
       -2   -1    0    0    0  501  0.00000000000E+00  0.00000000000E+00 -0.49138768736E+03  0.49138768737E+03  0.25500000920E-02 0. -1.
    10030    2    1    2    0    0  0.00000000000E+00  0.00000000000E+00  0.36719191660E+03  0.13499672913E+04  0.12990695840E+04 0.  0.
        3    1    3    3  502    0  0.32428803976E+03  0.17690180067E+03 -0.37160099382E+03  0.52396974018E+03  0.10100000352E+00 0. -1.
       -3    1    3    3    0  502 -0.32428803976E+03 -0.17690180067E+03  0.73879291042E+03  0.82599755115E+03  0.10100000352E+00 0.  1.
</event>
<event>
 5   0  0.1430636E-04  0.1300449E+04  0.7818609E-02  0.9029209E-01
        1   -1    0    0  501    0  0.00000000000E+00  0.00000000000E+00  0.13484778010E+04  0.13484778010E+04  0.50400001928E-02 0.  1.
       -1   -1    0    0    0  501  0.00000000000E+00  0.00000000000E+00 -0.31353263669E+03  0.31353263673E+03  0.50400001928E-02 0. -1.
    10030    2    1    2    0    0  0.00000000000E+00  0.00000000000E+00  0.10349451643E+04  0.16620104377E+04  0.13004488464E+04 0.  0.
        4    1    3    3  502    0  0.13745294341E+03  0.39738426804E+03  0.11513316158E+04  0.12257135353E+04  0.12699999809E+01 0.  1.
       -4    1    3    3    0  502 -0.13745294341E+03 -0.39738426804E+03 -0.11638645145E+03  0.43629690249E+03  0.12699999809E+01 0. -1.
</event>
<event>
 5   0  0.2661377E-04  0.1297207E+04  0.7818609E-02  0.9031783E-01
       -2   -1    0    0    0  501  0.00000000000E+00  0.00000000000E+00  0.57329425966E+03  0.57329425967E+03  0.25500000920E-02 0.  1.
        2   -1    0    0  501    0  0.00000000000E+00  0.00000000000E+00 -0.73380541108E+03  0.73380541108E+03  0.25500000920E-02 0. -1.
    10030    2    1    2    0    0  0.00000000000E+00  0.00000000000E+00 -0.16051115141E+03  0.13070996707E+04  0.12972068916E+04 0.  0.
        5    1    3    3  502    0  0.93809935446E+02  0.33666663905E+03 -0.63079178832E+03  0.72115539244E+03  0.46999998093E+01 0. -1.
       -5    1    3    3    0  502 -0.93809935446E+02 -0.33666663905E+03  0.47028063690E+03  0.58594427831E+03  0.46999998093E+01 0.  1.
</event>
<event>
 5   0  0.2756984E-04  0.1299039E+04  0.7818609E-02  0.9030328E-01
        2   -1    0    0  501    0  0.00000000000E+00  0.00000000000E+00  0.14790927185E+04  0.14790927185E+04  0.25500000920E-02 0.  1.
       -2   -1    0    0    0  501  0.00000000000E+00  0.00000000000E+00 -0.28522586320E+03  0.28522586321E+03  0.25500000920E-02 0. -1.
    10030    2    1    2    0    0  0.00000000000E+00  0.00000000000E+00  0.11938668553E+04  0.17643185818E+04  0.12990388715E+04 0.  0.
        3    1    3    3  502    0 -0.10727893609E+03 -0.25602501135E+03  0.13944684609E+04  0.14218297631E+04  0.10100000352E+00 0.  1.
       -3    1    3    3    0  502  0.10727893609E+03  0.25602501135E+03 -0.20060160555E+03  0.34248881867E+03  0.10100000352E+00 0. -1.
</event>
<event>
 5   0  0.2573071E-04  0.1302386E+04  0.7818609E-02  0.9027675E-01
        2   -1    0    0  501    0  0.00000000000E+00  0.00000000000E+00  0.15451363172E+04  0.15451363172E+04  0.25500000920E-02 0. -1.
       -2   -1    0    0    0  501  0.00000000000E+00  0.00000000000E+00 -0.27444348236E+03  0.27444348238E+03  0.25500000920E-02 0.  1.
    10030    2    1    2    0    0  0.00000000000E+00  0.00000000000E+00  0.12706928349E+04  0.18195797996E+04  0.13023864122E+04 0.  0.
        4    1    3    3  502    0 -0.35444313259E+03 -0.29117384705E+03 -0.10413896048E+02  0.45882698872E+03  0.12699999809E+01 0.  1.
       -4    1    3    3    0  502  0.35444313259E+03  0.29117384705E+03  0.12811067309E+04  0.13607528109E+04  0.12699999809E+01 0. -1.
</event>
<event>
 5   0  0.2723209E-04  0.1274913E+04  0.7818609E-02  0.9049699E-01
        2   -1    0    0  501    0  0.00000000000E+00  0.00000000000E+00  0.13514340482E+04  0.13514340482E+04  0.25500000920E-02 0. -1.
       -2   -1    0    0    0  501  0.00000000000E+00  0.00000000000E+00 -0.30068139559E+03  0.30068139560E+03  0.25500000920E-02 0.  1.
    10030    2    1    2    0    0  0.00000000000E+00  0.00000000000E+00  0.10507526526E+04  0.16521154438E+04  0.12749134491E+04 0.  0.
        2    1    3    3  502    0 -0.49331972054E+03  0.13821065426E+03  0.33827389734E+02  0.51343044702E+03  0.25500000920E-02 0.  1.
       -2    1    3    3    0  502  0.49331972054E+03 -0.13821065426E+03  0.10169252629E+04  0.11386849968E+04  0.25500000920E-02 0. -1.
</event>
<event>
 5   0  0.2723209E-04  0.1300850E+04  0.7818609E-02  0.9028891E-01
       -2   -1    0    0    0  501  0.00000000000E+00  0.00000000000E+00  0.15961457062E+03  0.15961457064E+03  0.25500000920E-02 0. -1.
        2   -1    0    0  501    0  0.00000000000E+00  0.00000000000E+00 -0.26504656136E+04  0.26504656136E+04  0.25500000920E-02 0.  1.
    10030    2    1    2    0    0  0.00000000000E+00  0.00000000000E+00 -0.24908510430E+04  0.28100801842E+04  0.13008503847E+04 0.  0.
        2    1    3    3  502    0 -0.44501205843E+03 -0.48850215374E+02 -0.22616773004E+03  0.50157144836E+03  0.25500000920E-02 0.  1.
       -2    1    3    3    0  502  0.44501205843E+03  0.48850215374E+02 -0.22646833129E+04  0.23085087358E+04  0.25500000920E-02 0. -1.
</event>
<event>
 5   0  0.2723209E-04  0.1304423E+04  0.7818609E-02  0.9026065E-01
       -2   -1    0    0    0  501  0.00000000000E+00  0.00000000000E+00  0.14487532944E+04  0.14487532944E+04  0.25500000920E-02 0.  1.
        2   -1    0    0  501    0  0.00000000000E+00  0.00000000000E+00 -0.29361771547E+03  0.29361771548E+03  0.25500000920E-02 0. -1.
    10030    2    1    2    0    0  0.00000000000E+00  0.00000000000E+00  0.11551355789E+04  0.17423710098E+04  0.13044226808E+04 0.  0.
        2    1    3    3  502    0 -0.23041472914E+03  0.30562379362E+03 -0.12782845961E+03  0.40353062551E+03  0.25500000920E-02 0. -1.
       -2    1    3    3    0  502  0.23041472914E+03 -0.30562379362E+03  0.12829640385E+04  0.13388403843E+04  0.25500000920E-02 0.  1.
</event>
<event>
 5   0  0.2756984E-04  0.1300616E+04  0.7818609E-02  0.9029077E-01
        2   -1    0    0  501    0  0.00000000000E+00  0.00000000000E+00  0.81138243828E+03  0.81138243829E+03  0.25500000920E-02 0.  1.
       -2   -1    0    0    0  501  0.00000000000E+00  0.00000000000E+00 -0.52120971133E+03  0.52120971133E+03  0.25500000920E-02 0. -1.
    10030    2    1    2    0    0  0.00000000000E+00  0.00000000000E+00  0.29017272695E+03  0.13325921496E+04  0.13006158640E+04 0.  0.
        3    1    3    3  502    0  0.14220066602E+02 -0.34138202790E+03  0.71200396828E+03  0.78974271780E+03  0.10100000352E+00 0.  1.
       -3    1    3    3    0  502 -0.14220066602E+02  0.34138202790E+03 -0.42183124133E+03  0.54284943182E+03  0.10100000352E+00 0. -1.
</event>
<event>
 5   0  0.2573071E-04  0.1294735E+04  0.7818609E-02  0.9033750E-01
        2   -1    0    0  501    0  0.00000000000E+00  0.00000000000E+00  0.92343594030E+03  0.92343594031E+03  0.25500000920E-02 0. -1.
       -2   -1    0    0    0  501  0.00000000000E+00  0.00000000000E+00 -0.45383220975E+03  0.45383220976E+03  0.25500000920E-02 0.  1.
    10030    2    1    2    0    0  0.00000000000E+00  0.00000000000E+00  0.46960373055E+03  0.13772681501E+04  0.12947354531E+04 0.  0.
        4    1    3    3  502    0  0.13235076353E+03 -0.40625047190E+03  0.75214417799E+03  0.86503100980E+03  0.12699999809E+01 0. -1.
       -4    1    3    3    0  502 -0.13235076353E+03  0.40625047190E+03 -0.28254044744E+03  0.51223714027E+03  0.12699999809E+01 0.  1.
</event>
<event>
 5   0  0.2794825E-04  0.1299288E+04  0.7818609E-02  0.9030130E-01
        2   -1    0    0  501    0  0.00000000000E+00  0.00000000000E+00  0.50000808069E+03  0.50000808069E+03  0.25500000920E-02 0. -1.
       -2   -1    0    0    0  501  0.00000000000E+00  0.00000000000E+00 -0.84406108279E+03  0.84406108279E+03  0.25500000920E-02 0.  1.
    10030    2    1    2    0    0  0.00000000000E+00  0.00000000000E+00 -0.34405300210E+03  0.13440691635E+04  0.12992880543E+04 0.  0.
        1    1    3    3  502    0 -0.37590935044E+03 -0.38118321356E+03  0.20866380244E+03  0.57458599402E+03  0.50400001928E-02 0. -1.
       -1    1    3    3    0  502  0.37590935044E+03  0.38118321356E+03 -0.55271680454E+03  0.76948316947E+03  0.50400001928E-02 0.  1.
</event>
<event>
 5   0  0.1479690E-04  0.1304165E+04  0.7818609E-02  0.9026268E-01
        1   -1    0    0  501    0  0.00000000000E+00  0.00000000000E+00  0.50902603644E+03  0.50902603646E+03  0.50400001928E-02 0.  1.
       -1   -1    0    0    0  501  0.00000000000E+00  0.00000000000E+00 -0.83534397365E+03  0.83534397367E+03  0.50400001928E-02 0. -1.
    10030    2    1    2    0    0  0.00000000000E+00  0.00000000000E+00 -0.32631793721E+03  0.13443700101E+04  0.13041653760E+04 0.  0.
        1    1    3    3  502    0  0.25531820760E+03  0.59897711600E+03 -0.12670117447E+03  0.66333563169E+03  0.50400001928E-02 0. -1.
       -1    1    3    3    0  502 -0.25531820760E+03 -0.59897711600E+03 -0.19961676274E+03  0.68103437844E+03  0.50400001928E-02 0.  1.
</event>
<event>
 5   0  0.1475396E-04  0.1300530E+04  0.7818609E-02  0.9029145E-01
       -1   -1    0    0    0  501  0.00000000000E+00  0.00000000000E+00  0.27931614573E+03  0.27931614578E+03  0.50400001928E-02 0. -1.
        1   -1    0    0  501    0  0.00000000000E+00  0.00000000000E+00 -0.15138566161E+04  0.15138566161E+04  0.50400001928E-02 0.  1.
    10030    2    1    2    0    0  0.00000000000E+00  0.00000000000E+00 -0.12345404704E+04  0.17931727619E+04  0.13005300385E+04 0.  0.
        3    1    3    3  502    0  0.29595771596E+03  0.56674993329E+03 -0.45384806191E+03  0.78407558948E+03  0.10100000352E+00 0.  1.
       -3    1    3    3    0  502 -0.29595771596E+03 -0.56674993329E+03 -0.78069240845E+03  0.10090971724E+04  0.10100000352E+00 0. -1.
</event>
<event>
 5   0  0.1479690E-04  0.1300536E+04  0.7818609E-02  0.9029141E-01
        1   -1    0    0  501    0  0.00000000000E+00  0.00000000000E+00  0.53032836310E+03  0.53032836313E+03  0.50400001928E-02 0. -1.
       -1   -1    0    0    0  501  0.00000000000E+00  0.00000000000E+00 -0.79733278509E+03  0.79733278510E+03  0.50400001928E-02 0.  1.
    10030    2    1    2    0    0  0.00000000000E+00  0.00000000000E+00 -0.26700442198E+03  0.13276611482E+04  0.13005355678E+04 0.  0.
        1    1    3    3  502    0 -0.44264361245E+03  0.61357013947E+02 -0.61574261479E+03  0.76081339270E+03  0.50400001928E-02 0.  1.
       -1    1    3    3    0  502  0.44264361245E+03 -0.61357013947E+02  0.34873819281E+03  0.56684775554E+03  0.50400001928E-02 0. -1.
</event>
<event>
 5   0  0.2573071E-04  0.1284391E+04  0.7818609E-02  0.9042035E-01
        2   -1    0    0  501    0  0.00000000000E+00  0.00000000000E+00  0.58387520150E+03  0.58387520151E+03  0.25500000920E-02 0. -1.
       -2   -1    0    0    0  501  0.00000000000E+00  0.00000000000E+00 -0.70634161427E+03  0.70634161428E+03  0.25500000920E-02 0.  1.
    10030    2    1    2    0    0  0.00000000000E+00  0.00000000000E+00 -0.12246641277E+03  0.12902168158E+04  0.12843914549E+04 0.  0.
        4    1    3    3  502    0  0.63770220898E+03  0.87535157025E+01  0.14427778836E+02  0.63792672391E+03  0.12699999809E+01 0. -1.
       -4    1    3    3    0  502 -0.63770220898E+03 -0.87535157025E+01 -0.13689419161E+03  0.65229009188E+03  0.12699999809E+01 0.  1.
</event>
<event>
 5   0  0.2723209E-04  0.1299591E+04  0.7818609E-02  0.9029890E-01
        2   -1    0    0  501    0  0.00000000000E+00  0.00000000000E+00  0.53161892299E+03  0.53161892300E+03  0.25500000920E-02 0. -1.
       -2   -1    0    0    0  501  0.00000000000E+00  0.00000000000E+00 -0.79424202863E+03  0.79424202864E+03  0.25500000920E-02 0.  1.
    10030    2    1    2    0    0  0.00000000000E+00  0.00000000000E+00 -0.26262310564E+03  0.13258609516E+04  0.12995908462E+04 0.  0.
        2    1    3    3  502    0  0.61860813957E+03  0.11980348680E+03 -0.29328218992E+03  0.69501320039E+03  0.25500000920E-02 0.  1.
       -2    1    3    3    0  502 -0.61860813957E+03 -0.11980348680E+03  0.30659084278E+02  0.63084775124E+03  0.25500000920E-02 0. -1.
</event>
<event>
 5   0  0.2723209E-04  0.1299901E+04  0.7818609E-02  0.9029644E-01
        2   -1    0    0  501    0  0.00000000000E+00  0.00000000000E+00  0.17351506752E+04  0.17351506752E+04  0.25500000920E-02 0. -1.
       -2   -1    0    0    0  501  0.00000000000E+00  0.00000000000E+00 -0.24345766649E+03  0.24345766651E+03  0.25500000920E-02 0.  1.
    10030    2    1    2    0    0  0.00000000000E+00  0.00000000000E+00  0.14916930087E+04  0.19786083417E+04  0.12999011261E+04 0.  0.
        2    1    3    3  502    0 -0.46326717556E+03 -0.32447648627E+03  0.25844817746E+03  0.62184960122E+03  0.25500000920E-02 0.  1.
       -2    1    3    3    0  502  0.46326717556E+03  0.32447648627E+03  0.12332448312E+04  0.13567587405E+04  0.25500000920E-02 0. -1.
</event>
<event>
 5   0  0.2794825E-04  0.1306116E+04  0.7818609E-02  0.9024729E-01
       -2   -1    0    0    0  501  0.00000000000E+00  0.00000000000E+00  0.14220719560E+04  0.14220719560E+04  0.25500000920E-02 0. -1.
        2   -1    0    0  501    0  0.00000000000E+00  0.00000000000E+00 -0.29990397420E+03  0.29990397421E+03  0.25500000920E-02 0.  1.
    10030    2    1    2    0    0  0.00000000000E+00  0.00000000000E+00  0.11221679818E+04  0.17219759302E+04  0.13061164285E+04 0.  0.
        1    1    3    3  502    0 -0.47121984963E+03 -0.28896025822E+03  0.10195721334E+04  0.11597730436E+04  0.50400001928E-02 0. -1.
       -1    1    3    3    0  502  0.47121984963E+03  0.28896025822E+03  0.10259584837E+03  0.56220288655E+03  0.50400001928E-02 0.  1.
</event>
<event>
 5   0  0.2661377E-04  0.1302176E+04  0.7818609E-02  0.9027841E-01
       -2   -1    0    0    0  501  0.00000000000E+00  0.00000000000E+00  0.47161807875E+03  0.47161807876E+03  0.25500000920E-02 0. -1.
        2   -1    0    0  501    0  0.00000000000E+00  0.00000000000E+00 -0.89885398144E+03  0.89885398144E+03  0.25500000920E-02 0.  1.
    10030    2    1    2    0    0  0.00000000000E+00  0.00000000000E+00 -0.42723590269E+03  0.13704720602E+04  0.13021763134E+04 0.  0.
        5    1    3    3  502    0  0.51988038390E+03  0.33397402589E+03 -0.42950935051E+03  0.75253879349E+03  0.46999998093E+01 0.  1.
       -5    1    3    3    0  502 -0.51988038390E+03 -0.33397402589E+03  0.22734478242E+01  0.61793326671E+03  0.46999998093E+01 0. -1.
</event>
<event>
 5   0  0.1476511E-04  0.1299906E+04  0.7818609E-02  0.9029640E-01
       -1   -1    0    0    0  501  0.00000000000E+00  0.00000000000E+00  0.35974960244E+03  0.35974960247E+03  0.50400001928E-02 0. -1.
        1   -1    0    0  501    0  0.00000000000E+00  0.00000000000E+00 -0.11742577907E+04  0.11742577907E+04  0.50400001928E-02 0.  1.
    10030    2    1    2    0    0  0.00000000000E+00  0.00000000000E+00 -0.81450818828E+03  0.15340073932E+04  0.12999058018E+04 0.  0.
        2    1    3    3  502    0  0.51012832045E+03 -0.21445209463E+03 -0.80955645889E+03  0.98061320834E+03  0.25500000920E-02 0. -1.
       -2    1    3    3    0  502 -0.51012832045E+03  0.21445209463E+03 -0.49517293866E+01  0.55339418487E+03  0.25500000920E-02 0.  1.
</event>
<event>
 5   0  0.1475396E-04  0.1292981E+04  0.7818609E-02  0.9035150E-01
        1   -1    0    0  501    0  0.00000000000E+00  0.00000000000E+00  0.55971166879E+03  0.55971166881E+03  0.50400001928E-02 0.  1.
       -1   -1    0    0    0  501  0.00000000000E+00  0.00000000000E+00 -0.74672328903E+03  0.74672328905E+03  0.50400001928E-02 0. -1.
    10030    2    1    2    0    0  0.00000000000E+00  0.00000000000E+00 -0.18701162024E+03  0.13064349579E+04  0.12929806468E+04 0.  0.
        3    1    3    3  502    0  0.15985628002E+03  0.62606082066E+03 -0.11478550561E+03  0.65626359333E+03  0.10100000352E+00 0. -1.
       -3    1    3    3    0  502 -0.15985628002E+03 -0.62606082066E+03 -0.72226114633E+02  0.65017136454E+03  0.10100000352E+00 0.  1.
</event>
<event>
 5   0  0.1479690E-04  0.1300404E+04  0.7818609E-02  0.9029245E-01
        1   -1    0    0  501    0  0.00000000000E+00  0.00000000000E+00  0.65249057978E+03  0.65249057980E+03  0.50400001928E-02 0.  1.
       -1   -1    0    0    0  501  0.00000000000E+00  0.00000000000E+00 -0.64792116098E+03  0.64792116100E+03  0.50400001928E-02 0. -1.
    10030    2    1    2    0    0  0.00000000000E+00  0.00000000000E+00  0.45694187969E+01  0.13004117408E+04  0.13004037127E+04 0.  0.
        1    1    3    3  502    0 -0.49966477591E+03 -0.41437528804E+02 -0.41169912235E+03  0.64875120382E+03  0.50400001928E-02 0. -1.
       -1    1    3    3    0  502  0.49966477591E+03  0.41437528804E+02  0.41626854115E+03  0.65166053698E+03  0.50400001928E-02 0.  1.
</event>
<event>
 5   0  0.1476511E-04  0.1299759E+04  0.7818609E-02  0.9029757E-01
        1   -1    0    0  501    0  0.00000000000E+00  0.00000000000E+00  0.16157605858E+04  0.16157605858E+04  0.50400001928E-02 0. -1.
       -1   -1    0    0    0  501  0.00000000000E+00  0.00000000000E+00 -0.26138962987E+03  0.26138962992E+03  0.50400001928E-02 0.  1.
    10030    2    1    2    0    0  0.00000000000E+00  0.00000000000E+00  0.13543709559E+04  0.18771502157E+04  0.12997585338E+04 0.  0.
        2    1    3    3  502    0  0.88977713485E+02  0.53280565697E+03  0.15537226226E+03  0.56208490594E+03  0.25500000920E-02 0.  1.
       -2    1    3    3    0  502 -0.88977713485E+02 -0.53280565697E+03  0.11989986937E+04  0.13150653098E+04  0.25500000920E-02 0. -1.
</event>
<event>
 5   0  0.2756984E-04  0.1299360E+04  0.7818609E-02  0.9030073E-01
       -2   -1    0    0    0  501  0.00000000000E+00  0.00000000000E+00  0.61413973379E+03  0.61413973379E+03  0.25500000920E-02 0.  1.
        2   -1    0    0  501    0  0.00000000000E+00  0.00000000000E+00 -0.68727647449E+03  0.68727647450E+03  0.25500000920E-02 0. -1.
    10030    2    1    2    0    0  0.00000000000E+00  0.00000000000E+00 -0.73136740704E+02  0.13014162083E+04  0.12993595208E+04 0.  0.
        3    1    3    3  502    0 -0.22096394378E+03  0.56678999027E+03 -0.26498158043E+03  0.66354442631E+03  0.10100000352E+00 0. -1.
       -3    1    3    3    0  502  0.22096394378E+03 -0.56678999027E+03  0.19184483972E+03  0.63787178198E+03  0.10100000352E+00 0.  1.
</event>
<event>
 5   0  0.1476511E-04  0.1301343E+04  0.7818609E-02  0.9028501E-01
       -1   -1    0    0    0  501  0.00000000000E+00  0.00000000000E+00  0.54678445123E+03  0.54678445125E+03  0.50400001928E-02 0. -1.
        1   -1    0    0  501    0  0.00000000000E+00  0.00000000000E+00 -0.77429669666E+03  0.77429669667E+03  0.50400001928E-02 0.  1.
    10030    2    1    2    0    0  0.00000000000E+00  0.00000000000E+00 -0.22751224543E+03  0.13210811479E+04  0.13013429900E+04 0.  0.
        2    1    3    3  502    0  0.36964396014E+03 -0.27927536124E+02 -0.65661622561E+03  0.75403015343E+03  0.25500000920E-02 0.  1.
       -2    1    3    3    0  502 -0.36964396014E+03  0.27927536124E+02  0.42910398018E+03  0.56705099450E+03  0.25500000920E-02 0. -1.
</event>
<event>
 5   0  0.2661377E-04  0.1301459E+04  0.7818609E-02  0.9028409E-01
        2   -1    0    0  501    0  0.00000000000E+00  0.00000000000E+00  0.16450083388E+04  0.16450083388E+04  0.25500000920E-02 0.  1.
       -2   -1    0    0    0  501  0.00000000000E+00  0.00000000000E+00 -0.25741445084E+03  0.25741445085E+03  0.25500000920E-02 0. -1.
    10030    2    1    2    0    0  0.00000000000E+00  0.00000000000E+00  0.13875938880E+04  0.19024227897E+04  0.13014590553E+04 0.  0.
        5    1    3    3  502    0 -0.21070885246E+03  0.60779448460E+03  0.83712765442E+03  0.10557543065E+04  0.46999998093E+01 0.  1.
       -5    1    3    3    0  502  0.21070885246E+03 -0.60779448460E+03  0.55046623356E+03  0.84666848311E+03  0.46999998093E+01 0. -1.
</event>
<event>
 5   0  0.2794825E-04  0.1300268E+04  0.7818609E-02  0.9029352E-01
       -2   -1    0    0    0  501  0.00000000000E+00  0.00000000000E+00  0.18462856306E+03  0.18462856308E+03  0.25500000920E-02 0. -1.
        2   -1    0    0  501    0  0.00000000000E+00  0.00000000000E+00 -0.22893236072E+04  0.22893236072E+04  0.25500000920E-02 0.  1.
    10030    2    1    2    0    0  0.00000000000E+00  0.00000000000E+00 -0.21046950442E+04  0.24739521703E+04  0.13002684769E+04 0.  0.
        1    1    3    3  502    0 -0.19583807535E+03  0.28861372328E+03 -0.20962475155E+04  0.21250656647E+04  0.50400001928E-02 0.  1.
       -1    1    3    3    0  502  0.19583807535E+03 -0.28861372328E+03 -0.84475286548E+01  0.34888650559E+03  0.50400001928E-02 0. -1.
</event>
<event>
 5   0  0.1408341E-04  0.1300353E+04  0.7818609E-02  0.9029285E-01
       -1   -1    0    0    0  501  0.00000000000E+00  0.00000000000E+00  0.59631488646E+03  0.59631488648E+03  0.50400001928E-02 0.  1.
        1   -1    0    0  501    0  0.00000000000E+00  0.00000000000E+00 -0.70890314543E+03  0.70890314545E+03  0.50400001928E-02 0. -1.
    10030    2    1    2    0    0  0.00000000000E+00  0.00000000000E+00 -0.11258825898E+03  0.13052180319E+04  0.13003530270E+04 0.  0.
        5    1    3    3  502    0  0.56689551590E+03  0.30602149402E+03  0.31713595686E+02  0.64501745937E+03  0.46999998093E+01 0.  1.
       -5    1    3    3    0  502 -0.56689551590E+03 -0.30602149402E+03 -0.14430185466E+03  0.66020057256E+03  0.46999998093E+01 0. -1.
</event>
<event>
 5   0  0.1475396E-04  0.1302487E+04  0.7818609E-02  0.9027595E-01
       -1   -1    0    0    0  501  0.00000000000E+00  0.00000000000E+00  0.11389336029E+04  0.11389336029E+04  0.50400001928E-02 0.  1.
        1   -1    0    0  501    0  0.00000000000E+00  0.00000000000E+00 -0.37238171045E+03  0.37238171048E+03  0.50400001928E-02 0. -1.
    10030    2    1    2    0    0  0.00000000000E+00  0.00000000000E+00  0.76655189247E+03  0.15113153134E+04  0.13024869184E+04 0.  0.
        3    1    3    3  502    0  0.24457884487E+03 -0.55404945980E+02  0.10806621087E+04  0.11093778089E+04  0.10100000352E+00 0.  1.
       -3    1    3    3    0  502 -0.24457884487E+03  0.55404945980E+02 -0.31411021625E+03  0.40193750454E+03  0.10100000352E+00 0. -1.
</event>
<event>
 5   0  0.1479690E-04  0.1290189E+04  0.7818609E-02  0.9037382E-01
        1   -1    0    0  501    0  0.00000000000E+00  0.00000000000E+00  0.96941879596E+03  0.96941879597E+03  0.50400001928E-02 0.  1.
       -1   -1    0    0    0  501  0.00000000000E+00  0.00000000000E+00 -0.42927452021E+03  0.42927452024E+03  0.50400001928E-02 0. -1.
    10030    2    1    2    0    0  0.00000000000E+00  0.00000000000E+00  0.54014427575E+03  0.13986933162E+04  0.12901888056E+04 0.  0.
        1    1    3    3  502    0  0.33636606693E+03 -0.50908945429E+03  0.43102496003E+02  0.61169602633E+03  0.50400001928E-02 0. -1.
       -1    1    3    3    0  502 -0.33636606693E+03  0.50908945429E+03  0.49704177975E+03  0.78699728988E+03  0.50400001928E-02 0.  1.
</event>
<event>
 5   0  0.1408341E-04  0.1297801E+04  0.7818609E-02  0.9031311E-01
        1   -1    0    0  501    0  0.00000000000E+00  0.00000000000E+00  0.15807386560E+04  0.15807386560E+04  0.50400001928E-02 0. -1.
       -1   -1    0    0    0  501  0.00000000000E+00  0.00000000000E+00 -0.26637664261E+03  0.26637664265E+03  0.50400001928E-02 0.  1.
    10030    2    1    2    0    0  0.00000000000E+00  0.00000000000E+00  0.13143620134E+04  0.18471152987E+04  0.12978009957E+04 0.  0.
        5    1    3    3  502    0 -0.21552368609E+02  0.68558296278E+02  0.15750327601E+04  0.15766784802E+04  0.46999998093E+01 0. -1.
       -5    1    3    3    0  502  0.21552368609E+02 -0.68558296278E+02 -0.26067074671E+03  0.27043681844E+03  0.46999998093E+01 0.  1.
</event>
<event>
 5   0  0.2723209E-04  0.1300186E+04  0.7818609E-02  0.9029418E-01
       -2   -1    0    0    0  501  0.00000000000E+00  0.00000000000E+00  0.22301558638E+03  0.22301558640E+03  0.25500000920E-02 0. -1.
        2   -1    0    0  501    0  0.00000000000E+00  0.00000000000E+00 -0.18950282120E+04  0.18950282120E+04  0.25500000920E-02 0.  1.
    10030    2    1    2    0    0  0.00000000000E+00  0.00000000000E+00 -0.16720126256E+04  0.21180437984E+04  0.13001858758E+04 0.  0.
        2    1    3    3  502    0 -0.59164118003E+03  0.10990074366E+03 -0.43530637961E+03  0.74270391375E+03  0.25500000920E-02 0.  1.
       -2    1    3    3    0  502  0.59164118003E+03 -0.10990074366E+03 -0.12367062460E+04  0.13753398846E+04  0.25500000920E-02 0. -1.
</event>
<event>
 5   0  0.1476511E-04  0.1294831E+04  0.7818609E-02  0.9033674E-01
        1   -1    0    0  501    0  0.00000000000E+00  0.00000000000E+00  0.14353421452E+04  0.14353421452E+04  0.50400001928E-02 0. -1.
       -1   -1    0    0    0  501  0.00000000000E+00  0.00000000000E+00 -0.29201876274E+03  0.29201876279E+03  0.50400001928E-02 0.  1.
    10030    2    1    2    0    0  0.00000000000E+00  0.00000000000E+00  0.11433233825E+04  0.17273609080E+04  0.12948310120E+04 0.  0.
        2    1    3    3  502    0 -0.43035396921E+03  0.55400687944E+02  0.12126596199E+04  0.12879507479E+04  0.25500000920E-02 0. -1.
       -2    1    3    3    0  502  0.43035396921E+03 -0.55400687944E+02 -0.69336237450E+02  0.43941016018E+03  0.25500000920E-02 0.  1.
</event>
<event>
 5   0  0.2661377E-04  0.1300057E+04  0.7818609E-02  0.9029520E-01
        2   -1    0    0  501    0  0.00000000000E+00  0.00000000000E+00  0.89572590954E+03  0.89572590955E+03  0.25500000920E-02 0. -1.
       -2   -1    0    0    0  501  0.00000000000E+00  0.00000000000E+00 -0.47172576134E+03  0.47172576135E+03  0.25500000920E-02 0.  1.
    10030    2    1    2    0    0  0.00000000000E+00  0.00000000000E+00  0.42400014820E+03  0.13674516709E+04  0.13000569013E+04 0.  0.
        5    1    3    3  502    0 -0.14095157659E+03  0.20833659064E+03 -0.41844032181E+03  0.48824775970E+03  0.46999998093E+01 0.  1.
       -5    1    3    3    0  502  0.14095157659E+03 -0.20833659064E+03  0.84244047001E+03  0.87920391119E+03  0.46999998093E+01 0. -1.
</event>
<event>
 5   0  0.1479690E-04  0.1299853E+04  0.7818609E-02  0.9029682E-01
        1   -1    0    0  501    0  0.00000000000E+00  0.00000000000E+00  0.24133573377E+03  0.24133573383E+03  0.50400001928E-02 0. -1.
       -1   -1    0    0    0  501  0.00000000000E+00  0.00000000000E+00 -0.17502772719E+04  0.17502772719E+04  0.50400001928E-02 0.  1.
    10030    2    1    2    0    0  0.00000000000E+00  0.00000000000E+00 -0.15089415381E+04  0.19916130058E+04  0.12998529914E+04 0.  0.
        1    1    3    3  502    0 -0.41032400978E+03  0.40636710202E+03 -0.29762203139E+03  0.64967598709E+03  0.50400001928E-02 0. -1.
       -1    1    3    3    0  502  0.41032400978E+03 -0.40636710202E+03 -0.12113195068E+04  0.13419370187E+04  0.50400001928E-02 0.  1.
</event>
<event>
 5   0  0.2661377E-04  0.1298886E+04  0.7818609E-02  0.9030449E-01
        2   -1    0    0  501    0  0.00000000000E+00  0.00000000000E+00  0.78994428775E+03  0.78994428775E+03  0.25500000920E-02 0.  1.
       -2   -1    0    0    0  501  0.00000000000E+00  0.00000000000E+00 -0.53393192136E+03  0.53393192136E+03  0.25500000920E-02 0. -1.
    10030    2    1    2    0    0  0.00000000000E+00  0.00000000000E+00  0.25601236639E+03  0.13238762091E+04  0.12988864020E+04 0.  0.
        5    1    3    3  502    0 -0.54772116885E+03 -0.25553195504E+03 -0.11417703090E+03  0.61510449782E+03  0.46999998093E+01 0. -1.
       -5    1    3    3    0  502  0.54772116885E+03  0.25553195504E+03  0.37018939729E+03  0.70877171129E+03  0.46999998093E+01 0.  1.
</event>
<event>
 5   0  0.2661377E-04  0.1299872E+04  0.7818609E-02  0.9029667E-01
        2   -1    0    0  501    0  0.00000000000E+00  0.00000000000E+00  0.21458547769E+04  0.21458547769E+04  0.25500000920E-02 0.  1.
       -2   -1    0    0    0  501  0.00000000000E+00  0.00000000000E+00 -0.19685249793E+03  0.19685249795E+03  0.25500000920E-02 0. -1.
    10030    2    1    2    0    0  0.00000000000E+00  0.00000000000E+00  0.19490022789E+04  0.23427072748E+04  0.12998721061E+04 0.  0.
        5    1    3    3  502    0  0.32333252047E+03 -0.39699460622E+03  0.16959593823E+04  0.17715668072E+04  0.46999998093E+01 0.  1.
       -5    1    3    3    0  502 -0.32333252047E+03  0.39699460622E+03  0.25304289666E+03  0.57114046758E+03  0.46999998093E+01 0. -1.
</event>
<event>
 5   0  0.2661377E-04  0.1302094E+04  0.7818609E-02  0.9027907E-01
       -2   -1    0    0    0  501  0.00000000000E+00  0.00000000000E+00  0.34297304257E+03  0.34297304257E+03  0.25500000920E-02 0. -1.
        2   -1    0    0  501    0  0.00000000000E+00  0.00000000000E+00 -0.12358461743E+04  0.12358461744E+04  0.25500000920E-02 0.  1.
    10030    2    1    2    0    0  0.00000000000E+00  0.00000000000E+00 -0.89287313178E+03  0.15788192169E+04  0.13020935797E+04 0.  0.
        5    1    3    3  502    0 -0.23066430808E+03 -0.52243116847E+03 -0.82543406205E+03  0.10037449027E+04  0.46999998093E+01 0.  1.
       -5    1    3    3    0  502  0.23066430808E+03  0.52243116847E+03 -0.67439069737E+02  0.57507431427E+03  0.46999998093E+01 0. -1.
</event>
<event>
 5   0  0.2756984E-04  0.1303591E+04  0.7818609E-02  0.9026723E-01
        2   -1    0    0  501    0  0.00000000000E+00  0.00000000000E+00  0.69684138691E+03  0.69684138691E+03  0.25500000920E-02 0.  1.
       -2   -1    0    0    0  501  0.00000000000E+00  0.00000000000E+00 -0.60966120144E+03  0.60966120144E+03  0.25500000920E-02 0. -1.
    10030    2    1    2    0    0  0.00000000000E+00  0.00000000000E+00  0.87180185469E+02  0.13065025884E+04  0.13035906676E+04 0.  0.
        3    1    3    3  502    0 -0.25932974208E+03 -0.59603033307E+03 -0.48197061730E+01  0.65002100953E+03  0.10100000352E+00 0. -1.
       -3    1    3    3    0  502  0.25932974208E+03  0.59603033307E+03  0.91999891643E+02  0.65648157882E+03  0.10100000352E+00 0.  1.
</event>
<event>
 5   0  0.1479690E-04  0.1298237E+04  0.7818609E-02  0.9030964E-01
        1   -1    0    0  501    0  0.00000000000E+00  0.00000000000E+00  0.72932645221E+03  0.72932645223E+03  0.50400001928E-02 0. -1.
       -1   -1    0    0    0  501  0.00000000000E+00  0.00000000000E+00 -0.57773158629E+03  0.57773158631E+03  0.50400001928E-02 0.  1.
    10030    2    1    2    0    0  0.00000000000E+00  0.00000000000E+00  0.15159486592E+03  0.13070580385E+04  0.12982371558E+04 0.  0.
        1    1    3    3  502    0  0.64261599660E+03 -0.37254257391E+02 -0.85075821711E+01  0.64375117690E+03  0.50400001928E-02 0.  1.
       -1    1    3    3    0  502 -0.64261599660E+03  0.37254257391E+02  0.16010244809E+03  0.66330686164E+03  0.50400001928E-02 0. -1.
</event>
<event>
 5   0  0.1430636E-04  0.1297877E+04  0.7818609E-02  0.9031251E-01
       -1   -1    0    0    0  501  0.00000000000E+00  0.00000000000E+00  0.20502736456E+03  0.20502736463E+03  0.50400001928E-02 0. -1.
        1   -1    0    0  501    0  0.00000000000E+00  0.00000000000E+00 -0.20539743534E+04  0.20539743535E+04  0.50400001928E-02 0.  1.
    10030    2    1    2    0    0  0.00000000000E+00  0.00000000000E+00 -0.18489469889E+04  0.22590017181E+04  0.12978766484E+04 0.  0.
        4    1    3    3  502    0  0.30579761871E+03  0.29097747290E+03 -0.17823642676E+04  0.18316670190E+04  0.12699999809E+01 0.  1.
       -4    1    3    3    0  502 -0.30579761871E+03 -0.29097747290E+03 -0.66582721318E+02  0.42733469907E+03  0.12699999809E+01 0. -1.
</event>
<event>
 5   0  0.1408341E-04  0.1304238E+04  0.7818609E-02  0.9026211E-01
        1   -1    0    0  501    0  0.00000000000E+00  0.00000000000E+00  0.14387695821E+04  0.14387695821E+04  0.50400001928E-02 0.  1.
       -1   -1    0    0    0  501  0.00000000000E+00  0.00000000000E+00 -0.29557130140E+03  0.29557130144E+03  0.50400001928E-02 0. -1.
    10030    2    1    2    0    0  0.00000000000E+00  0.00000000000E+00  0.11431982807E+04  0.17343408835E+04  0.13042377051E+04 0.  0.
        5    1    3    3  502    0 -0.47769410637E+03  0.44279703794E+03  0.61314327209E+03  0.89455443556E+03  0.46999998093E+01 0. -1.
       -5    1    3    3    0  502  0.47769410637E+03 -0.44279703794E+03  0.53005500857E+03  0.83978644796E+03  0.46999998093E+01 0.  1.
</event>
<event>
 5   0  0.2723209E-04  0.1333957E+04  0.7818609E-02  0.9003062E-01
       -2   -1    0    0    0  501  0.00000000000E+00  0.00000000000E+00  0.46042849196E+03  0.46042849196E+03  0.25500000920E-02 0. -1.
        2   -1    0    0  501    0  0.00000000000E+00  0.00000000000E+00 -0.96618740718E+03  0.96618740718E+03  0.25500000920E-02 0.  1.
    10030    2    1    2    0    0  0.00000000000E+00  0.00000000000E+00 -0.50575891522E+03  0.14266158991E+04  0.13339568371E+04 0.  0.
        2    1    3    3  502    0  0.56892762949E+03  0.82012819584E+02  0.10893302103E+03  0.58503944589E+03  0.25500000920E-02 0. -1.
       -2    1    3    3    0  502 -0.56892762949E+03 -0.82012819584E+02 -0.61469193625E+03  0.84157645325E+03  0.25500000920E-02 0.  1.
</event>
<event>
 5   0  0.1475396E-04  0.1297479E+04  0.7818609E-02  0.9031566E-01
       -1   -1    0    0    0  501  0.00000000000E+00  0.00000000000E+00  0.96302587006E+03  0.96302587008E+03  0.50400001928E-02 0. -1.
        1   -1    0    0  501    0  0.00000000000E+00  0.00000000000E+00 -0.43702175040E+03  0.43702175043E+03  0.50400001928E-02 0.  1.
    10030    2    1    2    0    0  0.00000000000E+00  0.00000000000E+00  0.52600411966E+03  0.14000476205E+04  0.12974794818E+04 0.  0.
        3    1    3    3  502    0 -0.32509862782E+03  0.34895466538E+03  0.73754541215E+03  0.87831185891E+03  0.10100000352E+00 0. -1.
       -3    1    3    3    0  502  0.32509862782E+03 -0.34895466538E+03 -0.21154129249E+03  0.52173576160E+03  0.10100000352E+00 0.  1.
</event>
<event>
 5   0  0.1430636E-04  0.1290156E+04  0.7818609E-02  0.9037408E-01
       -1   -1    0    0    0  501  0.00000000000E+00  0.00000000000E+00  0.23823886220E+03  0.23823886225E+03  0.50400001928E-02 0.  1.
        1   -1    0    0  501    0  0.00000000000E+00  0.00000000000E+00 -0.17466736702E+04  0.17466736702E+04  0.50400001928E-02 0. -1.
    10030    2    1    2    0    0  0.00000000000E+00  0.00000000000E+00 -0.15084348080E+04  0.19849125325E+04  0.12901558788E+04 0.  0.
        4    1    3    3  502    0  0.38481327514E+03  0.43892086817E+03 -0.33178291191E+03  0.67142706139E+03  0.12699999809E+01 0.  1.
       -4    1    3    3    0  502 -0.38481327514E+03 -0.43892086817E+03 -0.11766518961E+04  0.13134854711E+04  0.12699999809E+01 0. -1.
</event>
<event>
 5   0  0.2573071E-04  0.1300462E+04  0.7818609E-02  0.9029199E-01
       -2   -1    0    0    0  501  0.00000000000E+00  0.00000000000E+00  0.70397382290E+03  0.70397382291E+03  0.25500000920E-02 0. -1.
        2   -1    0    0  501    0  0.00000000000E+00  0.00000000000E+00 -0.60059055934E+03  0.60059055935E+03  0.25500000920E-02 0.  1.
    10030    2    1    2    0    0  0.00000000000E+00  0.00000000000E+00  0.10338326356E+03  0.13045643823E+04  0.13004615059E+04 0.  0.
        4    1    3    3  502    0 -0.53709755704E+03  0.28976778072E+03  0.27680833197E+03  0.67012209191E+03  0.12699999809E+01 0. -1.
       -4    1    3    3    0  502  0.53709755704E+03 -0.28976778072E+03 -0.17342506841E+03  0.63444229034E+03  0.12699999809E+01 0.  1.
</event>
<event>
 5   0  0.1430636E-04  0.1299784E+04  0.7818609E-02  0.9029737E-01
        1   -1    0    0  501    0  0.00000000000E+00  0.00000000000E+00  0.74739045565E+03  0.74739045566E+03  0.50400001928E-02 0.  1.
       -1   -1    0    0    0  501  0.00000000000E+00  0.00000000000E+00 -0.56511216642E+03  0.56511216644E+03  0.50400001928E-02 0. -1.
    10030    2    1    2    0    0  0.00000000000E+00  0.00000000000E+00  0.18227828923E+03  0.13125026221E+04  0.12997837352E+04 0.  0.
        4    1    3    3  502    0  0.58820078442E+03 -0.38681840881E+02 -0.18518319578E+03  0.61787610126E+03  0.12699999809E+01 0. -1.
       -4    1    3    3    0  502 -0.58820078442E+03  0.38681840881E+02  0.36746148501E+03  0.69462652085E+03  0.12699999809E+01 0.  1.
</event>
<event>
 5   0  0.1430636E-04  0.1295101E+04  0.7818609E-02  0.9033459E-01
       -1   -1    0    0    0  501  0.00000000000E+00  0.00000000000E+00  0.29852463442E+03  0.29852463446E+03  0.50400001928E-02 0.  1.
        1   -1    0    0  501    0  0.00000000000E+00  0.00000000000E+00 -0.14046470336E+04  0.14046470337E+04  0.50400001928E-02 0. -1.
    10030    2    1    2    0    0  0.00000000000E+00  0.00000000000E+00 -0.11061223992E+04  0.17031716681E+04  0.12951011424E+04 0.  0.
        4    1    3    3  502    0 -0.31258207675E+03  0.54200457842E+03 -0.33362032715E+03  0.70907027389E+03  0.12699999809E+01 0.  1.
       -4    1    3    3    0  502  0.31258207675E+03 -0.54200457842E+03 -0.77250207208E+03  0.99410139423E+03  0.12699999809E+01 0. -1.
</event>
<event>
 5   0  0.1479690E-04  0.1299602E+04  0.7818609E-02  0.9029881E-01
        1   -1    0    0  501    0  0.00000000000E+00  0.00000000000E+00  0.29110267328E+04  0.29110267328E+04  0.50400001928E-02 0. -1.
       -1   -1    0    0    0  501  0.00000000000E+00  0.00000000000E+00 -0.14504899517E+03  0.14504899526E+03  0.50400001928E-02 0.  1.
    10030    2    1    2    0    0  0.00000000000E+00  0.00000000000E+00  0.27659777376E+04  0.30560757281E+04  0.12996022509E+04 0.  0.
        1    1    3    3  502    0 -0.45922260176E+03  0.13604938147E+03  0.35032322318E+03  0.59339800547E+03  0.50400001928E-02 0.  1.
       -1    1    3    3    0  502  0.45922260176E+03 -0.13604938147E+03  0.24156545145E+04  0.24626777226E+04  0.50400001928E-02 0. -1.
</event>
<event>
 5   0  0.2794825E-04  0.1300364E+04  0.7818609E-02  0.9029277E-01
        2   -1    0    0  501    0  0.00000000000E+00  0.00000000000E+00  0.61810926106E+03  0.61810926106E+03  0.25500000920E-02 0. -1.
       -2   -1    0    0    0  501  0.00000000000E+00  0.00000000000E+00 -0.68391894018E+03  0.68391894018E+03  0.25500000920E-02 0.  1.
    10030    2    1    2    0    0  0.00000000000E+00  0.00000000000E+00 -0.65809679119E+02  0.13020282012E+04  0.13003639963E+04 0.  0.
        1    1    3    3  502    0  0.58140948965E+03 -0.16507235762E+03  0.20709078078E+03  0.63888376831E+03  0.50400001928E-02 0. -1.
       -1    1    3    3    0  502 -0.58140948965E+03  0.16507235762E+03 -0.27290045990E+03  0.66314443294E+03  0.50400001928E-02 0.  1.
</event>
<event>
 5   0  0.1475396E-04  0.1300185E+04  0.7818609E-02  0.9029418E-01
       -1   -1    0    0    0  501  0.00000000000E+00  0.00000000000E+00  0.85465574110E+03  0.85465574112E+03  0.50400001928E-02 0.  1.
        1   -1    0    0  501    0  0.00000000000E+00  0.00000000000E+00 -0.49449189157E+03  0.49449189159E+03  0.50400001928E-02 0. -1.
    10030    2    1    2    0    0  0.00000000000E+00  0.00000000000E+00  0.36016384953E+03  0.13491476327E+04  0.13001851162E+04 0.  0.
        3    1    3    3  502    0 -0.59759745054E+03 -0.14473991607E+03  0.39909408732E+03  0.73304055613E+03  0.10100000352E+00 0.  1.
       -3    1    3    3    0  502  0.59759745054E+03  0.14473991607E+03 -0.38930237789E+02  0.61610707658E+03  0.10100000352E+00 0. -1.
</event>
<event>
 5   0  0.2723209E-04  0.1300566E+04  0.7818609E-02  0.9029117E-01
       -2   -1    0    0    0  501  0.00000000000E+00  0.00000000000E+00  0.13739992699E+04  0.13739992699E+04  0.25500000920E-02 0.  1.
        2   -1    0    0  501    0  0.00000000000E+00  0.00000000000E+00 -0.30776425963E+03  0.30776425964E+03  0.25500000920E-02 0. -1.
    10030    2    1    2    0    0  0.00000000000E+00  0.00000000000E+00  0.10662350103E+04  0.16817635295E+04  0.13005658277E+04 0.  0.
        2    1    3    3  502    0  0.61400888899E+03  0.20114571708E+03  0.62815256730E+03  0.90113382084E+03  0.25500000920E-02 0. -1.
       -2    1    3    3    0  502 -0.61400888899E+03 -0.20114571708E+03  0.43808244296E+03  0.78062970869E+03  0.25500000920E-02 0.  1.
</event>
<event>
 5   0  0.2661377E-04  0.1301706E+04  0.7818609E-02  0.9028213E-01
        2   -1    0    0  501    0  0.00000000000E+00  0.00000000000E+00  0.88046081937E+03  0.88046081938E+03  0.25500000920E-02 0.  1.
       -2   -1    0    0    0  501  0.00000000000E+00  0.00000000000E+00 -0.48112270134E+03  0.48112270134E+03  0.25500000920E-02 0. -1.
    10030    2    1    2    0    0  0.00000000000E+00  0.00000000000E+00  0.39933811803E+03  0.13615835207E+04  0.13017060925E+04 0.  0.
        5    1    3    3  502    0  0.59032252967E+03 -0.17506825340E+03 -0.20880597252E+02  0.61610686713E+03  0.46999998093E+01 0. -1.
       -5    1    3    3    0  502 -0.59032252967E+03  0.17506825340E+03  0.42021871529E+03  0.74547665359E+03  0.46999998093E+01 0.  1.
</event>
<event>
 5   0  0.1002887E-04  0.1302465E+04  0.7818609E-02  0.9027613E-01
       -3   -1    0    0    0  501  0.00000000000E+00  0.00000000000E+00  0.19383293667E+04  0.19383293693E+04  0.10100000352E+00 0.  1.
        3   -1    0    0  501    0  0.00000000000E+00  0.00000000000E+00 -0.21879865541E+03  0.21879867872E+03  0.10100000352E+00 0. -1.
    10030    2    1    2    0    0  0.00000000000E+00  0.00000000000E+00  0.17195307113E+04  0.21571280481E+04  0.13024651813E+04 0.  0.
        1    1    3    3  502    0 -0.29799123919E+03  0.54087609992E+03  0.12022327837E+04  0.13515581380E+04  0.50400001928E-02 0. -1.
       -1    1    3    3    0  502  0.29799123919E+03 -0.54087609992E+03  0.51729792759E+03  0.80556991007E+03  0.50400001928E-02 0.  1.
</event>
<event>
 5   0  0.1408341E-04  0.1299852E+04  0.7818609E-02  0.9029683E-01
       -1   -1    0    0    0  501  0.00000000000E+00  0.00000000000E+00  0.10324283705E+04  0.10324283705E+04  0.50400001928E-02 0.  1.
        1   -1    0    0  501    0  0.00000000000E+00  0.00000000000E+00 -0.40913607447E+03  0.40913607451E+03  0.50400001928E-02 0. -1.
    10030    2    1    2    0    0  0.00000000000E+00  0.00000000000E+00  0.62329229604E+03  0.14415644450E+04  0.12998518234E+04 0.  0.
        5    1    3    3  502    0  0.46093670891E+03  0.82184554250E+02 -0.18823215502E+03  0.50464877367E+03  0.46999998093E+01 0. -1.
       -5    1    3    3    0  502 -0.46093670891E+03 -0.82184554250E+02  0.81152445107E+03  0.93691567137E+03  0.46999998093E+01 0.  1.
</event>
<event>
 5   0  0.2573071E-04  0.1301470E+04  0.7818609E-02  0.9028400E-01
        2   -1    0    0  501    0  0.00000000000E+00  0.00000000000E+00  0.41521879520E+03  0.41521879521E+03  0.25500000920E-02 0. -1.
       -2   -1    0    0    0  501  0.00000000000E+00  0.00000000000E+00 -0.10198381405E+04  0.10198381405E+04  0.25500000920E-02 0.  1.
    10030    2    1    2    0    0  0.00000000000E+00  0.00000000000E+00 -0.60461934528E+03  0.14350569357E+04  0.13014698829E+04 0.  0.
        4    1    3    3  502    0 -0.45586451731E+03 -0.24965938422E+03 -0.73405058417E+03  0.89942989682E+03  0.12699999809E+01 0.  1.
       -4    1    3    3    0  502  0.45586451731E+03  0.24965938422E+03  0.12943123889E+03  0.53562703887E+03  0.12699999809E+01 0. -1.
</event>
<event>
 5   0  0.2573071E-04  0.1308531E+04  0.7818609E-02  0.9022827E-01
       -2   -1    0    0    0  501  0.00000000000E+00  0.00000000000E+00  0.34318280960E+03  0.34318280961E+03  0.25500000920E-02 0. -1.
        2   -1    0    0  501    0  0.00000000000E+00  0.00000000000E+00 -0.12473340055E+04  0.12473340055E+04  0.25500000920E-02 0.  1.
    10030    2    1    2    0    0  0.00000000000E+00  0.00000000000E+00 -0.90415119594E+03  0.15905168152E+04  0.13085313730E+04 0.  0.
        4    1    3    3  502    0  0.48370918218E+03  0.26218870836E+03 -0.21740529614E+02  0.55062850929E+03  0.12699999809E+01 0. -1.
       -4    1    3    3    0  502 -0.48370918218E+03 -0.26218870836E+03 -0.88241066633E+03  0.10398883059E+04  0.12699999809E+01 0.  1.
</event>
<event>
 5   0  0.2723209E-04  0.1300155E+04  0.7818609E-02  0.9029442E-01
       -2   -1    0    0    0  501  0.00000000000E+00  0.00000000000E+00  0.69270430150E+03  0.69270430150E+03  0.25500000920E-02 0.  1.
        2   -1    0    0  501    0  0.00000000000E+00  0.00000000000E+00 -0.61007414591E+03  0.61007414591E+03  0.25500000920E-02 0. -1.
    10030    2    1    2    0    0  0.00000000000E+00  0.00000000000E+00  0.82630155594E+02  0.13027784474E+04  0.13001553524E+04 0.  0.
        2    1    3    3  502    0  0.24757295795E+02 -0.17000711805E+03 -0.58691526283E+03  0.61154302354E+03  0.25500000920E-02 0. -1.
       -2    1    3    3    0  502 -0.24757295795E+02  0.17000711805E+03  0.66954541843E+03  0.69123542388E+03  0.25500000920E-02 0.  1.
</event>
<event>
 5   0  0.1408341E-04  0.1293480E+04  0.7818609E-02  0.9034751E-01
       -1   -1    0    0    0  501  0.00000000000E+00  0.00000000000E+00  0.42346697960E+03  0.42346697963E+03  0.50400001928E-02 0.  1.
        1   -1    0    0  501    0  0.00000000000E+00  0.00000000000E+00 -0.98773429417E+03  0.98773429418E+03  0.50400001928E-02 0. -1.
    10030    2    1    2    0    0  0.00000000000E+00  0.00000000000E+00 -0.56426731457E+03  0.14112012738E+04  0.12934803566E+04 0.  0.
        5    1    3    3  502    0 -0.61914828282E+03 -0.64554305874E+02 -0.47341533838E+03  0.78208441178E+03  0.46999998093E+01 0. -1.
       -5    1    3    3    0  502  0.61914828282E+03  0.64554305874E+02 -0.90851976187E+02  0.62911686204E+03  0.46999998093E+01 0.  1.
</event>
<event>
 5   0  0.2756984E-04  0.1299399E+04  0.7818609E-02  0.9030042E-01
        2   -1    0    0  501    0  0.00000000000E+00  0.00000000000E+00  0.42807964961E+03  0.42807964962E+03  0.25500000920E-02 0.  1.
       -2   -1    0    0    0  501  0.00000000000E+00  0.00000000000E+00 -0.98605389374E+03  0.98605389374E+03  0.25500000920E-02 0. -1.
    10030    2    1    2    0    0  0.00000000000E+00  0.00000000000E+00 -0.55797424413E+03  0.14141335434E+04  0.12993992540E+04 0.  0.
        3    1    3    3  502    0 -0.75135716625E+02 -0.36645792208E+03 -0.85709034791E+03  0.93516878650E+03  0.10100000352E+00 0. -1.
       -3    1    3    3    0  502  0.75135716625E+02  0.36645792208E+03  0.29911610378E+03  0.47896475686E+03  0.10100000352E+00 0.  1.
</event>
<event>
 5   0  0.1002887E-04  0.1301344E+04  0.7818609E-02  0.9028500E-01
        3   -1    0    0  501    0  0.00000000000E+00  0.00000000000E+00  0.83201176267E+03  0.83201176880E+03  0.10100000352E+00 0. -1.
       -3   -1    0    0    0  501  0.00000000000E+00  0.00000000000E+00 -0.50885567129E+03  0.50885568131E+03  0.10100000352E+00 0.  1.
    10030    2    1    2    0    0  0.00000000000E+00  0.00000000000E+00  0.32315609138E+03  0.13408674501E+04  0.13013437898E+04 0.  0.
        2    1    3    3  502    0  0.63756595397E+03 -0.12732265416E+03  0.13485761389E+03  0.66399396078E+03  0.25500000920E-02 0.  1.
       -2    1    3    3    0  502 -0.63756595397E+03  0.12732265416E+03  0.18829847749E+03  0.67687348933E+03  0.25500000920E-02 0. -1.
</event>
<event>
 5   0  0.1475396E-04  0.1301887E+04  0.7818609E-02  0.9028070E-01
       -1   -1    0    0    0  501  0.00000000000E+00  0.00000000000E+00  0.62754521960E+03  0.62754521962E+03  0.50400001928E-02 0. -1.
        1   -1    0    0  501    0  0.00000000000E+00  0.00000000000E+00 -0.67521387404E+03  0.67521387406E+03  0.50400001928E-02 0.  1.
    10030    2    1    2    0    0  0.00000000000E+00  0.00000000000E+00 -0.47668654443E+02  0.13027590937E+04  0.13018866907E+04 0.  0.
        3    1    3    3  502    0  0.47154050208E+03  0.34281564676E+03 -0.31360429825E+03  0.66198238560E+03  0.10100000352E+00 0.  1.
       -3    1    3    3    0  502 -0.47154050208E+03 -0.34281564676E+03  0.26593564381E+03  0.64077670807E+03  0.10100000352E+00 0. -1.
</event>
<event>
 5   0  0.1002887E-04  0.1297682E+04  0.7818609E-02  0.9031406E-01
        3   -1    0    0  501    0  0.00000000000E+00  0.00000000000E+00  0.25899273462E+03  0.25899275431E+03  0.10100000352E+00 0.  1.
       -3   -1    0    0    0  501  0.00000000000E+00  0.00000000000E+00 -0.16255064166E+04  0.16255064198E+04  0.10100000352E+00 0. -1.
    10030    2    1    2    0    0  0.00000000000E+00  0.00000000000E+00 -0.13665136820E+04  0.18844991741E+04  0.12976815842E+04 0.  0.
        4    1    3    3  502    0  0.59112466769E+02 -0.46549982043E+03 -0.32500001265E+02  0.47036393307E+03  0.12699999809E+01 0.  1.
       -4    1    3    3    0  502 -0.59112466769E+02  0.46549982043E+03 -0.13340136807E+04  0.14141352410E+04  0.12699999809E+01 0. -1.
</event>
<event>
 5   0  0.2573071E-04  0.1301528E+04  0.7818609E-02  0.9028354E-01
       -2   -1    0    0    0  501  0.00000000000E+00  0.00000000000E+00  0.44762553111E+03  0.44762553111E+03  0.25500000920E-02 0.  1.
        2   -1    0    0  501    0  0.00000000000E+00  0.00000000000E+00 -0.94608913010E+03  0.94608913010E+03  0.25500000920E-02 0. -1.
    10030    2    1    2    0    0  0.00000000000E+00  0.00000000000E+00 -0.49846359899E+03  0.13937146612E+04  0.13015277935E+04 0.  0.
        4    1    3    3  502    0  0.56164256534E+03  0.17197949300E+03 -0.54920314626E+03  0.80414241647E+03  0.12699999809E+01 0. -1.
       -4    1    3    3    0  502 -0.56164256534E+03 -0.17197949300E+03  0.50739547268E+02  0.58957224474E+03  0.12699999809E+01 0.  1.
</event>
<event>
 5   0  0.1430636E-04  0.1299065E+04  0.7818609E-02  0.9030307E-01
       -1   -1    0    0    0  501  0.00000000000E+00  0.00000000000E+00  0.51337595624E+03  0.51337595627E+03  0.50400001928E-02 0.  1.
        1   -1    0    0  501    0  0.00000000000E+00  0.00000000000E+00 -0.82179962268E+03  0.82179962269E+03  0.50400001928E-02 0. -1.
    10030    2    1    2    0    0  0.00000000000E+00  0.00000000000E+00 -0.30842366644E+03  0.13351755790E+04  0.12990645360E+04 0.  0.
        4    1    3    3  502    0 -0.37062228834E+03 -0.38417909993E+03 -0.53454711927E+03  0.75544470152E+03  0.12699999809E+01 0. -1.
       -4    1    3    3    0  502  0.37062228834E+03  0.38417909993E+03  0.22612345284E+03  0.57973087744E+03  0.12699999809E+01 0.  1.
</event>
<event>
 5   0  0.1475396E-04  0.1298263E+04  0.7818609E-02  0.9030943E-01
        1   -1    0    0  501    0  0.00000000000E+00  0.00000000000E+00  0.96208146905E+03  0.96208146906E+03  0.50400001928E-02 0. -1.
       -1   -1    0    0    0  501  0.00000000000E+00  0.00000000000E+00 -0.43797944788E+03  0.43797944791E+03  0.50400001928E-02 0.  1.
    10030    2    1    2    0    0  0.00000000000E+00  0.00000000000E+00  0.52410202117E+03  0.14000609170E+04  0.12982633179E+04 0.  0.
        3    1    3    3  502    0 -0.35697418086E+03 -0.45354348368E+03  0.58239458509E+03  0.81994860835E+03  0.10100000352E+00 0. -1.
       -3    1    3    3    0  502  0.35697418086E+03  0.45354348368E+03 -0.58292563926E+02  0.58011230861E+03  0.10100000352E+00 0.  1.
</event>
<event>
 5   0  0.2723209E-04  0.1299410E+04  0.7818609E-02  0.9030033E-01
       -2   -1    0    0    0  501  0.00000000000E+00  0.00000000000E+00  0.27161460719E+03  0.27161460721E+03  0.25500000920E-02 0. -1.
        2   -1    0    0  501    0  0.00000000000E+00  0.00000000000E+00 -0.15541006646E+04  0.15541006646E+04  0.25500000920E-02 0.  1.
    10030    2    1    2    0    0  0.00000000000E+00  0.00000000000E+00 -0.12824860574E+04  0.18257152718E+04  0.12994097761E+04 0.  0.
        2    1    3    3  502    0 -0.18934162905E+03 -0.60222170432E+03 -0.42541948318E+03  0.76125092468E+03  0.25500000920E-02 0. -1.
       -2    1    3    3    0  502  0.18934162905E+03  0.60222170432E+03 -0.85706657421E+03  0.10644643471E+04  0.25500000920E-02 0.  1.
</event>
<event>
 5   0  0.1475396E-04  0.1297898E+04  0.7818609E-02  0.9031234E-01
       -1   -1    0    0    0  501  0.00000000000E+00  0.00000000000E+00  0.50470353944E+03  0.50470353946E+03  0.50400001928E-02 0.  1.
        1   -1    0    0  501    0  0.00000000000E+00  0.00000000000E+00 -0.83441986430E+03  0.83441986431E+03  0.50400001928E-02 0. -1.
    10030    2    1    2    0    0  0.00000000000E+00  0.00000000000E+00 -0.32971632486E+03  0.13391234038E+04  0.12978977755E+04 0.  0.
        3    1    3    3  502    0 -0.36262862112E+03  0.32515565443E+02  0.38939939538E+03  0.53309349853E+03  0.10100000352E+00 0.  1.
       -3    1    3    3    0  502  0.36262862112E+03 -0.32515565443E+02 -0.71911572024E+03  0.80602990524E+03  0.10100000352E+00 0. -1.
</event>
<event>
 5   0  0.2573071E-04  0.1300001E+04  0.7818609E-02  0.9029564E-01
        2   -1    0    0  501    0  0.00000000000E+00  0.00000000000E+00  0.12119486791E+04  0.12119486791E+04  0.25500000920E-02 0. -1.
       -2   -1    0    0    0  501  0.00000000000E+00  0.00000000000E+00 -0.34861258379E+03  0.34861258380E+03  0.25500000920E-02 0.  1.
    10030    2    1    2    0    0  0.00000000000E+00  0.00000000000E+00  0.86333609533E+03  0.15605612629E+04  0.13000008622E+04 0.  0.
        4    1    3    3  502    0  0.55074110399E+03  0.33982670339E+03  0.50469723478E+03  0.82068195036E+03  0.12699999809E+01 0.  1.
       -4    1    3    3    0  502 -0.55074110399E+03 -0.33982670339E+03  0.35863886054E+03  0.73987931256E+03  0.12699999809E+01 0. -1.
</event>
<event>
 5   0  0.2794825E-04  0.1299797E+04  0.7818609E-02  0.9029726E-01
        2   -1    0    0  501    0  0.00000000000E+00  0.00000000000E+00  0.93480176057E+03  0.93480176057E+03  0.25500000920E-02 0. -1.
       -2   -1    0    0    0  501  0.00000000000E+00  0.00000000000E+00 -0.45182621075E+03  0.45182621075E+03  0.25500000920E-02 0.  1.
    10030    2    1    2    0    0  0.00000000000E+00  0.00000000000E+00  0.48297554982E+03  0.13866279713E+04  0.12997968107E+04 0.  0.
        1    1    3    3  502    0  0.42026857201E+03 -0.93673532117E+02  0.76080043976E+03  0.87419546579E+03  0.50400001928E-02 0. -1.
       -1    1    3    3    0  502 -0.42026857201E+03  0.93673532117E+02 -0.27782488994E+03  0.51243250554E+03  0.50400001928E-02 0.  1.
</event>
<event>
 5   0  0.2756984E-04  0.1305825E+04  0.7818609E-02  0.9024959E-01
        2   -1    0    0  501    0  0.00000000000E+00  0.00000000000E+00  0.15617387786E+04  0.15617387786E+04  0.25500000920E-02 0. -1.
       -2   -1    0    0    0  501  0.00000000000E+00  0.00000000000E+00 -0.27296141518E+03  0.27296141520E+03  0.25500000920E-02 0.  1.
    10030    2    1    2    0    0  0.00000000000E+00  0.00000000000E+00  0.12887773634E+04  0.18347001938E+04  0.13058245321E+04 0.  0.
        3    1    3    3  502    0 -0.41348909052E+03  0.42897622797E+03  0.10195575814E+04  0.11808858980E+04  0.10100000352E+00 0. -1.
       -3    1    3    3    0  502  0.41348909052E+03 -0.42897622797E+03  0.26921978203E+03  0.65381429579E+03  0.10100000352E+00 0.  1.
</event>
<event>
 5   0  0.2756984E-04  0.1300308E+04  0.7818609E-02  0.9029321E-01
       -2   -1    0    0    0  501  0.00000000000E+00  0.00000000000E+00  0.43454356125E+03  0.43454356125E+03  0.25500000920E-02 0. -1.
        2   -1    0    0  501    0  0.00000000000E+00  0.00000000000E+00 -0.97274531460E+03  0.97274531461E+03  0.25500000920E-02 0.  1.
    10030    2    1    2    0    0  0.00000000000E+00  0.00000000000E+00 -0.53820175336E+03  0.14072888759E+04  0.13003079838E+04 0.  0.
        3    1    3    3  502    0 -0.39734214448E+03  0.13021231070E+03  0.26971937202E+03  0.49757871286E+03  0.10100000352E+00 0. -1.
       -3    1    3    3    0  502  0.39734214448E+03 -0.13021231070E+03 -0.80792112538E+03  0.90971016301E+03  0.10100000352E+00 0.  1.
</event>
<event>
 5   0  0.2661377E-04  0.1299567E+04  0.7818609E-02  0.9029909E-01
        2   -1    0    0  501    0  0.00000000000E+00  0.00000000000E+00  0.44297088483E+03  0.44297088484E+03  0.25500000920E-02 0. -1.
       -2   -1    0    0    0  501  0.00000000000E+00  0.00000000000E+00 -0.95315163209E+03  0.95315163209E+03  0.25500000920E-02 0.  1.
    10030    2    1    2    0    0  0.00000000000E+00  0.00000000000E+00 -0.51018074726E+03  0.13961225169E+04  0.12995667306E+04 0.  0.
        5    1    3    3  502    0  0.70132078299E+02 -0.27717157012E+03  0.37174573254E+03  0.46899847266E+03  0.46999998093E+01 0. -1.
       -5    1    3    3    0  502 -0.70132078299E+02  0.27717157012E+03 -0.88192647980E+03  0.92712404427E+03  0.46999998093E+01 0.  1.
</event>
<event>
 5   0  0.1475396E-04  0.1301565E+04  0.7818609E-02  0.9028325E-01
        1   -1    0    0  501    0  0.00000000000E+00  0.00000000000E+00  0.76064801867E+03  0.76064801869E+03  0.50400001928E-02 0. -1.
       -1   -1    0    0    0  501  0.00000000000E+00  0.00000000000E+00 -0.55678572838E+03  0.55678572840E+03  0.50400001928E-02 0.  1.
    10030    2    1    2    0    0  0.00000000000E+00  0.00000000000E+00  0.20386229030E+03  0.13174337471E+04  0.13015651519E+04 0.  0.
        3    1    3    3  502    0 -0.20733762644E+01  0.59969390532E+03  0.35775927117E+03  0.69830422115E+03  0.10100000352E+00 0. -1.
       -3    1    3    3    0  502  0.20733762644E+01 -0.59969390532E+03 -0.15389698087E+03  0.61912952594E+03  0.10100000352E+00 0.  1.
</event>
<event>
 5   0  0.1430636E-04  0.1291040E+04  0.7818609E-02  0.9036701E-01
        1   -1    0    0  501    0  0.00000000000E+00  0.00000000000E+00  0.79407803615E+03  0.79407803617E+03  0.50400001928E-02 0.  1.
       -1   -1    0    0    0  501  0.00000000000E+00  0.00000000000E+00 -0.52475480318E+03  0.52475480321E+03  0.50400001928E-02 0. -1.
    10030    2    1    2    0    0  0.00000000000E+00  0.00000000000E+00  0.26932323297E+03  0.13188328394E+04  0.12910402993E+04 0.  0.
        4    1    3    3  502    0 -0.16887305650E+03  0.10929104101E+03  0.76124348743E+03  0.78737278396E+03  0.12699999809E+01 0.  1.
       -4    1    3    3    0  502  0.16887305650E+03 -0.10929104101E+03 -0.49192025446E+03  0.53146005542E+03  0.12699999809E+01 0. -1.
</event>
<event>
 5   0  0.2573071E-04  0.1299635E+04  0.7818609E-02  0.9029855E-01
        2   -1    0    0  501    0  0.00000000000E+00  0.00000000000E+00  0.10599335921E+04  0.10599335921E+04  0.25500000920E-02 0. -1.
       -2   -1    0    0    0  501  0.00000000000E+00  0.00000000000E+00 -0.39838593098E+03  0.39838593099E+03  0.25500000920E-02 0.  1.
    10030    2    1    2    0    0  0.00000000000E+00  0.00000000000E+00  0.66154766113E+03  0.14583195231E+04  0.12996347654E+04 0.  0.
        4    1    3    3  502    0 -0.28113032888E+03 -0.52561046779E+03  0.40411439291E+02  0.59744064391E+03  0.12699999809E+01 0.  1.
       -4    1    3    3    0  502  0.28113032888E+03  0.52561046779E+03  0.62113622184E+03  0.86087887920E+03  0.12699999809E+01 0. -1.
</event>
<event>
 5   0  0.1475396E-04  0.1302973E+04  0.7818609E-02  0.9027211E-01
       -1   -1    0    0    0  501  0.00000000000E+00  0.00000000000E+00  0.24388513504E+03  0.24388513510E+03  0.50400001928E-02 0.  1.
        1   -1    0    0  501    0  0.00000000000E+00  0.00000000000E+00 -0.17403045173E+04  0.17403045173E+04  0.50400001928E-02 0. -1.
    10030    2    1    2    0    0  0.00000000000E+00  0.00000000000E+00 -0.14964193822E+04  0.19841896524E+04  0.13029726049E+04 0.  0.
        3    1    3    3  502    0 -0.36494911706E+03  0.18828853482E+03 -0.15183911154E+04  0.15729437434E+04  0.10100000352E+00 0. -1.
       -3    1    3    3    0  502  0.36494911706E+03 -0.18828853482E+03  0.21971733165E+02  0.41124590898E+03  0.10100000352E+00 0.  1.
</event>
<event>
 5   0  0.1476511E-04  0.1301180E+04  0.7818609E-02  0.9028630E-01
       -1   -1    0    0    0  501  0.00000000000E+00  0.00000000000E+00  0.87297583115E+03  0.87297583116E+03  0.50400001928E-02 0.  1.
        1   -1    0    0  501    0  0.00000000000E+00  0.00000000000E+00 -0.48485591097E+03  0.48485591100E+03  0.50400001928E-02 0. -1.
    10030    2    1    2    0    0  0.00000000000E+00  0.00000000000E+00  0.38811992017E+03  0.13578317422E+04  0.13011802210E+04 0.  0.
        2    1    3    3  502    0  0.56984463226E+03  0.19169943210E+03  0.45347095929E+03  0.75306539430E+03  0.25500000920E-02 0.  1.
       -2    1    3    3    0  502 -0.56984463226E+03 -0.19169943210E+03 -0.65351039113E+02  0.60476634785E+03  0.25500000920E-02 0. -1.
</event>
<event>
 5   0  0.1475396E-04  0.1298530E+04  0.7818609E-02  0.9030732E-01
       -1   -1    0    0    0  501  0.00000000000E+00  0.00000000000E+00  0.35694277553E+03  0.35694277557E+03  0.50400001928E-02 0. -1.
        1   -1    0    0  501    0  0.00000000000E+00  0.00000000000E+00 -0.11809876146E+04  0.11809876146E+04  0.50400001928E-02 0.  1.
    10030    2    1    2    0    0  0.00000000000E+00  0.00000000000E+00 -0.82404483904E+03  0.15379303901E+04  0.12985299335E+04 0.  0.
        3    1    3    3  502    0 -0.25659608097E+03 -0.21556813515E+03  0.24658740406E+03  0.41607274328E+03  0.10100000352E+00 0. -1.
       -3    1    3    3    0  502  0.25659608097E+03  0.21556813515E+03 -0.10706322431E+04  0.11218576469E+04  0.10100000352E+00 0.  1.
</event>
<event>
 5   0  0.1475396E-04  0.1299402E+04  0.7818609E-02  0.9030040E-01
       -1   -1    0    0    0  501  0.00000000000E+00  0.00000000000E+00  0.46338663856E+03  0.46338663858E+03  0.50400001928E-02 0.  1.
        1   -1    0    0  501    0  0.00000000000E+00  0.00000000000E+00 -0.91092660076E+03  0.91092660077E+03  0.50400001928E-02 0. -1.
    10030    2    1    2    0    0  0.00000000000E+00  0.00000000000E+00 -0.44753996220E+03  0.13743132394E+04  0.12994017324E+04 0.  0.
        3    1    3    3  502    0  0.34538819146E+03 -0.54152471506E+03 -0.32723172057E+03  0.72084854787E+03  0.10100000352E+00 0.  1.
       -3    1    3    3    0  502 -0.34538819146E+03  0.54152471506E+03 -0.12030824164E+03  0.65346469149E+03  0.10100000352E+00 0. -1.
</event>
<event>
 5   0  0.1408341E-04  0.1299068E+04  0.7818609E-02  0.9030304E-01
       -1   -1    0    0    0  501  0.00000000000E+00  0.00000000000E+00  0.49174397525E+03  0.49174397528E+03  0.50400001928E-02 0. -1.
        1   -1    0    0  501    0  0.00000000000E+00  0.00000000000E+00 -0.85795606464E+03  0.85795606465E+03  0.50400001928E-02 0.  1.
    10030    2    1    2    0    0  0.00000000000E+00  0.00000000000E+00 -0.36621208939E+03  0.13497000399E+04  0.12990684752E+04 0.  0.
        5    1    3    3  502    0  0.53665882750E+03 -0.11985248042E+03  0.17606295035E+03  0.57739723473E+03  0.46999998093E+01 0. -1.
       -5    1    3    3    0  502 -0.53665882750E+03  0.11985248042E+03 -0.54227503974E+03  0.77230280520E+03  0.46999998093E+01 0.  1.
</event>
<event>
 5   0  0.1476511E-04  0.1300619E+04  0.7818609E-02  0.9029074E-01
        1   -1    0    0  501    0  0.00000000000E+00  0.00000000000E+00  0.12977526967E+04  0.12977526967E+04  0.50400001928E-02 0.  1.
       -1   -1    0    0    0  501  0.00000000000E+00  0.00000000000E+00 -0.32587295562E+03  0.32587295566E+03  0.50400001928E-02 0. -1.
    10030    2    1    2    0    0  0.00000000000E+00  0.00000000000E+00  0.97187974109E+03  0.16236256524E+04  0.13006190941E+04 0.  0.
        2    1    3    3  502    0  0.51453811415E+03  0.53546957681E-02  0.98238876227E+03  0.11089802303E+04  0.25500000920E-02 0.  1.
       -2    1    3    3    0  502 -0.51453811415E+03 -0.53546957681E-02 -0.10509021176E+02  0.51464542208E+03  0.25500000920E-02 0. -1.
</event>
<event>
 5   0  0.1002887E-04  0.1310445E+04  0.7818609E-02  0.9021323E-01
       -3   -1    0    0    0  501  0.00000000000E+00  0.00000000000E+00  0.70563899106E+03  0.70563899829E+03  0.10100000352E+00 0. -1.
        3   -1    0    0  501    0  0.00000000000E+00  0.00000000000E+00 -0.60840852484E+03  0.60840853322E+03  0.10100000352E+00 0.  1.
    10030    2    1    2    0    0  0.00000000000E+00  0.00000000000E+00  0.97230466225E+02  0.13140475315E+04  0.13104454020E+04 0.  0.
        3    1    3    3  502    0  0.18873668830E+03  0.43421336208E+03  0.50279955026E+03  0.69063027682E+03  0.10100000352E+00 0. -1.
       -3    1    3    3    0  502 -0.18873668830E+03 -0.43421336208E+03 -0.40556908403E+03  0.62341725469E+03  0.10100000352E+00 0.  1.
</event>
<event>
 5   0  0.1476511E-04  0.1289021E+04  0.7818609E-02  0.9038318E-01
        1   -1    0    0  501    0  0.00000000000E+00  0.00000000000E+00  0.34196497578E+03  0.34196497582E+03  0.50400001928E-02 0. -1.
       -1   -1    0    0    0  501  0.00000000000E+00  0.00000000000E+00 -0.12147252678E+04  0.12147252678E+04  0.50400001928E-02 0.  1.
    10030    2    1    2    0    0  0.00000000000E+00  0.00000000000E+00 -0.87276029197E+03  0.15566902436E+04  0.12890205535E+04 0.  0.
        2    1    3    3  502    0 -0.14675884752E+03  0.12047793464E+03  0.30742111946E+03  0.36133203118E+03  0.25500000920E-02 0. -1.
       -2    1    3    3    0  502  0.14675884752E+03 -0.12047793464E+03 -0.11801814114E+04  0.11953582124E+04  0.25500000920E-02 0.  1.
</event>
<event>
 5   0  0.2661377E-04  0.1303664E+04  0.7818609E-02  0.9026665E-01
        2   -1    0    0  501    0  0.00000000000E+00  0.00000000000E+00  0.95364588705E+03  0.95364588705E+03  0.25500000920E-02 0.  1.
       -2   -1    0    0    0  501  0.00000000000E+00  0.00000000000E+00 -0.44553749798E+03  0.44553749799E+03  0.25500000920E-02 0. -1.
    10030    2    1    2    0    0  0.00000000000E+00  0.00000000000E+00  0.50810838907E+03  0.13991833850E+04  0.13036640710E+04 0.  0.
        5    1    3    3  502    0 -0.15294030714E+02  0.51355827884E+03  0.68455035640E+03  0.85592481771E+03  0.46999998093E+01 0. -1.
       -5    1    3    3    0  502  0.15294030714E+02 -0.51355827884E+03 -0.17644196733E+03  0.54325856732E+03  0.46999998093E+01 0.  1.
</event>
<event>
 5   0  0.1475396E-04  0.1304557E+04  0.7818609E-02  0.9025960E-01
        1   -1    0    0  501    0  0.00000000000E+00  0.00000000000E+00  0.71576982806E+03  0.71576982807E+03  0.50400001928E-02 0. -1.
       -1   -1    0    0    0  501  0.00000000000E+00  0.00000000000E+00 -0.59441868146E+03  0.59441868148E+03  0.50400001928E-02 0.  1.
    10030    2    1    2    0    0  0.00000000000E+00  0.00000000000E+00  0.12135114660E+03  0.13101885096E+04  0.13045565644E+04 0.  0.
        3    1    3    3  502    0  0.37240633282E+03  0.48691889949E+03 -0.16320033572E+03  0.63435861402E+03  0.10100000352E+00 0.  1.
       -3    1    3    3    0  502 -0.37240633282E+03 -0.48691889949E+03  0.28455148232E+03  0.67582989553E+03  0.10100000352E+00 0. -1.
</event>
<event>
 5   0  0.2661377E-04  0.1301360E+04  0.7818609E-02  0.9028487E-01
        2   -1    0    0  501    0  0.00000000000E+00  0.00000000000E+00  0.82427052702E+03  0.82427052703E+03  0.25500000920E-02 0. -1.
       -2   -1    0    0    0  501  0.00000000000E+00  0.00000000000E+00 -0.51364770068E+03  0.51364770069E+03  0.25500000920E-02 0.  1.
    10030    2    1    2    0    0  0.00000000000E+00  0.00000000000E+00  0.31062282634E+03  0.13379182277E+04  0.13013603051E+04 0.  0.
        5    1    3    3  502    0 -0.12317225595E+03 -0.11827059499E+03  0.80080525863E+03  0.81882262458E+03  0.46999998093E+01 0. -1.
       -5    1    3    3    0  502  0.12317225595E+03  0.11827059499E+03 -0.49018243229E+03  0.51909560313E+03  0.46999998093E+01 0.  1.
</event>
<event>
 5   0  0.1475396E-04  0.1302251E+04  0.7818609E-02  0.9027782E-01
       -1   -1    0    0    0  501  0.00000000000E+00  0.00000000000E+00  0.32395689186E+03  0.32395689190E+03  0.50400001928E-02 0.  1.
        1   -1    0    0  501    0  0.00000000000E+00  0.00000000000E+00 -0.13087068173E+04  0.13087068173E+04  0.50400001928E-02 0. -1.
    10030    2    1    2    0    0  0.00000000000E+00  0.00000000000E+00 -0.98474992543E+03  0.16326637092E+04  0.13022512706E+04 0.  0.
        3    1    3    3  502    0 -0.29267782666E+03 -0.22035346966E+03  0.18248340681E+03  0.40928738775E+03  0.10100000352E+00 0.  1.
       -3    1    3    3    0  502  0.29267782666E+03  0.22035346966E+03 -0.11672333322E+04  0.12233763215E+04  0.10100000352E+00 0. -1.
</event>
<event>
 5   0  0.2573071E-04  0.1302769E+04  0.7818609E-02  0.9027372E-01
       -2   -1    0    0    0  501  0.00000000000E+00  0.00000000000E+00  0.94230877978E+03  0.94230877978E+03  0.25500000920E-02 0.  1.
        2   -1    0    0  501    0  0.00000000000E+00  0.00000000000E+00 -0.45027880566E+03  0.45027880567E+03  0.25500000920E-02 0. -1.
    10030    2    1    2    0    0  0.00000000000E+00  0.00000000000E+00  0.49202997412E+03  0.13925875854E+04  0.13027688543E+04 0.  0.
        4    1    3    3  502    0 -0.57142395913E+03 -0.82678098094E+02  0.56836697933E+03  0.81018741354E+03  0.12699999809E+01 0.  1.
       -4    1    3    3    0  502  0.57142395913E+03  0.82678098094E+02 -0.76337005207E+02  0.58240017191E+03  0.12699999809E+01 0. -1.
</event>
<event>
 5   0  0.1430636E-04  0.1301782E+04  0.7818609E-02  0.9028153E-01
       -1   -1    0    0    0  501  0.00000000000E+00  0.00000000000E+00  0.40931794559E+03  0.40931794562E+03  0.50400001928E-02 0.  1.
        1   -1    0    0  501    0  0.00000000000E+00  0.00000000000E+00 -0.10350372388E+04  0.10350372388E+04  0.50400001928E-02 0. -1.
    10030    2    1    2    0    0  0.00000000000E+00  0.00000000000E+00 -0.62571929323E+03  0.14443551844E+04  0.13017823416E+04 0.  0.
        4    1    3    3  502    0  0.29714251503E+03  0.20754169415E+03  0.28699076264E+03  0.46231216704E+03  0.12699999809E+01 0.  1.
       -4    1    3    3    0  502 -0.29714251503E+03 -0.20754169415E+03 -0.91271005587E+03  0.98204301740E+03  0.12699999809E+01 0. -1.
</event>
<event>
 5   0  0.2573071E-04  0.1292559E+04  0.7818609E-02  0.9035487E-01
        2   -1    0    0  501    0  0.00000000000E+00  0.00000000000E+00  0.19788591867E+04  0.19788591867E+04  0.25500000920E-02 0.  1.
       -2   -1    0    0    0  501  0.00000000000E+00  0.00000000000E+00 -0.21106973150E+03  0.21106973152E+03  0.25500000920E-02 0. -1.
    10030    2    1    2    0    0  0.00000000000E+00  0.00000000000E+00  0.17677894552E+04  0.21899289182E+04  0.12925591317E+04 0.  0.
        4    1    3    3  502    0  0.46298965175E+03  0.26634754328E+03  0.15003235926E+04  0.15925680290E+04  0.12699999809E+01 0.  1.
       -4    1    3    3    0  502 -0.46298965175E+03 -0.26634754328E+03  0.26746586255E+03  0.59736088922E+03  0.12699999809E+01 0. -1.
</event>
<event>
 5   0  0.2723209E-04  0.1300301E+04  0.7818609E-02  0.9029327E-01
       -2   -1    0    0    0  501  0.00000000000E+00  0.00000000000E+00  0.36538878738E+03  0.36538878738E+03  0.25500000920E-02 0.  1.
        2   -1    0    0  501    0  0.00000000000E+00  0.00000000000E+00 -0.11568375530E+04  0.11568375530E+04  0.25500000920E-02 0. -1.
    10030    2    1    2    0    0  0.00000000000E+00  0.00000000000E+00 -0.79144876563E+03  0.15222263404E+04  0.13003006894E+04 0.  0.
        2    1    3    3  502    0 -0.22454735667E+03 -0.34934524963E+03  0.18988325828E+03  0.45663910324E+03  0.25500000920E-02 0.  1.
       -2    1    3    3    0  502  0.22454735667E+03  0.34934524963E+03 -0.98133202391E+03  0.10655872372E+04  0.25500000920E-02 0. -1.
</event>
<event>
 5   0  0.1479690E-04  0.1299539E+04  0.7818609E-02  0.9029931E-01
        1   -1    0    0  501    0  0.00000000000E+00  0.00000000000E+00  0.15089451234E+04  0.15089451234E+04  0.50400001928E-02 0. -1.
       -1   -1    0    0    0  501  0.00000000000E+00  0.00000000000E+00 -0.27979844263E+03  0.27979844268E+03  0.50400001928E-02 0.  1.
    10030    2    1    2    0    0  0.00000000000E+00  0.00000000000E+00  0.12291466808E+04  0.17887435661E+04  0.12995391423E+04 0.  0.
        1    1    3    3  502    0  0.23532688545E+03 -0.11715268708E+03  0.14324837467E+04  0.14564041951E+04  0.50400001928E-02 0. -1.
       -1    1    3    3    0  502 -0.23532688545E+03  0.11715268708E+03 -0.20333706589E+03  0.33233937097E+03  0.50400001928E-02 0.  1.
</event>
<event>
 5   0  0.1002887E-04  0.1308339E+04  0.7818609E-02  0.9022979E-01
        3   -1    0    0  501    0  0.00000000000E+00  0.00000000000E+00  0.82359437075E+03  0.82359437694E+03  0.10100000352E+00 0.  1.
       -3   -1    0    0    0  501  0.00000000000E+00  0.00000000000E+00 -0.51959743168E+03  0.51959744150E+03  0.10100000352E+00 0. -1.
    10030    2    1    2    0    0  0.00000000000E+00  0.00000000000E+00  0.30399693906E+03  0.13431918184E+04  0.13083386879E+04 0.  0.
        4    1    3    3  502    0 -0.61832788297E+03 -0.21988204129E+02 -0.66082190541E+02  0.62223895795E+03  0.12699999809E+01 0. -1.
       -4    1    3    3    0  502  0.61832788297E+03  0.21988204129E+02  0.37007912960E+03  0.72095286049E+03  0.12699999809E+01 0.  1.
</event>
<event>
 5   0  0.1479690E-04  0.1299233E+04  0.7818609E-02  0.9030173E-01
       -1   -1    0    0    0  501  0.00000000000E+00  0.00000000000E+00  0.32856643992E+03  0.32856643996E+03  0.50400001928E-02 0. -1.
        1   -1    0    0  501    0  0.00000000000E+00  0.00000000000E+00 -0.12843726569E+04  0.12843726569E+04  0.50400001928E-02 0.  1.
    10030    2    1    2    0    0  0.00000000000E+00  0.00000000000E+00 -0.95580621696E+03  0.16129390969E+04  0.12992332376E+04 0.  0.
        1    1    3    3  502    0  0.17771660221E+03  0.51500905429E+03 -0.38659282138E+02  0.54617950970E+03  0.50400001928E-02 0. -1.
       -1    1    3    3    0  502 -0.17771660221E+03 -0.51500905429E+03 -0.91714693482E+03  0.10667595872E+04  0.50400001928E-02 0.  1.
</event>
<event>
 5   0  0.2661377E-04  0.1299562E+04  0.7818609E-02  0.9029913E-01
       -2   -1    0    0    0  501  0.00000000000E+00  0.00000000000E+00  0.44297327744E+03  0.44297327745E+03  0.25500000920E-02 0.  1.
        2   -1    0    0  501    0  0.00000000000E+00  0.00000000000E+00 -0.95313915149E+03  0.95313915149E+03  0.25500000920E-02 0. -1.
    10030    2    1    2    0    0  0.00000000000E+00  0.00000000000E+00 -0.51016587405E+03  0.13961124289E+04  0.12995617320E+04 0.  0.
        5    1    3    3  502    0 -0.20474143618E+03  0.29443941252E+03  0.32700193602E+03  0.48535139795E+03  0.46999998093E+01 0.  1.
       -5    1    3    3    0  502  0.20474143618E+03 -0.29443941252E+03 -0.83716781008E+03  0.91076103098E+03  0.46999998093E+01 0. -1.
</event>
<event>
 5   0  0.2756984E-04  0.1301481E+04  0.7818609E-02  0.9028392E-01
       -2   -1    0    0    0  501  0.00000000000E+00  0.00000000000E+00  0.24394184905E+03  0.24394184906E+03  0.25500000920E-02 0.  1.
        2   -1    0    0  501    0  0.00000000000E+00  0.00000000000E+00 -0.17359179761E+04  0.17359179761E+04  0.25500000920E-02 0. -1.
    10030    2    1    2    0    0  0.00000000000E+00  0.00000000000E+00 -0.14919761271E+04  0.19798598252E+04  0.13014807581E+04 0.  0.
        3    1    3    3  502    0 -0.52660458024E+03 -0.88952792210E+02 -0.13115894784E+04  0.14161539299E+04  0.10100000352E+00 0. -1.
       -3    1    3    3    0  502  0.52660458024E+03  0.88952792210E+02 -0.18038664872E+03  0.56370589531E+03  0.10100000352E+00 0.  1.
</event>
<event>
 5   0  0.2661377E-04  0.1297335E+04  0.7818609E-02  0.9031682E-01
        2   -1    0    0  501    0  0.00000000000E+00  0.00000000000E+00  0.38343161589E+03  0.38343161590E+03  0.25500000920E-02 0. -1.
       -2   -1    0    0    0  501  0.00000000000E+00  0.00000000000E+00 -0.10973775772E+04  0.10973775772E+04  0.25500000920E-02 0.  1.
    10030    2    1    2    0    0  0.00000000000E+00  0.00000000000E+00 -0.71394596131E+03  0.14808091931E+04  0.12973345870E+04 0.  0.
        5    1    3    3  502    0  0.38801045943E+03  0.43712093138E+03 -0.35909296855E+02  0.58560942008E+03  0.46999998093E+01 0. -1.
       -5    1    3    3    0  502 -0.38801045943E+03 -0.43712093138E+03 -0.67803666445E+03  0.89519977303E+03  0.46999998093E+01 0.  1.
</event>
<event>
 5   0  0.1476511E-04  0.1300711E+04  0.7818609E-02  0.9029002E-01
       -1   -1    0    0    0  501  0.00000000000E+00  0.00000000000E+00  0.27586893359E+03  0.27586893363E+03  0.50400001928E-02 0. -1.
        1   -1    0    0  501    0  0.00000000000E+00  0.00000000000E+00 -0.15331990068E+04  0.15331990068E+04  0.50400001928E-02 0.  1.
    10030    2    1    2    0    0  0.00000000000E+00  0.00000000000E+00 -0.12573300733E+04  0.18090679405E+04  0.13007105367E+04 0.  0.
        2    1    3    3  502    0 -0.38220116972E+02  0.29452008615E+03 -0.14333769400E+04  0.14638211334E+04  0.25500000920E-02 0.  1.
       -2    1    3    3    0  502  0.38220116972E+02 -0.29452008615E+03  0.17604686676E+03  0.34524680706E+03  0.25500000920E-02 0. -1.
</event>
<event>
 5   0  0.2573071E-04  0.1299431E+04  0.7818609E-02  0.9030017E-01
        2   -1    0    0  501    0  0.00000000000E+00  0.00000000000E+00  0.64251814994E+03  0.64251814994E+03  0.25500000920E-02 0. -1.
       -2   -1    0    0    0  501  0.00000000000E+00  0.00000000000E+00 -0.65699346715E+03  0.65699346716E+03  0.25500000920E-02 0.  1.
    10030    2    1    2    0    0  0.00000000000E+00  0.00000000000E+00 -0.14475317218E+02  0.12995116171E+04  0.12994309940E+04 0.  0.
        4    1    3    3  502    0 -0.14872197550E+03 -0.35750677343E+03  0.51452193480E+03  0.64394390543E+03  0.12699999809E+01 0. -1.
       -4    1    3    3    0  502  0.14872197550E+03  0.35750677343E+03 -0.52899725202E+03  0.65556771167E+03  0.12699999809E+01 0.  1.
</event>
<event>
 5   0  0.1479690E-04  0.1298660E+04  0.7818609E-02  0.9030628E-01
        1   -1    0    0  501    0  0.00000000000E+00  0.00000000000E+00  0.49131175196E+03  0.49131175199E+03  0.50400001928E-02 0. -1.
       -1   -1    0    0    0  501  0.00000000000E+00  0.00000000000E+00 -0.85817126202E+03  0.85817126204E+03  0.50400001928E-02 0.  1.
    10030    2    1    2    0    0  0.00000000000E+00  0.00000000000E+00 -0.36685951006E+03  0.13494830140E+04  0.12986602731E+04 0.  0.
        1    1    3    3  502    0 -0.30775939260E+03  0.25938337778E+02  0.41009812900E+03  0.51338982901E+03  0.50400001928E-02 0. -1.
       -1    1    3    3    0  502  0.30775939260E+03 -0.25938337778E+02 -0.77695763906E+03  0.83609318501E+03  0.50400001928E-02 0.  1.
</event>
<event>
 5   0  0.2756984E-04  0.1300142E+04  0.7818609E-02  0.9029453E-01
        2   -1    0    0  501    0  0.00000000000E+00  0.00000000000E+00  0.53187383118E+03  0.53187383119E+03  0.25500000920E-02 0.  1.
       -2   -1    0    0    0  501  0.00000000000E+00  0.00000000000E+00 -0.79453437041E+03  0.79453437041E+03  0.25500000920E-02 0. -1.
    10030    2    1    2    0    0  0.00000000000E+00  0.00000000000E+00 -0.26266053923E+03  0.13264082016E+04  0.13001415917E+04 0.  0.
        3    1    3    3  502    0 -0.23847357028E+03  0.33844463549E+03  0.37997116657E+03  0.56195419087E+03  0.10100000352E+00 0.  1.
       -3    1    3    3    0  502  0.23847357028E+03 -0.33844463549E+03 -0.64263170580E+03  0.76445401073E+03  0.10100000352E+00 0. -1.
</event>
<event>
 5   0  0.1479690E-04  0.1301794E+04  0.7818609E-02  0.9028143E-01
       -1   -1    0    0    0  501  0.00000000000E+00  0.00000000000E+00  0.30886633829E+03  0.30886633833E+03  0.50400001928E-02 0. -1.
        1   -1    0    0  501    0  0.00000000000E+00  0.00000000000E+00 -0.13716842178E+04  0.13716842178E+04  0.50400001928E-02 0.  1.
    10030    2    1    2    0    0  0.00000000000E+00  0.00000000000E+00 -0.10628178795E+04  0.16805505561E+04  0.13017942720E+04 0.  0.
        1    1    3    3  502    0  0.56202295611E+03 -0.19470916943E+03 -0.19013499691E+03  0.62444597919E+03  0.50400001928E-02 0. -1.
       -1    1    3    3    0  502 -0.56202295611E+03  0.19470916943E+03 -0.87268288256E+03  0.10561045769E+04  0.50400001928E-02 0.  1.
</event>
<event>
 5   0  0.2661377E-04  0.1295346E+04  0.7818609E-02  0.9033264E-01
       -2   -1    0    0    0  501  0.00000000000E+00  0.00000000000E+00  0.29525778193E+03  0.29525778194E+03  0.25500000920E-02 0.  1.
        2   -1    0    0  501    0  0.00000000000E+00  0.00000000000E+00 -0.14207265376E+04  0.14207265376E+04  0.25500000920E-02 0. -1.
    10030    2    1    2    0    0  0.00000000000E+00  0.00000000000E+00 -0.11254687556E+04  0.17159843195E+04  0.12953463880E+04 0.  0.
        5    1    3    3  502    0 -0.36889511333E+02  0.21247473350E+03 -0.13717444734E+04  0.13886004965E+04  0.46999998093E+01 0. -1.
       -5    1    3    3    0  502  0.36889511333E+02 -0.21247473350E+03  0.24627571778E+03  0.32738382304E+03  0.46999998093E+01 0.  1.
</event>
<event>
 5   0  0.1002887E-04  0.1303632E+04  0.7818609E-02  0.9026690E-01
        3   -1    0    0  501    0  0.00000000000E+00  0.00000000000E+00  0.68506740820E+03  0.68506741565E+03  0.10100000352E+00 0.  1.
       -3   -1    0    0    0  501  0.00000000000E+00  0.00000000000E+00 -0.62017816291E+03  0.62017817113E+03  0.10100000352E+00 0. -1.
    10030    2    1    2    0    0  0.00000000000E+00  0.00000000000E+00  0.64889245295E+02  0.13052455868E+04  0.13036316304E+04 0.  0.
        1    1    3    3  502    0  0.53639390532E+03 -0.25188158450E+03  0.30426019678E+03  0.66613588828E+03  0.50400001928E-02 0.  1.
       -1    1    3    3    0  502 -0.53639390532E+03  0.25188158450E+03 -0.23937095149E+03  0.63910969850E+03  0.50400001928E-02 0. -1.
</event>
<event>
 5   0  0.1430636E-04  0.1301948E+04  0.7818609E-02  0.9028022E-01
        1   -1    0    0  501    0  0.00000000000E+00  0.00000000000E+00  0.14808625247E+04  0.14808625247E+04  0.50400001928E-02 0.  1.
       -1   -1    0    0    0  501  0.00000000000E+00  0.00000000000E+00 -0.28616248010E+03  0.28616248015E+03  0.50400001928E-02 0. -1.
    10030    2    1    2    0    0  0.00000000000E+00  0.00000000000E+00  0.11947000446E+04  0.17670250049E+04  0.13019482214E+04 0.  0.
        4    1    3    3  502    0 -0.17388806668E+03 -0.35069770775E+03 -0.10858465334E+03  0.40622429986E+03  0.12699999809E+01 0. -1.
       -4    1    3    3    0  502  0.17388806668E+03  0.35069770775E+03  0.13032846980E+04  0.13608007050E+04  0.12699999809E+01 0.  1.
</event>
<event>
 5   0  0.2723209E-04  0.1301213E+04  0.7818609E-02  0.9028604E-01
       -2   -1    0    0    0  501  0.00000000000E+00  0.00000000000E+00  0.10157647436E+04  0.10157647436E+04  0.25500000920E-02 0. -1.
        2   -1    0    0  501    0  0.00000000000E+00  0.00000000000E+00 -0.41671948559E+03  0.41671948560E+03  0.25500000920E-02 0.  1.
    10030    2    1    2    0    0  0.00000000000E+00  0.00000000000E+00  0.59904525796E+03  0.14324842292E+04  0.13012132207E+04 0.  0.
        2    1    3    3  502    0  0.43600752520E+03  0.43170448100E+03  0.53772503467E+03  0.81585509367E+03  0.25500000920E-02 0. -1.
       -2    1    3    3    0  502 -0.43600752520E+03 -0.43170448100E+03  0.61320223295E+02  0.61662913549E+03  0.25500000920E-02 0.  1.
</event>
<event>
 5   0  0.2756984E-04  0.1301684E+04  0.7818609E-02  0.9028231E-01
       -2   -1    0    0    0  501  0.00000000000E+00  0.00000000000E+00  0.87760171279E+03  0.87760171279E+03  0.25500000920E-02 0.  1.
        2   -1    0    0  501    0  0.00000000000E+00  0.00000000000E+00 -0.48267347405E+03  0.48267347406E+03  0.25500000920E-02 0. -1.
    10030    2    1    2    0    0  0.00000000000E+00  0.00000000000E+00  0.39492823874E+03  0.13602751868E+04  0.13016836291E+04 0.  0.
        3    1    3    3  502    0  0.46452124827E+03  0.23494478788E+03 -0.21078136183E+03  0.56161181980E+03  0.10100000352E+00 0. -1.
       -3    1    3    3    0  502 -0.46452124827E+03 -0.23494478788E+03  0.60570960057E+03  0.79866336705E+03  0.10100000352E+00 0.  1.
</event>
<event>
 5   0  0.1408341E-04  0.1300300E+04  0.7818609E-02  0.9029327E-01
       -1   -1    0    0    0  501  0.00000000000E+00  0.00000000000E+00  0.44145306770E+03  0.44145306772E+03  0.50400001928E-02 0. -1.
        1   -1    0    0  501    0  0.00000000000E+00  0.00000000000E+00 -0.95750812984E+03  0.95750812985E+03  0.50400001928E-02 0.  1.
    10030    2    1    2    0    0  0.00000000000E+00  0.00000000000E+00 -0.51605506214E+03  0.13989611976E+04  0.13002998136E+04 0.  0.
        5    1    3    3  502    0  0.42926365082E+03 -0.52867351833E+02  0.26419975029E+03  0.50683906405E+03  0.46999998093E+01 0. -1.
       -5    1    3    3    0  502 -0.42926365082E+03  0.52867351833E+02 -0.78025481243E+03  0.89212213352E+03  0.46999998093E+01 0.  1.
</event>
<event>
 5   0  0.1002887E-04  0.1299740E+04  0.7818609E-02  0.9029771E-01
       -4   -1    0    0    0  501  0.00000000000E+00  0.00000000000E+00  0.80864493704E+03  0.80864593433E+03  0.12699999809E+01 0.  1.
        4   -1    0    0  501    0  0.00000000000E+00  0.00000000000E+00 -0.52226805399E+03  0.52226959812E+03  0.12699999809E+01 0. -1.
    10030    2    1    2    0    0  0.00000000000E+00  0.00000000000E+00  0.28637688305E+03  0.13309155324E+04  0.12997401415E+04 0.  0.
        5    1    3    3  502    0  0.36974433190E+03  0.10618696581E+03  0.67950926281E+03  0.78085944377E+03  0.46999998093E+01 0.  1.
       -5    1    3    3    0  502 -0.36974433190E+03 -0.10618696581E+03 -0.39313237976E+03  0.55005608868E+03  0.46999998093E+01 0. -1.
</event>
<event>
 5   0  0.2573071E-04  0.1297834E+04  0.7818609E-02  0.9031285E-01
        2   -1    0    0  501    0  0.00000000000E+00  0.00000000000E+00  0.52873183023E+03  0.52873183024E+03  0.25500000920E-02 0. -1.
       -2   -1    0    0    0  501  0.00000000000E+00  0.00000000000E+00 -0.79642097793E+03  0.79642097794E+03  0.25500000920E-02 0.  1.
    10030    2    1    2    0    0  0.00000000000E+00  0.00000000000E+00 -0.26768914770E+03  0.13251528082E+04  0.12978337664E+04 0.  0.
        4    1    3    3  502    0  0.36318899315E+03 -0.27802358126E+03 -0.60384713937E+03  0.75751985922E+03  0.12699999809E+01 0.  1.
       -4    1    3    3    0  502 -0.36318899315E+03  0.27802358126E+03  0.33615799167E+03  0.56763294896E+03  0.12699999809E+01 0. -1.
</event>
<event>
 5   0  0.2723209E-04  0.1291544E+04  0.7818609E-02  0.9036298E-01
        2   -1    0    0  501    0  0.00000000000E+00  0.00000000000E+00  0.96388324947E+03  0.96388324947E+03  0.25500000920E-02 0. -1.
       -2   -1    0    0    0  501  0.00000000000E+00  0.00000000000E+00 -0.43264746112E+03  0.43264746113E+03  0.25500000920E-02 0.  1.
    10030    2    1    2    0    0  0.00000000000E+00  0.00000000000E+00  0.53123578834E+03  0.13965307106E+04  0.12915442551E+04 0.  0.
        2    1    3    3  502    0 -0.21844909417E+02  0.30552245175E+03  0.88033767994E+03  0.93210278367E+03  0.25500000920E-02 0. -1.
       -2    1    3    3    0  502  0.21844909417E+02 -0.30552245175E+03 -0.34910189160E+03  0.46442792693E+03  0.25500000920E-02 0.  1.
</event>
<event>
 5   0  0.1476511E-04  0.1302191E+04  0.7818609E-02  0.9027830E-01
        1   -1    0    0  501    0  0.00000000000E+00  0.00000000000E+00  0.89752841441E+03  0.89752841443E+03  0.50400001928E-02 0. -1.
       -1   -1    0    0    0  501  0.00000000000E+00  0.00000000000E+00 -0.47232522800E+03  0.47232522803E+03  0.50400001928E-02 0.  1.
    10030    2    1    2    0    0  0.00000000000E+00  0.00000000000E+00  0.42520318641E+03  0.13698536425E+04  0.13021909430E+04 0.  0.
        2    1    3    3  502    0  0.19660289205E+03 -0.36343707821E+03  0.74192296963E+03  0.84922841442E+03  0.25500000920E-02 0. -1.
       -2    1    3    3    0  502 -0.19660289205E+03  0.36343707821E+03 -0.31671978322E+03  0.52062522804E+03  0.25500000920E-02 0.  1.
</event>
<event>
 5   0  0.2573071E-04  0.1300261E+04  0.7818609E-02  0.9029358E-01
        2   -1    0    0  501    0  0.00000000000E+00  0.00000000000E+00  0.53272595356E+03  0.53272595357E+03  0.25500000920E-02 0.  1.
       -2   -1    0    0    0  501  0.00000000000E+00  0.00000000000E+00 -0.79340923951E+03  0.79340923951E+03  0.25500000920E-02 0. -1.
    10030    2    1    2    0    0  0.00000000000E+00  0.00000000000E+00 -0.26068328595E+03  0.13261351931E+04  0.13002610410E+04 0.  0.
        4    1    3    3  502    0  0.29075229511E+02 -0.51048411054E+03  0.27918145871E+03  0.58256613004E+03  0.12699999809E+01 0.  1.
       -4    1    3    3    0  502 -0.29075229511E+02  0.51048411054E+03 -0.53986474466E+03  0.74356906304E+03  0.12699999809E+01 0. -1.
</event>
<event>
 5   0  0.2661377E-04  0.1299487E+04  0.7818609E-02  0.9029972E-01
       -2   -1    0    0    0  501  0.00000000000E+00  0.00000000000E+00  0.69448547675E+03  0.69448547675E+03  0.25500000920E-02 0. -1.
        2   -1    0    0  501    0  0.00000000000E+00  0.00000000000E+00 -0.60788363187E+03  0.60788363188E+03  0.25500000920E-02 0.  1.
    10030    2    1    2    0    0  0.00000000000E+00  0.00000000000E+00  0.86601844876E+02  0.13023691086E+04  0.12994865969E+04 0.  0.
        5    1    3    3  502    0  0.55342281563E+03  0.13229519824E+03 -0.27102741311E+03  0.63028309591E+03  0.46999998093E+01 0.  1.
       -5    1    3    3    0  502 -0.55342281563E+03 -0.13229519824E+03  0.35762925798E+03  0.67208601272E+03  0.46999998093E+01 0. -1.
</event>
<event>
 5   0  0.2573071E-04  0.1299578E+04  0.7818609E-02  0.9029900E-01
       -2   -1    0    0    0  501  0.00000000000E+00  0.00000000000E+00  0.87825950790E+03  0.87825950791E+03  0.25500000920E-02 0.  1.
        2   -1    0    0  501    0  0.00000000000E+00  0.00000000000E+00 -0.48075277024E+03  0.48075277024E+03  0.25500000920E-02 0. -1.
    10030    2    1    2    0    0  0.00000000000E+00  0.00000000000E+00  0.39750673767E+03  0.13590122781E+04  0.12995779183E+04 0.  0.
        4    1    3    3  502    0 -0.27968862367E+03 -0.28701655670E+03  0.73363342136E+03  0.83595684091E+03  0.12699999809E+01 0.  1.
       -4    1    3    3    0  502  0.27968862367E+03  0.28701655670E+03 -0.33612668369E+03  0.52305543724E+03  0.12699999809E+01 0. -1.
</event>
<event>
 5   0  0.2723209E-04  0.1299905E+04  0.7818609E-02  0.9029640E-01
        2   -1    0    0  501    0  0.00000000000E+00  0.00000000000E+00  0.68784643265E+03  0.68784643266E+03  0.25500000920E-02 0. -1.
       -2   -1    0    0    0  501  0.00000000000E+00  0.00000000000E+00 -0.61414632669E+03  0.61414632670E+03  0.25500000920E-02 0.  1.
    10030    2    1    2    0    0  0.00000000000E+00  0.00000000000E+00  0.73700105960E+02  0.13019927594E+04  0.12999051657E+04 0.  0.
        2    1    3    3  502    0  0.47067191550E+03  0.30826874601E+03 -0.28905948711E+03  0.63254806845E+03  0.25500000920E-02 0.  1.
       -2    1    3    3    0  502 -0.47067191550E+03 -0.30826874601E+03  0.36275959307E+03  0.66944469090E+03  0.25500000920E-02 0. -1.
</event>
<event>
 5   0  0.1002887E-04  0.1298904E+04  0.7818609E-02  0.9030435E-01
        4   -1    0    0  501    0  0.00000000000E+00  0.00000000000E+00  0.49750552287E+03  0.49750714386E+03  0.12699999809E+01 0. -1.
       -4   -1    0    0    0  501  0.00000000000E+00  0.00000000000E+00 -0.84780211129E+03  0.84780306252E+03  0.12699999809E+01 0.  1.
    10030    2    1    2    0    0  0.00000000000E+00  0.00000000000E+00 -0.35029658842E+03  0.13453102064E+04  0.12989040964E+04 0.  0.
        4    1    3    3  502    0  0.28885372463E+03  0.35795743371E+03 -0.65002251902E+03  0.79630451883E+03  0.12699999809E+01 0.  1.
       -4    1    3    3    0  502 -0.28885372463E+03 -0.35795743371E+03  0.29972593060E+03  0.54900568754E+03  0.12699999809E+01 0. -1.
</event>
<event>
 5   0  0.1479690E-04  0.1301857E+04  0.7818609E-02  0.9028094E-01
        1   -1    0    0  501    0  0.00000000000E+00  0.00000000000E+00  0.12028155040E+04  0.12028155040E+04  0.50400001928E-02 0.  1.
       -1   -1    0    0    0  501  0.00000000000E+00  0.00000000000E+00 -0.35226349366E+03  0.35226349370E+03  0.50400001928E-02 0. -1.
    10030    2    1    2    0    0  0.00000000000E+00  0.00000000000E+00  0.85055201036E+03  0.15550789977E+04  0.13018571223E+04 0.  0.
        1    1    3    3  502    0  0.36095920438E+02  0.11126565857E+03 -0.33960577654E+03  0.35918664471E+03  0.50400001928E-02 0. -1.
       -1    1    3    3    0  502 -0.36095920438E+02 -0.11126565857E+03  0.11901577869E+04  0.11958923530E+04  0.50400001928E-02 0.  1.
</event>
<event>
 5   0  0.2756984E-04  0.1298998E+04  0.7818609E-02  0.9030360E-01
       -2   -1    0    0    0  501  0.00000000000E+00  0.00000000000E+00  0.21253546929E+03  0.21253546930E+03  0.25500000920E-02 0.  1.
        2   -1    0    0  501    0  0.00000000000E+00  0.00000000000E+00 -0.19848414026E+04  0.19848414026E+04  0.25500000920E-02 0. -1.
    10030    2    1    2    0    0  0.00000000000E+00  0.00000000000E+00 -0.17723059333E+04  0.21973768719E+04  0.12989983818E+04 0.  0.
        3    1    3    3  502    0  0.20627445480E+03  0.57028904246E+03 -0.49280590026E+03  0.78143227997E+03  0.10100000352E+00 0.  1.
       -3    1    3    3    0  502 -0.20627445480E+03 -0.57028904246E+03 -0.12795000330E+04  0.14159445919E+04  0.10100000352E+00 0. -1.
</event>
<event>
 5   0  0.1479690E-04  0.1299275E+04  0.7818609E-02  0.9030140E-01
       -1   -1    0    0    0  501  0.00000000000E+00  0.00000000000E+00  0.10548973743E+04  0.10548973744E+04  0.50400001928E-02 0.  1.
        1   -1    0    0  501    0  0.00000000000E+00  0.00000000000E+00 -0.40006612850E+03  0.40006612853E+03  0.50400001928E-02 0. -1.
    10030    2    1    2    0    0  0.00000000000E+00  0.00000000000E+00  0.65483124585E+03  0.14549635029E+04  0.12992747339E+04 0.  0.
        1    1    3    3  502    0 -0.58445537846E+02  0.59906168607E+03  0.53714758556E+02  0.60429798934E+03  0.50400001928E-02 0.  1.
       -1    1    3    3    0  502  0.58445537846E+02 -0.59906168607E+03  0.60111648729E+03  0.85066551354E+03  0.50400001928E-02 0. -1.
</event>
<event>
 5   0  0.2723209E-04  0.1296917E+04  0.7818609E-02  0.9032014E-01
       -2   -1    0    0    0  501  0.00000000000E+00  0.00000000000E+00  0.38388301717E+03  0.38388301718E+03  0.25500000920E-02 0. -1.
        2   -1    0    0  501    0  0.00000000000E+00  0.00000000000E+00 -0.10953815867E+04  0.10953815867E+04  0.25500000920E-02 0.  1.
    10030    2    1    2    0    0  0.00000000000E+00  0.00000000000E+00 -0.71149856949E+03  0.14792646038E+04  0.12969169417E+04 0.  0.
        2    1    3    3  502    0  0.31760323012E+03  0.56195451724E+03 -0.42637170652E+03  0.77360036412E+03  0.25500000920E-02 0.  1.
       -2    1    3    3    0  502 -0.31760323012E+03 -0.56195451724E+03 -0.28512686296E+03  0.70566423972E+03  0.25500000920E-02 0. -1.
</event>
<event>
 5   0  0.2661377E-04  0.1299200E+04  0.7818609E-02  0.9030200E-01
        2   -1    0    0  501    0  0.00000000000E+00  0.00000000000E+00  0.15560677056E+04  0.15560677057E+04  0.25500000920E-02 0. -1.
       -2   -1    0    0    0  501  0.00000000000E+00  0.00000000000E+00 -0.27118378935E+03  0.27118378936E+03  0.25500000920E-02 0.  1.
    10030    2    1    2    0    0  0.00000000000E+00  0.00000000000E+00  0.12848839163E+04  0.18272514950E+04  0.12992002723E+04 0.  0.
        5    1    3    3  502    0  0.54958706352E+03  0.26024399827E+03  0.32115241007E+03  0.68770185365E+03  0.46999998093E+01 0.  1.
       -5    1    3    3    0  502 -0.54958706352E+03 -0.26024399827E+03  0.96373150623E+03  0.11395496414E+04  0.46999998093E+01 0. -1.
</event>
<event>
 5   0  0.1475396E-04  0.1297919E+04  0.7818609E-02  0.9031217E-01
       -1   -1    0    0    0  501  0.00000000000E+00  0.00000000000E+00  0.43062548762E+03  0.43062548765E+03  0.50400001928E-02 0. -1.
        1   -1    0    0  501    0  0.00000000000E+00  0.00000000000E+00 -0.97799217799E+03  0.97799217801E+03  0.50400001928E-02 0.  1.
    10030    2    1    2    0    0  0.00000000000E+00  0.00000000000E+00 -0.54736669037E+03  0.14086176657E+04  0.12979188859E+04 0.  0.
        3    1    3    3  502    0 -0.31643118878E+03  0.37269752150E+03 -0.73683143687E+03  0.88428090352E+03  0.10100000352E+00 0.  1.
       -3    1    3    3    0  502  0.31643118878E+03 -0.37269752150E+03  0.18946474650E+03  0.52433676214E+03  0.10100000352E+00 0. -1.
</event>
<event>
 5   0  0.1430636E-04  0.1300073E+04  0.7818609E-02  0.9029508E-01
        1   -1    0    0  501    0  0.00000000000E+00  0.00000000000E+00  0.70063582347E+03  0.70063582349E+03  0.50400001928E-02 0. -1.
       -1   -1    0    0    0  501  0.00000000000E+00  0.00000000000E+00 -0.60309112067E+03  0.60309112069E+03  0.50400001928E-02 0.  1.
    10030    2    1    2    0    0  0.00000000000E+00  0.00000000000E+00  0.97544702801E+02  0.13037269442E+04  0.13000726810E+04 0.  0.
        4    1    3    3  502    0 -0.21111940783E+03  0.37314939950E+03 -0.44120490432E+03  0.61520342912E+03  0.12699999809E+01 0.  1.
       -4    1    3    3    0  502  0.21111940783E+03 -0.37314939950E+03  0.53874960712E+03  0.68852351505E+03  0.12699999809E+01 0. -1.
</event>
<event>
 5   0  0.1408341E-04  0.1299809E+04  0.7818609E-02  0.9029717E-01
       -1   -1    0    0    0  501  0.00000000000E+00  0.00000000000E+00  0.37408685957E+03  0.37408685960E+03  0.50400001928E-02 0.  1.
        1   -1    0    0  501    0  0.00000000000E+00  0.00000000000E+00 -0.11290843800E+04  0.11290843800E+04  0.50400001928E-02 0. -1.
    10030    2    1    2    0    0  0.00000000000E+00  0.00000000000E+00 -0.75499752040E+03  0.15031712396E+04  0.12998086473E+04 0.  0.
        5    1    3    3  502    0  0.13921886644E+03  0.61570889674E+03 -0.55618596883E+03  0.84133480863E+03  0.46999998093E+01 0. -1.
       -5    1    3    3    0  502 -0.13921886644E+03 -0.61570889674E+03 -0.19881155158E+03  0.66183643095E+03  0.46999998093E+01 0.  1.
</event>
<event>
 5   0  0.1002887E-04  0.1302042E+04  0.7818609E-02  0.9027947E-01
       -3   -1    0    0    0  501  0.00000000000E+00  0.00000000000E+00  0.12020906783E+04  0.12020906826E+04  0.10100000352E+00 0. -1.
        3   -1    0    0  501    0  0.00000000000E+00  0.00000000000E+00 -0.35257596433E+03  0.35257597880E+03  0.10100000352E+00 0.  1.
    10030    2    1    2    0    0  0.00000000000E+00  0.00000000000E+00  0.84951471399E+03  0.15546666614E+04  0.13020419266E+04 0.  0.
        1    1    3    3  502    0  0.13568481863E+03  0.19566759281E+03  0.11482323200E+04  0.11726609218E+04  0.50400001928E-02 0. -1.
       -1    1    3    3    0  502 -0.13568481863E+03 -0.19566759281E+03 -0.29871760600E+03  0.38200573954E+03  0.50400001928E-02 0.  1.
</event>
<event>
 5   0  0.1002887E-04  0.1298017E+04  0.7818609E-02  0.9031139E-01
        3   -1    0    0  501    0  0.00000000000E+00  0.00000000000E+00  0.21441425085E+03  0.21441427463E+03  0.10100000352E+00 0.  1.
       -3   -1    0    0    0  501  0.00000000000E+00  0.00000000000E+00 -0.19644764225E+04  0.19644764251E+04  0.10100000352E+00 0. -1.
    10030    2    1    2    0    0  0.00000000000E+00  0.00000000000E+00 -0.17500621717E+04  0.21788906998E+04  0.12980165934E+04 0.  0.
        2    1    3    3  502    0  0.20742515931E+02 -0.43429803650E+03 -0.66204914084E+02  0.43980464656E+03  0.25500000920E-02 0.  1.
       -2    1    3    3    0  502 -0.20742515931E+02  0.43429803650E+03 -0.16838572576E+04  0.17390860532E+04  0.25500000920E-02 0. -1.
</event>
<event>
 5   0  0.1475396E-04  0.1300896E+04  0.7818609E-02  0.9028855E-01
       -1   -1    0    0    0  501  0.00000000000E+00  0.00000000000E+00  0.44271177787E+03  0.44271177790E+03  0.50400001928E-02 0.  1.
        1   -1    0    0  501    0  0.00000000000E+00  0.00000000000E+00 -0.95566214172E+03  0.95566214174E+03  0.50400001928E-02 0. -1.
    10030    2    1    2    0    0  0.00000000000E+00  0.00000000000E+00 -0.51295036385E+03  0.13983739196E+04  0.13008964384E+04 0.  0.
        3    1    3    3  502    0 -0.44778718941E+03  0.11526930416E+03  0.23527784766E+03  0.51880252050E+03  0.10100000352E+00 0.  1.
       -3    1    3    3    0  502  0.44778718941E+03 -0.11526930416E+03 -0.74822821151E+03  0.87957139914E+03  0.10100000352E+00 0. -1.
</event>
<event>
 5   0  0.2661377E-04  0.1298186E+04  0.7818609E-02  0.9031005E-01
        2   -1    0    0  501    0  0.00000000000E+00  0.00000000000E+00  0.11113638458E+04  0.11113638458E+04  0.25500000920E-02 0. -1.
       -2   -1    0    0    0  501  0.00000000000E+00  0.00000000000E+00 -0.37910329261E+03  0.37910329262E+03  0.25500000920E-02 0.  1.
    10030    2    1    2    0    0  0.00000000000E+00  0.00000000000E+00  0.73226055319E+03  0.14904671384E+04  0.12981859547E+04 0.  0.
        5    1    3    3  502    0  0.27537404189E+03 -0.58681117761E+03  0.40457726393E+03  0.76412242056E+03  0.46999998093E+01 0. -1.
       -5    1    3    3    0  502 -0.27537404189E+03  0.58681117761E+03  0.32768328926E+03  0.72634471786E+03  0.46999998093E+01 0.  1.
</event>
<event>
 5   0  0.1002887E-04  0.1311009E+04  0.7818609E-02  0.9020880E-01
       -3   -1    0    0    0  501  0.00000000000E+00  0.00000000000E+00  0.61989549604E+03  0.61989550427E+03  0.10100000352E+00 0. -1.
        3   -1    0    0  501    0  0.00000000000E+00  0.00000000000E+00 -0.69315898303E+03  0.69315899039E+03  0.10100000352E+00 0.  1.
    10030    2    1    2    0    0  0.00000000000E+00  0.00000000000E+00 -0.73263486991E+02  0.13130544947E+04  0.13110089883E+04 0.  0.
        2    1    3    3  502    0 -0.29892654700E+03  0.23485509313E+03  0.49821657376E+03  0.62668472907E+03  0.25500000920E-02 0. -1.
       -2    1    3    3    0  502  0.29892654700E+03 -0.23485509313E+03 -0.57148006075E+03  0.68636976559E+03  0.25500000920E-02 0.  1.
</event>
<event>
 5   0  0.2661377E-04  0.1301146E+04  0.7818609E-02  0.9028657E-01
       -2   -1    0    0    0  501  0.00000000000E+00  0.00000000000E+00  0.50036263040E+03  0.50036263041E+03  0.25500000920E-02 0.  1.
        2   -1    0    0  501    0  0.00000000000E+00  0.00000000000E+00 -0.84587738713E+03  0.84587738714E+03  0.25500000920E-02 0. -1.
    10030    2    1    2    0    0  0.00000000000E+00  0.00000000000E+00 -0.34551475673E+03  0.13462400175E+04  0.13011463168E+04 0.  0.
        5    1    3    3  502    0  0.39926539061E+03  0.24566698544E+03  0.29393852050E+03  0.55334172417E+03  0.46999998093E+01 0.  1.
       -5    1    3    3    0  502 -0.39926539061E+03 -0.24566698544E+03 -0.63945327723E+03  0.79289829337E+03  0.46999998093E+01 0. -1.
</event>
<event>
 5   0  0.1479690E-04  0.1304327E+04  0.7818609E-02  0.9026141E-01
        1   -1    0    0  501    0  0.00000000000E+00  0.00000000000E+00  0.71272976292E+03  0.71272976294E+03  0.50400001928E-02 0. -1.
       -1   -1    0    0    0  501  0.00000000000E+00  0.00000000000E+00 -0.59674397881E+03  0.59674397883E+03  0.50400001928E-02 0.  1.
    10030    2    1    2    0    0  0.00000000000E+00  0.00000000000E+00  0.11598578412E+03  0.13094737418E+04  0.13043269445E+04 0.  0.
        1    1    3    3  502    0 -0.14211194051E+02  0.16393736948E+02  0.71236735312E+03  0.71269766273E+03  0.50400001928E-02 0. -1.
       -1    1    3    3    0  502  0.14211194051E+02 -0.16393736948E+02 -0.59638156900E+03  0.59677607904E+03  0.50400001928E-02 0.  1.
</event>
<event>
 5   0  0.1408341E-04  0.1297118E+04  0.7818609E-02  0.9031854E-01
        1   -1    0    0  501    0  0.00000000000E+00  0.00000000000E+00  0.14923149860E+04  0.14923149860E+04  0.50400001928E-02 0.  1.
       -1   -1    0    0    0  501  0.00000000000E+00  0.00000000000E+00 -0.28186329766E+03  0.28186329770E+03  0.50400001928E-02 0. -1.
    10030    2    1    2    0    0  0.00000000000E+00  0.00000000000E+00  0.12104516883E+04  0.17741782837E+04  0.12971180719E+04 0.  0.
        5    1    3    3  502    0 -0.57476792366E+03 -0.11681614553E+03  0.22666178715E+03  0.62880985494E+03  0.46999998093E+01 0. -1.
       -5    1    3    3    0  502  0.57476792366E+03  0.11681614553E+03  0.98378990118E+03  0.11453684288E+04  0.46999998093E+01 0.  1.
</event>
<event>
 5   0  0.2756984E-04  0.1300925E+04  0.7818609E-02  0.9028832E-01
        2   -1    0    0  501    0  0.00000000000E+00  0.00000000000E+00  0.53909505486E+03  0.53909505487E+03  0.25500000920E-02 0.  1.
       -2   -1    0    0    0  501  0.00000000000E+00  0.00000000000E+00 -0.78483666716E+03  0.78483666716E+03  0.25500000920E-02 0. -1.
    10030    2    1    2    0    0  0.00000000000E+00  0.00000000000E+00 -0.24574161230E+03  0.13239317220E+04  0.13009251572E+04 0.  0.
        3    1    3    3  502    0  0.32634898217E+03 -0.34846371509E+03 -0.57246516114E+03  0.74541732595E+03  0.10100000352E+00 0. -1.
       -3    1    3    3    0  502 -0.32634898217E+03  0.34846371509E+03  0.32672354884E+03  0.57851439608E+03  0.10100000352E+00 0.  1.
</event>
<event>
 5   0  0.2661377E-04  0.1301682E+04  0.7818609E-02  0.9028233E-01
        2   -1    0    0  501    0  0.00000000000E+00  0.00000000000E+00  0.11654155285E+04  0.11654155285E+04  0.25500000920E-02 0. -1.
       -2   -1    0    0    0  501  0.00000000000E+00  0.00000000000E+00 -0.36347017303E+03  0.36347017304E+03  0.25500000920E-02 0.  1.
    10030    2    1    2    0    0  0.00000000000E+00  0.00000000000E+00  0.80194535548E+03  0.15288857016E+04  0.13016816566E+04 0.  0.
        5    1    3    3  502    0  0.47671451949E+03 -0.24763682136E+03 -0.30568841275E+02  0.53808667744E+03  0.46999998093E+01 0.  1.
       -5    1    3    3    0  502 -0.47671451949E+03  0.24763682136E+03  0.83251419676E+03  0.99079902411E+03  0.46999998093E+01 0. -1.
</event>
<event>
 5   0  0.1002887E-04  0.1297129E+04  0.7818609E-02  0.9031845E-01
        3   -1    0    0  501    0  0.00000000000E+00  0.00000000000E+00  0.44668049368E+03  0.44668050510E+03  0.10100000352E+00 0. -1.
       -3   -1    0    0    0  501  0.00000000000E+00  0.00000000000E+00 -0.94169265925E+03  0.94169266467E+03  0.10100000352E+00 0.  1.
    10030    2    1    2    0    0  0.00000000000E+00  0.00000000000E+00 -0.49501216557E+03  0.13883731698E+04  0.12971287579E+04 0.  0.
        4    1    3    3  502    0  0.57819991385E+03 -0.39886084855E+02 -0.55906261390E+03  0.80526930855E+03  0.12699999809E+01 0.  1.
       -4    1    3    3    0  502 -0.57819991385E+03  0.39886084855E+02  0.64050448330E+02  0.58310386122E+03  0.12699999809E+01 0. -1.
</event>
<event>
 5   0  0.2573071E-04  0.1298326E+04  0.7818609E-02  0.9030894E-01
        2   -1    0    0  501    0  0.00000000000E+00  0.00000000000E+00  0.12661185066E+04  0.12661185067E+04  0.25500000920E-02 0.  1.
       -2   -1    0    0    0  501  0.00000000000E+00  0.00000000000E+00 -0.33283827904E+03  0.33283827905E+03  0.25500000920E-02 0. -1.
    10030    2    1    2    0    0  0.00000000000E+00  0.00000000000E+00  0.93328022761E+03  0.15989567857E+04  0.12983261606E+04 0.  0.
        4    1    3    3  502    0  0.54549044457E+03  0.25412562967E+03  0.16680974064E+03  0.62447318857E+03  0.12699999809E+01 0. -1.
       -4    1    3    3    0  502 -0.54549044457E+03 -0.25412562967E+03  0.76647048697E+03  0.97448359713E+03  0.12699999809E+01 0.  1.
</event>
<event>
 5   0  0.1479690E-04  0.1304100E+04  0.7818609E-02  0.9026320E-01
        1   -1    0    0  501    0  0.00000000000E+00  0.00000000000E+00  0.99748728170E+03  0.99748728171E+03  0.50400001928E-02 0.  1.
       -1   -1    0    0    0  501  0.00000000000E+00  0.00000000000E+00 -0.42624020612E+03  0.42624020615E+03  0.50400001928E-02 0. -1.
    10030    2    1    2    0    0  0.00000000000E+00  0.00000000000E+00  0.57124707558E+03  0.14237274879E+04  0.13040999725E+04 0.  0.
        1    1    3    3  502    0 -0.35396726894E+03  0.23484189697E+03  0.82570058579E+03  0.92856071501E+03  0.50400001928E-02 0.  1.
       -1    1    3    3    0  502  0.35396726894E+03 -0.23484189697E+03 -0.25445351021E+03  0.49516677285E+03  0.50400001928E-02 0. -1.
</event>
<event>
 5   0  0.1430636E-04  0.1300533E+04  0.7818609E-02  0.9029143E-01
        1   -1    0    0  501    0  0.00000000000E+00  0.00000000000E+00  0.11927611907E+04  0.11927611907E+04  0.50400001928E-02 0.  1.
       -1   -1    0    0    0  501  0.00000000000E+00  0.00000000000E+00 -0.35451053408E+03  0.35451053412E+03  0.50400001928E-02 0. -1.
    10030    2    1    2    0    0  0.00000000000E+00  0.00000000000E+00  0.83825065662E+03  0.15472717248E+04  0.13005328243E+04 0.  0.
        4    1    3    3  502    0  0.45225774102E+03  0.42331710800E+03  0.18384200063E+03  0.64616865626E+03  0.12699999809E+01 0. -1.
       -4    1    3    3    0  502 -0.45225774102E+03 -0.42331710800E+03  0.65440865600E+03  0.90110306857E+03  0.12699999809E+01 0.  1.
</event>
<event>
 5   0  0.1430636E-04  0.1301239E+04  0.7818609E-02  0.9028583E-01
       -1   -1    0    0    0  501  0.00000000000E+00  0.00000000000E+00  0.81111901791E+03  0.81111901792E+03  0.50400001928E-02 0.  1.
        1   -1    0    0  501    0  0.00000000000E+00  0.00000000000E+00 -0.52187892939E+03  0.52187892941E+03  0.50400001928E-02 0. -1.
    10030    2    1    2    0    0  0.00000000000E+00  0.00000000000E+00  0.28924008852E+03  0.13329979473E+04  0.13012392934E+04 0.  0.
        4    1    3    3  502    0  0.16089480166E+03 -0.11882839086E+03  0.77884016330E+03  0.80411500206E+03  0.12699999809E+01 0.  1.
       -4    1    3    3    0  502 -0.16089480166E+03  0.11882839086E+03 -0.48960007478E+03  0.52888294527E+03  0.12699999809E+01 0. -1.
</event>
<event>
 5   0  0.1430636E-04  0.1299397E+04  0.7818609E-02  0.9030044E-01
       -1   -1    0    0    0  501  0.00000000000E+00  0.00000000000E+00  0.52065450233E+03  0.52065450236E+03  0.50400001928E-02 0.  1.
        1   -1    0    0  501    0  0.00000000000E+00  0.00000000000E+00 -0.81072595694E+03  0.81072595696E+03  0.50400001928E-02 0. -1.
    10030    2    1    2    0    0  0.00000000000E+00  0.00000000000E+00 -0.29007145461E+03  0.13313804593E+04  0.12993969673E+04 0.  0.
        4    1    3    3  502    0  0.29036578692E+03  0.25487965986E+03 -0.68022432149E+03  0.78229321337E+03  0.12699999809E+01 0. -1.
       -4    1    3    3    0  502 -0.29036578692E+03 -0.25487965986E+03  0.39015286688E+03  0.54908724595E+03  0.12699999809E+01 0.  1.
</event>
<event>
 5   0  0.1479690E-04  0.1298204E+04  0.7818609E-02  0.9030991E-01
        1   -1    0    0  501    0  0.00000000000E+00  0.00000000000E+00  0.10403632874E+04  0.10403632874E+04  0.50400001928E-02 0. -1.
       -1   -1    0    0    0  501  0.00000000000E+00  0.00000000000E+00 -0.40498662247E+03  0.40498662250E+03  0.50400001928E-02 0.  1.
    10030    2    1    2    0    0  0.00000000000E+00  0.00000000000E+00  0.63537666496E+03  0.14453499099E+04  0.12982037035E+04 0.  0.
        1    1    3    3  502    0  0.39664360297E+03  0.32748767286E+03  0.75849306262E+03  0.91645297191E+03  0.50400001928E-02 0. -1.
       -1    1    3    3    0  502 -0.39664360297E+03 -0.32748767286E+03 -0.12311639766E+03  0.52889693802E+03  0.50400001928E-02 0.  1.
</event>
<event>
 5   0  0.1408341E-04  0.1298673E+04  0.7818609E-02  0.9030618E-01
        1   -1    0    0  501    0  0.00000000000E+00  0.00000000000E+00  0.47410912624E+03  0.47410912627E+03  0.50400001928E-02 0.  1.
       -1   -1    0    0    0  501  0.00000000000E+00  0.00000000000E+00 -0.88932612132E+03  0.88932612133E+03  0.50400001928E-02 0. -1.
    10030    2    1    2    0    0  0.00000000000E+00  0.00000000000E+00 -0.41521699508E+03  0.13634352476E+04  0.12986725998E+04 0.  0.
        5    1    3    3  502    0  0.59638375127E+03 -0.21272525647E+03 -0.56595503905E+02  0.63572852271E+03  0.46999998093E+01 0.  1.
       -5    1    3    3    0  502 -0.59638375127E+03  0.21272525647E+03 -0.35862149117E+03  0.72770672489E+03  0.46999998093E+01 0. -1.
</event>
<event>
 5   0  0.2573071E-04  0.1301054E+04  0.7818609E-02  0.9028729E-01
       -2   -1    0    0    0  501  0.00000000000E+00  0.00000000000E+00  0.17300945359E+03  0.17300945361E+03  0.25500000920E-02 0. -1.
        2   -1    0    0  501    0  0.00000000000E+00  0.00000000000E+00 -0.24460260552E+04  0.24460260552E+04  0.25500000920E-02 0.  1.
    10030    2    1    2    0    0  0.00000000000E+00  0.00000000000E+00 -0.22730166016E+04  0.26190355088E+04  0.13010543898E+04 0.  0.
        4    1    3    3  502    0 -0.42619151679E+03  0.27453793281E+03 -0.31591659655E+03  0.59734009945E+03  0.12699999809E+01 0.  1.
       -4    1    3    3    0  502  0.42619151679E+03 -0.27453793281E+03 -0.19571000050E+04  0.20216954093E+04  0.12699999809E+01 0. -1.
</event>
<event>
 5   0  0.1408341E-04  0.1295921E+04  0.7818609E-02  0.9032806E-01
       -1   -1    0    0    0  501  0.00000000000E+00  0.00000000000E+00  0.30811669684E+03  0.30811669688E+03  0.50400001928E-02 0.  1.
        1   -1    0    0  501    0  0.00000000000E+00  0.00000000000E+00 -0.13626424301E+04  0.13626424301E+04  0.50400001928E-02 0. -1.
    10030    2    1    2    0    0  0.00000000000E+00  0.00000000000E+00 -0.10545257333E+04  0.16707591270E+04  0.12959211158E+04 0.  0.
        5    1    3    3  502    0 -0.85768408175E+02 -0.62859362638E+02  0.29676837692E+03  0.31527936635E+03  0.46999998093E+01 0.  1.
       -5    1    3    3    0  502  0.85768408175E+02  0.62859362638E+02 -0.13512941102E+04  0.13554797607E+04  0.46999998093E+01 0. -1.
</event>
<event>
 5   0  0.2573071E-04  0.1301661E+04  0.7818609E-02  0.9028249E-01
        2   -1    0    0  501    0  0.00000000000E+00  0.00000000000E+00  0.11682773867E+04  0.11682773867E+04  0.25500000920E-02 0.  1.
       -2   -1    0    0    0  501  0.00000000000E+00  0.00000000000E+00 -0.36256838186E+03  0.36256838187E+03  0.25500000920E-02 0. -1.
    10030    2    1    2    0    0  0.00000000000E+00  0.00000000000E+00  0.80570900484E+03  0.15308457686E+04  0.13016611566E+04 0.  0.
        4    1    3    3  502    0  0.65428445217E+02 -0.17431295021E+03  0.11362862266E+04  0.11514399193E+04  0.12699999809E+01 0.  1.
       -4    1    3    3    0  502 -0.65428445217E+02  0.17431295021E+03 -0.33057722174E+03  0.37940584931E+03  0.12699999809E+01 0. -1.
</event>
<event>
 5   0  0.1479690E-04  0.1300795E+04  0.7818609E-02  0.9028935E-01
        1   -1    0    0  501    0  0.00000000000E+00  0.00000000000E+00  0.49297350253E+03  0.49297350255E+03  0.50400001928E-02 0.  1.
       -1   -1    0    0    0  501  0.00000000000E+00  0.00000000000E+00 -0.85809243189E+03  0.85809243190E+03  0.50400001928E-02 0. -1.
    10030    2    1    2    0    0  0.00000000000E+00  0.00000000000E+00 -0.36511892936E+03  0.13510659345E+04  0.13007948826E+04 0.  0.
        1    1    3    3  502    0 -0.58716016075E+03  0.85961634465E+02 -0.45906261803E+03  0.75025658562E+03  0.50400001928E-02 0. -1.
       -1    1    3    3    0  502  0.58716016075E+03 -0.85961634465E+02  0.93943688672E+02  0.60080934883E+03  0.50400001928E-02 0.  1.
</event>
<event>
 5   0  0.2794825E-04  0.1298621E+04  0.7818609E-02  0.9030659E-01
        2   -1    0    0  501    0  0.00000000000E+00  0.00000000000E+00  0.11284342326E+04  0.11284342326E+04  0.25500000920E-02 0.  1.
       -2   -1    0    0    0  501  0.00000000000E+00  0.00000000000E+00 -0.37361880822E+03  0.37361880822E+03  0.25500000920E-02 0. -1.
    10030    2    1    2    0    0  0.00000000000E+00  0.00000000000E+00  0.75481542437E+03  0.15020530408E+04  0.12986211967E+04 0.  0.
        1    1    3    3  502    0  0.23976427186E+03 -0.54928314108E+03  0.66635178524E+03  0.89622741358E+03  0.50400001928E-02 0.  1.
       -1    1    3    3    0  502 -0.23976427186E+03  0.54928314108E+03  0.88463639129E+02  0.60582562723E+03  0.50400001928E-02 0. -1.
</event>
<event>
 5   0  0.1475396E-04  0.1301243E+04  0.7818609E-02  0.9028580E-01
       -1   -1    0    0    0  501  0.00000000000E+00  0.00000000000E+00  0.44995998532E+03  0.44995998535E+03  0.50400001928E-02 0. -1.
        1   -1    0    0  501    0  0.00000000000E+00  0.00000000000E+00 -0.94076897050E+03  0.94076897051E+03  0.50400001928E-02 0.  1.
    10030    2    1    2    0    0  0.00000000000E+00  0.00000000000E+00 -0.49080898518E+03  0.13907289559E+04  0.13012430859E+04 0.  0.
        3    1    3    3  502    0 -0.26614513642E+03  0.16916508041E+03 -0.85362574906E+03  0.91001482831E+03  0.10100000352E+00 0.  1.
       -3    1    3    3    0  502  0.26614513642E+03 -0.16916508041E+03  0.36281676389E+03  0.48071412755E+03  0.10100000352E+00 0. -1.
</event>
<event>
 5   0  0.2723209E-04  0.1299854E+04  0.7818609E-02  0.9029681E-01
        2   -1    0    0  501    0  0.00000000000E+00  0.00000000000E+00  0.56128275970E+03  0.56128275971E+03  0.25500000920E-02 0. -1.
       -2   -1    0    0    0  501  0.00000000000E+00  0.00000000000E+00 -0.75257132042E+03  0.75257132043E+03  0.25500000920E-02 0.  1.
    10030    2    1    2    0    0  0.00000000000E+00  0.00000000000E+00 -0.19128856072E+03  0.13138540801E+04  0.12998543112E+04 0.  0.
        2    1    3    3  502    0 -0.84174997749E+02  0.34270980026E+03 -0.64729697411E+03  0.73724406416E+03  0.25500000920E-02 0.  1.
       -2    1    3    3    0  502  0.84174997749E+02 -0.34270980026E+03  0.45600841338E+03  0.57661001598E+03  0.25500000920E-02 0. -1.
</event>
<event>
 5   0  0.1479690E-04  0.1302157E+04  0.7818609E-02  0.9027856E-01
       -1   -1    0    0    0  501  0.00000000000E+00  0.00000000000E+00  0.39781935124E+03  0.39781935127E+03  0.50400001928E-02 0. -1.
        1   -1    0    0  501    0  0.00000000000E+00  0.00000000000E+00 -0.10655670397E+04  0.10655670397E+04  0.50400001928E-02 0.  1.
    10030    2    1    2    0    0  0.00000000000E+00  0.00000000000E+00 -0.66774768847E+03  0.14633863910E+04  0.13021569621E+04 0.  0.
        1    1    3    3  502    0 -0.52355561776E+03 -0.23267232879E+02  0.10029113899E+03  0.53358238502E+03  0.50400001928E-02 0. -1.
       -1    1    3    3    0  502  0.52355561776E+03  0.23267232879E+02 -0.76803882745E+03  0.92980400597E+03  0.50400001928E-02 0.  1.
</event>
<event>
 5   0  0.1475396E-04  0.1299586E+04  0.7818609E-02  0.9029893E-01
        1   -1    0    0  501    0  0.00000000000E+00  0.00000000000E+00  0.12521411751E+04  0.12521411751E+04  0.50400001928E-02 0. -1.
       -1   -1    0    0    0  501  0.00000000000E+00  0.00000000000E+00 -0.33720732792E+03  0.33720732795E+03  0.50400001928E-02 0.  1.
    10030    2    1    2    0    0  0.00000000000E+00  0.00000000000E+00  0.91493384714E+03  0.15893485030E+04  0.12995863647E+04 0.  0.
        3    1    3    3  502    0  0.36475147893E+03  0.25027368933E+03  0.10395655947E+04  0.11297686475E+04  0.10100000352E+00 0. -1.
       -3    1    3    3    0  502 -0.36475147893E+03 -0.25027368933E+03 -0.12463174752E+03  0.45957985557E+03  0.10100000352E+00 0.  1.
</event>
<event>
 5   0  0.1479690E-04  0.1299438E+04  0.7818609E-02  0.9030011E-01
        1   -1    0    0  501    0  0.00000000000E+00  0.00000000000E+00  0.44365389375E+03  0.44365389378E+03  0.50400001928E-02 0.  1.
       -1   -1    0    0    0  501  0.00000000000E+00  0.00000000000E+00 -0.95149599948E+03  0.95149599949E+03  0.50400001928E-02 0. -1.
    10030    2    1    2    0    0  0.00000000000E+00  0.00000000000E+00 -0.50784210573E+03  0.13951498933E+04  0.12994381941E+04 0.  0.
        1    1    3    3  502    0 -0.23961595048E+03 -0.60060080885E+03 -0.32180610113E+03  0.72228547131E+03  0.50400001928E-02 0.  1.
       -1    1    3    3    0  502  0.23961595048E+03  0.60060080885E+03 -0.18603600460E+03  0.67286442196E+03  0.50400001928E-02 0. -1.
</event>
<event>
 5   0  0.2661377E-04  0.1307736E+04  0.7818609E-02  0.9023453E-01
        2   -1    0    0  501    0  0.00000000000E+00  0.00000000000E+00  0.15439591884E+04  0.15439591884E+04  0.25500000920E-02 0. -1.
       -2   -1    0    0    0  501  0.00000000000E+00  0.00000000000E+00 -0.27691370168E+03  0.27691370169E+03  0.25500000920E-02 0.  1.
    10030    2    1    2    0    0  0.00000000000E+00  0.00000000000E+00  0.12670454868E+04  0.18208728901E+04  0.13077361418E+04 0.  0.
        5    1    3    3  502    0 -0.26875382499E+03 -0.48749275025E+02 -0.19364832118E+03  0.33485350910E+03  0.46999998093E+01 0.  1.
       -5    1    3    3    0  502  0.26875382499E+03  0.48749275025E+02  0.14606938079E+04  0.14860193810E+04  0.46999998093E+01 0. -1.
</event>
<event>
 5   0  0.2756984E-04  0.1298013E+04  0.7818609E-02  0.9031142E-01
        2   -1    0    0  501    0  0.00000000000E+00  0.00000000000E+00  0.13264400422E+04  0.13264400422E+04  0.25500000920E-02 0. -1.
       -2   -1    0    0    0  501  0.00000000000E+00  0.00000000000E+00 -0.31754889077E+03  0.31754889078E+03  0.25500000920E-02 0.  1.
    10030    2    1    2    0    0  0.00000000000E+00  0.00000000000E+00  0.10088911515E+04  0.16439889330E+04  0.12980131958E+04 0.  0.
        3    1    3    3  502    0  0.59290157856E+03  0.26061194140E+03  0.55756020885E+03  0.85459011377E+03  0.10100000352E+00 0. -1.
       -3    1    3    3    0  502 -0.59290157856E+03 -0.26061194140E+03  0.45133094261E+03  0.78939881924E+03  0.10100000352E+00 0.  1.
</event>
<event>
 5   0  0.2794825E-04  0.1299704E+04  0.7818609E-02  0.9029800E-01
        2   -1    0    0  501    0  0.00000000000E+00  0.00000000000E+00  0.15827380379E+04  0.15827380379E+04  0.25500000920E-02 0. -1.
       -2   -1    0    0    0  501  0.00000000000E+00  0.00000000000E+00 -0.26682111773E+03  0.26682111774E+03  0.25500000920E-02 0.  1.
    10030    2    1    2    0    0  0.00000000000E+00  0.00000000000E+00  0.13159169202E+04  0.18495591556E+04  0.12997044777E+04 0.  0.
        1    1    3    3  502    0  0.15396138481E+03 -0.63127893839E+03  0.67151316694E+03  0.93442342622E+03  0.50400001928E-02 0.  1.
       -1    1    3    3    0  502 -0.15396138481E+03  0.63127893839E+03  0.64440375322E+03  0.91513572941E+03  0.50400001928E-02 0. -1.
</event>
<event>
 5   0  0.1476511E-04  0.1302144E+04  0.7818609E-02  0.9027867E-01
        1   -1    0    0  501    0  0.00000000000E+00  0.00000000000E+00  0.69337757768E+03  0.69337757770E+03  0.50400001928E-02 0. -1.
       -1   -1    0    0    0  501  0.00000000000E+00  0.00000000000E+00 -0.61134784768E+03  0.61134784770E+03  0.50400001928E-02 0.  1.
    10030    2    1    2    0    0  0.00000000000E+00  0.00000000000E+00  0.82029730003E+02  0.13047254254E+04  0.13021442159E+04 0.  0.
        2    1    3    3  502    0  0.47662462166E+02 -0.57880854320E+03  0.33588354015E+03  0.67090147751E+03  0.25500000920E-02 0. -1.
       -2    1    3    3    0  502 -0.47662462166E+02  0.57880854320E+03 -0.25385381014E+03  0.63382394789E+03  0.25500000920E-02 0.  1.
</event>
<event>
 5   0  0.1479690E-04  0.1299087E+04  0.7818609E-02  0.9030289E-01
       -1   -1    0    0    0  501  0.00000000000E+00  0.00000000000E+00  0.28158813822E+03  0.28158813827E+03  0.50400001928E-02 0. -1.
        1   -1    0    0  501    0  0.00000000000E+00  0.00000000000E+00 -0.14983126276E+04  0.14983126276E+04  0.50400001928E-02 0.  1.
    10030    2    1    2    0    0  0.00000000000E+00  0.00000000000E+00 -0.12167244894E+04  0.17799007659E+04  0.12990874695E+04 0.  0.
        1    1    3    3  502    0 -0.54188299480E+03  0.10411449049E+03 -0.13884988386E+03  0.56899586770E+03  0.50400001928E-02 0. -1.
       -1    1    3    3    0  502  0.54188299480E+03 -0.10411449049E+03 -0.10778746055E+04  0.12109048982E+04  0.50400001928E-02 0.  1.
</event>
<event>
 5   0  0.2661377E-04  0.1300764E+04  0.7818609E-02  0.9028960E-01
        2   -1    0    0  501    0  0.00000000000E+00  0.00000000000E+00  0.12113394331E+04  0.12113394331E+04  0.25500000920E-02 0.  1.
       -2   -1    0    0    0  501  0.00000000000E+00  0.00000000000E+00 -0.34919728015E+03  0.34919728016E+03  0.25500000920E-02 0. -1.
    10030    2    1    2    0    0  0.00000000000E+00  0.00000000000E+00  0.86214215295E+03  0.15605367133E+04  0.13007635225E+04 0.  0.
        5    1    3    3  502    0 -0.47900633099E+03 -0.21527641626E+03  0.89133292260E+03  0.10345469875E+04  0.46999998093E+01 0.  1.
       -5    1    3    3    0  502  0.47900633099E+03  0.21527641626E+03 -0.29190769649E+02  0.52598972571E+03  0.46999998093E+01 0. -1.
</event>
<event>
 5   0  0.1408341E-04  0.1305281E+04  0.7818609E-02  0.9025388E-01
       -1   -1    0    0    0  501  0.00000000000E+00  0.00000000000E+00  0.29352586344E+03  0.29352586348E+03  0.50400001928E-02 0. -1.
        1   -1    0    0  501    0  0.00000000000E+00  0.00000000000E+00 -0.14511143406E+04  0.14511143406E+04  0.50400001928E-02 0.  1.
    10030    2    1    2    0    0  0.00000000000E+00  0.00000000000E+00 -0.11575884772E+04  0.17446402041E+04  0.13052809503E+04 0.  0.
        5    1    3    3  502    0  0.21463257847E+03  0.21691954981E+03 -0.13498594304E+04  0.13839305642E+04  0.46999998093E+01 0.  1.
       -5    1    3    3    0  502 -0.21463257847E+03 -0.21691954981E+03  0.19227095323E+03  0.36070963985E+03  0.46999998093E+01 0. -1.
</event>
<event>
 5   0  0.1430636E-04  0.1298668E+04  0.7818609E-02  0.9030622E-01
       -1   -1    0    0    0  501  0.00000000000E+00  0.00000000000E+00  0.38145319734E+03  0.38145319738E+03  0.50400001928E-02 0. -1.
        1   -1    0    0  501    0  0.00000000000E+00  0.00000000000E+00 -0.11053382049E+04  0.11053382049E+04  0.50400001928E-02 0.  1.
    10030    2    1    2    0    0  0.00000000000E+00  0.00000000000E+00 -0.72388500751E+03  0.14867914022E+04  0.12986682293E+04 0.  0.
        4    1    3    3  502    0 -0.47628130594E+03  0.38373160938E+02  0.14142667605E+03  0.49831666585E+03  0.12699999809E+01 0.  1.
       -4    1    3    3    0  502  0.47628130594E+03 -0.38373160938E+02 -0.86531168356E+03  0.98847473639E+03  0.12699999809E+01 0. -1.
</event>
<event>
 5   0  0.2661377E-04  0.1302430E+04  0.7818609E-02  0.9027641E-01
        2   -1    0    0  501    0  0.00000000000E+00  0.00000000000E+00  0.10896940823E+04  0.10896940823E+04  0.25500000920E-02 0. -1.
       -2   -1    0    0    0  501  0.00000000000E+00  0.00000000000E+00 -0.38917412832E+03  0.38917412833E+03  0.25500000920E-02 0.  1.
    10030    2    1    2    0    0  0.00000000000E+00  0.00000000000E+00  0.70051995401E+03  0.14788682107E+04  0.13024296444E+04 0.  0.
        5    1    3    3  502    0 -0.60965622157E+03 -0.12916813134E+03  0.56478107546E+03  0.84104986050E+03  0.46999998093E+01 0. -1.
       -5    1    3    3    0  502  0.60965622157E+03  0.12916813134E+03  0.13573887855E+03  0.63781835016E+03  0.46999998093E+01 0.  1.
</event>
<event>
 5   0  0.1408341E-04  0.1299881E+04  0.7818609E-02  0.9029660E-01
        1   -1    0    0  501    0  0.00000000000E+00  0.00000000000E+00  0.38788838415E+03  0.38788838419E+03  0.50400001928E-02 0. -1.
       -1   -1    0    0    0  501  0.00000000000E+00  0.00000000000E+00 -0.10890308998E+04  0.10890308998E+04  0.50400001928E-02 0.  1.
    10030    2    1    2    0    0  0.00000000000E+00  0.00000000000E+00 -0.70114251562E+03  0.14769192840E+04  0.12998806654E+04 0.  0.
        5    1    3    3  502    0 -0.34110271432E+03 -0.58274033101E+02 -0.97563753779E+03  0.10351993140E+04  0.46999998093E+01 0.  1.
       -5    1    3    3    0  502  0.34110271432E+03  0.58274033101E+02  0.27449502217E+03  0.44171996994E+03  0.46999998093E+01 0. -1.
</event>
<event>
 5   0  0.2661377E-04  0.1300895E+04  0.7818609E-02  0.9028856E-01
        2   -1    0    0  501    0  0.00000000000E+00  0.00000000000E+00  0.10945324356E+04  0.10945324356E+04  0.25500000920E-02 0.  1.
       -2   -1    0    0    0  501  0.00000000000E+00  0.00000000000E+00 -0.38654101251E+03  0.38654101252E+03  0.25500000920E-02 0. -1.
    10030    2    1    2    0    0  0.00000000000E+00  0.00000000000E+00  0.70799142306E+03  0.14810734481E+04  0.13008945782E+04 0.  0.
        5    1    3    3  502    0  0.46726909101E+03 -0.35133454628E+03  0.67858556503E+03  0.89569907105E+03  0.46999998093E+01 0.  1.
       -5    1    3    3    0  502 -0.46726909101E+03  0.35133454628E+03  0.29405858027E+02  0.58537437705E+03  0.46999998093E+01 0. -1.
</event>
<event>
 5   0  0.2573071E-04  0.1301504E+04  0.7818609E-02  0.9028374E-01
        2   -1    0    0  501    0  0.00000000000E+00  0.00000000000E+00  0.53877460468E+03  0.53877460469E+03  0.25500000920E-02 0. -1.
       -2   -1    0    0    0  501  0.00000000000E+00  0.00000000000E+00 -0.78600202217E+03  0.78600202218E+03  0.25500000920E-02 0.  1.
    10030    2    1    2    0    0  0.00000000000E+00  0.00000000000E+00 -0.24722741749E+03  0.13247766269E+04  0.13015036362E+04 0.  0.
        4    1    3    3  502    0 -0.51549816211E+03 -0.33732973011E+03  0.89769371798E+02  0.62256714897E+03  0.12699999809E+01 0. -1.
       -4    1    3    3    0  502  0.51549816211E+03  0.33732973011E+03 -0.33699678929E+03  0.70220947790E+03  0.12699999809E+01 0.  1.
</event>
<event>
 5   0  0.2794825E-04  0.1294782E+04  0.7818609E-02  0.9033714E-01
        2   -1    0    0  501    0  0.00000000000E+00  0.00000000000E+00  0.51932784155E+03  0.51932784156E+03  0.25500000920E-02 0. -1.
       -2   -1    0    0    0  501  0.00000000000E+00  0.00000000000E+00 -0.80703346658E+03  0.80703346658E+03  0.25500000920E-02 0.  1.
    10030    2    1    2    0    0  0.00000000000E+00  0.00000000000E+00 -0.28770562503E+03  0.13263613081E+04  0.12947817550E+04 0.  0.
        1    1    3    3  502    0  0.12181796026E+03  0.29921674777E+03  0.43085151314E+03  0.53851954838E+03  0.50400001928E-02 0. -1.
       -1    1    3    3    0  502 -0.12181796026E+03 -0.29921674777E+03 -0.71855713817E+03  0.78784175976E+03  0.50400001928E-02 0.  1.
</event>
<event>
 5   0  0.2794825E-04  0.1299612E+04  0.7818609E-02  0.9029873E-01
        2   -1    0    0  501    0  0.00000000000E+00  0.00000000000E+00  0.13600281202E+04  0.13600281202E+04  0.25500000920E-02 0.  1.
       -2   -1    0    0    0  501  0.00000000000E+00  0.00000000000E+00 -0.31047015850E+03  0.31047015851E+03  0.25500000920E-02 0. -1.
    10030    2    1    2    0    0  0.00000000000E+00  0.00000000000E+00  0.10495579617E+04  0.16704982787E+04  0.12996124746E+04 0.  0.
        1    1    3    3  502    0 -0.35415194556E+03  0.32665053682E+03  0.10852466961E+04  0.11873856008E+04  0.50400001928E-02 0.  1.
       -1    1    3    3    0  502  0.35415194556E+03 -0.32665053682E+03 -0.35688734349E+02  0.48311267788E+03  0.50400001928E-02 0. -1.
</event>
<event>
 5   0  0.1476511E-04  0.1302270E+04  0.7818609E-02  0.9027767E-01
        1   -1    0    0  501    0  0.00000000000E+00  0.00000000000E+00  0.81181301390E+03  0.81181301391E+03  0.50400001928E-02 0.  1.
       -1   -1    0    0    0  501  0.00000000000E+00  0.00000000000E+00 -0.52225893859E+03  0.52225893861E+03  0.50400001928E-02 0. -1.
    10030    2    1    2    0    0  0.00000000000E+00  0.00000000000E+00  0.28955407530E+03  0.13340719525E+04  0.13022697155E+04 0.  0.
        2    1    3    3  502    0 -0.46814029951E+03  0.45254218779E+03  0.15008342091E+03  0.66818770192E+03  0.25500000920E-02 0. -1.
       -2    1    3    3    0  502  0.46814029951E+03 -0.45254218779E+03  0.13947065440E+03  0.66588425061E+03  0.25500000920E-02 0.  1.
</event>
<event>
 5   0  0.2794825E-04  0.1300107E+04  0.7818609E-02  0.9029481E-01
       -2   -1    0    0    0  501  0.00000000000E+00  0.00000000000E+00  0.60053696947E+03  0.60053696948E+03  0.25500000920E-02 0.  1.
        2   -1    0    0  501    0  0.00000000000E+00  0.00000000000E+00 -0.70365249532E+03  0.70365249532E+03  0.25500000920E-02 0. -1.
    10030    2    1    2    0    0  0.00000000000E+00  0.00000000000E+00 -0.10311552585E+03  0.13041894648E+04  0.13001066681E+04 0.  0.
        1    1    3    3  502    0 -0.42797207939E+03  0.48922723914E+03 -0.59703906568E+02  0.65273880591E+03  0.50400001928E-02 0. -1.
       -1    1    3    3    0  502  0.42797207939E+03 -0.48922723914E+03 -0.43411619277E+02  0.65145065889E+03  0.50400001928E-02 0.  1.
</event>
<event>
 5   0  0.1408341E-04  0.1299381E+04  0.7818609E-02  0.9030056E-01
        1   -1    0    0  501    0  0.00000000000E+00  0.00000000000E+00  0.21662242699E+04  0.21662242699E+04  0.50400001928E-02 0. -1.
       -1   -1    0    0    0  501  0.00000000000E+00  0.00000000000E+00 -0.19485415084E+03  0.19485415091E+03  0.50400001928E-02 0.  1.
    10030    2    1    2    0    0  0.00000000000E+00  0.00000000000E+00  0.19713701190E+04  0.23610784208E+04  0.12993810692E+04 0.  0.
        5    1    3    3  502    0  0.70811782828E+02  0.60856329203E+03  0.13784101309E+04  0.15084429615E+04  0.46999998093E+01 0. -1.
       -5    1    3    3    0  502 -0.70811782828E+02 -0.60856329203E+03  0.59295998811E+03  0.85263545932E+03  0.46999998093E+01 0.  1.
</event>
<event>
 5   0  0.1475396E-04  0.1300485E+04  0.7818609E-02  0.9029181E-01
       -1   -1    0    0    0  501  0.00000000000E+00  0.00000000000E+00  0.45973996259E+03  0.45973996261E+03  0.50400001928E-02 0.  1.
        1   -1    0    0  501    0  0.00000000000E+00  0.00000000000E+00 -0.91968297511E+03  0.91968297512E+03  0.50400001928E-02 0. -1.
    10030    2    1    2    0    0  0.00000000000E+00  0.00000000000E+00 -0.45994301252E+03  0.13794229377E+04  0.13004845506E+04 0.  0.
        3    1    3    3  502    0  0.46202875940E+03  0.42717196849E+02  0.25322288363E+03  0.52859925503E+03  0.10100000352E+00 0.  1.
       -3    1    3    3    0  502 -0.46202875940E+03 -0.42717196849E+02 -0.71316589615E+03  0.85082368271E+03  0.10100000352E+00 0. -1.
</event>
<event>
 5   0  0.2573071E-04  0.1306358E+04  0.7818609E-02  0.9024539E-01
        2   -1    0    0  501    0  0.00000000000E+00  0.00000000000E+00  0.11339291699E+04  0.11339291699E+04  0.25500000920E-02 0. -1.
       -2   -1    0    0    0  501  0.00000000000E+00  0.00000000000E+00 -0.37625151014E+03  0.37625151015E+03  0.25500000920E-02 0.  1.
    10030    2    1    2    0    0  0.00000000000E+00  0.00000000000E+00  0.75767765977E+03  0.15101806801E+04  0.13063576273E+04 0.  0.
        4    1    3    3  502    0  0.53680985600E+03  0.89537975835E+01  0.80889831176E+03  0.97085688114E+03  0.12699999809E+01 0. -1.
       -4    1    3    3    0  502 -0.53680985600E+03 -0.89537975835E+01 -0.51220651988E+02  0.53932379892E+03  0.12699999809E+01 0.  1.
</event>
<event>
 5   0  0.1430636E-04  0.1305973E+04  0.7818609E-02  0.9024842E-01
        1   -1    0    0  501    0  0.00000000000E+00  0.00000000000E+00  0.98979134338E+03  0.98979134340E+03  0.50400001928E-02 0.  1.
       -1   -1    0    0    0  501  0.00000000000E+00  0.00000000000E+00 -0.43078899974E+03  0.43078899977E+03  0.50400001928E-02 0. -1.
    10030    2    1    2    0    0  0.00000000000E+00  0.00000000000E+00  0.55900234364E+03  0.14205803432E+04  0.13059727758E+04 0.  0.
        4    1    3    3  502    0  0.25584390148E+03 -0.31694560333E+03  0.83466099518E+03  0.92874711690E+03  0.12699999809E+01 0.  1.
       -4    1    3    3    0  502 -0.25584390148E+03  0.31694560333E+03 -0.27565865153E+03  0.49183322627E+03  0.12699999809E+01 0. -1.
</event>
<event>
 5   0  0.2756984E-04  0.1298425E+04  0.7818609E-02  0.9030815E-01
        2   -1    0    0  501    0  0.00000000000E+00  0.00000000000E+00  0.12805688856E+04  0.12805688856E+04  0.25500000920E-02 0. -1.
       -2   -1    0    0    0  501  0.00000000000E+00  0.00000000000E+00 -0.32913227687E+03  0.32913227688E+03  0.25500000920E-02 0.  1.
    10030    2    1    2    0    0  0.00000000000E+00  0.00000000000E+00  0.95143660873E+03  0.16097011625E+04  0.12984245115E+04 0.  0.
        3    1    3    3  502    0 -0.14471818168E+03  0.16460389663E+03  0.12333152959E+04  0.12526389839E+04  0.10100000352E+00 0. -1.
       -3    1    3    3    0  502  0.14471818168E+03 -0.16460389663E+03 -0.28187868712E+03  0.35706217855E+03  0.10100000352E+00 0.  1.
</event>
<event>
 5   0  0.2756984E-04  0.1303310E+04  0.7818609E-02  0.9026945E-01
        2   -1    0    0  501    0  0.00000000000E+00  0.00000000000E+00  0.14140226328E+04  0.14140226328E+04  0.25500000920E-02 0. -1.
       -2   -1    0    0    0  501  0.00000000000E+00  0.00000000000E+00 -0.30031627167E+03  0.30031627168E+03  0.25500000920E-02 0.  1.
    10030    2    1    2    0    0  0.00000000000E+00  0.00000000000E+00  0.11137063612E+04  0.17143389045E+04  0.13033096411E+04 0.  0.
        3    1    3    3  502    0 -0.59887881188E+03  0.22716122453E+03  0.71467575121E+03  0.95969760488E+03  0.10100000352E+00 0. -1.
       -3    1    3    3    0  502  0.59887881188E+03 -0.22716122453E+03  0.39903060995E+03  0.75464129964E+03  0.10100000352E+00 0.  1.
</event>
<event>
 5   0  0.2756984E-04  0.1299960E+04  0.7818609E-02  0.9029597E-01
        2   -1    0    0  501    0  0.00000000000E+00  0.00000000000E+00  0.71514619566E+03  0.71514619567E+03  0.25500000920E-02 0.  1.
       -2   -1    0    0    0  501  0.00000000000E+00  0.00000000000E+00 -0.59075200170E+03  0.59075200170E+03  0.25500000920E-02 0. -1.
    10030    2    1    2    0    0  0.00000000000E+00  0.00000000000E+00  0.12439419397E+03  0.13058981974E+04  0.12999600711E+04 0.  0.
        3    1    3    3  502    0 -0.95757581168E+02 -0.11854529887E+03 -0.57255275206E+03  0.59248558323E+03  0.10100000352E+00 0. -1.
       -3    1    3    3    0  502  0.95757581168E+02  0.11854529887E+03  0.69694694603E+03  0.71341261414E+03  0.10100000352E+00 0.  1.
</event>
<event>
 5   0  0.1476511E-04  0.1302369E+04  0.7818609E-02  0.9027689E-01
       -1   -1    0    0    0  501  0.00000000000E+00  0.00000000000E+00  0.34258911576E+03  0.34258911580E+03  0.50400001928E-02 0.  1.
        1   -1    0    0  501    0  0.00000000000E+00  0.00000000000E+00 -0.12377544872E+04  0.12377544872E+04  0.50400001928E-02 0. -1.
    10030    2    1    2    0    0  0.00000000000E+00  0.00000000000E+00 -0.89516537141E+03  0.15803436030E+04  0.13023689421E+04 0.  0.
        2    1    3    3  502    0  0.56934918156E+03  0.22340613650E+03 -0.17632459823E+03  0.63652113579E+03  0.25500000920E-02 0.  1.
       -2    1    3    3    0  502 -0.56934918156E+03 -0.22340613650E+03 -0.71884077319E+03  0.94382246719E+03  0.25500000920E-02 0. -1.
</event>
<event>
 5   0  0.2661377E-04  0.1300369E+04  0.7818609E-02  0.9029272E-01
       -2   -1    0    0    0  501  0.00000000000E+00  0.00000000000E+00  0.38488640118E+03  0.38488640119E+03  0.25500000920E-02 0. -1.
        2   -1    0    0  501    0  0.00000000000E+00  0.00000000000E+00 -0.10983500054E+04  0.10983500054E+04  0.25500000920E-02 0.  1.
    10030    2    1    2    0    0  0.00000000000E+00  0.00000000000E+00 -0.71346360424E+03  0.14832364066E+04  0.13003691489E+04 0.  0.
        5    1    3    3  502    0 -0.16253362080E+03 -0.28465640176E+03 -0.99718299481E+03  0.10496868391E+04  0.46999998093E+01 0.  1.
       -5    1    3    3    0  502  0.16253362080E+03  0.28465640176E+03  0.28371939056E+03  0.43354956756E+03  0.46999998093E+01 0. -1.
</event>
<event>
 5   0  0.2661377E-04  0.1301163E+04  0.7818609E-02  0.9028644E-01
        2   -1    0    0  501    0  0.00000000000E+00  0.00000000000E+00  0.11934892159E+04  0.11934892159E+04  0.25500000920E-02 0. -1.
       -2   -1    0    0    0  501  0.00000000000E+00  0.00000000000E+00 -0.35463750320E+03  0.35463750321E+03  0.25500000920E-02 0.  1.
    10030    2    1    2    0    0  0.00000000000E+00  0.00000000000E+00  0.83885171274E+03  0.15481267192E+04  0.13011626119E+04 0.  0.
        5    1    3    3  502    0  0.23527849831E+02 -0.45513486837E+03  0.97179759752E+03  0.10733657199E+04  0.46999998093E+01 0. -1.
       -5    1    3    3    0  502 -0.23527849831E+02  0.45513486837E+03 -0.13294588478E+03  0.47476099925E+03  0.46999998093E+01 0.  1.
</event>
<event>
 5   0  0.2573071E-04  0.1294977E+04  0.7818609E-02  0.9033558E-01
       -2   -1    0    0    0  501  0.00000000000E+00  0.00000000000E+00  0.93584813821E+03  0.93584813821E+03  0.25500000920E-02 0. -1.
        2   -1    0    0  501    0  0.00000000000E+00  0.00000000000E+00 -0.44798023159E+03  0.44798023160E+03  0.25500000920E-02 0.  1.
    10030    2    1    2    0    0  0.00000000000E+00  0.00000000000E+00  0.48786790662E+03  0.13838283698E+04  0.12949771669E+04 0.  0.
        4    1    3    3  502    0 -0.41379447313E+03 -0.46591483148E+03  0.43189234511E+03  0.75817880929E+03  0.12699999809E+01 0. -1.
       -4    1    3    3    0  502  0.41379447313E+03  0.46591483148E+03  0.55975561509E+02  0.62564956052E+03  0.12699999809E+01 0.  1.
</event>
<event>
 5   0  0.2573071E-04  0.1293533E+04  0.7818609E-02  0.9034709E-01
        2   -1    0    0  501    0  0.00000000000E+00  0.00000000000E+00  0.96636320132E+03  0.96636320132E+03  0.25500000920E-02 0.  1.
       -2   -1    0    0    0  501  0.00000000000E+00  0.00000000000E+00 -0.43286711481E+03  0.43286711482E+03  0.25500000920E-02 0. -1.
    10030    2    1    2    0    0  0.00000000000E+00  0.00000000000E+00  0.53349608650E+03  0.13992303161E+04  0.12935329154E+04 0.  0.
        4    1    3    3  502    0 -0.59211153928E+03 -0.25793911983E+03  0.30385208686E+03  0.71376212289E+03  0.12699999809E+01 0.  1.
       -4    1    3    3    0  502  0.59211153928E+03  0.25793911983E+03  0.22964399964E+03  0.68546819325E+03  0.12699999809E+01 0. -1.
</event>
<event>
 5   0  0.1476511E-04  0.1296601E+04  0.7818609E-02  0.9032265E-01
       -1   -1    0    0    0  501  0.00000000000E+00  0.00000000000E+00  0.52663257033E+03  0.52663257036E+03  0.50400001928E-02 0.  1.
        1   -1    0    0  501    0  0.00000000000E+00  0.00000000000E+00 -0.79807757837E+03  0.79807757839E+03  0.50400001928E-02 0. -1.
    10030    2    1    2    0    0  0.00000000000E+00  0.00000000000E+00 -0.27144500804E+03  0.13247101487E+04  0.12966011668E+04 0.  0.
        2    1    3    3  502    0  0.24725213790E+03 -0.52372876368E+03  0.16191453377E+03  0.60136657195E+03  0.25500000920E-02 0.  1.
       -2    1    3    3    0  502 -0.24725213790E+03  0.52372876368E+03 -0.43335954181E+03  0.72334357679E+03  0.25500000920E-02 0. -1.
</event>
<event>
 5   0  0.2756984E-04  0.1300832E+04  0.7818609E-02  0.9028906E-01
        2   -1    0    0  501    0  0.00000000000E+00  0.00000000000E+00  0.12904877929E+04  0.12904877929E+04  0.25500000920E-02 0.  1.
       -2   -1    0    0    0  501  0.00000000000E+00  0.00000000000E+00 -0.32781471862E+03  0.32781471863E+03  0.25500000920E-02 0. -1.
    10030    2    1    2    0    0  0.00000000000E+00  0.00000000000E+00  0.96267307426E+03  0.16183025115E+04  0.13008318765E+04 0.  0.
        3    1    3    3  502    0  0.50337132431E+03  0.74032903932E+01 -0.31000548707E+02  0.50437936424E+03  0.10100000352E+00 0. -1.
       -3    1    3    3    0  502 -0.50337132431E+03 -0.74032903932E+01  0.99367362297E+03  0.11139231473E+04  0.10100000352E+00 0.  1.
</event>
<event>
 5   0  0.1430636E-04  0.1302172E+04  0.7818609E-02  0.9027845E-01
       -1   -1    0    0    0  501  0.00000000000E+00  0.00000000000E+00  0.60998994303E+03  0.60998994305E+03  0.50400001928E-02 0. -1.
        1   -1    0    0  501    0  0.00000000000E+00  0.00000000000E+00 -0.69495041351E+03  0.69495041353E+03  0.50400001928E-02 0.  1.
    10030    2    1    2    0    0  0.00000000000E+00  0.00000000000E+00 -0.84960470479E+02  0.13049403566E+04  0.13021716679E+04 0.  0.
        4    1    3    3  502    0 -0.68094277997E+02  0.62509339959E+03 -0.21175522664E+03  0.66349112866E+03  0.12699999809E+01 0. -1.
       -4    1    3    3    0  502  0.68094277997E+02 -0.62509339959E+03  0.12679475617E+03  0.64144922792E+03  0.12699999809E+01 0.  1.
</event>
<event>
 5   0  0.2794825E-04  0.1300862E+04  0.7818609E-02  0.9028882E-01
        2   -1    0    0  501    0  0.00000000000E+00  0.00000000000E+00  0.12469254835E+04  0.12469254835E+04  0.25500000920E-02 0. -1.
       -2   -1    0    0    0  501  0.00000000000E+00  0.00000000000E+00 -0.33928289229E+03  0.33928289230E+03  0.25500000920E-02 0.  1.
    10030    2    1    2    0    0  0.00000000000E+00  0.00000000000E+00  0.90764259116E+03  0.15862083758E+04  0.13008619981E+04 0.  0.
        1    1    3    3  502    0  0.57491345414E+03 -0.18332657005E+03  0.15782664055E+03  0.62373340421E+03  0.50400001928E-02 0.  1.
       -1    1    3    3    0  502 -0.57491345414E+03  0.18332657005E+03  0.74981595061E+03  0.96247497155E+03  0.50400001928E-02 0. -1.
</event>
<event>
 5   0  0.2723209E-04  0.1300557E+04  0.7818609E-02  0.9029123E-01
        2   -1    0    0  501    0  0.00000000000E+00  0.00000000000E+00  0.10280748751E+04  0.10280748751E+04  0.25500000920E-02 0. -1.
       -2   -1    0    0    0  501  0.00000000000E+00  0.00000000000E+00 -0.41131473006E+03  0.41131473007E+03  0.25500000920E-02 0.  1.
    10030    2    1    2    0    0  0.00000000000E+00  0.00000000000E+00  0.61676014505E+03  0.14393896052E+04  0.13005573263E+04 0.  0.
        2    1    3    3  502    0 -0.49379237712E+03  0.32792471381E+03  0.12447891415E+02  0.59289162554E+03  0.25500000920E-02 0.  1.
       -2    1    3    3    0  502  0.49379237712E+03 -0.32792471381E+03  0.60431225363E+03  0.84649797963E+03  0.25500000920E-02 0. -1.
</event>
<event>
 5   0  0.1430636E-04  0.1278245E+04  0.7818609E-02  0.9046997E-01
        1   -1    0    0  501    0  0.00000000000E+00  0.00000000000E+00  0.36546758215E+03  0.36546758218E+03  0.50400001928E-02 0. -1.
       -1   -1    0    0    0  501  0.00000000000E+00  0.00000000000E+00 -0.11176846465E+04  0.11176846465E+04  0.50400001928E-02 0.  1.
    10030    2    1    2    0    0  0.00000000000E+00  0.00000000000E+00 -0.75221706432E+03  0.14831522287E+04  0.12782448989E+04 0.  0.
        4    1    3    3  502    0 -0.47823876444E+03 -0.32273291566E+03 -0.57062914520E+02  0.57976429674E+03  0.12699999809E+01 0. -1.
       -4    1    3    3    0  502  0.47823876444E+03  0.32273291566E+03 -0.69515414980E+03  0.90338793192E+03  0.12699999809E+01 0.  1.
</event>
<event>
 5   0  0.1476511E-04  0.1298377E+04  0.7818609E-02  0.9030854E-01
       -1   -1    0    0    0  501  0.00000000000E+00  0.00000000000E+00  0.28294137489E+03  0.28294137494E+03  0.50400001928E-02 0.  1.
        1   -1    0    0  501    0  0.00000000000E+00  0.00000000000E+00 -0.14895149362E+04  0.14895149362E+04  0.50400001928E-02 0. -1.
    10030    2    1    2    0    0  0.00000000000E+00  0.00000000000E+00 -0.12065735613E+04  0.17724563112E+04  0.12983765309E+04 0.  0.
        2    1    3    3  502    0  0.39383164962E+03  0.13920219991E+03 -0.12816970237E+04  0.13480459492E+04  0.25500000920E-02 0. -1.
       -2    1    3    3    0  502 -0.39383164962E+03 -0.13920219991E+03  0.75123462367E+02  0.42441036193E+03  0.25500000920E-02 0.  1.
</event>
<event>
 5   0  0.2573071E-04  0.1297053E+04  0.7818609E-02  0.9031905E-01
       -2   -1    0    0    0  501  0.00000000000E+00  0.00000000000E+00  0.54780016411E+03  0.54780016412E+03  0.25500000920E-02 0. -1.
        2   -1    0    0  501    0  0.00000000000E+00  0.00000000000E+00 -0.76777380539E+03  0.76777380539E+03  0.25500000920E-02 0.  1.
    10030    2    1    2    0    0  0.00000000000E+00  0.00000000000E+00 -0.21997364127E+03  0.13155739695E+04  0.12970529929E+04 0.  0.
        4    1    3    3  502    0  0.19408181684E+03 -0.54691220339E+03  0.18363659550E+03  0.60869099053E+03  0.12699999809E+01 0. -1.
       -4    1    3    3    0  502 -0.19408181684E+03  0.54691220339E+03 -0.40361023678E+03  0.70688297898E+03  0.12699999809E+01 0.  1.
</event>
<event>
 5   0  0.2573071E-04  0.1298460E+04  0.7818609E-02  0.9030787E-01
        2   -1    0    0  501    0  0.00000000000E+00  0.00000000000E+00  0.38564171331E+03  0.38564171332E+03  0.25500000920E-02 0. -1.
       -2   -1    0    0    0  501  0.00000000000E+00  0.00000000000E+00 -0.10929826404E+04  0.10929826404E+04  0.25500000920E-02 0.  1.
    10030    2    1    2    0    0  0.00000000000E+00  0.00000000000E+00 -0.70734092711E+03  0.14786243537E+04  0.12984601620E+04 0.  0.
        4    1    3    3  502    0  0.14295670377E+03 -0.35949927866E+03  0.24003536868E+03  0.45529654252E+03  0.12699999809E+01 0. -1.
       -4    1    3    3    0  502 -0.14295670377E+03  0.35949927866E+03 -0.94737629579E+03  0.10233278112E+04  0.12699999809E+01 0.  1.
</event>
<event>
 5   0  0.1430636E-04  0.1297283E+04  0.7818609E-02  0.9031723E-01
       -1   -1    0    0    0  501  0.00000000000E+00  0.00000000000E+00  0.59370599186E+03  0.59370599188E+03  0.50400001928E-02 0. -1.
        1   -1    0    0  501    0  0.00000000000E+00  0.00000000000E+00 -0.70865986288E+03  0.70865986290E+03  0.50400001928E-02 0.  1.
    10030    2    1    2    0    0  0.00000000000E+00  0.00000000000E+00 -0.11495387102E+03  0.13023658548E+04  0.12972827091E+04 0.  0.
        4    1    3    3  502    0 -0.52473593845E+02 -0.34855159251E+03  0.48916769145E+03  0.60293310902E+03  0.12699999809E+01 0. -1.
       -4    1    3    3    0  502  0.52473593845E+02  0.34855159251E+03 -0.60412156247E+03  0.69943274575E+03  0.12699999809E+01 0.  1.
</event>
<event>
 5   0  0.1476511E-04  0.1312379E+04  0.7818609E-02  0.9019806E-01
        1   -1    0    0  501    0  0.00000000000E+00  0.00000000000E+00  0.28270614688E+03  0.28270614692E+03  0.50400001928E-02 0.  1.
       -1   -1    0    0    0  501  0.00000000000E+00  0.00000000000E+00 -0.15230821361E+04  0.15230821361E+04  0.50400001928E-02 0. -1.
    10030    2    1    2    0    0  0.00000000000E+00  0.00000000000E+00 -0.12403759892E+04  0.18057882830E+04  0.13123790339E+04 0.  0.
        2    1    3    3  502    0  0.14348350422E+03  0.52536830691E+03 -0.11238464589E+04  0.12488515673E+04  0.25500000920E-02 0. -1.
       -2    1    3    3    0  502 -0.14348350422E+03 -0.52536830691E+03 -0.11652953029E+03  0.55693671573E+03  0.25500000920E-02 0.  1.
</event>
<event>
 5   0  0.2661377E-04  0.1301151E+04  0.7818609E-02  0.9028653E-01
       -2   -1    0    0    0  501  0.00000000000E+00  0.00000000000E+00  0.42903195335E+03  0.42903195336E+03  0.25500000920E-02 0. -1.
        2   -1    0    0  501    0  0.00000000000E+00  0.00000000000E+00 -0.98652012729E+03  0.98652012729E+03  0.25500000920E-02 0.  1.
    10030    2    1    2    0    0  0.00000000000E+00  0.00000000000E+00 -0.55748817393E+03  0.14155520807E+04  0.13011512706E+04 0.  0.
        5    1    3    3  502    0 -0.19638209073E+03  0.35264688026E+01 -0.95347392766E+03  0.97350551219E+03  0.46999998093E+01 0.  1.
       -5    1    3    3    0  502  0.19638209073E+03 -0.35264688026E+01  0.39598575372E+03  0.44204656846E+03  0.46999998093E+01 0. -1.
</event>
<event>
 5   0  0.1002887E-04  0.1308843E+04  0.7818609E-02  0.9022582E-01
        4   -1    0    0  501    0  0.00000000000E+00  0.00000000000E+00  0.53279406999E+03  0.53279558361E+03  0.12699999809E+01 0.  1.
       -4   -1    0    0    0  501  0.00000000000E+00  0.00000000000E+00 -0.80381146142E+03  0.80381246470E+03  0.12699999809E+01 0. -1.
    10030    2    1    2    0    0  0.00000000000E+00  0.00000000000E+00 -0.27101739144E+03  0.13366080483E+04  0.13088432482E+04 0.  0.
        4    1    3    3  502    0  0.56629294358E+03 -0.27453685983E+03  0.47763842931E+02  0.63114275956E+03  0.12699999809E+01 0.  1.
       -4    1    3    3    0  502 -0.56629294358E+03  0.27453685983E+03 -0.31878123437E+03  0.70546528875E+03  0.12699999809E+01 0. -1.
</event>
<event>
 5   0  0.1408341E-04  0.1299776E+04  0.7818609E-02  0.9029743E-01
        1   -1    0    0  501    0  0.00000000000E+00  0.00000000000E+00  0.13072001723E+04  0.13072001724E+04  0.50400001928E-02 0.  1.
       -1   -1    0    0    0  501  0.00000000000E+00  0.00000000000E+00 -0.32309833405E+03  0.32309833409E+03  0.50400001928E-02 0. -1.
    10030    2    1    2    0    0  0.00000000000E+00  0.00000000000E+00  0.98410183829E+03  0.16302985064E+04  0.12997756699E+04 0.  0.
        5    1    3    3  502    0  0.48261822682E+03 -0.52092493296E+02  0.10340127587E+04  0.11422952578E+04  0.46999998093E+01 0.  1.
       -5    1    3    3    0  502 -0.48261822682E+03  0.52092493296E+02 -0.49910920460E+02  0.48800324866E+03  0.46999998093E+01 0. -1.
</event>
<event>
 5   0  0.2723209E-04  0.1299709E+04  0.7818609E-02  0.9029796E-01
        2   -1    0    0  501    0  0.00000000000E+00  0.00000000000E+00  0.28905193326E+04  0.28905193326E+04  0.25500000920E-02 0. -1.
       -2   -1    0    0    0  501  0.00000000000E+00  0.00000000000E+00 -0.14610202136E+03  0.14610202139E+03  0.25500000920E-02 0.  1.
    10030    2    1    2    0    0  0.00000000000E+00  0.00000000000E+00  0.27444173113E+04  0.30366213540E+04  0.12997087633E+04 0.  0.
        2    1    3    3  502    0 -0.48473025328E+03  0.36951791911E+03  0.84559426785E+03  0.10423706523E+04  0.25500000920E-02 0.  1.
       -2    1    3    3    0  502  0.48473025328E+03 -0.36951791911E+03  0.18988230434E+04  0.19942507017E+04  0.25500000920E-02 0. -1.
</event>
<event>
 5   0  0.1430636E-04  0.1299371E+04  0.7818609E-02  0.9030064E-01
        1   -1    0    0  501    0  0.00000000000E+00  0.00000000000E+00  0.60301365049E+03  0.60301365051E+03  0.50400001928E-02 0. -1.
       -1   -1    0    0    0  501  0.00000000000E+00  0.00000000000E+00 -0.69996928816E+03  0.69996928818E+03  0.50400001928E-02 0.  1.
    10030    2    1    2    0    0  0.00000000000E+00  0.00000000000E+00 -0.96955637671E+02  0.13029829387E+04  0.12993706718E+04 0.  0.
        4    1    3    3  502    0 -0.74797051149E+02 -0.57616884784E+03  0.24306101755E+03  0.62979791301E+03  0.12699999809E+01 0. -1.
       -4    1    3    3    0  502  0.74797051149E+02  0.57616884784E+03 -0.34001665522E+03  0.67318502569E+03  0.12699999809E+01 0.  1.
</event>
<event>
 5   0  0.2756984E-04  0.1300242E+04  0.7818609E-02  0.9029374E-01
        2   -1    0    0  501    0  0.00000000000E+00  0.00000000000E+00  0.14025922365E+04  0.14025922365E+04  0.25500000920E-02 0.  1.
       -2   -1    0    0    0  501  0.00000000000E+00  0.00000000000E+00 -0.30133996666E+03  0.30133996667E+03  0.25500000920E-02 0. -1.
    10030    2    1    2    0    0  0.00000000000E+00  0.00000000000E+00  0.11012522699E+04  0.17039322032E+04  0.13002416665E+04 0.  0.
        3    1    3    3  502    0 -0.48400579880E+03 -0.12724245189E+03  0.68114892148E+01  0.50049841301E+03  0.10100000352E+00 0. -1.
       -3    1    3    3    0  502  0.48400579880E+03  0.12724245189E+03  0.10944407807E+04  0.12034337902E+04  0.10100000352E+00 0.  1.
</event>
<event>
 5   0  0.1002887E-04  0.1295364E+04  0.7818609E-02  0.9033250E-01
        4   -1    0    0  501    0  0.00000000000E+00  0.00000000000E+00  0.83734535721E+03  0.83734632031E+03  0.12699999809E+01 0.  1.
       -4   -1    0    0    0  501  0.00000000000E+00  0.00000000000E+00 -0.50097647670E+03  0.50097808645E+03  0.12699999809E+01 0. -1.
    10030    2    1    2    0    0  0.00000000000E+00  0.00000000000E+00  0.33636888051E+03  0.13383244068E+04  0.12953641164E+04 0.  0.
        5    1    3    3  502    0  0.17307381807E+02  0.60932114747E+03  0.39429920212E+03  0.72599294557E+03  0.46999998093E+01 0.  1.
       -5    1    3    3    0  502 -0.17307381807E+02 -0.60932114747E+03 -0.57930321616E+02  0.61233146120E+03  0.46999998093E+01 0. -1.
</event>
<event>
 5   0  0.2723209E-04  0.1299464E+04  0.7818609E-02  0.9029990E-01
        2   -1    0    0  501    0  0.00000000000E+00  0.00000000000E+00  0.86666290976E+03  0.86666290977E+03  0.25500000920E-02 0. -1.
       -2   -1    0    0    0  501  0.00000000000E+00  0.00000000000E+00 -0.48710039370E+03  0.48710039371E+03  0.25500000920E-02 0.  1.
    10030    2    1    2    0    0  0.00000000000E+00  0.00000000000E+00  0.37956251606E+03  0.13537633035E+04  0.12994642659E+04 0.  0.
        2    1    3    3  502    0  0.15203165325E+03  0.59312386434E+03  0.41621644980E+03  0.74036860761E+03  0.25500000920E-02 0. -1.
       -2    1    3    3    0  502 -0.15203165325E+03 -0.59312386434E+03 -0.36653933736E+02  0.61339469586E+03  0.25500000920E-02 0.  1.
</event>
<event>
 5   0  0.1475396E-04  0.1297443E+04  0.7818609E-02  0.9031595E-01
        1   -1    0    0  501    0  0.00000000000E+00  0.00000000000E+00  0.51566450884E+03  0.51566450887E+03  0.50400001928E-02 0. -1.
       -1   -1    0    0    0  501  0.00000000000E+00  0.00000000000E+00 -0.81611106609E+03  0.81611106611E+03  0.50400001928E-02 0.  1.
    10030    2    1    2    0    0  0.00000000000E+00  0.00000000000E+00 -0.30044655725E+03  0.13317755750E+04  0.12974428883E+04 0.  0.
        3    1    3    3  502    0  0.14615720174E+03  0.28414449492E+03  0.42928644284E+03  0.53515127003E+03  0.10100000352E+00 0. -1.
       -3    1    3    3    0  502 -0.14615720174E+03 -0.28414449492E+03 -0.72973300009E+03  0.79662430494E+03  0.10100000352E+00 0.  1.
</event>
<event>
 5   0  0.2723209E-04  0.1301046E+04  0.7818609E-02  0.9028736E-01
       -2   -1    0    0    0  501  0.00000000000E+00  0.00000000000E+00  0.16867894744E+04  0.16867894744E+04  0.25500000920E-02 0.  1.
        2   -1    0    0  501    0  0.00000000000E+00  0.00000000000E+00 -0.25087899327E+03  0.25087899329E+03  0.25500000920E-02 0. -1.
    10030    2    1    2    0    0  0.00000000000E+00  0.00000000000E+00  0.14359104811E+04  0.19376684677E+04  0.13010458028E+04 0.  0.
        2    1    3    3  502    0  0.57221244023E+03 -0.98100705428E+02  0.28087402406E+03  0.64493491343E+03  0.25500000920E-02 0. -1.
       -2    1    3    3    0  502 -0.57221244023E+03  0.98100705428E+02  0.11550364571E+04  0.12927335543E+04  0.25500000920E-02 0.  1.
</event>
<event>
 5   0  0.1408341E-04  0.1297076E+04  0.7818609E-02  0.9031887E-01
        1   -1    0    0  501    0  0.00000000000E+00  0.00000000000E+00  0.22260685292E+04  0.22260685292E+04  0.50400001928E-02 0. -1.
       -1   -1    0    0    0  501  0.00000000000E+00  0.00000000000E+00 -0.18894362370E+03  0.18894362377E+03  0.50400001928E-02 0.  1.
    10030    2    1    2    0    0  0.00000000000E+00  0.00000000000E+00  0.20371249055E+04  0.24150121530E+04  0.12970758723E+04 0.  0.
        5    1    3    3  502    0 -0.26541310486E+03 -0.71949436260E+02  0.21121092730E+04  0.21299409637E+04  0.46999998093E+01 0. -1.
       -5    1    3    3    0  502  0.26541310486E+03  0.71949436260E+02 -0.74984367497E+02  0.28507118932E+03  0.46999998093E+01 0.  1.
</event>
<event>
 5   0  0.1430636E-04  0.1299183E+04  0.7818609E-02  0.9030214E-01
        1   -1    0    0  501    0  0.00000000000E+00  0.00000000000E+00  0.19184737968E+04  0.19184737968E+04  0.50400001928E-02 0. -1.
       -1   -1    0    0    0  501  0.00000000000E+00  0.00000000000E+00 -0.21995027440E+03  0.21995027445E+03  0.50400001928E-02 0.  1.
    10030    2    1    2    0    0  0.00000000000E+00  0.00000000000E+00  0.16985235224E+04  0.21384240713E+04  0.12991825709E+04 0.  0.
        4    1    3    3  502    0 -0.55161601340E+03 -0.30173270053E+03  0.58058727388E+03  0.85580724717E+03  0.12699999809E+01 0.  1.
       -4    1    3    3    0  502  0.55161601340E+03  0.30173270053E+03  0.11179362485E+04  0.12826168241E+04  0.12699999809E+01 0. -1.
</event>
<event>
 5   0  0.2756984E-04  0.1283904E+04  0.7818609E-02  0.9042427E-01
        2   -1    0    0  501    0  0.00000000000E+00  0.00000000000E+00  0.15075428983E+04  0.15075428983E+04  0.25500000920E-02 0. -1.
       -2   -1    0    0    0  501  0.00000000000E+00  0.00000000000E+00 -0.27336041636E+03  0.27336041637E+03  0.25500000920E-02 0.  1.
    10030    2    1    2    0    0  0.00000000000E+00  0.00000000000E+00  0.12341824819E+04  0.17809033147E+04  0.12839042867E+04 0.  0.
        3    1    3    3  502    0  0.34322136165E+03 -0.38254932844E+03  0.83539662272E+02  0.52069547449E+03  0.10100000352E+00 0.  1.
       -3    1    3    3    0  502 -0.34322136165E+03  0.38254932844E+03  0.11506428197E+04  0.12602078402E+04  0.10100000352E+00 0. -1.
</event>
<event>
 5   0  0.1475396E-04  0.1301522E+04  0.7818609E-02  0.9028359E-01
        1   -1    0    0  501    0  0.00000000000E+00  0.00000000000E+00  0.89945495898E+03  0.89945495899E+03  0.50400001928E-02 0.  1.
       -1   -1    0    0    0  501  0.00000000000E+00  0.00000000000E+00 -0.47082918206E+03  0.47082918208E+03  0.50400001928E-02 0. -1.
    10030    2    1    2    0    0  0.00000000000E+00  0.00000000000E+00  0.42862577692E+03  0.13702841411E+04  0.13015216366E+04 0.  0.
        3    1    3    3  502    0 -0.31766010579E+03  0.51377244149E+03  0.46921917489E+03  0.76487692391E+03  0.10100000352E+00 0.  1.
       -3    1    3    3    0  502  0.31766010579E+03 -0.51377244149E+03 -0.40593397965E+02  0.60540721717E+03  0.10100000352E+00 0. -1.
</event>
<event>
 5   0  0.1476511E-04  0.1302126E+04  0.7818609E-02  0.9027881E-01
        1   -1    0    0  501    0  0.00000000000E+00  0.00000000000E+00  0.80741036913E+03  0.80741036915E+03  0.50400001928E-02 0. -1.
       -1   -1    0    0    0  501  0.00000000000E+00  0.00000000000E+00 -0.52499108860E+03  0.52499108862E+03  0.50400001928E-02 0.  1.
    10030    2    1    2    0    0  0.00000000000E+00  0.00000000000E+00  0.28241928053E+03  0.13324014578E+04  0.13021263359E+04 0.  0.
        2    1    3    3  502    0 -0.86040995056E+02  0.85872507529E+02 -0.51327575292E+03  0.52747430167E+03  0.25500000920E-02 0.  1.
       -2    1    3    3    0  502  0.86040995056E+02 -0.85872507529E+02  0.79569503345E+03  0.80492715611E+03  0.25500000920E-02 0. -1.
</event>
<event>
 5   0  0.1476511E-04  0.1300034E+04  0.7818609E-02  0.9029538E-01
        1   -1    0    0  501    0  0.00000000000E+00  0.00000000000E+00  0.12521662881E+04  0.12521662881E+04  0.50400001928E-02 0.  1.
       -1   -1    0    0    0  501  0.00000000000E+00  0.00000000000E+00 -0.33743288763E+03  0.33743288767E+03  0.50400001928E-02 0. -1.
    10030    2    1    2    0    0  0.00000000000E+00  0.00000000000E+00  0.91473340046E+03  0.15895991758E+04  0.13000339787E+04 0.  0.
        2    1    3    3  502    0 -0.13022695676E+03 -0.62399114914E+03  0.61298640502E+03  0.88435080552E+03  0.25500000920E-02 0.  1.
       -2    1    3    3    0  502  0.13022695676E+03  0.62399114914E+03  0.30174699545E+03  0.70524837025E+03  0.25500000920E-02 0. -1.
</event>
<event>
 5   0  0.2573071E-04  0.1299924E+04  0.7818609E-02  0.9029625E-01
        2   -1    0    0  501    0  0.00000000000E+00  0.00000000000E+00  0.14030962350E+04  0.14030962350E+04  0.25500000920E-02 0. -1.
       -2   -1    0    0    0  501  0.00000000000E+00  0.00000000000E+00 -0.30108456567E+03  0.30108456568E+03  0.25500000920E-02 0.  1.
    10030    2    1    2    0    0  0.00000000000E+00  0.00000000000E+00  0.11020116693E+04  0.17041808007E+04  0.12999240293E+04 0.  0.
        4    1    3    3  502    0 -0.55179782727E+03  0.47649633859E+02  0.10508268640E+03  0.56373337108E+03  0.12699999809E+01 0.  1.
       -4    1    3    3    0  502  0.55179782727E+03 -0.47649633859E+02  0.99692898290E+03  0.11404474296E+04  0.12699999809E+01 0. -1.
</event>
<event>
 5   0  0.1479690E-04  0.1301436E+04  0.7818609E-02  0.9028427E-01
       -1   -1    0    0    0  501  0.00000000000E+00  0.00000000000E+00  0.11937682197E+04  0.11937682197E+04  0.50400001928E-02 0. -1.
        1   -1    0    0  501    0  0.00000000000E+00  0.00000000000E+00 -0.35470371721E+03  0.35470371725E+03  0.50400001928E-02 0.  1.
    10030    2    1    2    0    0  0.00000000000E+00  0.00000000000E+00  0.83906450252E+03  0.15484719370E+04  0.13014361683E+04 0.  0.
        1    1    3    3  502    0  0.34756738844E+03  0.18330722136E+03 -0.19760297525E+03  0.43983128898E+03  0.50400001928E-02 0.  1.
       -1    1    3    3    0  502 -0.34756738844E+03 -0.18330722136E+03  0.10366674778E+04  0.11086406480E+04  0.50400001928E-02 0. -1.
</event>
<event>
 5   0  0.1479690E-04  0.1301000E+04  0.7818609E-02  0.9028773E-01
        1   -1    0    0  501    0  0.00000000000E+00  0.00000000000E+00  0.74689018554E+03  0.74689018556E+03  0.50400001928E-02 0. -1.
       -1   -1    0    0    0  501  0.00000000000E+00  0.00000000000E+00 -0.56654920963E+03  0.56654920965E+03  0.50400001928E-02 0.  1.
    10030    2    1    2    0    0  0.00000000000E+00  0.00000000000E+00  0.18034097591E+03  0.13134393952E+04  0.13009996838E+04 0.  0.
        1    1    3    3  502    0 -0.79745309595E+02  0.36089417129E+03  0.63058887732E+03  0.73092150707E+03  0.50400001928E-02 0. -1.
       -1    1    3    3    0  502  0.79745309595E+02 -0.36089417129E+03 -0.45024790140E+03  0.58251788815E+03  0.50400001928E-02 0.  1.
</event>
<event>
 5   0  0.2661377E-04  0.1300592E+04  0.7818609E-02  0.9029096E-01
       -2   -1    0    0    0  501  0.00000000000E+00  0.00000000000E+00  0.22972477999E+03  0.22972478000E+03  0.25500000920E-02 0.  1.
        2   -1    0    0  501    0  0.00000000000E+00  0.00000000000E+00 -0.18408327401E+04  0.18408327401E+04  0.25500000920E-02 0. -1.
    10030    2    1    2    0    0  0.00000000000E+00  0.00000000000E+00 -0.16111079601E+04  0.20705575201E+04  0.13005920132E+04 0.  0.
        5    1    3    3  502    0  0.94592685826E+02 -0.58724594627E+03 -0.38719336805E+03  0.70975092243E+03  0.46999998093E+01 0.  1.
       -5    1    3    3    0  502 -0.94592685826E+02  0.58724594627E+03 -0.12239145920E+04  0.13608065976E+04  0.46999998093E+01 0. -1.
</event>
<event>
 5   0  0.2794825E-04  0.1300629E+04  0.7818609E-02  0.9029066E-01
        2   -1    0    0  501    0  0.00000000000E+00  0.00000000000E+00  0.61833794872E+03  0.61833794873E+03  0.25500000920E-02 0.  1.
       -2   -1    0    0    0  501  0.00000000000E+00  0.00000000000E+00 -0.68394487380E+03  0.68394487380E+03  0.25500000920E-02 0. -1.
    10030    2    1    2    0    0  0.00000000000E+00  0.00000000000E+00 -0.65606925074E+02  0.13022828225E+04  0.13006291867E+04 0.  0.
        1    1    3    3  502    0  0.55796459253E+03  0.25977257456E+03 -0.24307711811E+03  0.66173466161E+03  0.50400001928E-02 0. -1.
       -1    1    3    3    0  502 -0.55796459253E+03 -0.25977257456E+03  0.17747019303E+03  0.64054816091E+03  0.50400001928E-02 0.  1.
</event>
<event>
 5   0  0.2794825E-04  0.1298695E+04  0.7818609E-02  0.9030600E-01
        2   -1    0    0  501    0  0.00000000000E+00  0.00000000000E+00  0.15430249122E+04  0.15430249122E+04  0.25500000920E-02 0. -1.
       -2   -1    0    0    0  501  0.00000000000E+00  0.00000000000E+00 -0.27326351209E+03  0.27326351211E+03  0.25500000920E-02 0.  1.
    10030    2    1    2    0    0  0.00000000000E+00  0.00000000000E+00  0.12697614001E+04  0.18162884243E+04  0.12986953558E+04 0.  0.
        1    1    3    3  502    0 -0.22885377975E+03  0.68377220042E+02 -0.20959584725E+03  0.31777337198E+03  0.50400001928E-02 0.  1.
       -1    1    3    3    0  502  0.22885377975E+03 -0.68377220042E+02  0.14793572474E+04  0.14985150524E+04  0.50400001928E-02 0. -1.
</event>
<event>
 5   0  0.1475396E-04  0.1299320E+04  0.7818609E-02  0.9030105E-01
       -1   -1    0    0    0  501  0.00000000000E+00  0.00000000000E+00  0.25223525019E+03  0.25223525024E+03  0.50400001928E-02 0.  1.
        1   -1    0    0  501    0  0.00000000000E+00  0.00000000000E+00 -0.16732714888E+04  0.16732714888E+04  0.50400001928E-02 0. -1.
    10030    2    1    2    0    0  0.00000000000E+00  0.00000000000E+00 -0.14210362386E+04  0.19255067390E+04  0.12993199031E+04 0.  0.
        3    1    3    3  502    0 -0.59175478282E+03 -0.61217505742E+02 -0.10973476457E+04  0.12482360241E+04  0.10100000352E+00 0. -1.
       -3    1    3    3    0  502  0.59175478282E+03  0.61217505742E+02 -0.32368859285E+03  0.67727071495E+03  0.10100000352E+00 0.  1.
</event>
<event>
 5   0  0.2661377E-04  0.1300589E+04  0.7818609E-02  0.9029098E-01
       -2   -1    0    0    0  501  0.00000000000E+00  0.00000000000E+00  0.47634377245E+03  0.47634377246E+03  0.25500000920E-02 0.  1.
        2   -1    0    0  501    0  0.00000000000E+00  0.00000000000E+00 -0.88776875891E+03  0.88776875892E+03  0.25500000920E-02 0. -1.
    10030    2    1    2    0    0  0.00000000000E+00  0.00000000000E+00 -0.41142498646E+03  0.13641125314E+04  0.13005892814E+04 0.  0.
        5    1    3    3  502    0 -0.41458061250E+03  0.16356222898E+03 -0.70237135261E+03  0.83185172596E+03  0.46999998093E+01 0. -1.
       -5    1    3    3    0  502  0.41458061250E+03 -0.16356222898E+03  0.29094636615E+03  0.53226080542E+03  0.46999998093E+01 0.  1.
</event>
<event>
 5   0  0.2723209E-04  0.1297932E+04  0.7818609E-02  0.9031207E-01
        2   -1    0    0  501    0  0.00000000000E+00  0.00000000000E+00  0.82641190858E+03  0.82641190858E+03  0.25500000920E-02 0.  1.
       -2   -1    0    0    0  501  0.00000000000E+00  0.00000000000E+00 -0.50962064805E+03  0.50962064806E+03  0.25500000920E-02 0. -1.
    10030    2    1    2    0    0  0.00000000000E+00  0.00000000000E+00  0.31679126053E+03  0.13360325566E+04  0.12979315427E+04 0.  0.
        2    1    3    3  502    0  0.21700992516E+03  0.47889311923E+03  0.54999005592E+03  0.76086857530E+03  0.25500000920E-02 0.  1.
       -2    1    3    3    0  502 -0.21700992516E+03 -0.47889311923E+03 -0.23319879539E+03  0.57516398135E+03  0.25500000920E-02 0. -1.
</event>
<event>
 5   0  0.1408341E-04  0.1296377E+04  0.7818609E-02  0.9032443E-01
       -1   -1    0    0    0  501  0.00000000000E+00  0.00000000000E+00  0.64090890873E+03  0.64090890875E+03  0.50400001928E-02 0. -1.
        1   -1    0    0  501    0  0.00000000000E+00  0.00000000000E+00 -0.65555122004E+03  0.65555122006E+03  0.50400001928E-02 0.  1.
    10030    2    1    2    0    0  0.00000000000E+00  0.00000000000E+00 -0.14642311311E+02  0.12964601288E+04  0.12963774405E+04 0.  0.
        5    1    3    3  502    0 -0.94511543328E+02  0.61727334768E+02  0.63098582557E+03  0.64102098074E+03  0.46999998093E+01 0. -1.
       -5    1    3    3    0  502  0.94511543328E+02 -0.61727334768E+02 -0.64562813688E+03  0.65543914806E+03  0.46999998093E+01 0.  1.
</event>
<event>
 5   0  0.2794825E-04  0.1300369E+04  0.7818609E-02  0.9029272E-01
       -2   -1    0    0    0  501  0.00000000000E+00  0.00000000000E+00  0.65991387633E+03  0.65991387634E+03  0.25500000920E-02 0.  1.
        2   -1    0    0  501    0  0.00000000000E+00  0.00000000000E+00 -0.64059901433E+03  0.64059901433E+03  0.25500000920E-02 0. -1.
    10030    2    1    2    0    0  0.00000000000E+00  0.00000000000E+00  0.19314862007E+02  0.13005128907E+04  0.13003694532E+04 0.  0.
        1    1    3    3  502    0 -0.32909736809E+03 -0.27949622306E+03 -0.47652062192E+03  0.64303586177E+03  0.50400001928E-02 0. -1.
       -1    1    3    3    0  502  0.32909736809E+03  0.27949622306E+03  0.49583548392E+03  0.65747702890E+03  0.50400001928E-02 0.  1.
</event>
<event>
 5   0  0.2573071E-04  0.1300962E+04  0.7818609E-02  0.9028803E-01
       -2   -1    0    0    0  501  0.00000000000E+00  0.00000000000E+00  0.38046714336E+03  0.38046714337E+03  0.25500000920E-02 0. -1.
        2   -1    0    0  501    0  0.00000000000E+00  0.00000000000E+00 -0.11121208208E+04  0.11121208208E+04  0.25500000920E-02 0.  1.
    10030    2    1    2    0    0  0.00000000000E+00  0.00000000000E+00 -0.73165367743E+03  0.14925879642E+04  0.13009618469E+04 0.  0.
        4    1    3    3  502    0 -0.12755081701E+03 -0.40115635846E+03 -0.93478394539E+03  0.10251918222E+04  0.12699999809E+01 0.  1.
       -4    1    3    3    0  502  0.12755081701E+03  0.40115635846E+03  0.20313026797E+03  0.46739614196E+03  0.12699999809E+01 0. -1.
</event>
<event>
 5   0  0.2794825E-04  0.1305938E+04  0.7818609E-02  0.9024869E-01
        2   -1    0    0  501    0  0.00000000000E+00  0.00000000000E+00  0.23567941596E+04  0.23567941596E+04  0.25500000920E-02 0. -1.
       -2   -1    0    0    0  501  0.00000000000E+00  0.00000000000E+00 -0.18091049801E+03  0.18091049803E+03  0.25500000920E-02 0.  1.
    10030    2    1    2    0    0  0.00000000000E+00  0.00000000000E+00  0.21758836616E+04  0.25377046576E+04  0.13059384444E+04 0.  0.
        1    1    3    3  502    0 -0.12621488483E+03  0.32211929563E+03  0.11824771115E+02  0.34616594721E+03  0.50400001928E-02 0.  1.
       -1    1    3    3    0  502  0.12621488483E+03 -0.32211929563E+03  0.21640588904E+04  0.21915387104E+04  0.50400001928E-02 0. -1.
</event>
<event>
 5   0  0.2723209E-04  0.1299379E+04  0.7818609E-02  0.9030057E-01
        2   -1    0    0  501    0  0.00000000000E+00  0.00000000000E+00  0.10801644003E+04  0.10801644003E+04  0.25500000920E-02 0.  1.
       -2   -1    0    0    0  501  0.00000000000E+00  0.00000000000E+00 -0.39077081756E+03  0.39077081756E+03  0.25500000920E-02 0. -1.
    10030    2    1    2    0    0  0.00000000000E+00  0.00000000000E+00  0.68939358276E+03  0.14709352179E+04  0.12993794301E+04 0.  0.
        2    1    3    3  502    0 -0.39908447090E+03 -0.18623579666E+03  0.88540454542E+03  0.98888492552E+03  0.25500000920E-02 0.  1.
       -2    1    3    3    0  502  0.39908447090E+03  0.18623579666E+03 -0.19601096266E+03  0.48205029236E+03  0.25500000920E-02 0. -1.
</event>
<event>
 5   0  0.1476511E-04  0.1299602E+04  0.7818609E-02  0.9029881E-01
       -1   -1    0    0    0  501  0.00000000000E+00  0.00000000000E+00  0.44747979439E+03  0.44747979442E+03  0.50400001928E-02 0.  1.
        1   -1    0    0  501    0  0.00000000000E+00  0.00000000000E+00 -0.94359805504E+03  0.94359805506E+03  0.50400001928E-02 0. -1.
    10030    2    1    2    0    0  0.00000000000E+00  0.00000000000E+00 -0.49611826065E+03  0.13910778495E+04  0.12996015754E+04 0.  0.
        2    1    3    3  502    0 -0.13721091720E+02 -0.64373454693E+03 -0.34173262128E+03  0.72894692517E+03  0.25500000920E-02 0.  1.
       -2    1    3    3    0  502  0.13721091720E+02  0.64373454693E+03 -0.15438563937E+03  0.66213092430E+03  0.25500000920E-02 0. -1.
</event>
<event>
 5   0  0.1476511E-04  0.1299721E+04  0.7818609E-02  0.9029787E-01
       -1   -1    0    0    0  501  0.00000000000E+00  0.00000000000E+00  0.14344886904E+04  0.14344886904E+04  0.50400001928E-02 0. -1.
        1   -1    0    0  501    0  0.00000000000E+00  0.00000000000E+00 -0.29440356682E+03  0.29440356686E+03  0.50400001928E-02 0.  1.
    10030    2    1    2    0    0  0.00000000000E+00  0.00000000000E+00  0.11400851236E+04  0.17288922573E+04  0.12997208732E+04 0.  0.
        2    1    3    3  502    0  0.75296304519E+02 -0.10937173798E+03  0.14162510867E+04  0.14224622494E+04  0.25500000920E-02 0. -1.
       -2    1    3    3    0  502 -0.75296304519E+02  0.10937173798E+03 -0.27616596308E+03  0.30643000785E+03  0.25500000920E-02 0.  1.
</event>
<event>
 5   0  0.2794825E-04  0.1294979E+04  0.7818609E-02  0.9033557E-01
       -2   -1    0    0    0  501  0.00000000000E+00  0.00000000000E+00  0.36594140576E+03  0.36594140577E+03  0.25500000920E-02 0. -1.
        2   -1    0    0  501    0  0.00000000000E+00  0.00000000000E+00 -0.11456547823E+04  0.11456547823E+04  0.25500000920E-02 0.  1.
    10030    2    1    2    0    0  0.00000000000E+00  0.00000000000E+00 -0.77971337657E+03  0.15115961881E+04  0.12949787976E+04 0.  0.
        1    1    3    3  502    0  0.58020110717E+03 -0.28340969876E+03 -0.33402067869E+03  0.72699669596E+03  0.50400001928E-02 0. -1.
       -1    1    3    3    0  502 -0.58020110717E+03  0.28340969876E+03 -0.44569269787E+03  0.78459949215E+03  0.50400001928E-02 0.  1.
</event>
<event>
 5   0  0.1479690E-04  0.1299657E+04  0.7818609E-02  0.9029838E-01
       -1   -1    0    0    0  501  0.00000000000E+00  0.00000000000E+00  0.21551481679E+03  0.21551481685E+03  0.50400001928E-02 0.  1.
        1   -1    0    0  501    0  0.00000000000E+00  0.00000000000E+00 -0.19593864977E+04  0.19593864977E+04  0.50400001928E-02 0. -1.
    10030    2    1    2    0    0  0.00000000000E+00  0.00000000000E+00 -0.17438716809E+04  0.21749013145E+04  0.12996566041E+04 0.  0.
        1    1    3    3  502    0  0.13432161746E+03  0.45303565916E+03 -0.12543539016E+03  0.48889430608E+03  0.50400001928E-02 0.  1.
       -1    1    3    3    0  502 -0.13432161746E+03 -0.45303565916E+03 -0.16184362907E+04  0.16860070084E+04  0.50400001928E-02 0. -1.
</event>
<event>
 5   0  0.1408341E-04  0.1300446E+04  0.7818609E-02  0.9029212E-01
       -1   -1    0    0    0  501  0.00000000000E+00  0.00000000000E+00  0.27428142807E+03  0.27428142811E+03  0.50400001928E-02 0.  1.
        1   -1    0    0  501    0  0.00000000000E+00  0.00000000000E+00 -0.15414459011E+04  0.15414459011E+04  0.50400001928E-02 0. -1.
    10030    2    1    2    0    0  0.00000000000E+00  0.00000000000E+00 -0.12671644730E+04  0.18157273292E+04  0.13004460513E+04 0.  0.
        5    1    3    3  502    0 -0.44026118348E+03  0.12301979435E+03  0.12021921009E+02  0.45730776952E+03  0.46999998093E+01 0.  1.
       -5    1    3    3    0  502  0.44026118348E+03 -0.12301979435E+03 -0.12791863940E+04  0.13584195597E+04  0.46999998093E+01 0. -1.
</event>
<event>
 5   0  0.2756984E-04  0.1299708E+04  0.7818609E-02  0.9029797E-01
        2   -1    0    0  501    0  0.00000000000E+00  0.00000000000E+00  0.17685491049E+04  0.17685491049E+04  0.25500000920E-02 0.  1.
       -2   -1    0    0    0  501  0.00000000000E+00  0.00000000000E+00 -0.23878913033E+03  0.23878913034E+03  0.25500000920E-02 0. -1.
    10030    2    1    2    0    0  0.00000000000E+00  0.00000000000E+00  0.15297599746E+04  0.20073382352E+04  0.12997081253E+04 0.  0.
        3    1    3    3  502    0 -0.17570316330E+03 -0.34410985704E+03  0.15718875393E+04  0.16186765093E+04  0.10100000352E+00 0.  1.
       -3    1    3    3    0  502  0.17570316330E+03  0.34410985704E+03 -0.42127564739E+02  0.38866172594E+03  0.10100000352E+00 0. -1.
</event>
<event>
 5   0  0.1430636E-04  0.1300173E+04  0.7818609E-02  0.9029428E-01
       -1   -1    0    0    0  501  0.00000000000E+00  0.00000000000E+00  0.31759972427E+03  0.31759972431E+03  0.50400001928E-02 0.  1.
        1   -1    0    0  501    0  0.00000000000E+00  0.00000000000E+00 -0.13306443225E+04  0.13306443225E+04  0.50400001928E-02 0. -1.
    10030    2    1    2    0    0  0.00000000000E+00  0.00000000000E+00 -0.10130445982E+04  0.16482440468E+04  0.13001727116E+04 0.  0.
        4    1    3    3  502    0  0.49799497541E+03 -0.41159171184E+03 -0.59797277152E+03  0.88032935949E+03  0.12699999809E+01 0. -1.
       -4    1    3    3    0  502 -0.49799497541E+03  0.41159171184E+03 -0.41507182672E+03  0.76791468734E+03  0.12699999809E+01 0.  1.
</event>
<event>
 5   0  0.2723209E-04  0.1300612E+04  0.7818609E-02  0.9029080E-01
        2   -1    0    0  501    0  0.00000000000E+00  0.00000000000E+00  0.15248325109E+04  0.15248325109E+04  0.25500000920E-02 0.  1.
       -2   -1    0    0    0  501  0.00000000000E+00  0.00000000000E+00 -0.27734059861E+03  0.27734059862E+03  0.25500000920E-02 0. -1.
    10030    2    1    2    0    0  0.00000000000E+00  0.00000000000E+00  0.12474919123E+04  0.18021731095E+04  0.13006121041E+04 0.  0.
        2    1    3    3  502    0 -0.34765596653E+03  0.53564510658E+03  0.79411484218E+03  0.10190185150E+04  0.25500000920E-02 0. -1.
       -2    1    3    3    0  502  0.34765596653E+03 -0.53564510658E+03  0.45337707011E+03  0.78315459456E+03  0.25500000920E-02 0.  1.
</event>
<event>
 5   0  0.1430636E-04  0.1298800E+04  0.7818609E-02  0.9030518E-01
       -1   -1    0    0    0  501  0.00000000000E+00  0.00000000000E+00  0.62100085623E+03  0.62100085625E+03  0.50400001928E-02 0. -1.
        1   -1    0    0  501    0  0.00000000000E+00  0.00000000000E+00 -0.67909754920E+03  0.67909754921E+03  0.50400001928E-02 0.  1.
    10030    2    1    2    0    0  0.00000000000E+00  0.00000000000E+00 -0.58096692964E+02  0.13000984055E+04  0.12987996913E+04 0.  0.
        4    1    3    3  502    0 -0.50981259050E+03  0.32280584138E+03  0.21120427080E+03  0.63931318269E+03  0.12699999809E+01 0. -1.
       -4    1    3    3    0  502  0.50981259050E+03 -0.32280584138E+03 -0.26930096376E+03  0.66078522278E+03  0.12699999809E+01 0.  1.
</event>
<event>
 5   0  0.1479690E-04  0.1302592E+04  0.7818609E-02  0.9027512E-01
        1   -1    0    0  501    0  0.00000000000E+00  0.00000000000E+00  0.10894453830E+04  0.10894453830E+04  0.50400001928E-02 0.  1.
       -1   -1    0    0    0  501  0.00000000000E+00  0.00000000000E+00 -0.38935982766E+03  0.38935982770E+03  0.50400001928E-02 0. -1.
    10030    2    1    2    0    0  0.00000000000E+00  0.00000000000E+00  0.70008555530E+03  0.14788052107E+04  0.13025916729E+04 0.  0.
        1    1    3    3  502    0 -0.20938078898E+03  0.55885508739E+03  0.64614601279E+03  0.87958171500E+03  0.50400001928E-02 0.  1.
       -1    1    3    3    0  502  0.20938078898E+03 -0.55885508739E+03  0.53939542515E+02  0.59922349567E+03  0.50400001928E-02 0. -1.
</event>
<event>
 5   0  0.2661377E-04  0.1299145E+04  0.7818609E-02  0.9030244E-01
       -2   -1    0    0    0  501  0.00000000000E+00  0.00000000000E+00  0.30060272059E+03  0.30060272060E+03  0.25500000920E-02 0. -1.
        2   -1    0    0  501    0  0.00000000000E+00  0.00000000000E+00 -0.14036608861E+04  0.14036608861E+04  0.25500000920E-02 0.  1.
    10030    2    1    2    0    0  0.00000000000E+00  0.00000000000E+00 -0.11030581655E+04  0.17042636067E+04  0.12991447666E+04 0.  0.
        5    1    3    3  502    0 -0.53619435081E+02  0.24191596619E+03  0.23614435359E+03  0.34232239811E+03  0.46999998093E+01 0. -1.
       -5    1    3    3    0  502  0.53619435081E+02 -0.24191596619E+03 -0.13392025191E+04  0.13619412086E+04  0.46999998093E+01 0.  1.
</event>
<event>
 5   0  0.1475396E-04  0.1299459E+04  0.7818609E-02  0.9029995E-01
        1   -1    0    0  501    0  0.00000000000E+00  0.00000000000E+00  0.16391251880E+04  0.16391251880E+04  0.50400001928E-02 0. -1.
       -1   -1    0    0    0  501  0.00000000000E+00  0.00000000000E+00 -0.25754476424E+03  0.25754476429E+03  0.50400001928E-02 0.  1.
    10030    2    1    2    0    0  0.00000000000E+00  0.00000000000E+00  0.13815804238E+04  0.18966699523E+04  0.12994585183E+04 0.  0.
        3    1    3    3  502    0 -0.31148678465E+02  0.64323943757E+03  0.81652551012E+03  0.10399236189E+04  0.10100000352E+00 0. -1.
       -3    1    3    3    0  502  0.31148678465E+02 -0.64323943757E+03  0.56505491364E+03  0.85674633343E+03  0.10100000352E+00 0.  1.
</event>
<event>
 5   0  0.1475396E-04  0.1305442E+04  0.7818609E-02  0.9025260E-01
       -1   -1    0    0    0  501  0.00000000000E+00  0.00000000000E+00  0.24860087688E+03  0.24860087693E+03  0.50400001928E-02 0. -1.
        1   -1    0    0  501    0  0.00000000000E+00  0.00000000000E+00 -0.17137707894E+04  0.17137707894E+04  0.50400001928E-02 0.  1.
    10030    2    1    2    0    0  0.00000000000E+00  0.00000000000E+00 -0.14651699125E+04  0.19623716663E+04  0.13054423328E+04 0.  0.
        3    1    3    3  502    0  0.23489812090E+02  0.64295958190E+03 -0.56725690834E+03  0.85774658583E+03  0.10100000352E+00 0.  1.
       -3    1    3    3    0  502 -0.23489812090E+02 -0.64295958190E+03 -0.89791300417E+03  0.11046250805E+04  0.10100000352E+00 0. -1.
</event>
<event>
 5   0  0.2723209E-04  0.1300508E+04  0.7818609E-02  0.9029163E-01
       -2   -1    0    0    0  501  0.00000000000E+00  0.00000000000E+00  0.41054117270E+03  0.41054117271E+03  0.25500000920E-02 0. -1.
        2   -1    0    0  501    0  0.00000000000E+00  0.00000000000E+00 -0.10299330960E+04  0.10299330960E+04  0.25500000920E-02 0.  1.
    10030    2    1    2    0    0  0.00000000000E+00  0.00000000000E+00 -0.61939192329E+03  0.14404742687E+04  0.13005075025E+04 0.  0.
        2    1    3    3  502    0 -0.15128273684E+03 -0.45655497681E+03 -0.79440174030E+03  0.92865657717E+03  0.25500000920E-02 0.  1.
       -2    1    3    3    0  502  0.15128273684E+03  0.45655497681E+03  0.17500981701E+03  0.51181769154E+03  0.25500000920E-02 0. -1.
</event>
<event>
 5   0  0.2573071E-04  0.1299774E+04  0.7818609E-02  0.9029745E-01
       -2   -1    0    0    0  501  0.00000000000E+00  0.00000000000E+00  0.46861065090E+03  0.46861065091E+03  0.25500000920E-02 0. -1.
        2   -1    0    0  501    0  0.00000000000E+00  0.00000000000E+00 -0.90128723609E+03  0.90128723609E+03  0.25500000920E-02 0.  1.
    10030    2    1    2    0    0  0.00000000000E+00  0.00000000000E+00 -0.43267658519E+03  0.13698978870E+04  0.12997735162E+04 0.  0.
        4    1    3    3  502    0  0.29646314457E+02  0.51515488047E+03 -0.63273270717E+03  0.81646539819E+03  0.12699999809E+01 0.  1.
       -4    1    3    3    0  502 -0.29646314457E+02 -0.51515488047E+03  0.20005612198E+03  0.55343248881E+03  0.12699999809E+01 0. -1.
</event>
<event>
 5   0  0.1475396E-04  0.1298099E+04  0.7818609E-02  0.9031074E-01
        1   -1    0    0  501    0  0.00000000000E+00  0.00000000000E+00  0.55983755887E+03  0.55983755889E+03  0.50400001928E-02 0.  1.
       -1   -1    0    0    0  501  0.00000000000E+00  0.00000000000E+00 -0.75247716097E+03  0.75247716099E+03  0.50400001928E-02 0. -1.
    10030    2    1    2    0    0  0.00000000000E+00  0.00000000000E+00 -0.19263960210E+03  0.13123147199E+04  0.12980985740E+04 0.  0.
        3    1    3    3  502    0  0.12811480961E+03 -0.63626582745E+03 -0.92107745473E+02  0.65553905650E+03  0.10100000352E+00 0.  1.
       -3    1    3    3    0  502 -0.12811480961E+03  0.63626582745E+03 -0.10053185663E+03  0.65677566338E+03  0.10100000352E+00 0. -1.
</event>
<event>
 5   0  0.2723209E-04  0.1299749E+04  0.7818609E-02  0.9029764E-01
       -2   -1    0    0    0  501  0.00000000000E+00  0.00000000000E+00  0.35701674469E+03  0.35701674470E+03  0.25500000920E-02 0.  1.
        2   -1    0    0  501    0  0.00000000000E+00  0.00000000000E+00 -0.11829615960E+04  0.11829615960E+04  0.25500000920E-02 0. -1.
    10030    2    1    2    0    0  0.00000000000E+00  0.00000000000E+00 -0.82594485126E+03  0.15399783406E+04  0.12997493575E+04 0.  0.
        2    1    3    3  502    0 -0.40158911470E+03  0.21629302273E+03  0.13548944122E+03  0.47582967270E+03  0.25500000920E-02 0.  1.
       -2    1    3    3    0  502  0.40158911470E+03 -0.21629302273E+03 -0.96143429249E+03  0.10641486680E+04  0.25500000920E-02 0. -1.
</event>
<event>
 5   0  0.2573071E-04  0.1298084E+04  0.7818609E-02  0.9031086E-01
       -2   -1    0    0    0  501  0.00000000000E+00  0.00000000000E+00  0.59015342363E+03  0.59015342364E+03  0.25500000920E-02 0. -1.
        2   -1    0    0  501    0  0.00000000000E+00  0.00000000000E+00 -0.71380645718E+03  0.71380645719E+03  0.25500000920E-02 0.  1.
    10030    2    1    2    0    0  0.00000000000E+00  0.00000000000E+00 -0.12365303355E+03  0.13039598808E+04  0.12980837023E+04 0.  0.
        4    1    3    3  502    0  0.44435545359E+03  0.31369408312E+03  0.29389224844E+03  0.61824753418E+03  0.12699999809E+01 0. -1.
       -4    1    3    3    0  502 -0.44435545359E+03 -0.31369408312E+03 -0.41754528199E+03  0.68571234664E+03  0.12699999809E+01 0.  1.
</event>
<event>
 5   0  0.2756984E-04  0.1294674E+04  0.7818609E-02  0.9033799E-01
       -2   -1    0    0    0  501  0.00000000000E+00  0.00000000000E+00  0.21046151373E+03  0.21046151375E+03  0.25500000920E-02 0. -1.
        2   -1    0    0  501    0  0.00000000000E+00  0.00000000000E+00 -0.19910782582E+04  0.19910782582E+04  0.25500000920E-02 0.  1.
    10030    2    1    2    0    0  0.00000000000E+00  0.00000000000E+00 -0.17806167444E+04  0.22015397719E+04  0.12946742358E+04 0.  0.
        3    1    3    3  502    0  0.34532387179E+03 -0.18604797013E+03 -0.17659749952E+04  0.18090135758E+04  0.10100000352E+00 0.  1.
       -3    1    3    3    0  502 -0.34532387179E+03  0.18604797013E+03 -0.14641749246E+02  0.39252619612E+03  0.10100000352E+00 0. -1.
</event>
<event>
 5   0  0.1475396E-04  0.1299848E+04  0.7818609E-02  0.9029686E-01
        1   -1    0    0  501    0  0.00000000000E+00  0.00000000000E+00  0.17911213407E+04  0.17911213407E+04  0.50400001928E-02 0. -1.
       -1   -1    0    0    0  501  0.00000000000E+00  0.00000000000E+00 -0.23583051360E+03  0.23583051366E+03  0.50400001928E-02 0.  1.
    10030    2    1    2    0    0  0.00000000000E+00  0.00000000000E+00  0.15552908271E+04  0.20269518544E+04  0.12998477846E+04 0.  0.
        3    1    3    3  502    0  0.22082802521E+03 -0.17426314789E+03 -0.13597931106E+03  0.31244686695E+03  0.10100000352E+00 0.  1.
       -3    1    3    3    0  502 -0.22082802521E+03  0.17426314789E+03  0.16912701382E+04  0.17145049874E+04  0.10100000352E+00 0. -1.
</event>
<event>
 5   0  0.2723209E-04  0.1298323E+04  0.7818609E-02  0.9030896E-01
       -2   -1    0    0    0  501  0.00000000000E+00  0.00000000000E+00  0.54841302291E+03  0.54841302292E+03  0.25500000920E-02 0.  1.
        2   -1    0    0  501    0  0.00000000000E+00  0.00000000000E+00 -0.76841803648E+03  0.76841803648E+03  0.25500000920E-02 0. -1.
    10030    2    1    2    0    0  0.00000000000E+00  0.00000000000E+00 -0.22000501357E+03  0.13168310594E+04  0.12983226999E+04 0.  0.
        2    1    3    3  502    0 -0.43947991374E+03 -0.15709796737E+03  0.34763709344E+03  0.58195696978E+03  0.25500000920E-02 0.  1.
       -2    1    3    3    0  502  0.43947991374E+03  0.15709796737E+03 -0.56764210701E+03  0.73487408961E+03  0.25500000920E-02 0. -1.
</event>
<event>
 5   0  0.1002887E-04  0.1298265E+04  0.7818609E-02  0.9030942E-01
       -3   -1    0    0    0  501  0.00000000000E+00  0.00000000000E+00  0.13908260721E+04  0.13908260758E+04  0.10100000352E+00 0. -1.
        3   -1    0    0  501    0  0.00000000000E+00  0.00000000000E+00 -0.30296607023E+03  0.30296608707E+03  0.10100000352E+00 0.  1.
    10030    2    1    2    0    0  0.00000000000E+00  0.00000000000E+00  0.10878600019E+04  0.16937921629E+04  0.12982651914E+04 0.  0.
        2    1    3    3  502    0 -0.31651085949E+02  0.37892281668E+03 -0.14246006513E+03  0.40605315220E+03  0.25500000920E-02 0.  1.
       -2    1    3    3    0  502  0.31651085949E+02 -0.37892281668E+03  0.12303200670E+04  0.12877390107E+04  0.25500000920E-02 0. -1.
</event>
<event>
 5   0  0.1430636E-04  0.1297751E+04  0.7818609E-02  0.9031351E-01
        1   -1    0    0  501    0  0.00000000000E+00  0.00000000000E+00  0.64122361044E+03  0.64122361046E+03  0.50400001928E-02 0.  1.
       -1   -1    0    0    0  501  0.00000000000E+00  0.00000000000E+00 -0.65661828442E+03  0.65661828444E+03  0.50400001928E-02 0. -1.
    10030    2    1    2    0    0  0.00000000000E+00  0.00000000000E+00 -0.15394673982E+02  0.12978418949E+04  0.12977505878E+04 0.  0.
        4    1    3    3  502    0  0.59096897857E+03  0.57885384209E+01  0.26020150851E+03  0.64574319875E+03  0.12699999809E+01 0.  1.
       -4    1    3    3    0  502 -0.59096897857E+03 -0.57885384209E+01 -0.27559618249E+03  0.65209869614E+03  0.12699999809E+01 0. -1.
</event>
<event>
 5   0  0.2723209E-04  0.1288913E+04  0.7818609E-02  0.9038403E-01
       -2   -1    0    0    0  501  0.00000000000E+00  0.00000000000E+00  0.34142017488E+03  0.34142017489E+03  0.25500000920E-02 0. -1.
        2   -1    0    0  501    0  0.00000000000E+00  0.00000000000E+00 -0.12164613538E+04  0.12164613538E+04  0.25500000920E-02 0.  1.
    10030    2    1    2    0    0  0.00000000000E+00  0.00000000000E+00 -0.87504117895E+03  0.15578815287E+04  0.12889134155E+04 0.  0.
        2    1    3    3  502    0  0.87946761994E+02 -0.63591104167E+03 -0.50596809280E+03  0.81738680978E+03  0.25500000920E-02 0. -1.
       -2    1    3    3    0  502 -0.87946761994E+02  0.63591104167E+03 -0.36907308615E+03  0.74049471895E+03  0.25500000920E-02 0.  1.
</event>
<event>
 5   0  0.1408341E-04  0.1299301E+04  0.7818609E-02  0.9030120E-01
        1   -1    0    0  501    0  0.00000000000E+00  0.00000000000E+00  0.12310925922E+04  0.12310925923E+04  0.50400001928E-02 0. -1.
       -1   -1    0    0    0  501  0.00000000000E+00  0.00000000000E+00 -0.34282207781E+03  0.34282207785E+03  0.50400001928E-02 0.  1.
    10030    2    1    2    0    0  0.00000000000E+00  0.00000000000E+00  0.88827051443E+03  0.15739146701E+04  0.12993009205E+04 0.  0.
        5    1    3    3  502    0 -0.15494565860E+03  0.16315323323E+02  0.12081049678E+04  0.12181190624E+04  0.46999998093E+01 0. -1.
       -5    1    3    3    0  502  0.15494565860E+03 -0.16315323323E+02 -0.31983445339E+03  0.35579560771E+03  0.46999998093E+01 0.  1.
</event>
<event>
 5   0  0.1408341E-04  0.1298099E+04  0.7818609E-02  0.9031074E-01
       -1   -1    0    0    0  501  0.00000000000E+00  0.00000000000E+00  0.47367058974E+03  0.47367058976E+03  0.50400001928E-02 0. -1.
        1   -1    0    0  501    0  0.00000000000E+00  0.00000000000E+00 -0.88936282472E+03  0.88936282473E+03  0.50400001928E-02 0.  1.
    10030    2    1    2    0    0  0.00000000000E+00  0.00000000000E+00 -0.41569223498E+03  0.13630334145E+04  0.12980986306E+04 0.  0.
        5    1    3    3  502    0  0.21670057249E+02  0.36666504817E+03 -0.76971152443E+03  0.85287207116E+03  0.46999998093E+01 0.  1.
       -5    1    3    3    0  502 -0.21670057249E+02 -0.36666504817E+03  0.35401928945E+03  0.51016134333E+03  0.46999998093E+01 0. -1.
</event>
<event>
 5   0  0.1475396E-04  0.1301382E+04  0.7818609E-02  0.9028470E-01
       -1   -1    0    0    0  501  0.00000000000E+00  0.00000000000E+00  0.70757548429E+03  0.70757548431E+03  0.50400001928E-02 0.  1.
        1   -1    0    0  501    0  0.00000000000E+00  0.00000000000E+00 -0.59837934687E+03  0.59837934689E+03  0.50400001928E-02 0. -1.
    10030    2    1    2    0    0  0.00000000000E+00  0.00000000000E+00  0.10919613742E+03  0.13059548312E+04  0.13013816599E+04 0.  0.
        3    1    3    3  502    0 -0.40177826808E+03 -0.28995775469E+03 -0.36866279690E+03  0.61758687180E+03  0.10100000352E+00 0. -1.
       -3    1    3    3    0  502  0.40177826808E+03  0.28995775469E+03  0.47785893432E+03  0.68836795939E+03  0.10100000352E+00 0.  1.
</event>
<event>
 5   0  0.1476511E-04  0.1317393E+04  0.7818609E-02  0.9015885E-01
        1   -1    0    0  501    0  0.00000000000E+00  0.00000000000E+00  0.91285139362E+03  0.91285139363E+03  0.50400001928E-02 0. -1.
       -1   -1    0    0    0  501  0.00000000000E+00  0.00000000000E+00 -0.47530320281E+03  0.47530320284E+03  0.50400001928E-02 0.  1.
    10030    2    1    2    0    0  0.00000000000E+00  0.00000000000E+00  0.43754819081E+03  0.13881545965E+04  0.13173931700E+04 0.  0.
        2    1    3    3  502    0  0.56389176136E+03  0.34044353659E+03  0.21630945173E+03  0.69330043924E+03  0.25500000920E-02 0. -1.
       -2    1    3    3    0  502 -0.56389176136E+03 -0.34044353659E+03  0.22123873908E+03  0.69485415723E+03  0.25500000920E-02 0.  1.
</event>
<event>
 5   0  0.2661377E-04  0.1298548E+04  0.7818609E-02  0.9030717E-01
        2   -1    0    0  501    0  0.00000000000E+00  0.00000000000E+00  0.96716426386E+03  0.96716426386E+03  0.25500000920E-02 0. -1.
       -2   -1    0    0    0  501  0.00000000000E+00  0.00000000000E+00 -0.43586893913E+03  0.43586893914E+03  0.25500000920E-02 0.  1.
    10030    2    1    2    0    0  0.00000000000E+00  0.00000000000E+00  0.53129532473E+03  0.14030332030E+04  0.12985482073E+04 0.  0.
        5    1    3    3  502    0 -0.53709490278E+03 -0.28868209455E+03  0.50658480417E+03  0.79275377017E+03  0.46999998093E+01 0. -1.
       -5    1    3    3    0  502  0.53709490278E+03  0.28868209455E+03  0.24710520558E+02  0.61027943283E+03  0.46999998093E+01 0.  1.
</event>
<event>
 5   0  0.1430636E-04  0.1298154E+04  0.7818609E-02  0.9031031E-01
        1   -1    0    0  501    0  0.00000000000E+00  0.00000000000E+00  0.32684887522E+03  0.32684887526E+03  0.50400001928E-02 0.  1.
       -1   -1    0    0    0  501  0.00000000000E+00  0.00000000000E+00 -0.12889769603E+04  0.12889769603E+04  0.50400001928E-02 0. -1.
    10030    2    1    2    0    0  0.00000000000E+00  0.00000000000E+00 -0.96212808512E+03  0.16158258356E+04  0.12981535652E+04 0.  0.
        4    1    3    3  502    0  0.16786079848E+03 -0.12608475284E+03  0.28341994103E+03  0.35270821998E+03  0.12699999809E+01 0.  1.
       -4    1    3    3    0  502 -0.16786079848E+03  0.12608475284E+03 -0.12455480262E+04  0.12631176156E+04  0.12699999809E+01 0. -1.
</event>
<event>
 5   0  0.1408341E-04  0.1301600E+04  0.7818609E-02  0.9028298E-01
        1   -1    0    0  501    0  0.00000000000E+00  0.00000000000E+00  0.50737548729E+03  0.50737548731E+03  0.50400001928E-02 0.  1.
       -1   -1    0    0    0  501  0.00000000000E+00  0.00000000000E+00 -0.83476724104E+03  0.83476724106E+03  0.50400001928E-02 0. -1.
    10030    2    1    2    0    0  0.00000000000E+00  0.00000000000E+00 -0.32739175376E+03  0.13421427284E+04  0.13015996861E+04 0.  0.
        5    1    3    3  502    0 -0.41865159459E+03  0.29768702902E+03 -0.57568023669E+03  0.77156759251E+03  0.46999998093E+01 0. -1.
       -5    1    3    3    0  502  0.41865159459E+03 -0.29768702902E+03  0.24828848294E+03  0.57057513586E+03  0.46999998093E+01 0.  1.
</event>
<event>
 5   0  0.2723209E-04  0.1291206E+04  0.7818609E-02  0.9036568E-01
       -2   -1    0    0    0  501  0.00000000000E+00  0.00000000000E+00  0.25719304523E+03  0.25719304524E+03  0.25500000920E-02 0. -1.
        2   -1    0    0  501    0  0.00000000000E+00  0.00000000000E+00 -0.16205843035E+04  0.16205843035E+04  0.25500000920E-02 0.  1.
    10030    2    1    2    0    0  0.00000000000E+00  0.00000000000E+00 -0.13633912582E+04  0.18777773487E+04  0.12912056568E+04 0.  0.
        2    1    3    3  502    0  0.50307238337E+03 -0.18610377066E+03 -0.12041991437E+04  0.13182609810E+04  0.25500000920E-02 0. -1.
       -2    1    3    3    0  502 -0.50307238337E+03  0.18610377066E+03 -0.15919211451E+03  0.55951636767E+03  0.25500000920E-02 0.  1.
</event>
<event>
 5   0  0.1476511E-04  0.1296362E+04  0.7818609E-02  0.9032455E-01
       -1   -1    0    0    0  501  0.00000000000E+00  0.00000000000E+00  0.27991138432E+03  0.27991138436E+03  0.50400001928E-02 0.  1.
        1   -1    0    0  501    0  0.00000000000E+00  0.00000000000E+00 -0.15009706533E+04  0.15009706533E+04  0.50400001928E-02 0. -1.
    10030    2    1    2    0    0  0.00000000000E+00  0.00000000000E+00 -0.12210592690E+04  0.17808820377E+04  0.12963622541E+04 0.  0.
        2    1    3    3  502    0  0.13799415461E+03 -0.62704190398E+03 -0.73274611538E+03  0.97423857739E+03  0.25500000920E-02 0.  1.
       -2    1    3    3    0  502 -0.13799415461E+03  0.62704190398E+03 -0.48831315364E+03  0.80664346032E+03  0.25500000920E-02 0. -1.
</event>
<event>
 5   0  0.2661377E-04  0.1299682E+04  0.7818609E-02  0.9029818E-01
       -2   -1    0    0    0  501  0.00000000000E+00  0.00000000000E+00  0.76713694640E+03  0.76713694640E+03  0.25500000920E-02 0. -1.
        2   -1    0    0  501    0  0.00000000000E+00  0.00000000000E+00 -0.55047941514E+03  0.55047941515E+03  0.25500000920E-02 0.  1.
    10030    2    1    2    0    0  0.00000000000E+00  0.00000000000E+00  0.21665753126E+03  0.13176163616E+04  0.12996816496E+04 0.  0.
        5    1    3    3  502    0  0.47249516290E+03 -0.25303252391E+03  0.48081396141E+03  0.72005645099E+03  0.46999998093E+01 0. -1.
       -5    1    3    3    0  502 -0.47249516290E+03  0.25303252391E+03 -0.26415643015E+03  0.59755991056E+03  0.46999998093E+01 0.  1.
</event>
<event>
 5   0  0.1479690E-04  0.1299260E+04  0.7818609E-02  0.9030152E-01
       -1   -1    0    0    0  501  0.00000000000E+00  0.00000000000E+00  0.65796192040E+03  0.65796192042E+03  0.50400001928E-02 0. -1.
        1   -1    0    0  501    0  0.00000000000E+00  0.00000000000E+00 -0.64140363312E+03  0.64140363314E+03  0.50400001928E-02 0.  1.
    10030    2    1    2    0    0  0.00000000000E+00  0.00000000000E+00  0.16558287280E+02  0.12993655536E+04  0.12992600451E+04 0.  0.
        1    1    3    3  502    0  0.49527469779E+03 -0.14874016506E+02  0.42843336625E+03  0.65503695467E+03  0.50400001928E-02 0. -1.
       -1    1    3    3    0  502 -0.49527469779E+03  0.14874016506E+02 -0.41187507897E+03  0.64432859889E+03  0.50400001928E-02 0.  1.
</event>
<event>
 5   0  0.2756984E-04  0.1298348E+04  0.7818609E-02  0.9030876E-01
       -2   -1    0    0    0  501  0.00000000000E+00  0.00000000000E+00  0.75573643472E+03  0.75573643473E+03  0.25500000920E-02 0.  1.
        2   -1    0    0  501    0  0.00000000000E+00  0.00000000000E+00 -0.55763751776E+03  0.55763751777E+03  0.25500000920E-02 0. -1.
    10030    2    1    2    0    0  0.00000000000E+00  0.00000000000E+00  0.19809891696E+03  0.13133739525E+04  0.12983481652E+04 0.  0.
        3    1    3    3  502    0  0.39305194134E+03 -0.48140324192E+03  0.28880521091E+03  0.68530822990E+03  0.10100000352E+00 0.  1.
       -3    1    3    3    0  502 -0.39305194134E+03  0.48140324192E+03 -0.90706293946E+02  0.62806572259E+03  0.10100000352E+00 0. -1.
</event>
<event>
 5   0  0.2661377E-04  0.1298605E+04  0.7818609E-02  0.9030672E-01
        2   -1    0    0  501    0  0.00000000000E+00  0.00000000000E+00  0.14570346747E+04  0.14570346747E+04  0.25500000920E-02 0.  1.
       -2   -1    0    0    0  501  0.00000000000E+00  0.00000000000E+00 -0.28935048232E+03  0.28935048233E+03  0.25500000920E-02 0. -1.
    10030    2    1    2    0    0  0.00000000000E+00  0.00000000000E+00  0.11676841924E+04  0.17463851571E+04  0.12986049221E+04 0.  0.
        5    1    3    3  502    0  0.47912860949E+03  0.34055687186E+03  0.21303257275E+03  0.62525848611E+03  0.46999998093E+01 0. -1.
       -5    1    3    3    0  502 -0.47912860949E+03 -0.34055687186E+03  0.95465161968E+03  0.11211266710E+04  0.46999998093E+01 0.  1.
</event>
<event>
 5   0  0.1479690E-04  0.1298424E+04  0.7818609E-02  0.9030816E-01
        1   -1    0    0  501    0  0.00000000000E+00  0.00000000000E+00  0.40628879194E+03  0.40628879197E+03  0.50400001928E-02 0.  1.
       -1   -1    0    0    0  501  0.00000000000E+00  0.00000000000E+00 -0.10373815767E+04  0.10373815767E+04  0.50400001928E-02 0. -1.
    10030    2    1    2    0    0  0.00000000000E+00  0.00000000000E+00 -0.63109278473E+03  0.14436703687E+04  0.12984244415E+04 0.  0.
        1    1    3    3  502    0 -0.33681909953E+03 -0.46126503337E+03  0.27628653529E+02  0.57181804741E+03  0.50400001928E-02 0.  1.
       -1    1    3    3    0  502  0.33681909953E+03  0.46126503337E+03 -0.65872143826E+03  0.87185232125E+03  0.50400001928E-02 0. -1.
</event>
<event>
 5   0  0.2723209E-04  0.1304207E+04  0.7818609E-02  0.9026236E-01
       -2   -1    0    0    0  501  0.00000000000E+00  0.00000000000E+00  0.22906375612E+03  0.22906375614E+03  0.25500000920E-02 0. -1.
        2   -1    0    0  501    0  0.00000000000E+00  0.00000000000E+00 -0.18564205533E+04  0.18564205533E+04  0.25500000920E-02 0.  1.
    10030    2    1    2    0    0  0.00000000000E+00  0.00000000000E+00 -0.16273567972E+04  0.20854843094E+04  0.13042065249E+04 0.  0.
        2    1    3    3  502    0 -0.53224495726E+03  0.10696505044E+03 -0.13913573272E+04  0.14935198119E+04  0.25500000920E-02 0.  1.
       -2    1    3    3    0  502  0.53224495726E+03 -0.10696505044E+03 -0.23599946999E+03  0.59196449757E+03  0.25500000920E-02 0. -1.
</event>
<event>
 5   0  0.2661377E-04  0.1300567E+04  0.7818609E-02  0.9029116E-01
        2   -1    0    0  501    0  0.00000000000E+00  0.00000000000E+00  0.14795301693E+04  0.14795301693E+04  0.25500000920E-02 0.  1.
       -2   -1    0    0    0  501  0.00000000000E+00  0.00000000000E+00 -0.28581269979E+03  0.28581269981E+03  0.25500000920E-02 0. -1.
    10030    2    1    2    0    0  0.00000000000E+00  0.00000000000E+00  0.11937174695E+04  0.17653428691E+04  0.13005668182E+04 0.  0.
        5    1    3    3  502    0  0.51679203612E+03  0.38229158384E+03  0.46368782519E+03  0.79262182212E+03  0.46999998093E+01 0. -1.
       -5    1    3    3    0  502 -0.51679203612E+03 -0.38229158384E+03  0.73002964431E+03  0.97272104698E+03  0.46999998093E+01 0.  1.
</event>
<event>
 5   0  0.1476511E-04  0.1298532E+04  0.7818609E-02  0.9030730E-01
        1   -1    0    0  501    0  0.00000000000E+00  0.00000000000E+00  0.37102277203E+03  0.37102277206E+03  0.50400001928E-02 0. -1.
       -1   -1    0    0    0  501  0.00000000000E+00  0.00000000000E+00 -0.11361737148E+04  0.11361737148E+04  0.50400001928E-02 0.  1.
    10030    2    1    2    0    0  0.00000000000E+00  0.00000000000E+00 -0.76515094276E+03  0.15071964869E+04  0.12985319730E+04 0.  0.
        2    1    3    3  502    0  0.33655932630E+03  0.55167270918E+03 -0.45535157494E+03  0.79054412589E+03  0.25500000920E-02 0.  1.
       -2    1    3    3    0  502 -0.33655932630E+03 -0.55167270918E+03 -0.30979936782E+03  0.71665236097E+03  0.25500000920E-02 0. -1.
</event>
<event>
 5   0  0.2661377E-04  0.1300329E+04  0.7818609E-02  0.9029304E-01
       -2   -1    0    0    0  501  0.00000000000E+00  0.00000000000E+00  0.28359880120E+03  0.28359880122E+03  0.25500000920E-02 0. -1.
        2   -1    0    0  501    0  0.00000000000E+00  0.00000000000E+00 -0.14905344953E+04  0.14905344953E+04  0.25500000920E-02 0.  1.
    10030    2    1    2    0    0  0.00000000000E+00  0.00000000000E+00 -0.12069356941E+04  0.17741332965E+04  0.13003288754E+04 0.  0.
        5    1    3    3  502    0 -0.14692656122E+03  0.60429078342E+03 -0.34482314221E+03  0.71111170340E+03  0.46999998093E+01 0.  1.
       -5    1    3    3    0  502  0.14692656122E+03 -0.60429078342E+03 -0.86211255190E+03  0.10630215931E+04  0.46999998093E+01 0. -1.
</event>
<event>
 5   0  0.1430636E-04  0.1302086E+04  0.7818609E-02  0.9027912E-01
        1   -1    0    0  501    0  0.00000000000E+00  0.00000000000E+00  0.65502273981E+03  0.65502273983E+03  0.50400001928E-02 0. -1.
       -1   -1    0    0    0  501  0.00000000000E+00  0.00000000000E+00 -0.64708786370E+03  0.64708786372E+03  0.50400001928E-02 0.  1.
    10030    2    1    2    0    0  0.00000000000E+00  0.00000000000E+00  0.79348761162E+01  0.13021106036E+04  0.13020864263E+04 0.  0.
        4    1    3    3  502    0 -0.25841430766E+03 -0.29485553754E+03  0.52372501814E+03  0.65422263026E+03  0.12699999809E+01 0. -1.
       -4    1    3    3    0  502  0.25841430766E+03  0.29485553754E+03 -0.51579014203E+03  0.64788797329E+03  0.12699999809E+01 0.  1.
</event>
<event>
 5   0  0.1408341E-04  0.1301608E+04  0.7818609E-02  0.9028291E-01
        1   -1    0    0  501    0  0.00000000000E+00  0.00000000000E+00  0.29832003568E+03  0.29832003572E+03  0.50400001928E-02 0. -1.
       -1   -1    0    0    0  501  0.00000000000E+00  0.00000000000E+00 -0.14197701130E+04  0.14197701130E+04  0.50400001928E-02 0.  1.
    10030    2    1    2    0    0  0.00000000000E+00  0.00000000000E+00 -0.11214500773E+04  0.17180901487E+04  0.13016080375E+04 0.  0.
        5    1    3    3  502    0 -0.12107875112E+03  0.41931419881E+03 -0.11979317300E+04  0.12749694039E+04  0.46999998093E+01 0.  1.
       -5    1    3    3    0  502  0.12107875112E+03 -0.41931419881E+03  0.76481652637E+02  0.44312074481E+03  0.46999998093E+01 0. -1.
</event>
<event>
 5   0  0.1408341E-04  0.1303528E+04  0.7818609E-02  0.9026772E-01
       -1   -1    0    0    0  501  0.00000000000E+00  0.00000000000E+00  0.17270136176E+03  0.17270136183E+03  0.50400001928E-02 0. -1.
        1   -1    0    0  501    0  0.00000000000E+00  0.00000000000E+00 -0.24597166892E+04  0.24597166892E+04  0.50400001928E-02 0.  1.
    10030    2    1    2    0    0  0.00000000000E+00  0.00000000000E+00 -0.22870153274E+04  0.26324180510E+04  0.13035281690E+04 0.  0.
        5    1    3    3  502    0  0.10125922954E+03  0.41203256716E+03 -0.21425774987E+04  0.21841897115E+04  0.46999998093E+01 0.  1.
       -5    1    3    3    0  502 -0.10125922954E+03 -0.41203256716E+03 -0.14443782872E+03  0.44822833950E+03  0.46999998093E+01 0. -1.
</event>
<event>
 5   0  0.1002887E-04  0.1299463E+04  0.7818609E-02  0.9029991E-01
        3   -1    0    0  501    0  0.00000000000E+00  0.00000000000E+00  0.56050652284E+03  0.56050653194E+03  0.10100000352E+00 0. -1.
       -3   -1    0    0    0  501  0.00000000000E+00  0.00000000000E+00 -0.75316041686E+03  0.75316042363E+03  0.10100000352E+00 0.  1.
    10030    2    1    2    0    0  0.00000000000E+00  0.00000000000E+00 -0.19265389402E+03  0.13136669556E+04  0.12994634844E+04 0.  0.
        2    1    3    3  502    0 -0.25540499313E+03 -0.23351791242E+03  0.45958268349E+03  0.57530736907E+03  0.25500000920E-02 0. -1.
       -2    1    3    3    0  502  0.25540499313E+03  0.23351791242E+03 -0.65223657751E+03  0.73835958651E+03  0.25500000920E-02 0.  1.
</event>
<event>
 5   0  0.2661377E-04  0.1298964E+04  0.7818609E-02  0.9030387E-01
        2   -1    0    0  501    0  0.00000000000E+00  0.00000000000E+00  0.17454076472E+04  0.17454076472E+04  0.25500000920E-02 0. -1.
       -2   -1    0    0    0  501  0.00000000000E+00  0.00000000000E+00 -0.24167814956E+03  0.24167814957E+03  0.25500000920E-02 0.  1.
    10030    2    1    2    0    0  0.00000000000E+00  0.00000000000E+00  0.15037294977E+04  0.19870857968E+04  0.12989640340E+04 0.  0.
        5    1    3    3  502    0 -0.42023920982E+03 -0.48943269718E+03  0.63678304187E+03  0.90645468224E+03  0.46999998093E+01 0.  1.
       -5    1    3    3    0  502  0.42023920982E+03  0.48943269718E+03  0.86694645579E+03  0.10806311146E+04  0.46999998093E+01 0. -1.
</event>
<event>
 5   0  0.1408341E-04  0.1299461E+04  0.7818609E-02  0.9029993E-01
        1   -1    0    0  501    0  0.00000000000E+00  0.00000000000E+00  0.70973096502E+03  0.70973096503E+03  0.50400001928E-02 0.  1.
       -1   -1    0    0    0  501  0.00000000000E+00  0.00000000000E+00 -0.59480243141E+03  0.59480243143E+03  0.50400001928E-02 0. -1.
    10030    2    1    2    0    0  0.00000000000E+00  0.00000000000E+00  0.11492853361E+03  0.13045333965E+04  0.12994609708E+04 0.  0.
        5    1    3    3  502    0 -0.23660031358E+03  0.10938620908E+03 -0.53999121398E+03  0.59963126361E+03  0.46999998093E+01 0. -1.
       -5    1    3    3    0  502  0.23660031358E+03 -0.10938620908E+03  0.65491974759E+03  0.70490213285E+03  0.46999998093E+01 0.  1.
</event>
<event>
 5   0  0.1408341E-04  0.1300112E+04  0.7818609E-02  0.9029477E-01
        1   -1    0    0  501    0  0.00000000000E+00  0.00000000000E+00  0.78747100209E+03  0.78747100211E+03  0.50400001928E-02 0. -1.
       -1   -1    0    0    0  501  0.00000000000E+00  0.00000000000E+00 -0.53661978652E+03  0.53661978654E+03  0.50400001928E-02 0.  1.
    10030    2    1    2    0    0  0.00000000000E+00  0.00000000000E+00  0.25085121558E+03  0.13240907887E+04  0.13001115661E+04 0.  0.
        5    1    3    3  502    0  0.13686884459E+03 -0.37655670805E+03 -0.39589674820E+03  0.56328000163E+03  0.46999998093E+01 0.  1.
       -5    1    3    3    0  502 -0.13686884459E+03  0.37655670805E+03  0.64674796378E+03  0.76081078702E+03  0.46999998093E+01 0. -1.
</event>
<event>
 5   0  0.2756984E-04  0.1299873E+04  0.7818609E-02  0.9029666E-01
        2   -1    0    0  501    0  0.00000000000E+00  0.00000000000E+00  0.53583675649E+03  0.53583675649E+03  0.25500000920E-02 0. -1.
       -2   -1    0    0    0  501  0.00000000000E+00  0.00000000000E+00 -0.78833253269E+03  0.78833253269E+03  0.25500000920E-02 0.  1.
    10030    2    1    2    0    0  0.00000000000E+00  0.00000000000E+00 -0.25249577620E+03  0.13241692892E+04  0.12998731436E+04 0.  0.
        3    1    3    3  502    0  0.50655549053E+03  0.61649988832E+02  0.28379061953E+03  0.58389751844E+03  0.10100000352E+00 0. -1.
       -3    1    3    3    0  502 -0.50655549053E+03 -0.61649988832E+02 -0.53628639573E+03  0.74027177074E+03  0.10100000352E+00 0.  1.
</event>
<event>
 5   0  0.2794825E-04  0.1298321E+04  0.7818609E-02  0.9030898E-01
        2   -1    0    0  501    0  0.00000000000E+00  0.00000000000E+00  0.11474764239E+04  0.11474764239E+04  0.25500000920E-02 0.  1.
       -2   -1    0    0    0  501  0.00000000000E+00  0.00000000000E+00 -0.36724878408E+03  0.36724878409E+03  0.25500000920E-02 0. -1.
    10030    2    1    2    0    0  0.00000000000E+00  0.00000000000E+00  0.78022763982E+03  0.15147252080E+04  0.12983209487E+04 0.  0.
        1    1    3    3  502    0  0.48096662717E+03 -0.38855129414E+03  0.15939323151E+03  0.63851954309E+03  0.50400001928E-02 0. -1.
       -1    1    3    3    0  502 -0.48096662717E+03  0.38855129414E+03  0.62083440831E+03  0.87620566490E+03  0.50400001928E-02 0.  1.
</event>
<event>
 5   0  0.2573071E-04  0.1297054E+04  0.7818609E-02  0.9031905E-01
        2   -1    0    0  501    0  0.00000000000E+00  0.00000000000E+00  0.24021448066E+04  0.24021448066E+04  0.25500000920E-02 0.  1.
       -2   -1    0    0    0  501  0.00000000000E+00  0.00000000000E+00 -0.17508812282E+03  0.17508812284E+03  0.25500000920E-02 0. -1.
    10030    2    1    2    0    0  0.00000000000E+00  0.00000000000E+00  0.22270566838E+04  0.25772329295E+04  0.12970536226E+04 0.  0.
        4    1    3    3  502    0  0.13885270866E+03  0.46177600830E+03  0.19752231749E+04  0.20332302772E+04  0.12699999809E+01 0. -1.
       -4    1    3    3    0  502 -0.13885270866E+03 -0.46177600830E+03  0.25183350885E+03  0.54400265222E+03  0.12699999809E+01 0.  1.
</event>
<event>
 5   0  0.1476511E-04  0.1302507E+04  0.7818609E-02  0.9027580E-01
        1   -1    0    0  501    0  0.00000000000E+00  0.00000000000E+00  0.45068703721E+03  0.45068703724E+03  0.50400001928E-02 0.  1.
       -1   -1    0    0    0  501  0.00000000000E+00  0.00000000000E+00 -0.94107623156E+03  0.94107623158E+03  0.50400001928E-02 0. -1.
    10030    2    1    2    0    0  0.00000000000E+00  0.00000000000E+00 -0.49038919435E+03  0.13917632688E+04  0.13025065967E+04 0.  0.
        2    1    3    3  502    0 -0.20962577307E+03  0.18324204488E+03  0.38388577897E+03  0.47422452809E+03  0.25500000920E-02 0.  1.
       -2    1    3    3    0  502  0.20962577307E+03 -0.18324204488E+03 -0.87427497332E+03  0.91753874072E+03  0.25500000920E-02 0. -1.
</event>
<event>
 5   0  0.1002887E-04  0.1301428E+04  0.7818609E-02  0.9028433E-01
        4   -1    0    0  501    0  0.00000000000E+00  0.00000000000E+00  0.88506257919E+03  0.88506349037E+03  0.12699999809E+01 0. -1.
       -4   -1    0    0    0  501  0.00000000000E+00  0.00000000000E+00 -0.47841490879E+03  0.47841659446E+03  0.12699999809E+01 0.  1.
    10030    2    1    2    0    0  0.00000000000E+00  0.00000000000E+00  0.40664767040E+03  0.13634800848E+04  0.13014282976E+04 0.  0.
        4    1    3    3  502    0 -0.10473640326E+03  0.22271718564E+03  0.83441905239E+03  0.86995943977E+03  0.12699999809E+01 0. -1.
       -4    1    3    3    0  502  0.10473640326E+03 -0.22271718564E+03 -0.42777138199E+03  0.49352064506E+03  0.12699999809E+01 0.  1.
</event>
<event>
 5   0  0.1430636E-04  0.1302359E+04  0.7818609E-02  0.9027696E-01
       -1   -1    0    0    0  501  0.00000000000E+00  0.00000000000E+00  0.54468409048E+03  0.54468409050E+03  0.50400001928E-02 0. -1.
        1   -1    0    0  501    0  0.00000000000E+00  0.00000000000E+00 -0.77849693740E+03  0.77849693742E+03  0.50400001928E-02 0.  1.
    10030    2    1    2    0    0  0.00000000000E+00  0.00000000000E+00 -0.23381284692E+03  0.13231810279E+04  0.13023592382E+04 0.  0.
        4    1    3    3  502    0 -0.53678838745E+03 -0.10166852167E+03  0.24309607500E+03  0.59797623346E+03  0.12699999809E+01 0. -1.
       -4    1    3    3    0  502  0.53678838745E+03  0.10166852167E+03 -0.47690892192E+03  0.72520479446E+03  0.12699999809E+01 0.  1.
</event>
<event>
 5   0  0.2794825E-04  0.1300034E+04  0.7818609E-02  0.9029538E-01
       -2   -1    0    0    0  501  0.00000000000E+00  0.00000000000E+00  0.20262960177E+03  0.20262960179E+03  0.25500000920E-02 0.  1.
        2   -1    0    0  501    0  0.00000000000E+00  0.00000000000E+00 -0.20851955566E+04  0.20851955566E+04  0.25500000920E-02 0. -1.
    10030    2    1    2    0    0  0.00000000000E+00  0.00000000000E+00 -0.18825659548E+04  0.22878251584E+04  0.13000343769E+04 0.  0.
        1    1    3    3  502    0  0.38657602070E+03  0.90554268021E+02 -0.35563716390E+02  0.39862999534E+03  0.50400001928E-02 0.  1.
       -1    1    3    3    0  502 -0.38657602070E+03 -0.90554268021E+02 -0.18470022384E+04  0.18891951630E+04  0.50400001928E-02 0. -1.
</event>
<event>
 5   0  0.1002887E-04  0.1306691E+04  0.7818609E-02  0.9024276E-01
       -4   -1    0    0    0  501  0.00000000000E+00  0.00000000000E+00  0.45851349746E+03  0.45851525630E+03  0.12699999809E+01 0. -1.
        4   -1    0    0  501    0  0.00000000000E+00  0.00000000000E+00 -0.93096153605E+03  0.93096240230E+03  0.12699999809E+01 0.  1.
    10030    2    1    2    0    0  0.00000000000E+00  0.00000000000E+00 -0.47244803858E+03  0.13894776586E+04  0.13066908642E+04 0.  0.
        4    1    3    3  502    0  0.14732604953E+03  0.86962617174E+00  0.44061938301E+03  0.46459958534E+03  0.12699999809E+01 0. -1.
       -4    1    3    3    0  502 -0.14732604953E+03 -0.86962617174E+00 -0.91306742159E+03  0.92487807326E+03  0.12699999809E+01 0.  1.
</event>
<event>
 5   0  0.2723209E-04  0.1295484E+04  0.7818609E-02  0.9033154E-01
       -2   -1    0    0    0  501  0.00000000000E+00  0.00000000000E+00  0.28220449715E+03  0.28220449716E+03  0.25500000920E-02 0.  1.
        2   -1    0    0  501    0  0.00000000000E+00  0.00000000000E+00 -0.14867573744E+04  0.14867573744E+04  0.25500000920E-02 0. -1.
    10030    2    1    2    0    0  0.00000000000E+00  0.00000000000E+00 -0.12045528772E+04  0.17689618715E+04  0.12954838744E+04 0.  0.
        2    1    3    3  502    0  0.49487641098E+03  0.41161249639E+03 -0.50341215167E+03  0.81716051287E+03  0.25500000920E-02 0.  1.
       -2    1    3    3    0  502 -0.49487641098E+03 -0.41161249639E+03 -0.70114072555E+03  0.95180135867E+03  0.25500000920E-02 0. -1.
</event>
<event>
 5   0  0.1479690E-04  0.1303270E+04  0.7818609E-02  0.9026976E-01
        1   -1    0    0  501    0  0.00000000000E+00  0.00000000000E+00  0.74998248167E+03  0.74998248169E+03  0.50400001928E-02 0. -1.
       -1   -1    0    0    0  501  0.00000000000E+00  0.00000000000E+00 -0.56618452282E+03  0.56618452284E+03  0.50400001928E-02 0.  1.
    10030    2    1    2    0    0  0.00000000000E+00  0.00000000000E+00  0.18379795885E+03  0.13161670045E+04  0.13032704609E+04 0.  0.
        1    1    3    3  502    0 -0.20788551985E+03 -0.29326657679E+03 -0.45699275458E+03  0.58143275810E+03  0.50400001928E-02 0.  1.
       -1    1    3    3    0  502  0.20788551985E+03  0.29326657679E+03  0.64079071344E+03  0.73473424643E+03  0.50400001928E-02 0. -1.
</event>
<event>
 5   0  0.1430636E-04  0.1302332E+04  0.7818609E-02  0.9027718E-01
       -1   -1    0    0    0  501  0.00000000000E+00  0.00000000000E+00  0.57674149770E+03  0.57674149772E+03  0.50400001928E-02 0. -1.
        1   -1    0    0  501    0  0.00000000000E+00  0.00000000000E+00 -0.73519488364E+03  0.73519488366E+03  0.50400001928E-02 0.  1.
    10030    2    1    2    0    0  0.00000000000E+00  0.00000000000E+00 -0.15845338594E+03  0.13119363814E+04  0.13023323667E+04 0.  0.
        4    1    3    3  502    0  0.64613819396E+03  0.57428423013E+02 -0.22034823082E+02  0.64906065648E+03  0.12699999809E+01 0.  1.
       -4    1    3    3    0  502 -0.64613819396E+03 -0.57428423013E+02 -0.13641856286E+03  0.66287572490E+03  0.12699999809E+01 0. -1.
</event>
<event>
 5   0  0.2723209E-04  0.1306523E+04  0.7818609E-02  0.9024408E-01
       -2   -1    0    0    0  501  0.00000000000E+00  0.00000000000E+00  0.39596690306E+03  0.39596690306E+03  0.25500000920E-02 0.  1.
        2   -1    0    0  501    0  0.00000000000E+00  0.00000000000E+00 -0.10777427040E+04  0.10777427040E+04  0.25500000920E-02 0. -1.
    10030    2    1    2    0    0  0.00000000000E+00  0.00000000000E+00 -0.68177580090E+03  0.14737096070E+04  0.13065227756E+04 0.  0.
        2    1    3    3  502    0  0.39836220801E+03 -0.47468717735E+03 -0.57405204197E+03  0.84472250592E+03  0.25500000920E-02 0. -1.
       -2    1    3    3    0  502 -0.39836220801E+03  0.47468717735E+03 -0.10772375893E+03  0.62898710110E+03  0.25500000920E-02 0.  1.
</event>
<event>
 5   0  0.2661377E-04  0.1298194E+04  0.7818609E-02  0.9030998E-01
        2   -1    0    0  501    0  0.00000000000E+00  0.00000000000E+00  0.54743106713E+03  0.54743106714E+03  0.25500000920E-02 0. -1.
       -2   -1    0    0    0  501  0.00000000000E+00  0.00000000000E+00 -0.76964388703E+03  0.76964388704E+03  0.25500000920E-02 0.  1.
    10030    2    1    2    0    0  0.00000000000E+00  0.00000000000E+00 -0.22221281991E+03  0.13170749542E+04  0.12981940909E+04 0.  0.
        5    1    3    3  502    0  0.44591002600E+03 -0.47102523908E+03 -0.13604763228E+03  0.66274548311E+03  0.46999998093E+01 0.  1.
       -5    1    3    3    0  502 -0.44591002600E+03  0.47102523908E+03 -0.86165187623E+02  0.65432947106E+03  0.46999998093E+01 0. -1.
</event>
<event>
 5   0  0.1430636E-04  0.1301175E+04  0.7818609E-02  0.9028634E-01
        1   -1    0    0  501    0  0.00000000000E+00  0.00000000000E+00  0.83783234886E+03  0.83783234887E+03  0.50400001928E-02 0.  1.
       -1   -1    0    0    0  501  0.00000000000E+00  0.00000000000E+00 -0.50518978856E+03  0.50518978859E+03  0.50400001928E-02 0. -1.
    10030    2    1    2    0    0  0.00000000000E+00  0.00000000000E+00  0.33264256030E+03  0.13430221375E+04  0.13011753874E+04 0.  0.
        4    1    3    3  502    0  0.34874264410E+03 -0.87903783161E+02  0.72589542060E+03  0.81010757400E+03  0.12699999809E+01 0.  1.
       -4    1    3    3    0  502 -0.34874264410E+03  0.87903783161E+02 -0.39325286031E+03  0.53291456346E+03  0.12699999809E+01 0. -1.
</event>
<event>
 5   0  0.1476511E-04  0.1298907E+04  0.7818609E-02  0.9030432E-01
       -1   -1    0    0    0  501  0.00000000000E+00  0.00000000000E+00  0.10806500133E+04  0.10806500134E+04  0.50400001928E-02 0. -1.
        1   -1    0    0  501    0  0.00000000000E+00  0.00000000000E+00 -0.39031129540E+03  0.39031129544E+03  0.50400001928E-02 0.  1.
    10030    2    1    2    0    0  0.00000000000E+00  0.00000000000E+00  0.69033871793E+03  0.14709613088E+04  0.12989070892E+04 0.  0.
        2    1    3    3  502    0 -0.19841010638E+03  0.16890707451E+03 -0.32851986472E+03  0.41931071016E+03  0.25500000920E-02 0.  1.
       -2    1    3    3    0  502  0.19841010638E+03 -0.16890707451E+03  0.10188585827E+04  0.10516505986E+04  0.25500000920E-02 0. -1.
</event>
<event>
 5   0  0.2573071E-04  0.1295895E+04  0.7818609E-02  0.9032827E-01
       -2   -1    0    0    0  501  0.00000000000E+00  0.00000000000E+00  0.42835440532E+03  0.42835440533E+03  0.25500000920E-02 0.  1.
        2   -1    0    0  501    0  0.00000000000E+00  0.00000000000E+00 -0.98011349218E+03  0.98011349218E+03  0.25500000920E-02 0. -1.
    10030    2    1    2    0    0  0.00000000000E+00  0.00000000000E+00 -0.55175908686E+03  0.14084678975E+04  0.12958949527E+04 0.  0.
        4    1    3    3  502    0  0.63389117860E+03  0.13412868845E+03 -0.27036023723E+03  0.70207179273E+03  0.12699999809E+01 0.  1.
       -4    1    3    3    0  502 -0.63389117860E+03 -0.13412868845E+03 -0.28139884963E+03  0.70639610478E+03  0.12699999809E+01 0. -1.
</event>
<event>
 5   0  0.1408341E-04  0.1300380E+04  0.7818609E-02  0.9029264E-01
        1   -1    0    0  501    0  0.00000000000E+00  0.00000000000E+00  0.76259889981E+03  0.76259889983E+03  0.50400001928E-02 0.  1.
       -1   -1    0    0    0  501  0.00000000000E+00  0.00000000000E+00 -0.55435006599E+03  0.55435006602E+03  0.50400001928E-02 0. -1.
    10030    2    1    2    0    0  0.00000000000E+00  0.00000000000E+00  0.20824883382E+03  0.13169489658E+04  0.13003795607E+04 0.  0.
        5    1    3    3  502    0 -0.34303584977E+03  0.43202695651E+03  0.45260740789E+03  0.71358001727E+03  0.46999998093E+01 0.  1.
       -5    1    3    3    0  502  0.34303584977E+03 -0.43202695651E+03 -0.24435857407E+03  0.60336894857E+03  0.46999998093E+01 0. -1.
</event>
<event>
 5   0  0.2573071E-04  0.1299292E+04  0.7818609E-02  0.9030127E-01
       -2   -1    0    0    0  501  0.00000000000E+00  0.00000000000E+00  0.39876389761E+03  0.39876389762E+03  0.25500000920E-02 0. -1.
        2   -1    0    0  501    0  0.00000000000E+00  0.00000000000E+00 -0.10583701640E+04  0.10583701640E+04  0.25500000920E-02 0.  1.
    10030    2    1    2    0    0  0.00000000000E+00  0.00000000000E+00 -0.65960626636E+03  0.14571340616E+04  0.12992918251E+04 0.  0.
        4    1    3    3  502    0  0.55623513844E+03  0.75200246333E+02 -0.69662519911E+03  0.89461773245E+03  0.12699999809E+01 0.  1.
       -4    1    3    3    0  502 -0.55623513844E+03 -0.75200246333E+02  0.37018932746E+02  0.56251632915E+03  0.12699999809E+01 0. -1.
</event>
<event>
 5   0  0.2573071E-04  0.1303765E+04  0.7818609E-02  0.9026585E-01
        2   -1    0    0  501    0  0.00000000000E+00  0.00000000000E+00  0.76504205720E+03  0.76504205721E+03  0.25500000920E-02 0.  1.
       -2   -1    0    0    0  501  0.00000000000E+00  0.00000000000E+00 -0.55546034250E+03  0.55546034250E+03  0.25500000920E-02 0. -1.
    10030    2    1    2    0    0  0.00000000000E+00  0.00000000000E+00  0.20958171471E+03  0.13205023997E+04  0.13037645848E+04 0.  0.
        4    1    3    3  502    0 -0.11152935411E+03 -0.63452428165E+03  0.40704930036E+01  0.64426550633E+03  0.12699999809E+01 0.  1.
       -4    1    3    3    0  502  0.11152935411E+03  0.63452428165E+03  0.20551122171E+03  0.67623689338E+03  0.12699999809E+01 0. -1.
</event>
<event>
 5   0  0.2661377E-04  0.1300820E+04  0.7818609E-02  0.9028915E-01
        2   -1    0    0  501    0  0.00000000000E+00  0.00000000000E+00  0.15929512427E+04  0.15929512427E+04  0.25500000920E-02 0.  1.
       -2   -1    0    0    0  501  0.00000000000E+00  0.00000000000E+00 -0.26556585603E+03  0.26556585604E+03  0.25500000920E-02 0. -1.
    10030    2    1    2    0    0  0.00000000000E+00  0.00000000000E+00  0.13273853867E+04  0.18585170988E+04  0.13008204494E+04 0.  0.
        5    1    3    3  502    0  0.62882043889E+03 -0.12840552337E+03  0.81427431904E+03  0.10368065776E+04  0.46999998093E+01 0. -1.
       -5    1    3    3    0  502 -0.62882043889E+03  0.12840552337E+03  0.51311106767E+03  0.82171052114E+03  0.46999998093E+01 0.  1.
</event>
<event>
 5   0  0.1476511E-04  0.1300431E+04  0.7818609E-02  0.9029224E-01
        1   -1    0    0  501    0  0.00000000000E+00  0.00000000000E+00  0.60332532501E+03  0.60332532503E+03  0.50400001928E-02 0.  1.
       -1   -1    0    0    0  501  0.00000000000E+00  0.00000000000E+00 -0.70074960517E+03  0.70074960518E+03  0.50400001928E-02 0. -1.
    10030    2    1    2    0    0  0.00000000000E+00  0.00000000000E+00 -0.97424280156E+02  0.13040749302E+04  0.13004306722E+04 0.  0.
        2    1    3    3  502    0 -0.74880349712E+02  0.62250407167E+03  0.12399592114E+03  0.63913486408E+03  0.25500000920E-02 0.  1.
       -2    1    3    3    0  502  0.74880349712E+02 -0.62250407167E+03 -0.22142020129E+03  0.66494006614E+03  0.25500000920E-02 0. -1.
</event>
<event>
 5   0  0.1479690E-04  0.1300284E+04  0.7818609E-02  0.9029340E-01
        1   -1    0    0  501    0  0.00000000000E+00  0.00000000000E+00  0.51091286612E+03  0.51091286615E+03  0.50400001928E-02 0. -1.
       -1   -1    0    0    0  501  0.00000000000E+00  0.00000000000E+00 -0.82731297098E+03  0.82731297100E+03  0.50400001928E-02 0.  1.
    10030    2    1    2    0    0  0.00000000000E+00  0.00000000000E+00 -0.31640010486E+03  0.13382258371E+04  0.13002843400E+04 0.  0.
        1    1    3    3  502    0  0.55457187910E+03 -0.26985013917E+03 -0.36991046837E+03  0.71916814539E+03  0.50400001928E-02 0.  1.
       -1    1    3    3    0  502 -0.55457187910E+03  0.26985013917E+03  0.53510363517E+02  0.61905769176E+03  0.50400001928E-02 0. -1.
</event>
<event>
 5   0  0.1408341E-04  0.1301058E+04  0.7818609E-02  0.9028726E-01
       -1   -1    0    0    0  501  0.00000000000E+00  0.00000000000E+00  0.40869180598E+03  0.40869180601E+03  0.50400001928E-02 0. -1.
        1   -1    0    0  501    0  0.00000000000E+00  0.00000000000E+00 -0.10354701741E+04  0.10354701741E+04  0.50400001928E-02 0.  1.
    10030    2    1    2    0    0  0.00000000000E+00  0.00000000000E+00 -0.62677836808E+03  0.14441619801E+04  0.13010583008E+04 0.  0.
        5    1    3    3  502    0  0.47022151384E+03  0.14181658823E+03  0.16007839839E+03  0.51659210254E+03  0.46999998093E+01 0. -1.
       -5    1    3    3    0  502 -0.47022151384E+03 -0.14181658823E+03 -0.78685676647E+03  0.92756987754E+03  0.46999998093E+01 0.  1.
</event>
<event>
 5   0  0.2794825E-04  0.1301714E+04  0.7818609E-02  0.9028207E-01
        2   -1    0    0  501    0  0.00000000000E+00  0.00000000000E+00  0.25802852335E+04  0.25802852335E+04  0.25500000920E-02 0.  1.
       -2   -1    0    0    0  501  0.00000000000E+00  0.00000000000E+00 -0.16417360685E+03  0.16417360687E+03  0.25500000920E-02 0. -1.
    10030    2    1    2    0    0  0.00000000000E+00  0.00000000000E+00  0.24161116267E+04  0.27444588404E+04  0.13017138449E+04 0.  0.
        1    1    3    3  502    0  0.41919264383E+03 -0.28432452956E+03  0.20697770723E+04  0.21308542981E+04  0.50400001928E-02 0.  1.
       -1    1    3    3    0  502 -0.41919264383E+03  0.28432452956E+03  0.34633455440E+03  0.61360454231E+03  0.50400001928E-02 0. -1.
</event>
<event>
 5   0  0.1002887E-04  0.1280334E+04  0.7818609E-02  0.9045307E-01
       -4   -1    0    0    0  501  0.00000000000E+00  0.00000000000E+00  0.10731263690E+04  0.10731271205E+04  0.12699999809E+01 0. -1.
        4   -1    0    0  501    0  0.00000000000E+00  0.00000000000E+00 -0.38188604903E+03  0.38188816078E+03  0.12699999809E+01 0.  1.
    10030    2    1    2    0    0  0.00000000000E+00  0.00000000000E+00  0.69124032000E+03  0.14550152813E+04  0.12803344441E+04 0.  0.
        4    1    3    3  502    0 -0.52343872680E+03  0.24616357723E+03  0.33922561980E+02  0.57942813237E+03  0.12699999809E+01 0.  1.
       -4    1    3    3    0  502  0.52343872680E+03 -0.24616357723E+03  0.65731775802E+03  0.87558714894E+03  0.12699999809E+01 0. -1.
</event>
<event>
 5   0  0.2573071E-04  0.1301582E+04  0.7818609E-02  0.9028311E-01
       -2   -1    0    0    0  501  0.00000000000E+00  0.00000000000E+00  0.74084392822E+03  0.74084392822E+03  0.25500000920E-02 0.  1.
        2   -1    0    0  501    0  0.00000000000E+00  0.00000000000E+00 -0.57168462616E+03  0.57168462616E+03  0.25500000920E-02 0. -1.
    10030    2    1    2    0    0  0.00000000000E+00  0.00000000000E+00  0.16915930206E+03  0.13125285544E+04  0.13015822435E+04 0.  0.
        4    1    3    3  502    0 -0.14397983684E+03 -0.61935883231E+03 -0.55120313949E+02  0.63825967951E+03  0.12699999809E+01 0.  1.
       -4    1    3    3    0  502  0.14397983684E+03  0.61935883231E+03  0.22427961601E+03  0.67426887488E+03  0.12699999809E+01 0. -1.
</event>
<event>
 5   0  0.1408341E-04  0.1299800E+04  0.7818609E-02  0.9029724E-01
       -1   -1    0    0    0  501  0.00000000000E+00  0.00000000000E+00  0.71988817494E+03  0.71988817495E+03  0.50400001928E-02 0. -1.
        1   -1    0    0  501    0  0.00000000000E+00  0.00000000000E+00 -0.58671586519E+03  0.58671586521E+03  0.50400001928E-02 0.  1.
    10030    2    1    2    0    0  0.00000000000E+00  0.00000000000E+00  0.13317230975E+03  0.13066040402E+04  0.12997996975E+04 0.  0.
        5    1    3    3  502    0 -0.26585494040E+03 -0.36367416598E+03  0.53745043849E+03  0.70129367042E+03  0.46999998093E+01 0. -1.
       -5    1    3    3    0  502  0.26585494040E+03  0.36367416598E+03 -0.40427812874E+03  0.60531036974E+03  0.46999998093E+01 0.  1.
</event>
<event>
 5   0  0.1479690E-04  0.1316612E+04  0.7818609E-02  0.9016495E-01
        1   -1    0    0  501    0  0.00000000000E+00  0.00000000000E+00  0.16550553911E+04  0.16550553911E+04  0.50400001928E-02 0. -1.
       -1   -1    0    0    0  501  0.00000000000E+00  0.00000000000E+00 -0.26184418034E+03  0.26184418038E+03  0.50400001928E-02 0.  1.
    10030    2    1    2    0    0  0.00000000000E+00  0.00000000000E+00  0.13932112108E+04  0.19168995715E+04  0.13166117459E+04 0.  0.
        1    1    3    3  502    0  0.60865911742E+03  0.19216372148E+03  0.93124958998E+03  0.11289900867E+04  0.50400001928E-02 0. -1.
       -1    1    3    3    0  502 -0.60865911742E+03 -0.19216372148E+03  0.46196162078E+03  0.78790948476E+03  0.50400001928E-02 0.  1.
</event>
<event>
 5   0  0.1476511E-04  0.1298897E+04  0.7818609E-02  0.9030441E-01
        1   -1    0    0  501    0  0.00000000000E+00  0.00000000000E+00  0.14426370267E+04  0.14426370268E+04  0.50400001928E-02 0. -1.
       -1   -1    0    0    0  501  0.00000000000E+00  0.00000000000E+00 -0.29236953448E+03  0.29236953452E+03  0.50400001928E-02 0.  1.
    10030    2    1    2    0    0  0.00000000000E+00  0.00000000000E+00  0.11502674923E+04  0.17350065613E+04  0.12988966333E+04 0.  0.
        2    1    3    3  502    0 -0.56290857027E+03  0.69215428460E+02  0.99780292017E+03  0.11477227459E+04  0.25500000920E-02 0. -1.
       -2    1    3    3    0  502  0.56290857027E+03 -0.69215428460E+02  0.15246457210E+03  0.58728381535E+03  0.25500000920E-02 0.  1.
</event>
<event>
 5   0  0.1476511E-04  0.1298106E+04  0.7818609E-02  0.9031068E-01
       -1   -1    0    0    0  501  0.00000000000E+00  0.00000000000E+00  0.38516951690E+03  0.38516951693E+03  0.50400001928E-02 0. -1.
        1   -1    0    0  501    0  0.00000000000E+00  0.00000000000E+00 -0.10937260109E+04  0.10937260109E+04  0.50400001928E-02 0.  1.
    10030    2    1    2    0    0  0.00000000000E+00  0.00000000000E+00 -0.70855649396E+03  0.14788955278E+04  0.12981061886E+04 0.  0.
        2    1    3    3  502    0  0.51150416995E+03 -0.83254823649E+02  0.90916151652E+02  0.52614981533E+03  0.25500000920E-02 0. -1.
       -2    1    3    3    0  502 -0.51150416995E+03  0.83254823649E+02 -0.79947264562E+03  0.95274571247E+03  0.25500000920E-02 0.  1.
</event>
<event>
 5   0  0.1408341E-04  0.1299637E+04  0.7818609E-02  0.9029853E-01
        1   -1    0    0  501    0  0.00000000000E+00  0.00000000000E+00  0.14798381990E+04  0.14798381990E+04  0.50400001928E-02 0.  1.
       -1   -1    0    0    0  501  0.00000000000E+00  0.00000000000E+00 -0.28534480580E+03  0.28534480585E+03  0.50400001928E-02 0. -1.
    10030    2    1    2    0    0  0.00000000000E+00  0.00000000000E+00  0.11944933932E+04  0.17651830048E+04  0.12996370933E+04 0.  0.
        5    1    3    3  502    0  0.13075510894E+03  0.28171039501E+03 -0.17798725963E+03  0.35799329570E+03  0.46999998093E+01 0. -1.
       -5    1    3    3    0  502 -0.13075510894E+03 -0.28171039501E+03  0.13724806528E+04  0.14071897091E+04  0.46999998093E+01 0.  1.
</event>
<event>
 5   0  0.2794825E-04  0.1298368E+04  0.7818609E-02  0.9030860E-01
       -2   -1    0    0    0  501  0.00000000000E+00  0.00000000000E+00  0.41895886604E+03  0.41895886604E+03  0.25500000920E-02 0. -1.
        2   -1    0    0  501    0  0.00000000000E+00  0.00000000000E+00 -0.10059215548E+04  0.10059215548E+04  0.25500000920E-02 0.  1.
    10030    2    1    2    0    0  0.00000000000E+00  0.00000000000E+00 -0.58696268874E+03  0.14248804208E+04  0.12983678276E+04 0.  0.
        1    1    3    3  502    0 -0.45457410711E+03 -0.25645805925E+03 -0.71714339344E+03  0.88696279617E+03  0.50400001928E-02 0.  1.
       -1    1    3    3    0  502  0.45457410711E+03  0.25645805925E+03  0.13018070471E+03  0.53791762465E+03  0.50400001928E-02 0. -1.
</event>
<event>
 5   0  0.1430636E-04  0.1303904E+04  0.7818609E-02  0.9026475E-01
       -1   -1    0    0    0  501  0.00000000000E+00  0.00000000000E+00  0.25196603851E+03  0.25196603856E+03  0.50400001928E-02 0. -1.
        1   -1    0    0  501    0  0.00000000000E+00  0.00000000000E+00 -0.16868994950E+04  0.16868994950E+04  0.50400001928E-02 0.  1.
    10030    2    1    2    0    0  0.00000000000E+00  0.00000000000E+00 -0.14349334565E+04  0.19388655335E+04  0.13039039584E+04 0.  0.
        4    1    3    3  502    0 -0.55413542395E+03  0.34345618560E+03 -0.71241305247E+03  0.96569259588E+03  0.12699999809E+01 0.  1.
       -4    1    3    3    0  502  0.55413542395E+03 -0.34345618560E+03 -0.72252040400E+03  0.97317293766E+03  0.12699999809E+01 0. -1.
</event>
<event>
 5   0  0.1479690E-04  0.1306273E+04  0.7818609E-02  0.9024605E-01
        1   -1    0    0  501    0  0.00000000000E+00  0.00000000000E+00  0.10489634012E+04  0.10489634012E+04  0.50400001928E-02 0.  1.
       -1   -1    0    0    0  501  0.00000000000E+00  0.00000000000E+00 -0.40667531900E+03  0.40667531904E+03  0.50400001928E-02 0. -1.
    10030    2    1    2    0    0  0.00000000000E+00  0.00000000000E+00  0.64228808219E+03  0.14556387202E+04  0.13062733647E+04 0.  0.
        1    1    3    3  502    0 -0.47369015956E+02 -0.10511649776E+03 -0.39524543238E+03  0.41171865833E+03  0.50400001928E-02 0. -1.
       -1    1    3    3    0  502  0.47369015956E+02  0.10511649776E+03  0.10375335146E+04  0.10439200619E+04  0.50400001928E-02 0.  1.
</event>
<event>
 5   0  0.2573071E-04  0.1300939E+04  0.7818609E-02  0.9028821E-01
        2   -1    0    0  501    0  0.00000000000E+00  0.00000000000E+00  0.78140312580E+03  0.78140312581E+03  0.25500000920E-02 0.  1.
       -2   -1    0    0    0  501  0.00000000000E+00  0.00000000000E+00 -0.54147502490E+03  0.54147502490E+03  0.25500000920E-02 0. -1.
    10030    2    1    2    0    0  0.00000000000E+00  0.00000000000E+00  0.23992810091E+03  0.13228781507E+04  0.13009385489E+04 0.  0.
        4    1    3    3  502    0  0.45337944861E+03 -0.12995892311E+03  0.57547666659E+03  0.74405460338E+03  0.12699999809E+01 0.  1.
       -4    1    3    3    0  502 -0.45337944861E+03  0.12995892311E+03 -0.33554856568E+03  0.57882354734E+03  0.12699999809E+01 0. -1.
</event>
<event>
 5   0  0.1408341E-04  0.1297305E+04  0.7818609E-02  0.9031705E-01
        1   -1    0    0  501    0  0.00000000000E+00  0.00000000000E+00  0.10909872171E+04  0.10909872171E+04  0.50400001928E-02 0. -1.
       -1   -1    0    0    0  501  0.00000000000E+00  0.00000000000E+00 -0.38566005211E+03  0.38566005215E+03  0.50400001928E-02 0.  1.
    10030    2    1    2    0    0  0.00000000000E+00  0.00000000000E+00  0.70532716498E+03  0.14766472693E+04  0.12973051870E+04 0.  0.
        5    1    3    3  502    0 -0.35100466979E+03 -0.14298258898E+03 -0.24648845884E+03  0.45213598541E+03  0.46999998093E+01 0.  1.
       -5    1    3    3    0  502  0.35100466979E+03  0.14298258898E+03  0.95181562382E+03  0.10245112838E+04  0.46999998093E+01 0. -1.
</event>
<event>
 5   0  0.1408341E-04  0.1305220E+04  0.7818609E-02  0.9025436E-01
        1   -1    0    0  501    0  0.00000000000E+00  0.00000000000E+00  0.56780878191E+03  0.56780878193E+03  0.50400001928E-02 0. -1.
       -1   -1    0    0    0  501  0.00000000000E+00  0.00000000000E+00 -0.75007654829E+03  0.75007654831E+03  0.50400001928E-02 0.  1.
    10030    2    1    2    0    0  0.00000000000E+00  0.00000000000E+00 -0.18226776639E+03  0.13178853302E+04  0.13052203665E+04 0.  0.
        5    1    3    3  502    0 -0.65236601084E+03  0.10800656490E+02 -0.10467652174E+03  0.66081565545E+03  0.46999998093E+01 0.  1.
       -5    1    3    3    0  502  0.65236601084E+03 -0.10800656490E+02 -0.77591244647E+02  0.65706967479E+03  0.46999998093E+01 0. -1.
</event>
<event>
 5   0  0.1476511E-04  0.1301148E+04  0.7818609E-02  0.9028656E-01
        1   -1    0    0  501    0  0.00000000000E+00  0.00000000000E+00  0.51846239491E+03  0.51846239493E+03  0.50400001928E-02 0. -1.
       -1   -1    0    0    0  501  0.00000000000E+00  0.00000000000E+00 -0.81634900202E+03  0.81634900204E+03  0.50400001928E-02 0.  1.
    10030    2    1    2    0    0  0.00000000000E+00  0.00000000000E+00 -0.29788660711E+03  0.13348113970E+04  0.13011475838E+04 0.  0.
        2    1    3    3  502    0  0.15274665983E+03  0.58407220664E+03 -0.39764992780E+03  0.72290894983E+03  0.25500000920E-02 0.  1.
       -2    1    3    3    0  502 -0.15274665983E+03 -0.58407220664E+03  0.99763320687E+02  0.61190244714E+03  0.25500000920E-02 0. -1.
</event>
<event>
 5   0  0.2794825E-04  0.1298491E+04  0.7818609E-02  0.9030762E-01
       -2   -1    0    0    0  501  0.00000000000E+00  0.00000000000E+00  0.30480914187E+03  0.30480914188E+03  0.25500000920E-02 0. -1.
        2   -1    0    0  501    0  0.00000000000E+00  0.00000000000E+00 -0.13828980776E+04  0.13828980776E+04  0.25500000920E-02 0.  1.
    10030    2    1    2    0    0  0.00000000000E+00  0.00000000000E+00 -0.10780889357E+04  0.16877072195E+04  0.12984913959E+04 0.  0.
        1    1    3    3  502    0 -0.26825027188E+03  0.22835299386E+03 -0.12478721849E+04  0.12966450123E+04  0.50400001928E-02 0.  1.
       -1    1    3    3    0  502  0.26825027188E+03 -0.22835299386E+03  0.16978324912E+03  0.39106220718E+03  0.50400001928E-02 0. -1.
</event>
<event>
 5   0  0.1430636E-04  0.1303124E+04  0.7818609E-02  0.9027091E-01
       -1   -1    0    0    0  501  0.00000000000E+00  0.00000000000E+00  0.31351692048E+03  0.31351692052E+03  0.50400001928E-02 0. -1.
        1   -1    0    0  501    0  0.00000000000E+00  0.00000000000E+00 -0.13540993207E+04  0.13540993207E+04  0.50400001928E-02 0.  1.
    10030    2    1    2    0    0  0.00000000000E+00  0.00000000000E+00 -0.10405824002E+04  0.16676162412E+04  0.13031240142E+04 0.  0.
        4    1    3    3  502    0 -0.19361715551E+03 -0.29938621344E+03  0.17760271787E+03  0.39832655699E+03  0.12699999809E+01 0. -1.
       -4    1    3    3    0  502  0.19361715551E+03  0.29938621344E+03 -0.12181851181E+04  0.12692896842E+04  0.12699999809E+01 0.  1.
</event>
<event>
 5   0  0.2794825E-04  0.1301959E+04  0.7818609E-02  0.9028013E-01
       -2   -1    0    0    0  501  0.00000000000E+00  0.00000000000E+00  0.15291031071E+03  0.15291031073E+03  0.25500000920E-02 0. -1.
        2   -1    0    0  501    0  0.00000000000E+00  0.00000000000E+00 -0.27713933772E+04  0.27713933772E+04  0.25500000920E-02 0.  1.
    10030    2    1    2    0    0  0.00000000000E+00  0.00000000000E+00 -0.26184830665E+04  0.29243036879E+04  0.13019594809E+04 0.  0.
        1    1    3    3  502    0  0.10261326986E+03  0.40859847833E+03 -0.24239223546E+04  0.24602605108E+04  0.50400001928E-02 0.  1.
       -1    1    3    3    0  502 -0.10261326986E+03 -0.40859847833E+03 -0.19456071188E+03  0.46404317717E+03  0.50400001928E-02 0. -1.
</event>
<event>
 5   0  0.2756984E-04  0.1299391E+04  0.7818609E-02  0.9030048E-01
       -2   -1    0    0    0  501  0.00000000000E+00  0.00000000000E+00  0.57455607928E+03  0.57455607929E+03  0.25500000920E-02 0.  1.
        2   -1    0    0  501    0  0.00000000000E+00  0.00000000000E+00 -0.73466150366E+03  0.73466150366E+03  0.25500000920E-02 0. -1.
    10030    2    1    2    0    0  0.00000000000E+00  0.00000000000E+00 -0.16010542437E+03  0.13092175829E+04  0.12993909853E+04 0.  0.
        3    1    3    3  502    0 -0.14154984473E+03  0.39073685008E+03  0.42311613245E+03  0.59307580991E+03  0.10100000352E+00 0.  1.
       -3    1    3    3    0  502  0.14154984473E+03 -0.39073685008E+03 -0.58322155682E+03  0.71614177304E+03  0.10100000352E+00 0. -1.
</event>
<event>
 5   0  0.2756984E-04  0.1295017E+04  0.7818609E-02  0.9033526E-01
        2   -1    0    0  501    0  0.00000000000E+00  0.00000000000E+00  0.25677759423E+04  0.25677759423E+04  0.25500000920E-02 0. -1.
       -2   -1    0    0    0  501  0.00000000000E+00  0.00000000000E+00 -0.16328025913E+03  0.16328025915E+03  0.25500000920E-02 0.  1.
    10030    2    1    2    0    0  0.00000000000E+00  0.00000000000E+00  0.24044956832E+04  0.27310562015E+04  0.12950167895E+04 0.  0.
        3    1    3    3  502    0  0.34635076790E+03 -0.41224452521E+03  0.44374050163E+03  0.69771774091E+03  0.10100000352E+00 0.  1.
       -3    1    3    3    0  502 -0.34635076790E+03  0.41224452521E+03  0.19607551816E+04  0.20333384606E+04  0.10100000352E+00 0. -1.
</event>
<event>
 5   0  0.1479690E-04  0.1300129E+04  0.7818609E-02  0.9029463E-01
       -1   -1    0    0    0  501  0.00000000000E+00  0.00000000000E+00  0.38043229117E+03  0.38043229121E+03  0.50400001928E-02 0.  1.
        1   -1    0    0  501    0  0.00000000000E+00  0.00000000000E+00 -0.11107991647E+04  0.11107991647E+04  0.50400001928E-02 0. -1.
    10030    2    1    2    0    0  0.00000000000E+00  0.00000000000E+00 -0.73036687350E+03  0.14912314559E+04  0.13001290263E+04 0.  0.
        1    1    3    3  502    0  0.54664507526E+03  0.71240005591E+02  0.29966407074E+02  0.55208148156E+03  0.50400001928E-02 0. -1.
       -1    1    3    3    0  502 -0.54664507526E+03 -0.71240005591E+02 -0.76033328057E+03  0.93914997432E+03  0.50400001928E-02 0.  1.
</event>
<event>
 5   0  0.1408341E-04  0.1297438E+04  0.7818609E-02  0.9031599E-01
       -1   -1    0    0    0  501  0.00000000000E+00  0.00000000000E+00  0.51056385826E+03  0.51056385829E+03  0.50400001928E-02 0. -1.
        1   -1    0    0  501    0  0.00000000000E+00  0.00000000000E+00 -0.82425843710E+03  0.82425843712E+03  0.50400001928E-02 0.  1.
    10030    2    1    2    0    0  0.00000000000E+00  0.00000000000E+00 -0.31369457884E+03  0.13348222954E+04  0.12974383498E+04 0.  0.
        5    1    3    3  502    0 -0.46435942621E+03  0.28015290134E+03 -0.52305170551E+03  0.75347229642E+03  0.46999998093E+01 0.  1.
       -5    1    3    3    0  502  0.46435942621E+03 -0.28015290134E+03  0.20935712667E+03  0.58134999899E+03  0.46999998093E+01 0. -1.
</event>
<event>
 5   0  0.2756984E-04  0.1302862E+04  0.7818609E-02  0.9027299E-01
       -2   -1    0    0    0  501  0.00000000000E+00  0.00000000000E+00  0.88711726196E+03  0.88711726197E+03  0.25500000920E-02 0.  1.
        2   -1    0    0  501    0  0.00000000000E+00  0.00000000000E+00 -0.47836080917E+03  0.47836080918E+03  0.25500000920E-02 0. -1.
    10030    2    1    2    0    0  0.00000000000E+00  0.00000000000E+00  0.40875645279E+03  0.13654780711E+04  0.13028616677E+04 0.  0.
        3    1    3    3  502    0  0.11667566404E+03  0.33605152968E+03 -0.36757708695E+03  0.51152396447E+03  0.10100000352E+00 0. -1.
       -3    1    3    3    0  502 -0.11667566404E+03 -0.33605152968E+03  0.77633353974E+03  0.85395410667E+03  0.10100000352E+00 0.  1.
</event>
<event>
 5   0  0.1408341E-04  0.1314179E+04  0.7818609E-02  0.9018396E-01
       -1   -1    0    0    0  501  0.00000000000E+00  0.00000000000E+00  0.57274605494E+03  0.57274605496E+03  0.50400001928E-02 0.  1.
        1   -1    0    0  501    0  0.00000000000E+00  0.00000000000E+00 -0.75385401989E+03  0.75385401991E+03  0.50400001928E-02 0. -1.
    10030    2    1    2    0    0  0.00000000000E+00  0.00000000000E+00 -0.18110796496E+03  0.13266000749E+04  0.13141794640E+04 0.  0.
        5    1    3    3  502    0 -0.10630737899E+03 -0.63583195866E+03  0.37774576701E+02  0.64578057197E+03  0.46999998093E+01 0. -1.
       -5    1    3    3    0  502  0.10630737899E+03  0.63583195866E+03 -0.21888254166E+03  0.68081950290E+03  0.46999998093E+01 0.  1.
</event>
<event>
 5   0  0.2723209E-04  0.1293231E+04  0.7818609E-02  0.9034950E-01
       -2   -1    0    0    0  501  0.00000000000E+00  0.00000000000E+00  0.32662000102E+03  0.32662000103E+03  0.25500000920E-02 0.  1.
        2   -1    0    0  501    0  0.00000000000E+00  0.00000000000E+00 -0.12801170586E+04  0.12801170586E+04  0.25500000920E-02 0. -1.
    10030    2    1    2    0    0  0.00000000000E+00  0.00000000000E+00 -0.95349705755E+03  0.16067370596E+04  0.12932313559E+04 0.  0.
        2    1    3    3  502    0  0.99434385864E+02  0.61986307261E+03 -0.66920105425E+03  0.91757695965E+03  0.25500000920E-02 0.  1.
       -2    1    3    3    0  502 -0.99434385864E+02 -0.61986307261E+03 -0.28429600330E+03  0.68916009996E+03  0.25500000920E-02 0. -1.
</event>
<event>
 5   0  0.1475396E-04  0.1299770E+04  0.7818609E-02  0.9029747E-01
        1   -1    0    0  501    0  0.00000000000E+00  0.00000000000E+00  0.71606366324E+03  0.71606366326E+03  0.50400001928E-02 0.  1.
       -1   -1    0    0    0  501  0.00000000000E+00  0.00000000000E+00 -0.58982288034E+03  0.58982288036E+03  0.50400001928E-02 0. -1.
    10030    2    1    2    0    0  0.00000000000E+00  0.00000000000E+00  0.12624078290E+03  0.13058865436E+04  0.12997703372E+04 0.  0.
        3    1    3    3  502    0  0.57832861481E+03  0.12003974550E+03  0.33546269692E+03  0.67927075487E+03  0.10100000352E+00 0. -1.
       -3    1    3    3    0  502 -0.57832861481E+03 -0.12003974550E+03 -0.20922191401E+03  0.62661578875E+03  0.10100000352E+00 0.  1.
</event>
<event>
 5   0  0.1479690E-04  0.1299896E+04  0.7818609E-02  0.9029647E-01
       -1   -1    0    0    0  501  0.00000000000E+00  0.00000000000E+00  0.23282694407E+03  0.23282694412E+03  0.50400001928E-02 0. -1.
        1   -1    0    0  501    0  0.00000000000E+00  0.00000000000E+00 -0.18143635515E+04  0.18143635515E+04  0.50400001928E-02 0.  1.
    10030    2    1    2    0    0  0.00000000000E+00  0.00000000000E+00 -0.15815366075E+04  0.20471904957E+04  0.12998964900E+04 0.  0.
        1    1    3    3  502    0 -0.43850237083E+03 -0.19374276251E+03 -0.14819485330E+04  0.15575596430E+04  0.50400001928E-02 0.  1.
       -1    1    3    3    0  502  0.43850237083E+03  0.19374276251E+03 -0.99588074518E+02  0.48963085264E+03  0.50400001928E-02 0. -1.
</event>
<event>
 5   0  0.1430636E-04  0.1296899E+04  0.7818609E-02  0.9032028E-01
        1   -1    0    0  501    0  0.00000000000E+00  0.00000000000E+00  0.47844719716E+03  0.47844719718E+03  0.50400001928E-02 0. -1.
       -1   -1    0    0    0  501  0.00000000000E+00  0.00000000000E+00 -0.87885749526E+03  0.87885749527E+03  0.50400001928E-02 0.  1.
    10030    2    1    2    0    0  0.00000000000E+00  0.00000000000E+00 -0.40041029810E+03  0.13573046925E+04  0.12968992333E+04 0.  0.
        4    1    3    3  502    0 -0.43455780333E+03 -0.29715134656E+03  0.19603979381E+03  0.56175850760E+03  0.12699999809E+01 0. -1.
       -4    1    3    3    0  502  0.43455780333E+03  0.29715134656E+03 -0.59645009190E+03  0.79554618485E+03  0.12699999809E+01 0.  1.
</event>
<event>
 5   0  0.2573071E-04  0.1284035E+04  0.7818609E-02  0.9042323E-01
       -2   -1    0    0    0  501  0.00000000000E+00  0.00000000000E+00  0.96714229740E+03  0.96714229740E+03  0.25500000920E-02 0.  1.
        2   -1    0    0  501    0  0.00000000000E+00  0.00000000000E+00 -0.42618976698E+03  0.42618976699E+03  0.25500000920E-02 0. -1.
    10030    2    1    2    0    0  0.00000000000E+00  0.00000000000E+00  0.54095253042E+03  0.13933320644E+04  0.12840345017E+04 0.  0.
        4    1    3    3  502    0  0.43900082910E+03 -0.36947226870E+03  0.58300800051E+03  0.81800453963E+03  0.12699999809E+01 0. -1.
       -4    1    3    3    0  502 -0.43900082910E+03  0.36947226870E+03 -0.42055470087E+02  0.57532752477E+03  0.12699999809E+01 0.  1.
</event>
<event>
 5   0  0.1475396E-04  0.1299207E+04  0.7818609E-02  0.9030194E-01
        1   -1    0    0  501    0  0.00000000000E+00  0.00000000000E+00  0.67435134882E+03  0.67435134884E+03  0.50400001928E-02 0. -1.
       -1   -1    0    0    0  501  0.00000000000E+00  0.00000000000E+00 -0.62576421157E+03  0.62576421159E+03  0.50400001928E-02 0.  1.
    10030    2    1    2    0    0  0.00000000000E+00  0.00000000000E+00  0.48587137253E+02  0.13001155604E+04  0.12992073586E+04 0.  0.
        3    1    3    3  502    0 -0.36728912984E+03 -0.15943329495E+03  0.53618282137E+03  0.66918779768E+03  0.10100000352E+00 0. -1.
       -3    1    3    3    0  502  0.36728912984E+03  0.15943329495E+03 -0.48759568412E+03  0.63092776275E+03  0.10100000352E+00 0.  1.
</event>
<event>
 5   0  0.1408341E-04  0.1300583E+04  0.7818609E-02  0.9029103E-01
        1   -1    0    0  501    0  0.00000000000E+00  0.00000000000E+00  0.75026361054E+03  0.75026361056E+03  0.50400001928E-02 0.  1.
       -1   -1    0    0    0  501  0.00000000000E+00  0.00000000000E+00 -0.56364020494E+03  0.56364020496E+03  0.50400001928E-02 0. -1.
    10030    2    1    2    0    0  0.00000000000E+00  0.00000000000E+00  0.18662340560E+03  0.13139038155E+04  0.13005825391E+04 0.  0.
        5    1    3    3  502    0 -0.40509019873E+03  0.20865279405E+03 -0.37536091333E+03  0.59038289510E+03  0.46999998093E+01 0. -1.
       -5    1    3    3    0  502  0.40509019873E+03 -0.20865279405E+03  0.56198431893E+03  0.72352092042E+03  0.46999998093E+01 0.  1.
</event>
<event>
 5   0  0.1430636E-04  0.1306735E+04  0.7818609E-02  0.9024241E-01
        1   -1    0    0  501    0  0.00000000000E+00  0.00000000000E+00  0.24600457656E+03  0.24600457661E+03  0.50400001928E-02 0.  1.
       -1   -1    0    0    0  501  0.00000000000E+00  0.00000000000E+00 -0.17352898934E+04  0.17352898934E+04  0.50400001928E-02 0. -1.
    10030    2    1    2    0    0  0.00000000000E+00  0.00000000000E+00 -0.14892853168E+04  0.19812944700E+04  0.13067352532E+04 0.  0.
        4    1    3    3  502    0  0.20644465080E+02  0.46367906444E+03 -0.14418770371E+04  0.15147394072E+04  0.12699999809E+01 0. -1.
       -4    1    3    3    0  502 -0.20644465080E+02 -0.46367906444E+03 -0.47408279733E+02  0.46655506280E+03  0.12699999809E+01 0.  1.
</event>
<event>
 5   0  0.2723209E-04  0.1299155E+04  0.7818609E-02  0.9030236E-01
       -2   -1    0    0    0  501  0.00000000000E+00  0.00000000000E+00  0.81994399541E+03  0.81994399541E+03  0.25500000920E-02 0.  1.
        2   -1    0    0  501    0  0.00000000000E+00  0.00000000000E+00 -0.51460935824E+03  0.51460935825E+03  0.25500000920E-02 0. -1.
    10030    2    1    2    0    0  0.00000000000E+00  0.00000000000E+00  0.30533463717E+03  0.13345533537E+04  0.12991548842E+04 0.  0.
        2    1    3    3  502    0 -0.40616139124E+03 -0.50489674472E+03  0.19932577665E+03  0.67795174151E+03  0.25500000920E-02 0.  1.
       -2    1    3    3    0  502  0.40616139124E+03  0.50489674472E+03  0.10600886051E+03  0.65660161215E+03  0.25500000920E-02 0. -1.
</event>
<event>
 5   0  0.1002887E-04  0.1300914E+04  0.7818609E-02  0.9028841E-01
       -3   -1    0    0    0  501  0.00000000000E+00  0.00000000000E+00  0.12132074375E+04  0.12132074417E+04  0.10100000352E+00 0. -1.
        3   -1    0    0  501    0  0.00000000000E+00  0.00000000000E+00 -0.34874023049E+03  0.34874024512E+03  0.10100000352E+00 0.  1.
    10030    2    1    2    0    0  0.00000000000E+00  0.00000000000E+00  0.86446720702E+03  0.15619476868E+04  0.13009139189E+04 0.  0.
        5    1    3    3  502    0  0.50495818527E+03  0.31328307369E+03  0.11469948036E+03  0.60523310710E+03  0.46999998093E+01 0.  1.
       -5    1    3    3    0  502 -0.50495818527E+03 -0.31328307369E+03  0.74976772666E+03  0.95671457973E+03  0.46999998093E+01 0. -1.
</event>
<event>
 5   0  0.2573071E-04  0.1302607E+04  0.7818609E-02  0.9027500E-01
       -2   -1    0    0    0  501  0.00000000000E+00  0.00000000000E+00  0.17632668164E+03  0.17632668166E+03  0.25500000920E-02 0. -1.
        2   -1    0    0  501    0  0.00000000000E+00  0.00000000000E+00 -0.24057414326E+04  0.24057414326E+04  0.25500000920E-02 0.  1.
    10030    2    1    2    0    0  0.00000000000E+00  0.00000000000E+00 -0.22294147510E+04  0.25820681143E+04  0.13026072374E+04 0.  0.
        4    1    3    3  502    0  0.45880259162E+03 -0.44857612511E+03 -0.89331400568E+03  0.10998781222E+04  0.12699999809E+01 0.  1.
       -4    1    3    3    0  502 -0.45880259162E+03  0.44857612511E+03 -0.13361007453E+04  0.14821899921E+04  0.12699999809E+01 0. -1.
</event>
<event>
 5   0  0.2573071E-04  0.1299983E+04  0.7818609E-02  0.9029578E-01
        2   -1    0    0  501    0  0.00000000000E+00  0.00000000000E+00  0.43683169281E+03  0.43683169282E+03  0.25500000920E-02 0.  1.
       -2   -1    0    0    0  501  0.00000000000E+00  0.00000000000E+00 -0.96716707355E+03  0.96716707355E+03  0.25500000920E-02 0. -1.
    10030    2    1    2    0    0  0.00000000000E+00  0.00000000000E+00 -0.53033538074E+03  0.14039987664E+04  0.12999834306E+04 0.  0.
        4    1    3    3  502    0  0.44340492406E+03  0.27562641852E+03  0.15299364603E+03  0.54404642991E+03  0.12699999809E+01 0.  1.
       -4    1    3    3    0  502 -0.44340492406E+03 -0.27562641852E+03 -0.68332902677E+03  0.85995233646E+03  0.12699999809E+01 0. -1.
</event>
<event>
 5   0  0.1430636E-04  0.1299954E+04  0.7818609E-02  0.9029602E-01
       -1   -1    0    0    0  501  0.00000000000E+00  0.00000000000E+00  0.26066818536E+03  0.26066818540E+03  0.50400001928E-02 0.  1.
        1   -1    0    0  501    0  0.00000000000E+00  0.00000000000E+00 -0.16207195903E+04  0.16207195903E+04  0.50400001928E-02 0. -1.
    10030    2    1    2    0    0  0.00000000000E+00  0.00000000000E+00 -0.13600514049E+04  0.18813877757E+04  0.12999538986E+04 0.  0.
        4    1    3    3  502    0 -0.21742791631E+03 -0.34258550849E+03  0.54853556267E+02  0.40945116309E+03  0.12699999809E+01 0.  1.
       -4    1    3    3    0  502  0.21742791631E+03  0.34258550849E+03 -0.14149049612E+04  0.14719366126E+04  0.12699999809E+01 0. -1.
</event>
<event>
 5   0  0.2723209E-04  0.1301349E+04  0.7818609E-02  0.9028496E-01
       -2   -1    0    0    0  501  0.00000000000E+00  0.00000000000E+00  0.39613262181E+03  0.39613262182E+03  0.25500000920E-02 0.  1.
        2   -1    0    0  501    0  0.00000000000E+00  0.00000000000E+00 -0.10687773317E+04  0.10687773317E+04  0.25500000920E-02 0. -1.
    10030    2    1    2    0    0  0.00000000000E+00  0.00000000000E+00 -0.67264470989E+03  0.14649099535E+04  0.13013494020E+04 0.  0.
        2    1    3    3  502    0 -0.21803509550E+03 -0.13036010655E+03  0.33800404695E+03  0.42282359916E+03  0.25500000920E-02 0.  1.
       -2    1    3    3    0  502  0.21803509550E+03  0.13036010655E+03 -0.10106487568E+04  0.10420863544E+04  0.25500000920E-02 0. -1.
</event>
<event>
 5   0  0.2573071E-04  0.1299074E+04  0.7818609E-02  0.9030300E-01
       -2   -1    0    0    0  501  0.00000000000E+00  0.00000000000E+00  0.54225139930E+03  0.54225139930E+03  0.25500000920E-02 0. -1.
        2   -1    0    0  501    0  0.00000000000E+00  0.00000000000E+00 -0.77804963402E+03  0.77804963403E+03  0.25500000920E-02 0.  1.
    10030    2    1    2    0    0  0.00000000000E+00  0.00000000000E+00 -0.23579823473E+03  0.13203010333E+04  0.12990742901E+04 0.  0.
        4    1    3    3  502    0  0.35285154057E+03 -0.34460010309E+03  0.31166947735E+03  0.58343201553E+03  0.12699999809E+01 0. -1.
       -4    1    3    3    0  502 -0.35285154057E+03  0.34460010309E+03 -0.54746771207E+03  0.73686901780E+03  0.12699999809E+01 0.  1.
</event>
<event>
 5   0  0.2661377E-04  0.1306916E+04  0.7818609E-02  0.9024098E-01
        2   -1    0    0  501    0  0.00000000000E+00  0.00000000000E+00  0.99249568165E+03  0.99249568165E+03  0.25500000920E-02 0.  1.
       -2   -1    0    0    0  501  0.00000000000E+00  0.00000000000E+00 -0.43023617250E+03  0.43023617251E+03  0.25500000920E-02 0. -1.
    10030    2    1    2    0    0  0.00000000000E+00  0.00000000000E+00  0.56225950915E+03  0.14227318542E+04  0.13069162839E+04 0.  0.
        5    1    3    3  502    0  0.10957274843E+03 -0.25410554800E+03 -0.36328178171E+03  0.45669635388E+03  0.46999998093E+01 0. -1.
       -5    1    3    3    0  502 -0.10957274843E+03  0.25410554800E+03  0.92554129086E+03  0.96603550029E+03  0.46999998093E+01 0.  1.
</event>
<event>
 5   0  0.1476511E-04  0.1300765E+04  0.7818609E-02  0.9028959E-01
       -1   -1    0    0    0  501  0.00000000000E+00  0.00000000000E+00  0.48978224882E+03  0.48978224885E+03  0.50400001928E-02 0. -1.
        1   -1    0    0  501    0  0.00000000000E+00  0.00000000000E+00 -0.86364388247E+03  0.86364388248E+03  0.50400001928E-02 0.  1.
    10030    2    1    2    0    0  0.00000000000E+00  0.00000000000E+00 -0.37386163364E+03  0.13534261313E+04  0.13007650717E+04 0.  0.
        2    1    3    3  502    0 -0.37216876602E+03  0.32025892593E+03  0.25686007905E+03  0.55412315441E+03  0.25500000920E-02 0. -1.
       -2    1    3    3    0  502  0.37216876602E+03 -0.32025892593E+03 -0.63072171269E+03  0.79930297692E+03  0.25500000920E-02 0.  1.
</event>
<event>
 5   0  0.2661377E-04  0.1293203E+04  0.7818609E-02  0.9034973E-01
        2   -1    0    0  501    0  0.00000000000E+00  0.00000000000E+00  0.61084839512E+03  0.61084839513E+03  0.25500000920E-02 0.  1.
       -2   -1    0    0    0  501  0.00000000000E+00  0.00000000000E+00 -0.68444672591E+03  0.68444672592E+03  0.25500000920E-02 0. -1.
    10030    2    1    2    0    0  0.00000000000E+00  0.00000000000E+00 -0.73598330790E+02  0.12952951210E+04  0.12932025117E+04 0.  0.
        5    1    3    3  502    0  0.52702515907E+03  0.13627012637E+03  0.31268668050E+03  0.62778986595E+03  0.46999998093E+01 0.  1.
       -5    1    3    3    0  502 -0.52702515907E+03 -0.13627012637E+03 -0.38628501129E+03  0.66750525509E+03  0.46999998093E+01 0. -1.
</event>
<event>
 5   0  0.1408341E-04  0.1300926E+04  0.7818609E-02  0.9028831E-01
        1   -1    0    0  501    0  0.00000000000E+00  0.00000000000E+00  0.39076921872E+03  0.39076921876E+03  0.50400001928E-02 0.  1.
       -1   -1    0    0    0  501  0.00000000000E+00  0.00000000000E+00 -0.10827414856E+04  0.10827414856E+04  0.50400001928E-02 0. -1.
    10030    2    1    2    0    0  0.00000000000E+00  0.00000000000E+00 -0.69197226687E+03  0.14735107044E+04  0.13009258925E+04 0.  0.
        5    1    3    3  502    0  0.27856786814E+03 -0.67307278242E+02  0.31538593232E+03  0.42616980555E+03  0.46999998093E+01 0.  1.
       -5    1    3    3    0  502 -0.27856786814E+03  0.67307278242E+02 -0.10073581992E+04  0.10473408988E+04  0.46999998093E+01 0. -1.
</event>
<event>
 5   0  0.1476511E-04  0.1300955E+04  0.7818609E-02  0.9028808E-01
        1   -1    0    0  501    0  0.00000000000E+00  0.00000000000E+00  0.60255001762E+03  0.60255001764E+03  0.50400001928E-02 0. -1.
       -1   -1    0    0    0  501  0.00000000000E+00  0.00000000000E+00 -0.70221743410E+03  0.70221743412E+03  0.50400001928E-02 0.  1.
    10030    2    1    2    0    0  0.00000000000E+00  0.00000000000E+00 -0.99667416488E+02  0.13047674518E+04  0.13009552295E+04 0.  0.
        2    1    3    3  502    0  0.17296261288E+03 -0.48061909325E+02 -0.67688184920E+03  0.70028212198E+03  0.25500000920E-02 0.  1.
       -2    1    3    3    0  502 -0.17296261288E+03  0.48061909325E+02  0.57721443271E+03  0.60448532978E+03  0.25500000920E-02 0. -1.
</event>
<event>
 5   0  0.2794825E-04  0.1301878E+04  0.7818609E-02  0.9028077E-01
       -2   -1    0    0    0  501  0.00000000000E+00  0.00000000000E+00  0.28405892345E+03  0.28405892347E+03  0.25500000920E-02 0. -1.
        2   -1    0    0  501    0  0.00000000000E+00  0.00000000000E+00 -0.14916673583E+04  0.14916673583E+04  0.25500000920E-02 0.  1.
    10030    2    1    2    0    0  0.00000000000E+00  0.00000000000E+00 -0.12076084349E+04  0.17757262818E+04  0.13018777577E+04 0.  0.
        1    1    3    3  502    0  0.55134137774E+03  0.31814211042E+03 -0.41813492260E+03  0.76159604172E+03  0.50400001928E-02 0. -1.
       -1    1    3    3    0  502 -0.55134137774E+03 -0.31814211042E+03 -0.78947351229E+03  0.10141302401E+04  0.50400001928E-02 0.  1.
</event>
<event>
 5   0  0.1430636E-04  0.1300191E+04  0.7818609E-02  0.9029413E-01
       -1   -1    0    0    0  501  0.00000000000E+00  0.00000000000E+00  0.59094803895E+03  0.59094803898E+03  0.50400001928E-02 0.  1.
        1   -1    0    0  501    0  0.00000000000E+00  0.00000000000E+00 -0.71516338487E+03  0.71516338488E+03  0.50400001928E-02 0. -1.
    10030    2    1    2    0    0  0.00000000000E+00  0.00000000000E+00 -0.12421534591E+03  0.13061114239E+04  0.13001913703E+04 0.  0.
        4    1    3    3  502    0  0.92352528606E+02  0.55310722388E+03 -0.39249146058E+03  0.68447625976E+03  0.12699999809E+01 0. -1.
       -4    1    3    3    0  502 -0.92352528606E+02 -0.55310722388E+03  0.26827611467E+03  0.62163516410E+03  0.12699999809E+01 0.  1.
</event>
<event>
 5   0  0.2661377E-04  0.1299229E+04  0.7818609E-02  0.9030177E-01
       -2   -1    0    0    0  501  0.00000000000E+00  0.00000000000E+00  0.24026744869E+03  0.24026744870E+03  0.25500000920E-02 0. -1.
        2   -1    0    0  501    0  0.00000000000E+00  0.00000000000E+00 -0.17563728418E+04  0.17563728418E+04  0.25500000920E-02 0.  1.
    10030    2    1    2    0    0  0.00000000000E+00  0.00000000000E+00 -0.15161053931E+04  0.19966402905E+04  0.12992293433E+04 0.  0.
        5    1    3    3  502    0 -0.48631768500E+03  0.40937167461E+03 -0.96358668447E+03  0.11543879102E+04  0.46999998093E+01 0.  1.
       -5    1    3    3    0  502  0.48631768500E+03 -0.40937167461E+03 -0.55251870860E+03  0.84225238027E+03  0.46999998093E+01 0. -1.
</event>
<event>
 5   0  0.1408341E-04  0.1301034E+04  0.7818609E-02  0.9028746E-01
        1   -1    0    0  501    0  0.00000000000E+00  0.00000000000E+00  0.69120974011E+03  0.69120974012E+03  0.50400001928E-02 0. -1.
       -1   -1    0    0    0  501  0.00000000000E+00  0.00000000000E+00 -0.61221964124E+03  0.61221964126E+03  0.50400001928E-02 0.  1.
    10030    2    1    2    0    0  0.00000000000E+00  0.00000000000E+00  0.78990098867E+02  0.13034293814E+04  0.13010337108E+04 0.  0.
        5    1    3    3  502    0 -0.54988550377E+03  0.39250977700E+02  0.38543564735E+03  0.67267929562E+03  0.46999998093E+01 0. -1.
       -5    1    3    3    0  502  0.54988550377E+03 -0.39250977700E+02 -0.30644554848E+03  0.63075008576E+03  0.46999998093E+01 0.  1.
</event>
<event>
 5   0  0.1475396E-04  0.1301479E+04  0.7818609E-02  0.9028393E-01
        1   -1    0    0  501    0  0.00000000000E+00  0.00000000000E+00  0.16168340269E+04  0.16168340269E+04  0.50400001928E-02 0. -1.
       -1   -1    0    0    0  501  0.00000000000E+00  0.00000000000E+00 -0.26190803227E+03  0.26190803232E+03  0.50400001928E-02 0.  1.
    10030    2    1    2    0    0  0.00000000000E+00  0.00000000000E+00  0.13549259947E+04  0.18787420593E+04  0.13014788797E+04 0.  0.
        3    1    3    3  502    0 -0.29170082558E+03 -0.53064168751E+03  0.10214745192E+04  0.11874679683E+04  0.10100000352E+00 0. -1.
       -3    1    3    3    0  502  0.29170082558E+03  0.53064168751E+03  0.33345147551E+03  0.69127409101E+03  0.10100000352E+00 0.  1.
</event>
<event>
 5   0  0.1002887E-04  0.1301065E+04  0.7818609E-02  0.9028721E-01
        3   -1    0    0  501    0  0.00000000000E+00  0.00000000000E+00  0.35927143316E+03  0.35927144735E+03  0.10100000352E+00 0.  1.
       -3   -1    0    0    0  501  0.00000000000E+00  0.00000000000E+00 -0.11779185723E+04  0.11779185767E+04  0.10100000352E+00 0. -1.
    10030    2    1    2    0    0  0.00000000000E+00  0.00000000000E+00 -0.81864713917E+03  0.15371900240E+04  0.13010649605E+04 0.  0.
        2    1    3    3  502    0  0.27774267449E+03  0.46403214340E+03  0.17854588461E+02  0.54109667313E+03  0.25500000920E-02 0.  1.
       -2    1    3    3    0  502 -0.27774267449E+03 -0.46403214340E+03 -0.83650172763E+03  0.99609335088E+03  0.25500000920E-02 0. -1.
</event>
<event>
 5   0  0.2723209E-04  0.1300836E+04  0.7818609E-02  0.9028903E-01
       -2   -1    0    0    0  501  0.00000000000E+00  0.00000000000E+00  0.18707182935E+03  0.18707182936E+03  0.25500000920E-02 0.  1.
        2   -1    0    0  501    0  0.00000000000E+00  0.00000000000E+00 -0.22613960943E+04  0.22613960943E+04  0.25500000920E-02 0. -1.
    10030    2    1    2    0    0  0.00000000000E+00  0.00000000000E+00 -0.20743242650E+04  0.24484679237E+04  0.13008358917E+04 0.  0.
        2    1    3    3  502    0 -0.93310618726E+02 -0.63601094398E+03 -0.85057743703E+03  0.10661607612E+04  0.25500000920E-02 0.  1.
       -2    1    3    3    0  502  0.93310618726E+02  0.63601094398E+03 -0.12237468280E+04  0.13823071625E+04  0.25500000920E-02 0. -1.
</event>
<event>
 5   0  0.2661377E-04  0.1299649E+04  0.7818609E-02  0.9029844E-01
        2   -1    0    0  501    0  0.00000000000E+00  0.00000000000E+00  0.10480408325E+04  0.10480408325E+04  0.25500000920E-02 0. -1.
       -2   -1    0    0    0  501  0.00000000000E+00  0.00000000000E+00 -0.40291542270E+03  0.40291542270E+03  0.25500000920E-02 0.  1.
    10030    2    1    2    0    0  0.00000000000E+00  0.00000000000E+00  0.64512540985E+03  0.14509562553E+04  0.12996488988E+04 0.  0.
        5    1    3    3  502    0 -0.34025038248E+03  0.54208196671E+03  0.19711274754E+03  0.66970046039E+03  0.46999998093E+01 0. -1.
       -5    1    3    3    0  502  0.34025038248E+03 -0.54208196671E+03  0.44801266231E+03  0.78125579486E+03  0.46999998093E+01 0.  1.
</event>
<event>
 5   0  0.1430636E-04  0.1301837E+04  0.7818609E-02  0.9028110E-01
        1   -1    0    0  501    0  0.00000000000E+00  0.00000000000E+00  0.48907521791E+03  0.48907521793E+03  0.50400001928E-02 0.  1.
       -1   -1    0    0    0  501  0.00000000000E+00  0.00000000000E+00 -0.86631841073E+03  0.86631841074E+03  0.50400001928E-02 0. -1.
    10030    2    1    2    0    0  0.00000000000E+00  0.00000000000E+00 -0.37724319282E+03  0.13553936287E+04  0.13018369568E+04 0.  0.
        4    1    3    3  502    0  0.28629142195E+03 -0.41714007741E+03 -0.61501184608E+03  0.79637290649E+03  0.12699999809E+01 0. -1.
       -4    1    3    3    0  502 -0.28629142195E+03  0.41714007741E+03  0.23776865326E+03  0.55902072219E+03  0.12699999809E+01 0.  1.
</event>
<event>
 5   0  0.2573071E-04  0.1301871E+04  0.7818609E-02  0.9028083E-01
       -2   -1    0    0    0  501  0.00000000000E+00  0.00000000000E+00  0.35895172118E+03  0.35895172119E+03  0.25500000920E-02 0.  1.
        2   -1    0    0  501    0  0.00000000000E+00  0.00000000000E+00 -0.11804288426E+04  0.11804288426E+04  0.25500000920E-02 0. -1.
    10030    2    1    2    0    0  0.00000000000E+00  0.00000000000E+00 -0.82147712143E+03  0.15393805638E+04  0.13018709073E+04 0.  0.
        4    1    3    3  502    0 -0.35180042270E+02  0.37489201275E+03  0.21710517970E+03  0.43464690100E+03  0.12699999809E+01 0.  1.
       -4    1    3    3    0  502  0.35180042270E+02 -0.37489201275E+03 -0.10385823011E+04  0.11047336628E+04  0.12699999809E+01 0. -1.
</event>
<event>
 5   0  0.1408341E-04  0.1300306E+04  0.7818609E-02  0.9029322E-01
       -1   -1    0    0    0  501  0.00000000000E+00  0.00000000000E+00  0.94703447274E+03  0.94703447275E+03  0.50400001928E-02 0.  1.
        1   -1    0    0  501    0  0.00000000000E+00  0.00000000000E+00 -0.44633962324E+03  0.44633962327E+03  0.50400001928E-02 0. -1.
    10030    2    1    2    0    0  0.00000000000E+00  0.00000000000E+00  0.50069484950E+03  0.13933740960E+04  0.13003061329E+04 0.  0.
        5    1    3    3  502    0 -0.27021876591E+03  0.44420171003E+03  0.66859573861E+03  0.84698033763E+03  0.46999998093E+01 0.  1.
       -5    1    3    3    0  502  0.27021876591E+03 -0.44420171003E+03 -0.16790088911E+03  0.54639375839E+03  0.46999998093E+01 0. -1.
</event>
<event>
 5   0  0.2723209E-04  0.1301180E+04  0.7818609E-02  0.9028630E-01
       -2   -1    0    0    0  501  0.00000000000E+00  0.00000000000E+00  0.28233171490E+03  0.28233171491E+03  0.25500000920E-02 0.  1.
        2   -1    0    0  501    0  0.00000000000E+00  0.00000000000E+00 -0.14991854172E+04  0.14991854172E+04  0.25500000920E-02 0. -1.
    10030    2    1    2    0    0  0.00000000000E+00  0.00000000000E+00 -0.12168537023E+04  0.17815171321E+04  0.13011803715E+04 0.  0.
        2    1    3    3  502    0 -0.98254494631E+02  0.18110764995E+03  0.23647986221E+03  0.31365052499E+03  0.25500000920E-02 0.  1.
       -2    1    3    3    0  502  0.98254494631E+02 -0.18110764995E+03 -0.14533335645E+04  0.14678666071E+04  0.25500000920E-02 0. -1.
</event>
<event>
 5   0  0.2756984E-04  0.1298669E+04  0.7818609E-02  0.9030622E-01
        2   -1    0    0  501    0  0.00000000000E+00  0.00000000000E+00  0.80747687171E+03  0.80747687171E+03  0.25500000920E-02 0. -1.
       -2   -1    0    0    0  501  0.00000000000E+00  0.00000000000E+00 -0.52216362050E+03  0.52216362050E+03  0.25500000920E-02 0.  1.
    10030    2    1    2    0    0  0.00000000000E+00  0.00000000000E+00  0.28531325121E+03  0.13296404922E+04  0.12986686210E+04 0.  0.
        3    1    3    3  502    0  0.19150031880E+02 -0.54056222544E+03 -0.22516143532E+03  0.58589412478E+03  0.10100000352E+00 0.  1.
       -3    1    3    3    0  502 -0.19150031880E+02  0.54056222544E+03  0.51047468653E+03  0.74374636744E+03  0.10100000352E+00 0. -1.
</event>
<event>
 5   0  0.1476511E-04  0.1299271E+04  0.7818609E-02  0.9030143E-01
       -1   -1    0    0    0  501  0.00000000000E+00  0.00000000000E+00  0.76272963106E+03  0.76272963108E+03  0.50400001928E-02 0.  1.
        1   -1    0    0  501    0  0.00000000000E+00  0.00000000000E+00 -0.55331053636E+03  0.55331053639E+03  0.50400001928E-02 0. -1.
    10030    2    1    2    0    0  0.00000000000E+00  0.00000000000E+00  0.20941909470E+03  0.13160401675E+04  0.12992710899E+04 0.  0.
        2    1    3    3  502    0  0.19223925882E+03  0.50493179140E+03  0.47007869802E+03  0.71616061672E+03  0.25500000920E-02 0.  1.
       -2    1    3    3    0  502 -0.19223925882E+03 -0.50493179140E+03 -0.26065960332E+03  0.59987955075E+03  0.25500000920E-02 0. -1.
</event>
<event>
 5   0  0.1408341E-04  0.1300827E+04  0.7818609E-02  0.9028909E-01
        1   -1    0    0  501    0  0.00000000000E+00  0.00000000000E+00  0.11374073221E+04  0.11374073222E+04  0.50400001928E-02 0. -1.
       -1   -1    0    0    0  501  0.00000000000E+00  0.00000000000E+00 -0.37193172313E+03  0.37193172317E+03  0.50400001928E-02 0.  1.
    10030    2    1    2    0    0  0.00000000000E+00  0.00000000000E+00  0.76547559902E+03  0.15093390453E+04  0.13008272218E+04 0.  0.
        5    1    3    3  502    0 -0.14368405931E+03 -0.76760081674E+02 -0.34785778307E+03  0.38414104998E+03  0.46999998093E+01 0.  1.
       -5    1    3    3    0  502  0.14368405931E+03  0.76760081674E+02  0.11133333821E+04  0.11251979953E+04  0.46999998093E+01 0. -1.
</event>
<event>
 5   0  0.2756984E-04  0.1300322E+04  0.7818609E-02  0.9029310E-01
        2   -1    0    0  501    0  0.00000000000E+00  0.00000000000E+00  0.42789191086E+03  0.42789191087E+03  0.25500000920E-02 0.  1.
       -2   -1    0    0    0  501  0.00000000000E+00  0.00000000000E+00 -0.98788861235E+03  0.98788861235E+03  0.25500000920E-02 0. -1.
    10030    2    1    2    0    0  0.00000000000E+00  0.00000000000E+00 -0.55999670149E+03  0.14157805232E+04  0.13003223386E+04 0.  0.
        3    1    3    3  502    0 -0.20617617365E+03 -0.31334334814E+03  0.29820746040E+03  0.47918719520E+03  0.10100000352E+00 0.  1.
       -3    1    3    3    0  502  0.20617617365E+03  0.31334334814E+03 -0.85820416189E+03  0.93659332802E+03  0.10100000352E+00 0. -1.
</event>
<event>
 5   0  0.2756984E-04  0.1299044E+04  0.7818609E-02  0.9030324E-01
       -2   -1    0    0    0  501  0.00000000000E+00  0.00000000000E+00  0.40206925730E+03  0.40206925731E+03  0.25500000920E-02 0. -1.
        2   -1    0    0  501    0  0.00000000000E+00  0.00000000000E+00 -0.10492687345E+04  0.10492687345E+04  0.25500000920E-02 0.  1.
    10030    2    1    2    0    0  0.00000000000E+00  0.00000000000E+00 -0.64719947724E+03  0.14513379919E+04  0.12990438034E+04 0.  0.
        3    1    3    3  502    0  0.24774955810E+03  0.75510261912E+01 -0.99435233248E+03  0.10247796997E+04  0.10100000352E+00 0.  1.
       -3    1    3    3    0  502 -0.24774955810E+03 -0.75510261912E+01  0.34715285524E+03  0.42655829219E+03  0.10100000352E+00 0. -1.
</event>
<event>
 5   0  0.2723209E-04  0.1298831E+04  0.7818609E-02  0.9030493E-01
       -2   -1    0    0    0  501  0.00000000000E+00  0.00000000000E+00  0.48342427957E+03  0.48342427958E+03  0.25500000920E-02 0.  1.
        2   -1    0    0  501    0  0.00000000000E+00  0.00000000000E+00 -0.87240182017E+03  0.87240182017E+03  0.25500000920E-02 0. -1.
    10030    2    1    2    0    0  0.00000000000E+00  0.00000000000E+00 -0.38897754060E+03  0.13558260998E+04  0.12988305839E+04 0.  0.
        2    1    3    3  502    0  0.30503011349E+03  0.51129629492E+03 -0.46524079924E+03  0.75559001623E+03  0.25500000920E-02 0. -1.
       -2    1    3    3    0  502 -0.30503011349E+03 -0.51129629492E+03  0.76263258645E+02  0.60023608352E+03  0.25500000920E-02 0.  1.
</event>
<event>
 5   0  0.1479690E-04  0.1301139E+04  0.7818609E-02  0.9028663E-01
        1   -1    0    0  501    0  0.00000000000E+00  0.00000000000E+00  0.52406563029E+03  0.52406563032E+03  0.50400001928E-02 0.  1.
       -1   -1    0    0    0  501  0.00000000000E+00  0.00000000000E+00 -0.80760961967E+03  0.80760961969E+03  0.50400001928E-02 0. -1.
    10030    2    1    2    0    0  0.00000000000E+00  0.00000000000E+00 -0.28354398938E+03  0.13316752500E+04  0.13011386466E+04 0.  0.
        1    1    3    3  502    0 -0.38606169335E+03  0.44432817286E+03  0.14180337590E+03  0.60545797023E+03  0.50400001928E-02 0.  1.
       -1    1    3    3    0  502  0.38606169335E+03 -0.44432817286E+03 -0.42534736528E+03  0.72621727978E+03  0.50400001928E-02 0. -1.
</event>
<event>
 5   0  0.2573071E-04  0.1298662E+04  0.7818609E-02  0.9030627E-01
        2   -1    0    0  501    0  0.00000000000E+00  0.00000000000E+00  0.82757711249E+03  0.82757711249E+03  0.25500000920E-02 0.  1.
       -2   -1    0    0    0  501  0.00000000000E+00  0.00000000000E+00 -0.50947570772E+03  0.50947570772E+03  0.25500000920E-02 0. -1.
    10030    2    1    2    0    0  0.00000000000E+00  0.00000000000E+00  0.31810140477E+03  0.13370528202E+04  0.12986615188E+04 0.  0.
        4    1    3    3  502    0  0.23056687179E+03  0.36400428528E+02 -0.46478477580E+03  0.52010823324E+03  0.12699999809E+01 0. -1.
       -4    1    3    3    0  502 -0.23056687179E+03 -0.36400428528E+02  0.78288618057E+03  0.81694458698E+03  0.12699999809E+01 0.  1.
</event>
<event>
 5   0  0.2756984E-04  0.1300200E+04  0.7818609E-02  0.9029406E-01
       -2   -1    0    0    0  501  0.00000000000E+00  0.00000000000E+00  0.47269625606E+03  0.47269625606E+03  0.25500000920E-02 0. -1.
        2   -1    0    0  501    0  0.00000000000E+00  0.00000000000E+00 -0.89408427372E+03  0.89408427373E+03  0.25500000920E-02 0.  1.
    10030    2    1    2    0    0  0.00000000000E+00  0.00000000000E+00 -0.42138801767E+03  0.13667805298E+04  0.13002004288E+04 0.  0.
        3    1    3    3  502    0  0.35427110907E+03  0.53017349278E+03 -0.77566435297E+02  0.64234610083E+03  0.10100000352E+00 0. -1.
       -3    1    3    3    0  502 -0.35427110907E+03 -0.53017349278E+03 -0.34382158237E+03  0.72443442896E+03  0.10100000352E+00 0.  1.
</event>
<event>
 5   0  0.1476511E-04  0.1297638E+04  0.7818609E-02  0.9031441E-01
       -1   -1    0    0    0  501  0.00000000000E+00  0.00000000000E+00  0.81582605726E+03  0.81582605727E+03  0.50400001928E-02 0. -1.
        1   -1    0    0  501    0  0.00000000000E+00  0.00000000000E+00 -0.51599944802E+03  0.51599944805E+03  0.50400001928E-02 0.  1.
    10030    2    1    2    0    0  0.00000000000E+00  0.00000000000E+00  0.29982660923E+03  0.13318255053E+04  0.12976375384E+04 0.  0.
        2    1    3    3  502    0  0.25803987128E+02  0.13334814483E+03 -0.50124517420E+03  0.51932099721E+03  0.25500000920E-02 0.  1.
       -2    1    3    3    0  502 -0.25803987128E+02 -0.13334814483E+03  0.80107178343E+03  0.81250450811E+03  0.25500000920E-02 0. -1.
</event>
<event>
 5   0  0.1479690E-04  0.1297435E+04  0.7818609E-02  0.9031602E-01
        1   -1    0    0  501    0  0.00000000000E+00  0.00000000000E+00  0.58824521185E+03  0.58824521187E+03  0.50400001928E-02 0. -1.
       -1   -1    0    0    0  501  0.00000000000E+00  0.00000000000E+00 -0.71540628086E+03  0.71540628088E+03  0.50400001928E-02 0.  1.
    10030    2    1    2    0    0  0.00000000000E+00  0.00000000000E+00 -0.12716106901E+03  0.13036514927E+04  0.12974348836E+04 0.  0.
        1    1    3    3  502    0  0.37201964151E+03  0.39045466319E+03  0.29867551064E+03  0.61649048522E+03  0.50400001928E-02 0. -1.
       -1    1    3    3    0  502 -0.37201964151E+03 -0.39045466319E+03 -0.42583657966E+03  0.68716100753E+03  0.50400001928E-02 0.  1.
</event>
<event>
 5   0  0.2794825E-04  0.1296275E+04  0.7818609E-02  0.9032524E-01
       -2   -1    0    0    0  501  0.00000000000E+00  0.00000000000E+00  0.62373501472E+03  0.62373501472E+03  0.25500000920E-02 0.  1.
        2   -1    0    0  501    0  0.00000000000E+00  0.00000000000E+00 -0.67349467164E+03  0.67349467165E+03  0.25500000920E-02 0. -1.
    10030    2    1    2    0    0  0.00000000000E+00  0.00000000000E+00 -0.49759656925E+02  0.12972296864E+04  0.12962749846E+04 0.  0.
        1    1    3    3  502    0  0.42960163559E+03 -0.23946596547E+03 -0.44730526625E+03  0.66481840766E+03  0.50400001928E-02 0. -1.
       -1    1    3    3    0  502 -0.42960163559E+03  0.23946596547E+03  0.39754560933E+03  0.63241127871E+03  0.50400001928E-02 0.  1.
</event>
<event>
 5   0  0.1408341E-04  0.1279921E+04  0.7818609E-02  0.9045641E-01
        1   -1    0    0  501    0  0.00000000000E+00  0.00000000000E+00  0.40578513066E+03  0.40578513069E+03  0.50400001928E-02 0.  1.
       -1   -1    0    0    0  501  0.00000000000E+00  0.00000000000E+00 -0.10092766134E+04  0.10092766135E+04  0.50400001928E-02 0. -1.
    10030    2    1    2    0    0  0.00000000000E+00  0.00000000000E+00 -0.60349148279E+03  0.14150617441E+04  0.12799210014E+04 0.  0.
        5    1    3    3  502    0 -0.13294027618E+03  0.30496478048E+03 -0.90613867321E+03  0.96529063988E+03  0.46999998093E+01 0. -1.
       -5    1    3    3    0  502  0.13294027618E+03 -0.30496478048E+03  0.30264719042E+03  0.44977110426E+03  0.46999998093E+01 0.  1.
</event>
<event>
 5   0  0.1479690E-04  0.1300198E+04  0.7818609E-02  0.9029408E-01
       -1   -1    0    0    0  501  0.00000000000E+00  0.00000000000E+00  0.28257435642E+03  0.28257435646E+03  0.50400001928E-02 0. -1.
        1   -1    0    0  501    0  0.00000000000E+00  0.00000000000E+00 -0.14956376568E+04  0.14956376568E+04  0.50400001928E-02 0.  1.
    10030    2    1    2    0    0  0.00000000000E+00  0.00000000000E+00 -0.12130633004E+04  0.17782120133E+04  0.13001982131E+04 0.  0.
        1    1    3    3  502    0  0.48646221003E+03  0.21596542867E+03 -0.11170548266E+04  0.12373754620E+04  0.50400001928E-02 0.  1.
       -1    1    3    3    0  502 -0.48646221003E+03 -0.21596542867E+03 -0.96008473758E+02  0.54083655130E+03  0.50400001928E-02 0. -1.
</event>
<event>
 5   0  0.2756984E-04  0.1301327E+04  0.7818609E-02  0.9028513E-01
       -2   -1    0    0    0  501  0.00000000000E+00  0.00000000000E+00  0.40913142470E+03  0.40913142471E+03  0.25500000920E-02 0.  1.
        2   -1    0    0  501    0  0.00000000000E+00  0.00000000000E+00 -0.10347855955E+04  0.10347855955E+04  0.25500000920E-02 0. -1.
    10030    2    1    2    0    0  0.00000000000E+00  0.00000000000E+00 -0.62565417082E+03  0.14439170202E+04  0.13013274837E+04 0.  0.
        3    1    3    3  502    0 -0.20027627428E+03  0.44906840443E+03  0.15999954527E+03  0.51708111799E+03  0.10100000352E+00 0.  1.
       -3    1    3    3    0  502  0.20027627428E+03 -0.44906840443E+03 -0.78565371609E+03  0.92683590225E+03  0.10100000352E+00 0. -1.
</event>
<event>
 5   0  0.1479690E-04  0.1300812E+04  0.7818609E-02  0.9028921E-01
        1   -1    0    0  501    0  0.00000000000E+00  0.00000000000E+00  0.74699822377E+03  0.74699822379E+03  0.50400001928E-02 0. -1.
       -1   -1    0    0    0  501  0.00000000000E+00  0.00000000000E+00 -0.56630416011E+03  0.56630416013E+03  0.50400001928E-02 0.  1.
    10030    2    1    2    0    0  0.00000000000E+00  0.00000000000E+00  0.18069406366E+03  0.13133023839E+04  0.13008123642E+04 0.  0.
        1    1    3    3  502    0 -0.63362713077E+03 -0.14634918835E+03  0.78979439665E+02  0.65508715275E+03  0.50400001928E-02 0. -1.
       -1    1    3    3    0  502  0.63362713077E+03  0.14634918835E+03  0.10171462399E+03  0.65821523117E+03  0.50400001928E-02 0.  1.
</event>
<event>
 5   0  0.1479690E-04  0.1286867E+04  0.7818609E-02  0.9040045E-01
       -1   -1    0    0    0  501  0.00000000000E+00  0.00000000000E+00  0.62089271557E+03  0.62089271559E+03  0.50400001928E-02 0.  1.
        1   -1    0    0  501    0  0.00000000000E+00  0.00000000000E+00 -0.66679296691E+03  0.66679296693E+03  0.50400001928E-02 0. -1.
    10030    2    1    2    0    0  0.00000000000E+00  0.00000000000E+00 -0.45900251342E+02  0.12876856825E+04  0.12868673529E+04 0.  0.
        1    1    3    3  502    0  0.55194735318E+03 -0.19044043877E+03  0.24757980904E+03  0.63419965568E+03  0.50400001928E-02 0.  1.
       -1    1    3    3    0  502 -0.55194735318E+03  0.19044043877E+03 -0.29348006038E+03  0.65348602683E+03  0.50400001928E-02 0. -1.
</event>
<event>
 5   0  0.1476511E-04  0.1300983E+04  0.7818609E-02  0.9028786E-01
        1   -1    0    0  501    0  0.00000000000E+00  0.00000000000E+00  0.38737036999E+03  0.38737037002E+03  0.50400001928E-02 0. -1.
       -1   -1    0    0    0  501  0.00000000000E+00  0.00000000000E+00 -0.10923370995E+04  0.10923370995E+04  0.50400001928E-02 0.  1.
    10030    2    1    2    0    0  0.00000000000E+00  0.00000000000E+00 -0.70496672947E+03  0.14797074695E+04  0.13009827461E+04 0.  0.
        2    1    3    3  502    0 -0.17015408837E+03 -0.21986591198E+03 -0.10213591170E+04  0.10585215534E+04  0.25500000920E-02 0.  1.
       -2    1    3    3    0  502  0.17015408837E+03  0.21986591198E+03  0.31639238754E+03  0.42118591612E+03  0.25500000920E-02 0. -1.
</event>
<event>
 5   0  0.2794825E-04  0.1280769E+04  0.7818609E-02  0.9044956E-01
        2   -1    0    0  501    0  0.00000000000E+00  0.00000000000E+00  0.82301484131E+03  0.82301484132E+03  0.25500000920E-02 0.  1.
       -2   -1    0    0    0  501  0.00000000000E+00  0.00000000000E+00 -0.49828073698E+03  0.49828073698E+03  0.25500000920E-02 0. -1.
    10030    2    1    2    0    0  0.00000000000E+00  0.00000000000E+00  0.32473410434E+03  0.13212955783E+04  0.12807692090E+04 0.  0.
        1    1    3    3  502    0 -0.27046743874E+03  0.10063676540E+03  0.75213088029E+03  0.80559372830E+03  0.50400001928E-02 0.  1.
       -1    1    3    3    0  502  0.27046743874E+03 -0.10063676540E+03 -0.42739677595E+03  0.51570185000E+03  0.50400001928E-02 0. -1.
</event>
<event>
 5   0  0.1002887E-04  0.1296633E+04  0.7818609E-02  0.9032240E-01
       -3   -1    0    0    0  501  0.00000000000E+00  0.00000000000E+00  0.95920317387E+03  0.95920317919E+03  0.10100000352E+00 0. -1.
        3   -1    0    0  501    0  0.00000000000E+00  0.00000000000E+00 -0.43819096689E+03  0.43819097853E+03  0.10100000352E+00 0.  1.
    10030    2    1    2    0    0  0.00000000000E+00  0.00000000000E+00  0.52101220698E+03  0.13973941577E+04  0.12966328363E+04 0.  0.
        2    1    3    3  502    0  0.10250554571E+03  0.64014616323E+03  0.25572504812E+03  0.69691448359E+03  0.25500000920E-02 0. -1.
       -2    1    3    3    0  502 -0.10250554571E+03 -0.64014616323E+03  0.26528715886E+03  0.70047967412E+03  0.25500000920E-02 0.  1.
</event>
<event>
 5   0  0.2756984E-04  0.1305621E+04  0.7818609E-02  0.9025120E-01
        2   -1    0    0  501    0  0.00000000000E+00  0.00000000000E+00  0.57804900895E+03  0.57804900896E+03  0.25500000920E-02 0. -1.
       -2   -1    0    0    0  501  0.00000000000E+00  0.00000000000E+00 -0.73724094438E+03  0.73724094438E+03  0.25500000920E-02 0.  1.
    10030    2    1    2    0    0  0.00000000000E+00  0.00000000000E+00 -0.15919193543E+03  0.13152899533E+04  0.13056207677E+04 0.  0.
        3    1    3    3  502    0 -0.27124617381E+03  0.45683515831E+03  0.30253968079E+03  0.61139440407E+03  0.10100000352E+00 0. -1.
       -3    1    3    3    0  502  0.27124617381E+03 -0.45683515831E+03 -0.46173161621E+03  0.70389554927E+03  0.10100000352E+00 0.  1.
</event>
<event>
 5   0  0.2723209E-04  0.1299511E+04  0.7818609E-02  0.9029953E-01
        2   -1    0    0  501    0  0.00000000000E+00  0.00000000000E+00  0.13931492888E+03  0.13931492890E+03  0.25500000920E-02 0. -1.
       -2   -1    0    0    0  501  0.00000000000E+00  0.00000000000E+00 -0.30304165712E+04  0.30304165712E+04  0.25500000920E-02 0.  1.
    10030    2    1    2    0    0  0.00000000000E+00  0.00000000000E+00 -0.28911016423E+04  0.31697315001E+04  0.12995110913E+04 0.  0.
        2    1    3    3  502    0  0.35393768936E+03  0.16032500513E+03 -0.27158100276E+04  0.27434649808E+04  0.25500000920E-02 0.  1.
       -2    1    3    3    0  502 -0.35393768936E+03 -0.16032500513E+03 -0.17529161472E+03  0.42626651923E+03  0.25500000920E-02 0. -1.
</event>
<event>
 5   0  0.2794825E-04  0.1300439E+04  0.7818609E-02  0.9029217E-01
       -2   -1    0    0    0  501  0.00000000000E+00  0.00000000000E+00  0.48538797119E+03  0.48538797119E+03  0.25500000920E-02 0.  1.
        2   -1    0    0  501    0  0.00000000000E+00  0.00000000000E+00 -0.87102584242E+03  0.87102584242E+03  0.25500000920E-02 0. -1.
    10030    2    1    2    0    0  0.00000000000E+00  0.00000000000E+00 -0.38563787123E+03  0.13564138136E+04  0.13004391051E+04 0.  0.
        1    1    3    3  502    0  0.15103965580E+03  0.63161006675E+03 -0.15916221026E+03  0.66863806595E+03  0.50400001928E-02 0.  1.
       -1    1    3    3    0  502 -0.15103965580E+03 -0.63161006675E+03 -0.22647566097E+03  0.68777574766E+03  0.50400001928E-02 0. -1.
</event>
<event>
 5   0  0.2756984E-04  0.1299084E+04  0.7818609E-02  0.9030292E-01
        2   -1    0    0  501    0  0.00000000000E+00  0.00000000000E+00  0.52643733336E+03  0.52643733336E+03  0.25500000920E-02 0.  1.
       -2   -1    0    0    0  501  0.00000000000E+00  0.00000000000E+00 -0.80143384392E+03  0.80143384392E+03  0.25500000920E-02 0. -1.
    10030    2    1    2    0    0  0.00000000000E+00  0.00000000000E+00 -0.27499651056E+03  0.13278711773E+04  0.12990838243E+04 0.  0.
        3    1    3    3  502    0  0.49224735419E+03  0.21182441403E+03 -0.51268469116E+03  0.74163511435E+03  0.10100000352E+00 0.  1.
       -3    1    3    3    0  502 -0.49224735419E+03 -0.21182441403E+03  0.23768818060E+03  0.58623606293E+03  0.10100000352E+00 0. -1.
</event>
<event>
 5   0  0.1479690E-04  0.1298489E+04  0.7818609E-02  0.9030764E-01
       -1   -1    0    0    0  501  0.00000000000E+00  0.00000000000E+00  0.53016785876E+03  0.53016785879E+03  0.50400001928E-02 0.  1.
        1   -1    0    0  501    0  0.00000000000E+00  0.00000000000E+00 -0.79506644473E+03  0.79506644475E+03  0.50400001928E-02 0. -1.
    10030    2    1    2    0    0  0.00000000000E+00  0.00000000000E+00 -0.26489858597E+03  0.13252343035E+04  0.12984893910E+04 0.  0.
        1    1    3    3  502    0 -0.28061601217E+03  0.25556446367E+03 -0.67004347320E+03  0.77007583872E+03  0.50400001928E-02 0. -1.
       -1    1    3    3    0  502  0.28061601217E+03 -0.25556446367E+03  0.40514488723E+03  0.55515846481E+03  0.50400001928E-02 0.  1.
</event>
<event>
 5   0  0.1002887E-04  0.1296664E+04  0.7818609E-02  0.9032215E-01
        3   -1    0    0  501    0  0.00000000000E+00  0.00000000000E+00  0.82493470934E+03  0.82493471552E+03  0.10100000352E+00 0.  1.
       -3   -1    0    0    0  501  0.00000000000E+00  0.00000000000E+00 -0.50953642010E+03  0.50953643011E+03  0.10100000352E+00 0. -1.
    10030    2    1    2    0    0  0.00000000000E+00  0.00000000000E+00  0.31539828923E+03  0.13344711456E+04  0.12966638569E+04 0.  0.
        2    1    3    3  502    0  0.46334571618E+03 -0.81798417522E+02  0.61674723016E+03  0.77573022355E+03  0.25500000920E-02 0.  1.
       -2    1    3    3    0  502 -0.46334571618E+03  0.81798417522E+02 -0.30134894092E+03  0.55874092209E+03  0.25500000920E-02 0. -1.
</event>
<event>
 5   0  0.1002887E-04  0.1303851E+04  0.7818609E-02  0.9026517E-01
       -3   -1    0    0    0  501  0.00000000000E+00  0.00000000000E+00  0.13508619334E+04  0.13508619371E+04  0.10100000352E+00 0. -1.
        3   -1    0    0  501    0  0.00000000000E+00  0.00000000000E+00 -0.31461890247E+03  0.31461891868E+03  0.10100000352E+00 0.  1.
    10030    2    1    2    0    0  0.00000000000E+00  0.00000000000E+00  0.10362430309E+04  0.16654808558E+04  0.13038507821E+04 0.  0.
        1    1    3    3  502    0  0.45155178578E+03 -0.23090872165E+03  0.10413523362E+04  0.11582886260E+04  0.50400001928E-02 0. -1.
       -1    1    3    3    0  502 -0.45155178578E+03  0.23090872165E+03 -0.51093052914E+01  0.50719222983E+03  0.50400001928E-02 0.  1.
</event>
<event>
 5   0  0.2573071E-04  0.1300753E+04  0.7818609E-02  0.9028968E-01
       -2   -1    0    0    0  501  0.00000000000E+00  0.00000000000E+00  0.10418690742E+04  0.10418690742E+04  0.25500000920E-02 0.  1.
        2   -1    0    0  501    0  0.00000000000E+00  0.00000000000E+00 -0.40599117014E+03  0.40599117014E+03  0.25500000920E-02 0. -1.
    10030    2    1    2    0    0  0.00000000000E+00  0.00000000000E+00  0.63587790409E+03  0.14478602444E+04  0.13007530812E+04 0.  0.
        4    1    3    3  502    0 -0.39171596110E+03  0.51129634901E+03  0.41825755574E+03  0.76798850676E+03  0.12699999809E+01 0.  1.
       -4    1    3    3    0  502  0.39171596110E+03 -0.51129634901E+03  0.21762034835E+03  0.67987173761E+03  0.12699999809E+01 0. -1.
</event>
<event>
 5   0  0.2723209E-04  0.1297188E+04  0.7818609E-02  0.9031798E-01
       -2   -1    0    0    0  501  0.00000000000E+00  0.00000000000E+00  0.22284985064E+03  0.22284985065E+03  0.25500000920E-02 0.  1.
        2   -1    0    0  501    0  0.00000000000E+00  0.00000000000E+00 -0.18877017684E+04  0.18877017684E+04  0.25500000920E-02 0. -1.
    10030    2    1    2    0    0  0.00000000000E+00  0.00000000000E+00 -0.16648519178E+04  0.21105516191E+04  0.12971878155E+04 0.  0.
        2    1    3    3  502    0  0.18690670839E+03  0.42442665682E+03 -0.15701717407E+04  0.16372267406E+04  0.25500000920E-02 0. -1.
       -2    1    3    3    0  502 -0.18690670839E+03 -0.42442665682E+03 -0.94680177027E+02  0.47332487848E+03  0.25500000920E-02 0.  1.
</event>
<event>
 5   0  0.1476511E-04  0.1303142E+04  0.7818609E-02  0.9027078E-01
       -1   -1    0    0    0  501  0.00000000000E+00  0.00000000000E+00  0.51304640353E+03  0.51304640356E+03  0.50400001928E-02 0. -1.
        1   -1    0    0  501    0  0.00000000000E+00  0.00000000000E+00 -0.82749723947E+03  0.82749723948E+03  0.50400001928E-02 0.  1.
    10030    2    1    2    0    0  0.00000000000E+00  0.00000000000E+00 -0.31445083594E+03  0.13405436430E+04  0.13031415620E+04 0.  0.
        2    1    3    3  502    0  0.36083419686E+03 -0.25619254229E+03 -0.64918628475E+03  0.78567090353E+03  0.25500000920E-02 0.  1.
       -2    1    3    3    0  502 -0.36083419686E+03  0.25619254229E+03  0.33473544881E+03  0.55487273951E+03  0.25500000920E-02 0. -1.
</event>
<event>
 5   0  0.1476511E-04  0.1302446E+04  0.7818609E-02  0.9027628E-01
        1   -1    0    0  501    0  0.00000000000E+00  0.00000000000E+00  0.11623340729E+04  0.11623340729E+04  0.50400001928E-02 0.  1.
       -1   -1    0    0    0  501  0.00000000000E+00  0.00000000000E+00 -0.36486184558E+03  0.36486184561E+03  0.50400001928E-02 0. -1.
    10030    2    1    2    0    0  0.00000000000E+00  0.00000000000E+00  0.79747222735E+03  0.15271959186E+04  0.13024459376E+04 0.  0.
        2    1    3    3  502    0 -0.24329825761E+03 -0.29223211694E+03 -0.22116750362E+03  0.43989625708E+03  0.25500000920E-02 0. -1.
       -2    1    3    3    0  502  0.24329825761E+03  0.29223211694E+03  0.10186397310E+04  0.10872996615E+04  0.25500000920E-02 0.  1.
</event>
<event>
 5   0  0.2794825E-04  0.1298705E+04  0.7818609E-02  0.9030593E-01
        2   -1    0    0  501    0  0.00000000000E+00  0.00000000000E+00  0.16933310613E+04  0.16933310613E+04  0.25500000920E-02 0. -1.
       -2   -1    0    0    0  501  0.00000000000E+00  0.00000000000E+00 -0.24901125874E+03  0.24901125876E+03  0.25500000920E-02 0.  1.
    10030    2    1    2    0    0  0.00000000000E+00  0.00000000000E+00  0.14443198026E+04  0.19423423201E+04  0.12987047379E+04 0.  0.
        1    1    3    3  502    0  0.64071173471E+03  0.30438306680E+02  0.57096016751E+03  0.85873950091E+03  0.50400001928E-02 0. -1.
       -1    1    3    3    0  502 -0.64071173471E+03 -0.30438306680E+02  0.87335963506E+03  0.10836028192E+04  0.50400001928E-02 0.  1.
</event>
<event>
 5   0  0.1479690E-04  0.1299368E+04  0.7818609E-02  0.9030067E-01
        1   -1    0    0  501    0  0.00000000000E+00  0.00000000000E+00  0.82329645274E+03  0.82329645276E+03  0.50400001928E-02 0. -1.
       -1   -1    0    0    0  501  0.00000000000E+00  0.00000000000E+00 -0.51268164464E+03  0.51268164466E+03  0.50400001928E-02 0.  1.
    10030    2    1    2    0    0  0.00000000000E+00  0.00000000000E+00  0.31061480810E+03  0.13359780974E+04  0.12993675068E+04 0.  0.
        1    1    3    3  502    0 -0.63790381381E+03 -0.30895812574E+02  0.27788540774E+03  0.69648842543E+03  0.50400001928E-02 0. -1.
       -1    1    3    3    0  502  0.63790381381E+03  0.30895812574E+02  0.32729400364E+02  0.63948967199E+03  0.50400001928E-02 0.  1.
</event>
<event>
 5   0  0.1408341E-04  0.1299435E+04  0.7818609E-02  0.9030013E-01
       -1   -1    0    0    0  501  0.00000000000E+00  0.00000000000E+00  0.79976222553E+03  0.79976222555E+03  0.50400001928E-02 0.  1.
        1   -1    0    0  501    0  0.00000000000E+00  0.00000000000E+00 -0.52782275253E+03  0.52782275255E+03  0.50400001928E-02 0. -1.
    10030    2    1    2    0    0  0.00000000000E+00  0.00000000000E+00  0.27193947301E+03  0.13275849781E+04  0.12994347991E+04 0.  0.
        5    1    3    3  502    0 -0.46464915623E+03 -0.13002070717E+03 -0.30854940766E+03  0.57273820341E+03  0.46999998093E+01 0. -1.
       -5    1    3    3    0  502  0.46464915623E+03  0.13002070717E+03  0.58048888067E+03  0.75484677469E+03  0.46999998093E+01 0.  1.
</event>
<event>
 5   0  0.1479690E-04  0.1299732E+04  0.7818609E-02  0.9029778E-01
       -1   -1    0    0    0  501  0.00000000000E+00  0.00000000000E+00  0.27970832588E+03  0.27970832592E+03  0.50400001928E-02 0.  1.
        1   -1    0    0  501    0  0.00000000000E+00  0.00000000000E+00 -0.15098781934E+04  0.15098781934E+04  0.50400001928E-02 0. -1.
    10030    2    1    2    0    0  0.00000000000E+00  0.00000000000E+00 -0.12301698675E+04  0.17895865193E+04  0.12997315135E+04 0.  0.
        1    1    3    3  502    0 -0.23081946967E+03 -0.46964691066E+03 -0.84527354176E+02  0.53008557980E+03  0.50400001928E-02 0.  1.
       -1    1    3    3    0  502  0.23081946967E+03  0.46964691066E+03 -0.11456425133E+04  0.12595009395E+04  0.50400001928E-02 0. -1.
</event>
<event>
 5   0  0.1475396E-04  0.1309577E+04  0.7818609E-02  0.9022005E-01
        1   -1    0    0  501    0  0.00000000000E+00  0.00000000000E+00  0.94073042285E+03  0.94073042287E+03  0.50400001928E-02 0.  1.
       -1   -1    0    0    0  501  0.00000000000E+00  0.00000000000E+00 -0.45576064911E+03  0.45576064913E+03  0.50400001928E-02 0. -1.
    10030    2    1    2    0    0  0.00000000000E+00  0.00000000000E+00  0.48496977375E+03  0.13964910720E+04  0.13095768907E+04 0.  0.
        3    1    3    3  502    0 -0.37907224000E+03 -0.15048208864E+03 -0.30376970047E+03  0.50854366898E+03  0.10100000352E+00 0. -1.
       -3    1    3    3    0  502  0.37907224000E+03  0.15048208864E+03  0.78873947421E+03  0.88794740302E+03  0.10100000352E+00 0.  1.
</event>
<event>
 5   0  0.2756984E-04  0.1299460E+04  0.7818609E-02  0.9029994E-01
        2   -1    0    0  501    0  0.00000000000E+00  0.00000000000E+00  0.10658166498E+04  0.10658166498E+04  0.25500000920E-02 0.  1.
       -2   -1    0    0    0  501  0.00000000000E+00  0.00000000000E+00 -0.39608008806E+03  0.39608008807E+03  0.25500000920E-02 0. -1.
    10030    2    1    2    0    0  0.00000000000E+00  0.00000000000E+00  0.66973656173E+03  0.14618967379E+04  0.12994595069E+04 0.  0.
        3    1    3    3  502    0  0.23164685185E+03  0.49995892508E+03 -0.52449350181E+02  0.55350712306E+03  0.10100000352E+00 0. -1.
       -3    1    3    3    0  502 -0.23164685185E+03 -0.49995892508E+03  0.72218591191E+03  0.90838961481E+03  0.10100000352E+00 0.  1.
</event>
<event>
 5   0  0.2794825E-04  0.1299233E+04  0.7818609E-02  0.9030174E-01
       -2   -1    0    0    0  501  0.00000000000E+00  0.00000000000E+00  0.27460614061E+03  0.27460614063E+03  0.25500000920E-02 0.  1.
        2   -1    0    0  501    0  0.00000000000E+00  0.00000000000E+00 -0.15367522847E+04  0.15367522847E+04  0.25500000920E-02 0. -1.
    10030    2    1    2    0    0  0.00000000000E+00  0.00000000000E+00 -0.12621461441E+04  0.18113584254E+04  0.12992330261E+04 0.  0.
        1    1    3    3  502    0  0.58100516886E+03 -0.27700162113E+03 -0.75344885449E+03  0.99095008992E+03  0.50400001928E-02 0. -1.
       -1    1    3    3    0  502 -0.58100516886E+03  0.27700162113E+03 -0.50869728962E+03  0.82040833543E+03  0.50400001928E-02 0.  1.
</event>
<event>
 5   0  0.1002887E-04  0.1297441E+04  0.7818609E-02  0.9031597E-01
        3   -1    0    0  501    0  0.00000000000E+00  0.00000000000E+00  0.54440042928E+03  0.54440043865E+03  0.10100000352E+00 0.  1.
       -3   -1    0    0    0  501  0.00000000000E+00  0.00000000000E+00 -0.77303109530E+03  0.77303110190E+03  0.10100000352E+00 0. -1.
    10030    2    1    2    0    0  0.00000000000E+00  0.00000000000E+00 -0.22863066602E+03  0.13174315405E+04  0.12974412829E+04 0.  0.
        4    1    3    3  502    0 -0.13057675475E+03  0.41633928941E+03  0.37313118367E+03  0.57412297108E+03  0.12699999809E+01 0.  1.
       -4    1    3    3    0  502  0.13057675475E+03 -0.41633928941E+03 -0.60176184969E+03  0.74330856946E+03  0.12699999809E+01 0. -1.
</event>
<event>
 5   0  0.2573071E-04  0.1301401E+04  0.7818609E-02  0.9028455E-01
        2   -1    0    0  501    0  0.00000000000E+00  0.00000000000E+00  0.85246158228E+03  0.85246158229E+03  0.25500000920E-02 0.  1.
       -2   -1    0    0    0  501  0.00000000000E+00  0.00000000000E+00 -0.49669209088E+03  0.49669209089E+03  0.25500000920E-02 0. -1.
    10030    2    1    2    0    0  0.00000000000E+00  0.00000000000E+00  0.35576949140E+03  0.13491536732E+04  0.13014006696E+04 0.  0.
        4    1    3    3  502    0 -0.46493302775E+03 -0.32507235322E+03 -0.15251740389E+03  0.58745036089E+03  0.12699999809E+01 0. -1.
       -4    1    3    3    0  502  0.46493302775E+03  0.32507235322E+03  0.50828689529E+03  0.76170331228E+03  0.12699999809E+01 0.  1.
</event>
<event>
 5   0  0.1476511E-04  0.1300970E+04  0.7818609E-02  0.9028796E-01
       -1   -1    0    0    0  501  0.00000000000E+00  0.00000000000E+00  0.44578077004E+03  0.44578077007E+03  0.50400001928E-02 0. -1.
        1   -1    0    0  501    0  0.00000000000E+00  0.00000000000E+00 -0.94919081851E+03  0.94919081852E+03  0.50400001928E-02 0.  1.
    10030    2    1    2    0    0  0.00000000000E+00  0.00000000000E+00 -0.50341004847E+03  0.13949715886E+04  0.13009704286E+04 0.  0.
        2    1    3    3  502    0 -0.57925972524E+03 -0.24235282092E+03 -0.43384411764E+03  0.76321519738E+03  0.25500000920E-02 0.  1.
       -2    1    3    3    0  502  0.57925972524E+03  0.24235282092E+03 -0.69565930831E+02  0.63175639121E+03  0.25500000920E-02 0. -1.
</event>
<event>
 5   0  0.2661377E-04  0.1299346E+04  0.7818609E-02  0.9030084E-01
       -2   -1    0    0    0  501  0.00000000000E+00  0.00000000000E+00  0.17434969284E+03  0.17434969286E+03  0.25500000920E-02 0.  1.
        2   -1    0    0  501    0  0.00000000000E+00  0.00000000000E+00 -0.24208533035E+04  0.24208533035E+04  0.25500000920E-02 0. -1.
    10030    2    1    2    0    0  0.00000000000E+00  0.00000000000E+00 -0.22465036107E+04  0.25952029964E+04  0.12993460354E+04 0.  0.
        5    1    3    3  502    0  0.17735345092E+03 -0.62438135356E+03 -0.10686765303E+04  0.12503591235E+04  0.46999998093E+01 0.  1.
       -5    1    3    3    0  502 -0.17735345092E+03  0.62438135356E+03 -0.11778270804E+04  0.13448438729E+04  0.46999998093E+01 0. -1.
</event>
<event>
 5   0  0.2661377E-04  0.1298386E+04  0.7818609E-02  0.9030846E-01
        2   -1    0    0  501    0  0.00000000000E+00  0.00000000000E+00  0.83762966982E+03  0.83762966982E+03  0.25500000920E-02 0. -1.
       -2   -1    0    0    0  501  0.00000000000E+00  0.00000000000E+00 -0.50314821741E+03  0.50314821741E+03  0.25500000920E-02 0.  1.
    10030    2    1    2    0    0  0.00000000000E+00  0.00000000000E+00  0.33448145241E+03  0.13407778872E+04  0.12983864990E+04 0.  0.
        5    1    3    3  502    0 -0.19111226042E+02  0.49647800934E+03  0.59870296648E+03  0.77802505409E+03  0.46999998093E+01 0. -1.
       -5    1    3    3    0  502  0.19111226042E+02 -0.49647800934E+03 -0.26422151407E+03  0.56275283315E+03  0.46999998093E+01 0.  1.
</event>
<event>
 5   0  0.2756984E-04  0.1298697E+04  0.7818609E-02  0.9030599E-01
        2   -1    0    0  501    0  0.00000000000E+00  0.00000000000E+00  0.11352983289E+04  0.11352983289E+04  0.25500000920E-02 0. -1.
       -2   -1    0    0    0  501  0.00000000000E+00  0.00000000000E+00 -0.37140308861E+03  0.37140308862E+03  0.25500000920E-02 0.  1.
    10030    2    1    2    0    0  0.00000000000E+00  0.00000000000E+00  0.76389524026E+03  0.15067014175E+04  0.12986967404E+04 0.  0.
        3    1    3    3  502    0  0.42085671936E+03 -0.27314763366E+03 -0.96292379588E+02  0.51088378382E+03  0.10100000352E+00 0.  1.
       -3    1    3    3    0  502 -0.42085671936E+03  0.27314763366E+03  0.86018761985E+03  0.99581763368E+03  0.10100000352E+00 0. -1.
</event>
<event>
 5   0  0.2661377E-04  0.1299974E+04  0.7818609E-02  0.9029586E-01
       -2   -1    0    0    0  501  0.00000000000E+00  0.00000000000E+00  0.80864760566E+03  0.80864760567E+03  0.25500000920E-02 0.  1.
        2   -1    0    0  501    0  0.00000000000E+00  0.00000000000E+00 -0.52245631707E+03  0.52245631707E+03  0.25500000920E-02 0. -1.
    10030    2    1    2    0    0  0.00000000000E+00  0.00000000000E+00  0.28619128860E+03  0.13311039227E+04  0.12999739226E+04 0.  0.
        5    1    3    3  502    0 -0.23788980234E+03  0.35239006517E+02 -0.47520841928E+03  0.53261475513E+03  0.46999998093E+01 0. -1.
       -5    1    3    3    0  502  0.23788980234E+03 -0.35239006517E+02  0.76139970787E+03  0.79848916761E+03  0.46999998093E+01 0.  1.
</event>
<event>
 5   0  0.2723209E-04  0.1299815E+04  0.7818609E-02  0.9029712E-01
       -2   -1    0    0    0  501  0.00000000000E+00  0.00000000000E+00  0.44950763274E+03  0.44950763275E+03  0.25500000920E-02 0.  1.
        2   -1    0    0  501    0  0.00000000000E+00  0.00000000000E+00 -0.93964927769E+03  0.93964927770E+03  0.25500000920E-02 0. -1.
    10030    2    1    2    0    0  0.00000000000E+00  0.00000000000E+00 -0.49014164495E+03  0.13891569104E+04  0.12998146367E+04 0.  0.
        2    1    3    3  502    0 -0.59483921650E+03  0.18269559218E+03 -0.44649169665E+02  0.62386290261E+03  0.25500000920E-02 0.  1.
       -2    1    3    3    0  502  0.59483921650E+03 -0.18269559218E+03 -0.44549247529E+03  0.76529400784E+03  0.25500000920E-02 0. -1.
</event>
<event>
 5   0  0.2661377E-04  0.1301637E+04  0.7818609E-02  0.9028268E-01
        2   -1    0    0  501    0  0.00000000000E+00  0.00000000000E+00  0.72268736915E+03  0.72268736915E+03  0.25500000920E-02 0.  1.
       -2   -1    0    0    0  501  0.00000000000E+00  0.00000000000E+00 -0.58609670036E+03  0.58609670037E+03  0.25500000920E-02 0. -1.
    10030    2    1    2    0    0  0.00000000000E+00  0.00000000000E+00  0.13659066878E+03  0.13087840695E+04  0.13016369424E+04 0.  0.
        5    1    3    3  502    0  0.14423767654E+03  0.25449420898E+03  0.65284001515E+03  0.71539778104E+03  0.46999998093E+01 0.  1.
       -5    1    3    3    0  502 -0.14423767654E+03 -0.25449420898E+03 -0.51624934637E+03  0.59338628848E+03  0.46999998093E+01 0. -1.
</event>
<event>
 5   0  0.2723209E-04  0.1299237E+04  0.7818609E-02  0.9030170E-01
       -2   -1    0    0    0  501  0.00000000000E+00  0.00000000000E+00  0.28036824183E+03  0.28036824184E+03  0.25500000920E-02 0.  1.
        2   -1    0    0  501    0  0.00000000000E+00  0.00000000000E+00 -0.15051784034E+04  0.15051784034E+04  0.25500000920E-02 0. -1.
    10030    2    1    2    0    0  0.00000000000E+00  0.00000000000E+00 -0.12248101615E+04  0.17855466452E+04  0.12992370417E+04 0.  0.
        2    1    3    3  502    0  0.10114681372E+02  0.30812051725E+03 -0.13982422217E+04  0.14318246648E+04  0.25500000920E-02 0. -1.
       -2    1    3    3    0  502 -0.10114681372E+02 -0.30812051725E+03  0.17343206022E+03  0.35372198044E+03  0.25500000920E-02 0.  1.
</event>
<event>
 5   0  0.2573071E-04  0.1300001E+04  0.7818609E-02  0.9029564E-01
       -2   -1    0    0    0  501  0.00000000000E+00  0.00000000000E+00  0.44245371894E+03  0.44245371895E+03  0.25500000920E-02 0.  1.
        2   -1    0    0  501    0  0.00000000000E+00  0.00000000000E+00 -0.95490361947E+03  0.95490361947E+03  0.25500000920E-02 0. -1.
    10030    2    1    2    0    0  0.00000000000E+00  0.00000000000E+00 -0.51244990052E+03  0.13973573384E+04  0.13000010118E+04 0.  0.
        4    1    3    3  502    0 -0.13445862134E+03 -0.43094464147E+03  0.24645871599E+03  0.51433055174E+03  0.12699999809E+01 0.  1.
       -4    1    3    3    0  502  0.13445862134E+03  0.43094464147E+03 -0.75890861652E+03  0.88302678668E+03  0.12699999809E+01 0. -1.
</event>
<event>
 5   0  0.2794825E-04  0.1301954E+04  0.7818609E-02  0.9028017E-01
       -2   -1    0    0    0  501  0.00000000000E+00  0.00000000000E+00  0.16435333054E+03  0.16435333056E+03  0.25500000920E-02 0.  1.
        2   -1    0    0  501    0  0.00000000000E+00  0.00000000000E+00 -0.25784136791E+04  0.25784136791E+04  0.25500000920E-02 0. -1.
    10030    2    1    2    0    0  0.00000000000E+00  0.00000000000E+00 -0.24140603486E+04  0.27427670097E+04  0.13019537253E+04 0.  0.
        1    1    3    3  502    0  0.60265972581E+02  0.45524514780E+03 -0.21790424684E+04  0.22269050746E+04  0.50400001928E-02 0. -1.
       -1    1    3    3    0  502 -0.60265972581E+02 -0.45524514780E+03 -0.23501788016E+03  0.51586193509E+03  0.50400001928E-02 0.  1.
</event>
<event>
 5   0  0.1479690E-04  0.1300286E+04  0.7818609E-02  0.9029338E-01
        1   -1    0    0  501    0  0.00000000000E+00  0.00000000000E+00  0.17647163752E+04  0.17647163752E+04  0.50400001928E-02 0.  1.
       -1   -1    0    0    0  501  0.00000000000E+00  0.00000000000E+00 -0.23952068686E+03  0.23952068691E+03  0.50400001928E-02 0. -1.
    10030    2    1    2    0    0  0.00000000000E+00  0.00000000000E+00  0.15251956884E+04  0.20042370621E+04  0.13002862429E+04 0.  0.
        1    1    3    3  502    0 -0.20789807859E+03 -0.32507529391E+03 -0.43929924725E+02  0.38836245455E+03  0.50400001928E-02 0. -1.
       -1    1    3    3    0  502  0.20789807859E+03  0.32507529391E+03  0.15691256131E+04  0.16158746076E+04  0.50400001928E-02 0.  1.
</event>
<event>
 5   0  0.1408341E-04  0.1297167E+04  0.7818609E-02  0.9031815E-01
        1   -1    0    0  501    0  0.00000000000E+00  0.00000000000E+00  0.10831436952E+04  0.10831436952E+04  0.50400001928E-02 0.  1.
       -1   -1    0    0    0  501  0.00000000000E+00  0.00000000000E+00 -0.38836994900E+03  0.38836994904E+03  0.50400001928E-02 0. -1.
    10030    2    1    2    0    0  0.00000000000E+00  0.00000000000E+00  0.69477374622E+03  0.14715136443E+04  0.12971668539E+04 0.  0.
        5    1    3    3  502    0  0.15422799208E+03 -0.37761072147E+03 -0.22463071964E+03  0.46567926807E+03  0.46999998093E+01 0. -1.
       -5    1    3    3    0  502 -0.15422799208E+03  0.37761072147E+03  0.91940446586E+03  0.10058343762E+04  0.46999998093E+01 0.  1.
</event>
<event>
 5   0  0.1476511E-04  0.1298919E+04  0.7818609E-02  0.9030423E-01
       -1   -1    0    0    0  501  0.00000000000E+00  0.00000000000E+00  0.24211335780E+03  0.24211335786E+03  0.50400001928E-02 0. -1.
        1   -1    0    0  501    0  0.00000000000E+00  0.00000000000E+00 -0.17421491568E+04  0.17421491568E+04  0.50400001928E-02 0.  1.
    10030    2    1    2    0    0  0.00000000000E+00  0.00000000000E+00 -0.15000357990E+04  0.19842625146E+04  0.12989189077E+04 0.  0.
        2    1    3    3  502    0  0.39022227987E+01 -0.40052346118E+03  0.30961182546E+02  0.40173730861E+03  0.25500000920E-02 0. -1.
       -2    1    3    3    0  502 -0.39022227987E+01  0.40052346118E+03 -0.15309969815E+04  0.15825252060E+04  0.25500000920E-02 0.  1.
</event>
<event>
 5   0  0.1408341E-04  0.1298977E+04  0.7818609E-02  0.9030377E-01
        1   -1    0    0  501    0  0.00000000000E+00  0.00000000000E+00  0.16304131252E+04  0.16304131252E+04  0.50400001928E-02 0.  1.
       -1   -1    0    0    0  501  0.00000000000E+00  0.00000000000E+00 -0.25872916234E+03  0.25872916239E+03  0.50400001928E-02 0. -1.
    10030    2    1    2    0    0  0.00000000000E+00  0.00000000000E+00  0.13716839628E+04  0.18891422876E+04  0.12989771702E+04 0.  0.
        5    1    3    3  502    0 -0.43916466888E+03 -0.12746793996E+02 -0.97861831790E+01  0.43948372727E+03  0.46999998093E+01 0. -1.
       -5    1    3    3    0  502  0.43916466888E+03  0.12746793996E+02  0.13814701460E+04  0.14496585603E+04  0.46999998093E+01 0.  1.
</event>
<event>
 5   0  0.2756984E-04  0.1300437E+04  0.7818609E-02  0.9029219E-01
        2   -1    0    0  501    0  0.00000000000E+00  0.00000000000E+00  0.24843321022E+04  0.24843321022E+04  0.25500000920E-02 0.  1.
       -2   -1    0    0    0  501  0.00000000000E+00  0.00000000000E+00 -0.17018024496E+03  0.17018024498E+03  0.25500000920E-02 0. -1.
    10030    2    1    2    0    0  0.00000000000E+00  0.00000000000E+00  0.23141518572E+04  0.26545123472E+04  0.13004372276E+04 0.  0.
        3    1    3    3  502    0  0.13619452112E+03  0.46419002300E+03  0.27021874394E+03  0.55411145522E+03  0.10100000352E+00 0. -1.
       -3    1    3    3    0  502 -0.13619452112E+03 -0.46419002300E+03  0.20439331133E+04  0.21004008919E+04  0.10100000352E+00 0.  1.
</event>
<event>
 5   0  0.2573071E-04  0.1299712E+04  0.7818609E-02  0.9029793E-01
       -2   -1    0    0    0  501  0.00000000000E+00  0.00000000000E+00  0.77496620015E+03  0.77496620016E+03  0.25500000920E-02 0.  1.
        2   -1    0    0  501    0  0.00000000000E+00  0.00000000000E+00 -0.54494372502E+03  0.54494372502E+03  0.25500000920E-02 0. -1.
    10030    2    1    2    0    0  0.00000000000E+00  0.00000000000E+00  0.23002247513E+03  0.13199099252E+04  0.12997122264E+04 0.  0.
        4    1    3    3  502    0  0.24673576955E+03  0.41704234299E+03 -0.32474050499E+03  0.58331883588E+03  0.12699999809E+01 0. -1.
       -4    1    3    3    0  502 -0.24673576955E+03 -0.41704234299E+03  0.55476298012E+03  0.73659108930E+03  0.12699999809E+01 0.  1.
</event>
<event>
 5   0  0.1430636E-04  0.1325946E+04  0.7818609E-02  0.9009239E-01
        1   -1    0    0  501    0  0.00000000000E+00  0.00000000000E+00  0.21265158117E+03  0.21265158123E+03  0.50400001928E-02 0. -1.
       -1   -1    0    0    0  501  0.00000000000E+00  0.00000000000E+00 -0.20669167211E+04  0.20669167211E+04  0.50400001928E-02 0.  1.
    10030    2    1    2    0    0  0.00000000000E+00  0.00000000000E+00 -0.18542651399E+04  0.22795683023E+04  0.13259458646E+04 0.  0.
        4    1    3    3  502    0 -0.41921086358E+03 -0.59525582263E+01 -0.18100699349E+04  0.18579903022E+04  0.12699999809E+01 0.  1.
       -4    1    3    3    0  502  0.41921086358E+03  0.59525582263E+01 -0.44195204996E+02  0.42157800007E+03  0.12699999809E+01 0. -1.
</event>
<event>
 5   0  0.1476511E-04  0.1300055E+04  0.7818609E-02  0.9029521E-01
        1   -1    0    0  501    0  0.00000000000E+00  0.00000000000E+00  0.70207878325E+03  0.70207878327E+03  0.50400001928E-02 0.  1.
       -1   -1    0    0    0  501  0.00000000000E+00  0.00000000000E+00 -0.60183533390E+03  0.60183533392E+03  0.50400001928E-02 0. -1.
    10030    2    1    2    0    0  0.00000000000E+00  0.00000000000E+00  0.10024344935E+03  0.13039141172E+04  0.13000551049E+04 0.  0.
        2    1    3    3  502    0  0.11688161657E+03  0.14018061789E+03  0.67585172418E+03  0.70006247650E+03  0.25500000920E-02 0.  1.
       -2    1    3    3    0  502 -0.11688161657E+03 -0.14018061789E+03 -0.57560827482E+03  0.60385164070E+03  0.25500000920E-02 0. -1.
</event>
<event>
 5   0  0.1476511E-04  0.1301762E+04  0.7818609E-02  0.9028169E-01
       -1   -1    0    0    0  501  0.00000000000E+00  0.00000000000E+00  0.27571287136E+03  0.27571287141E+03  0.50400001928E-02 0. -1.
        1   -1    0    0  501    0  0.00000000000E+00  0.00000000000E+00 -0.15365470126E+04  0.15365470126E+04  0.50400001928E-02 0.  1.
    10030    2    1    2    0    0  0.00000000000E+00  0.00000000000E+00 -0.12608341412E+04  0.18122598840E+04  0.13017615586E+04 0.  0.
        2    1    3    3  502    0 -0.56465171973E+03  0.29541624553E+03 -0.44602309153E+03  0.77784247821E+03  0.25500000920E-02 0. -1.
       -2    1    3    3    0  502  0.56465171973E+03 -0.29541624553E+03 -0.81481104969E+03  0.10344174058E+04  0.25500000920E-02 0.  1.
</event>
<event>
 5   0  0.2723209E-04  0.1300876E+04  0.7818609E-02  0.9028871E-01
        2   -1    0    0  501    0  0.00000000000E+00  0.00000000000E+00  0.15349097250E+04  0.15349097250E+04  0.25500000920E-02 0. -1.
       -2   -1    0    0    0  501  0.00000000000E+00  0.00000000000E+00 -0.27563160398E+03  0.27563160399E+03  0.25500000920E-02 0.  1.
    10030    2    1    2    0    0  0.00000000000E+00  0.00000000000E+00  0.12592781210E+04  0.18105413290E+04  0.13008760579E+04 0.  0.
        2    1    3    3  502    0  0.11922948264E+01  0.52242778411E+03  0.11689223881E+04  0.12803561070E+04  0.25500000920E-02 0. -1.
       -2    1    3    3    0  502 -0.11922948264E+01 -0.52242778411E+03  0.90355732882E+02  0.53018522202E+03  0.25500000920E-02 0.  1.
</event>
<event>
 5   0  0.1479690E-04  0.1298045E+04  0.7818609E-02  0.9031117E-01
       -1   -1    0    0    0  501  0.00000000000E+00  0.00000000000E+00  0.31137393184E+03  0.31137393188E+03  0.50400001928E-02 0.  1.
        1   -1    0    0  501    0  0.00000000000E+00  0.00000000000E+00 -0.13528113118E+04  0.13528113118E+04  0.50400001928E-02 0. -1.
    10030    2    1    2    0    0  0.00000000000E+00  0.00000000000E+00 -0.10414373800E+04  0.16641852437E+04  0.12980449564E+04 0.  0.
        1    1    3    3  502    0  0.40359801934E+03 -0.48925694846E+03 -0.69728384829E+03  0.94258606394E+03  0.50400001928E-02 0.  1.
       -1    1    3    3    0  502 -0.40359801934E+03  0.48925694846E+03 -0.34415353168E+03  0.72159917975E+03  0.50400001928E-02 0. -1.
</event>
<event>
 5   0  0.1430636E-04  0.1300424E+04  0.7818609E-02  0.9029229E-01
        1   -1    0    0  501    0  0.00000000000E+00  0.00000000000E+00  0.60779073091E+03  0.60779073093E+03  0.50400001928E-02 0. -1.
       -1   -1    0    0    0  501  0.00000000000E+00  0.00000000000E+00 -0.69559457302E+03  0.69559457304E+03  0.50400001928E-02 0.  1.
    10030    2    1    2    0    0  0.00000000000E+00  0.00000000000E+00 -0.87803842113E+02  0.13033853040E+04  0.13004244445E+04 0.  0.
        4    1    3    3  502    0 -0.33826309206E+03  0.16967829640E+03 -0.57384169262E+03  0.68739256965E+03  0.12699999809E+01 0.  1.
       -4    1    3    3    0  502  0.33826309206E+03 -0.16967829640E+03  0.48603785050E+03  0.61599273433E+03  0.12699999809E+01 0. -1.
</event>
<event>
 5   0  0.1475396E-04  0.1290934E+04  0.7818609E-02  0.9036786E-01
       -1   -1    0    0    0  501  0.00000000000E+00  0.00000000000E+00  0.85857927062E+03  0.85857927064E+03  0.50400001928E-02 0.  1.
        1   -1    0    0  501    0  0.00000000000E+00  0.00000000000E+00 -0.48525249067E+03  0.48525249070E+03  0.50400001928E-02 0. -1.
    10030    2    1    2    0    0  0.00000000000E+00  0.00000000000E+00  0.37332677995E+03  0.13438317613E+04  0.12909341262E+04 0.  0.
        3    1    3    3  502    0 -0.58524344306E+03 -0.50081213833E+02  0.46522852410E+03  0.74930341348E+03  0.10100000352E+00 0.  1.
       -3    1    3    3    0  502  0.58524344306E+03  0.50081213833E+02 -0.91901744142E+02  0.59452834785E+03  0.10100000352E+00 0. -1.
</event>
<event>
 5   0  0.1430636E-04  0.1298863E+04  0.7818609E-02  0.9030468E-01
       -1   -1    0    0    0  501  0.00000000000E+00  0.00000000000E+00  0.54840064500E+03  0.54840064502E+03  0.50400001928E-02 0. -1.
        1   -1    0    0  501    0  0.00000000000E+00  0.00000000000E+00 -0.76907467793E+03  0.76907467794E+03  0.50400001928E-02 0.  1.
    10030    2    1    2    0    0  0.00000000000E+00  0.00000000000E+00 -0.22067403293E+03  0.13174753230E+04  0.12988626555E+04 0.  0.
        4    1    3    3  502    0  0.22716009156E+03 -0.15403690948E+02 -0.72726352653E+03  0.76207140795E+03  0.12699999809E+01 0.  1.
       -4    1    3    3    0  502 -0.22716009156E+03  0.15403690948E+02  0.50658949360E+03  0.55540391502E+03  0.12699999809E+01 0. -1.
</event>
<event>
 5   0  0.2573071E-04  0.1304320E+04  0.7818609E-02  0.9026146E-01
        2   -1    0    0  501    0  0.00000000000E+00  0.00000000000E+00  0.70166068488E+03  0.70166068489E+03  0.25500000920E-02 0. -1.
       -2   -1    0    0    0  501  0.00000000000E+00  0.00000000000E+00 -0.60615177379E+03  0.60615177379E+03  0.25500000920E-02 0.  1.
    10030    2    1    2    0    0  0.00000000000E+00  0.00000000000E+00  0.95508911096E+02  0.13078124587E+04  0.13043203115E+04 0.  0.
        4    1    3    3  502    0  0.42443956713E+03  0.11540521692E+03 -0.43503646324E+03  0.61864824213E+03  0.12699999809E+01 0.  1.
       -4    1    3    3    0  502 -0.42443956713E+03 -0.11540521692E+03  0.53054537434E+03  0.68916421655E+03  0.12699999809E+01 0. -1.
</event>
<event>
 5   0  0.2723209E-04  0.1296691E+04  0.7818609E-02  0.9032193E-01
        2   -1    0    0  501    0  0.00000000000E+00  0.00000000000E+00  0.59713726397E+03  0.59713726397E+03  0.25500000920E-02 0. -1.
       -2   -1    0    0    0  501  0.00000000000E+00  0.00000000000E+00 -0.70394515068E+03  0.70394515068E+03  0.25500000920E-02 0.  1.
    10030    2    1    2    0    0  0.00000000000E+00  0.00000000000E+00 -0.10680788671E+03  0.13010824147E+04  0.12966909906E+04 0.  0.
        2    1    3    3  502    0  0.28532418691E+02  0.44808950560E+03  0.41589102252E+03  0.61201605090E+03  0.25500000920E-02 0. -1.
       -2    1    3    3    0  502 -0.28532418691E+02 -0.44808950560E+03 -0.52269890923E+03  0.68906636375E+03  0.25500000920E-02 0.  1.
</event>
<event>
 5   0  0.2661377E-04  0.1301468E+04  0.7818609E-02  0.9028402E-01
        2   -1    0    0  501    0  0.00000000000E+00  0.00000000000E+00  0.24755693023E+04  0.24755693023E+04  0.25500000920E-02 0.  1.
       -2   -1    0    0    0  501  0.00000000000E+00  0.00000000000E+00 -0.17105349260E+03  0.17105349262E+03  0.25500000920E-02 0. -1.
    10030    2    1    2    0    0  0.00000000000E+00  0.00000000000E+00  0.23045158097E+04  0.26466227949E+04  0.13014680562E+04 0.  0.
        5    1    3    3  502    0  0.39983032108E+03  0.51331142726E+03  0.11704214690E+04  0.13391271083E+04  0.46999998093E+01 0. -1.
       -5    1    3    3    0  502 -0.39983032108E+03 -0.51331142726E+03  0.11340943407E+04  0.13074956866E+04  0.46999998093E+01 0.  1.
</event>
<event>
 5   0  0.2756984E-04  0.1301047E+04  0.7818609E-02  0.9028735E-01
       -2   -1    0    0    0  501  0.00000000000E+00  0.00000000000E+00  0.38319012040E+03  0.38319012041E+03  0.25500000920E-02 0. -1.
        2   -1    0    0  501    0  0.00000000000E+00  0.00000000000E+00 -0.11043629560E+04  0.11043629560E+04  0.25500000920E-02 0.  1.
    10030    2    1    2    0    0  0.00000000000E+00  0.00000000000E+00 -0.72117283558E+03  0.14875530764E+04  0.13010472306E+04 0.  0.
        3    1    3    3  502    0  0.27810586192E+03 -0.57980851148E+03 -0.24821079931E+03  0.68929630168E+03  0.10100000352E+00 0.  1.
       -3    1    3    3    0  502 -0.27810586192E+03  0.57980851148E+03 -0.47296203627E+03  0.79825677471E+03  0.10100000352E+00 0. -1.
</event>
<event>
 5   0  0.2794825E-04  0.1299240E+04  0.7818609E-02  0.9030168E-01
        2   -1    0    0  501    0  0.00000000000E+00  0.00000000000E+00  0.25078069299E+04  0.25078069299E+04  0.25500000920E-02 0.  1.
       -2   -1    0    0    0  501  0.00000000000E+00  0.00000000000E+00 -0.16827703611E+03  0.16827703613E+03  0.25500000920E-02 0. -1.
    10030    2    1    2    0    0  0.00000000000E+00  0.00000000000E+00  0.23395298938E+04  0.26760839660E+04  0.12992402662E+04 0.  0.
        1    1    3    3  502    0 -0.33710871022E+03 -0.42806068810E+03  0.44116747817E+03  0.70107558724E+03  0.50400001928E-02 0. -1.
       -1    1    3    3    0  502  0.33710871022E+03  0.42806068810E+03  0.18983624156E+04  0.19750083788E+04  0.50400001928E-02 0.  1.
</event>
<event>
 5   0  0.1475396E-04  0.1266427E+04  0.7818609E-02  0.9056621E-01
       -1   -1    0    0    0  501  0.00000000000E+00  0.00000000000E+00  0.85753067045E+03  0.85753067046E+03  0.50400001928E-02 0. -1.
        1   -1    0    0  501    0  0.00000000000E+00  0.00000000000E+00 -0.46757440784E+03  0.46757440787E+03  0.50400001928E-02 0.  1.
    10030    2    1    2    0    0  0.00000000000E+00  0.00000000000E+00  0.38995626260E+03  0.13251050783E+04  0.12664270930E+04 0.  0.
        3    1    3    3  502    0  0.39878036894E+03  0.47314389979E+03  0.33562517471E+03  0.70394261177E+03  0.10100000352E+00 0. -1.
       -3    1    3    3    0  502 -0.39878036894E+03 -0.47314389979E+03  0.54331087893E+02  0.62116246657E+03  0.10100000352E+00 0.  1.
</event>
<event>
 5   0  0.1475396E-04  0.1309529E+04  0.7818609E-02  0.9022043E-01
        1   -1    0    0  501    0  0.00000000000E+00  0.00000000000E+00  0.11489951983E+04  0.11489951983E+04  0.50400001928E-02 0. -1.
       -1   -1    0    0    0  501  0.00000000000E+00  0.00000000000E+00 -0.37312273576E+03  0.37312273579E+03  0.50400001928E-02 0.  1.
    10030    2    1    2    0    0  0.00000000000E+00  0.00000000000E+00  0.77587246250E+03  0.15221179341E+04  0.13095285133E+04 0.  0.
        3    1    3    3  502    0 -0.51614603504E+02  0.10947234922E+03 -0.36000789643E+03  0.37980779117E+03  0.10100000352E+00 0.  1.
       -3    1    3    3    0  502  0.51614603504E+02 -0.10947234922E+03  0.11358803589E+04  0.11423101429E+04  0.10100000352E+00 0. -1.
</event>
<event>
 5   0  0.2661377E-04  0.1302707E+04  0.7818609E-02  0.9027421E-01
        2   -1    0    0  501    0  0.00000000000E+00  0.00000000000E+00  0.66348660744E+03  0.66348660744E+03  0.25500000920E-02 0.  1.
       -2   -1    0    0    0  501  0.00000000000E+00  0.00000000000E+00 -0.63944235504E+03  0.63944235505E+03  0.25500000920E-02 0. -1.
    10030    2    1    2    0    0  0.00000000000E+00  0.00000000000E+00  0.24044252395E+02  0.13029289625E+04  0.13027070873E+04 0.  0.
        5    1    3    3  502    0  0.23635955189E+03  0.53950998175E+03  0.29010273496E+03  0.65659618108E+03  0.46999998093E+01 0.  1.
       -5    1    3    3    0  502 -0.23635955189E+03 -0.53950998175E+03 -0.26605848257E+03  0.64633278141E+03  0.46999998093E+01 0. -1.
</event>
<event>
 5   0  0.1430636E-04  0.1299341E+04  0.7818609E-02  0.9030088E-01
        1   -1    0    0  501    0  0.00000000000E+00  0.00000000000E+00  0.12607208912E+04  0.12607208912E+04  0.50400001928E-02 0. -1.
       -1   -1    0    0    0  501  0.00000000000E+00  0.00000000000E+00 -0.33478628011E+03  0.33478628015E+03  0.50400001928E-02 0.  1.
    10030    2    1    2    0    0  0.00000000000E+00  0.00000000000E+00  0.92593461109E+03  0.15955071714E+04  0.12993414601E+04 0.  0.
        4    1    3    3  502    0  0.21591159016E+03 -0.44618362611E+03  0.97866034663E+03  0.10970302320E+04  0.12699999809E+01 0. -1.
       -4    1    3    3    0  502 -0.21591159016E+03  0.44618362611E+03 -0.52725735548E+02  0.49847693935E+03  0.12699999809E+01 0.  1.
</event>
<event>
 5   0  0.2794825E-04  0.1298482E+04  0.7818609E-02  0.9030770E-01
       -2   -1    0    0    0  501  0.00000000000E+00  0.00000000000E+00  0.24402120869E+03  0.24402120871E+03  0.25500000920E-02 0.  1.
        2   -1    0    0  501    0  0.00000000000E+00  0.00000000000E+00 -0.17273654304E+04  0.17273654304E+04  0.25500000920E-02 0. -1.
    10030    2    1    2    0    0  0.00000000000E+00  0.00000000000E+00 -0.14833442217E+04  0.19713866391E+04  0.12984818831E+04 0.  0.
        1    1    3    3  502    0 -0.36886996192E+02 -0.60479834998E+03 -0.10956890068E+04  0.12520687258E+04  0.50400001928E-02 0. -1.
       -1    1    3    3    0  502  0.36886996192E+02  0.60479834998E+03 -0.38765521489E+03  0.71931791322E+03  0.50400001928E-02 0.  1.
</event>
<event>
 5   0  0.2756984E-04  0.1303398E+04  0.7818609E-02  0.9026875E-01
       -2   -1    0    0    0  501  0.00000000000E+00  0.00000000000E+00  0.25845735980E+03  0.25845735981E+03  0.25500000920E-02 0. -1.
        2   -1    0    0  501    0  0.00000000000E+00  0.00000000000E+00 -0.16432548242E+04  0.16432548242E+04  0.25500000920E-02 0.  1.
    10030    2    1    2    0    0  0.00000000000E+00  0.00000000000E+00 -0.13847974644E+04  0.19017121840E+04  0.13033975654E+04 0.  0.
        3    1    3    3  502    0 -0.47337676078E+03 -0.29949003962E+03 -0.11783528110E+04  0.13047203527E+04  0.10100000352E+00 0.  1.
       -3    1    3    3    0  502  0.47337676078E+03  0.29949003962E+03 -0.20644465339E+03  0.59699183126E+03  0.10100000352E+00 0. -1.
</event>
<event>
 5   0  0.1475396E-04  0.1298310E+04  0.7818609E-02  0.9030907E-01
        1   -1    0    0  501    0  0.00000000000E+00  0.00000000000E+00  0.13218835400E+04  0.13218835401E+04  0.50400001928E-02 0.  1.
       -1   -1    0    0    0  501  0.00000000000E+00  0.00000000000E+00 -0.31878899847E+03  0.31878899851E+03  0.50400001928E-02 0. -1.
    10030    2    1    2    0    0  0.00000000000E+00  0.00000000000E+00  0.10030945416E+04  0.16406725386E+04  0.12983095623E+04 0.  0.
        3    1    3    3  502    0  0.44302689717E+02  0.62474385972E+03  0.71724518988E+03  0.95221231413E+03  0.10100000352E+00 0. -1.
       -3    1    3    3    0  502 -0.44302689717E+02 -0.62474385972E+03  0.28584935168E+03  0.68846022443E+03  0.10100000352E+00 0.  1.
</event>
<event>
 5   0  0.2756984E-04  0.1300472E+04  0.7818609E-02  0.9029191E-01
        2   -1    0    0  501    0  0.00000000000E+00  0.00000000000E+00  0.76392033191E+03  0.76392033192E+03  0.25500000920E-02 0. -1.
       -2   -1    0    0    0  501  0.00000000000E+00  0.00000000000E+00 -0.55346996536E+03  0.55346996536E+03  0.25500000920E-02 0.  1.
    10030    2    1    2    0    0  0.00000000000E+00  0.00000000000E+00  0.21045036656E+03  0.13173902973E+04  0.13004721599E+04 0.  0.
        3    1    3    3  502    0  0.51723202101E+03 -0.30825510497E+03 -0.14344078172E+03  0.61897127668E+03  0.10100000352E+00 0.  1.
       -3    1    3    3    0  502 -0.51723202101E+03  0.30825510497E+03  0.35389114828E+03  0.69841902060E+03  0.10100000352E+00 0. -1.
</event>
<event>
 5   0  0.2794825E-04  0.1299348E+04  0.7818609E-02  0.9030082E-01
       -2   -1    0    0    0  501  0.00000000000E+00  0.00000000000E+00  0.65229758113E+03  0.65229758114E+03  0.25500000920E-02 0.  1.
        2   -1    0    0  501    0  0.00000000000E+00  0.00000000000E+00 -0.64706102535E+03  0.64706102535E+03  0.25500000920E-02 0. -1.
    10030    2    1    2    0    0  0.00000000000E+00  0.00000000000E+00  0.52365557856E+01  0.12993586065E+04  0.12993480545E+04 0.  0.
        1    1    3    3  502    0  0.24525091130E+03 -0.23204958706E+03  0.55767352306E+03  0.65191623595E+03  0.50400001928E-02 0.  1.
       -1    1    3    3    0  502 -0.24525091130E+03  0.23204958706E+03 -0.55243696727E+03  0.64744237055E+03  0.50400001928E-02 0. -1.
</event>
<event>
 5   0  0.1476511E-04  0.1297784E+04  0.7818609E-02  0.9031324E-01
       -1   -1    0    0    0  501  0.00000000000E+00  0.00000000000E+00  0.34424329785E+03  0.34424329788E+03  0.50400001928E-02 0.  1.
        1   -1    0    0  501    0  0.00000000000E+00  0.00000000000E+00 -0.12231496024E+04  0.12231496024E+04  0.50400001928E-02 0. -1.
    10030    2    1    2    0    0  0.00000000000E+00  0.00000000000E+00 -0.87890630456E+03  0.15673929003E+04  0.12977843472E+04 0.  0.
        2    1    3    3  502    0  0.43614440307E+03 -0.35929512006E+02  0.13919193860E+03  0.45922463560E+03  0.25500000920E-02 0.  1.
       -2    1    3    3    0  502 -0.43614440307E+03  0.35929512006E+02 -0.10180982432E+04  0.11081682647E+04  0.25500000920E-02 0. -1.
</event>
<event>
 5   0  0.2573071E-04  0.1299027E+04  0.7818609E-02  0.9030337E-01
        2   -1    0    0  501    0  0.00000000000E+00  0.00000000000E+00  0.94999872324E+03  0.94999872324E+03  0.25500000920E-02 0.  1.
       -2   -1    0    0    0  501  0.00000000000E+00  0.00000000000E+00 -0.44407211641E+03  0.44407211641E+03  0.25500000920E-02 0. -1.
    10030    2    1    2    0    0  0.00000000000E+00  0.00000000000E+00  0.50592660683E+03  0.13940708397E+04  0.12990272416E+04 0.  0.
        4    1    3    3  502    0  0.37866758742E+03 -0.40971559276E+02 -0.31164656731E+03  0.49213108645E+03  0.12699999809E+01 0. -1.
       -4    1    3    3    0  502 -0.37866758742E+03  0.40971559276E+02  0.81757317415E+03  0.90193975321E+03  0.12699999809E+01 0.  1.
</event>
<event>
 5   0  0.2723209E-04  0.1299420E+04  0.7818609E-02  0.9030025E-01
       -2   -1    0    0    0  501  0.00000000000E+00  0.00000000000E+00  0.50361282971E+03  0.50361282972E+03  0.25500000920E-02 0. -1.
        2   -1    0    0  501    0  0.00000000000E+00  0.00000000000E+00 -0.83818948251E+03  0.83818948251E+03  0.25500000920E-02 0.  1.
    10030    2    1    2    0    0  0.00000000000E+00  0.00000000000E+00 -0.33457665280E+03  0.13418023122E+04  0.12994198354E+04 0.  0.
        2    1    3    3  502    0 -0.15570535343E+03  0.24381101113E+03  0.43343802922E+03  0.52111082450E+03  0.25500000920E-02 0. -1.
       -2    1    3    3    0  502  0.15570535343E+03 -0.24381101113E+03 -0.76801468201E+03  0.82069148773E+03  0.25500000920E-02 0.  1.
</event>
<event>
 5   0  0.1475396E-04  0.1288399E+04  0.7818609E-02  0.9038816E-01
        1   -1    0    0  501    0  0.00000000000E+00  0.00000000000E+00  0.64494388732E+03  0.64494388734E+03  0.50400001928E-02 0. -1.
       -1   -1    0    0    0  501  0.00000000000E+00  0.00000000000E+00 -0.64345563220E+03  0.64345563222E+03  0.50400001928E-02 0.  1.
    10030    2    1    2    0    0  0.00000000000E+00  0.00000000000E+00  0.14882551235E+01  0.12883995196E+04  0.12883986600E+04 0.  0.
        3    1    3    3  502    0 -0.13610445257E+03  0.61381857152E+03  0.14108347377E+03  0.64436186846E+03  0.10100000352E+00 0. -1.
       -3    1    3    3    0  502  0.13610445257E+03 -0.61381857152E+03 -0.13959521865E+03  0.64403765109E+03  0.10100000352E+00 0.  1.
</event>
<event>
 5   0  0.1430636E-04  0.1299053E+04  0.7818609E-02  0.9030316E-01
        1   -1    0    0  501    0  0.00000000000E+00  0.00000000000E+00  0.10301094119E+04  0.10301094119E+04  0.50400001928E-02 0. -1.
       -1   -1    0    0    0  501  0.00000000000E+00  0.00000000000E+00 -0.40955334677E+03  0.40955334680E+03  0.50400001928E-02 0.  1.
    10030    2    1    2    0    0  0.00000000000E+00  0.00000000000E+00  0.62055606512E+03  0.14396627587E+04  0.12990531278E+04 0.  0.
        4    1    3    3  502    0 -0.71480848096E+02 -0.15957947617E+02  0.10255171421E+04  0.10281299477E+04  0.12699999809E+01 0. -1.
       -4    1    3    3    0  502  0.71480848096E+02  0.15957947617E+02 -0.40496107699E+03  0.41153281098E+03  0.12699999809E+01 0.  1.
</event>
<event>
 5   0  0.1408341E-04  0.1299648E+04  0.7818609E-02  0.9029844E-01
       -1   -1    0    0    0  501  0.00000000000E+00  0.00000000000E+00  0.72142209405E+03  0.72142209407E+03  0.50400001928E-02 0. -1.
        1   -1    0    0  501    0  0.00000000000E+00  0.00000000000E+00 -0.58533196477E+03  0.58533196479E+03  0.50400001928E-02 0.  1.
    10030    2    1    2    0    0  0.00000000000E+00  0.00000000000E+00  0.13609012928E+03  0.13067540589E+04  0.12996482782E+04 0.  0.
        5    1    3    3  502    0 -0.19990770825E+03 -0.58642252709E+03  0.26506243026E+03  0.67389513578E+03  0.46999998093E+01 0.  1.
       -5    1    3    3    0  502  0.19990770825E+03  0.58642252709E+03 -0.12897230098E+03  0.63285892308E+03  0.46999998093E+01 0. -1.
</event>
<event>
 5   0  0.1430636E-04  0.1299808E+04  0.7818609E-02  0.9029718E-01
       -1   -1    0    0    0  501  0.00000000000E+00  0.00000000000E+00  0.14447558730E+04  0.14447558730E+04  0.50400001928E-02 0.  1.
        1   -1    0    0  501    0  0.00000000000E+00  0.00000000000E+00 -0.29235051954E+03  0.29235051958E+03  0.50400001928E-02 0. -1.
    10030    2    1    2    0    0  0.00000000000E+00  0.00000000000E+00  0.11524053534E+04  0.17371063926E+04  0.12998078783E+04 0.  0.
        4    1    3    3  502    0 -0.39362377149E+03  0.13811078732E+03 -0.89817562783E+02  0.42671192923E+03  0.12699999809E+01 0. -1.
       -4    1    3    3    0  502  0.39362377149E+03 -0.13811078732E+03  0.12422229162E+04  0.13103944633E+04  0.12699999809E+01 0.  1.
</event>
<event>
 5   0  0.1479690E-04  0.1298969E+04  0.7818609E-02  0.9030383E-01
        1   -1    0    0  501    0  0.00000000000E+00  0.00000000000E+00  0.73203681830E+03  0.73203681832E+03  0.50400001928E-02 0.  1.
       -1   -1    0    0    0  501  0.00000000000E+00  0.00000000000E+00 -0.57624207885E+03  0.57624207887E+03  0.50400001928E-02 0. -1.
    10030    2    1    2    0    0  0.00000000000E+00  0.00000000000E+00  0.15579473945E+03  0.13082788972E+04  0.12989694654E+04 0.  0.
        1    1    3    3  502    0  0.58172867820E+03  0.15713076850E+03  0.32198125148E+03  0.68320586925E+03  0.50400001928E-02 0. -1.
       -1    1    3    3    0  502 -0.58172867820E+03 -0.15713076850E+03 -0.16618651203E+03  0.62507302793E+03  0.50400001928E-02 0.  1.
</event>
<event>
 5   0  0.2661377E-04  0.1300011E+04  0.7818609E-02  0.9029556E-01
        2   -1    0    0  501    0  0.00000000000E+00  0.00000000000E+00  0.15023793553E+04  0.15023793553E+04  0.25500000920E-02 0. -1.
       -2   -1    0    0    0  501  0.00000000000E+00  0.00000000000E+00 -0.28122544932E+03  0.28122544933E+03  0.25500000920E-02 0.  1.
    10030    2    1    2    0    0  0.00000000000E+00  0.00000000000E+00  0.12211539060E+04  0.17836048046E+04  0.13000112449E+04 0.  0.
        5    1    3    3  502    0  0.26705702234E+03  0.42793603840E+03  0.48166537241E+02  0.50674531221E+03  0.46999998093E+01 0.  1.
       -5    1    3    3    0  502 -0.26705702234E+03 -0.42793603840E+03  0.11729873687E+04  0.12768594924E+04  0.46999998093E+01 0. -1.
</event>
<event>
 5   0  0.1430636E-04  0.1300032E+04  0.7818609E-02  0.9029539E-01
        1   -1    0    0  501    0  0.00000000000E+00  0.00000000000E+00  0.11903594917E+04  0.11903594917E+04  0.50400001928E-02 0. -1.
       -1   -1    0    0    0  501  0.00000000000E+00  0.00000000000E+00 -0.35495251672E+03  0.35495251675E+03  0.50400001928E-02 0.  1.
    10030    2    1    2    0    0  0.00000000000E+00  0.00000000000E+00  0.83540697501E+03  0.15453120085E+04  0.13000324572E+04 0.  0.
        4    1    3    3  502    0  0.37284738393E+03 -0.29464709913E+03  0.94487296087E+03  0.10576476775E+04  0.12699999809E+01 0. -1.
       -4    1    3    3    0  502 -0.37284738393E+03  0.29464709913E+03 -0.10946598586E+03  0.48766433096E+03  0.12699999809E+01 0.  1.
</event>
<event>
 5   0  0.1002887E-04  0.1300112E+04  0.7818609E-02  0.9029477E-01
        4   -1    0    0  501    0  0.00000000000E+00  0.00000000000E+00  0.39838717961E+03  0.39838920389E+03  0.12699999809E+01 0.  1.
       -4   -1    0    0    0  501  0.00000000000E+00  0.00000000000E+00 -0.10607033582E+04  0.10607041185E+04  0.12699999809E+01 0. -1.
    10030    2    1    2    0    0  0.00000000000E+00  0.00000000000E+00 -0.66231617863E+03  0.14590933224E+04  0.13001117656E+04 0.  0.
        5    1    3    3  502    0 -0.93421850611E+02 -0.62739838400E+03 -0.17167466160E+03  0.65715344772E+03  0.46999998093E+01 0.  1.
       -5    1    3    3    0  502  0.93421850611E+02  0.62739838400E+03 -0.49064151703E+03  0.80193987471E+03  0.46999998093E+01 0. -1.
</event>
<event>
 5   0  0.2756984E-04  0.1300567E+04  0.7818609E-02  0.9029116E-01
       -2   -1    0    0    0  501  0.00000000000E+00  0.00000000000E+00  0.34741738736E+03  0.34741738737E+03  0.25500000920E-02 0. -1.
        2   -1    0    0  501    0  0.00000000000E+00  0.00000000000E+00 -0.12171777646E+04  0.12171777646E+04  0.25500000920E-02 0.  1.
    10030    2    1    2    0    0  0.00000000000E+00  0.00000000000E+00 -0.86976037727E+03  0.15645951520E+04  0.13005671362E+04 0.  0.
        3    1    3    3  502    0 -0.13649122889E+02  0.34314945138E+03  0.22942844511E+03  0.41300758608E+03  0.10100000352E+00 0. -1.
       -3    1    3    3    0  502  0.13649122889E+02 -0.34314945138E+03 -0.10991888224E+04  0.11515875659E+04  0.10100000352E+00 0.  1.
</event>
<event>
 5   0  0.2756984E-04  0.1301008E+04  0.7818609E-02  0.9028766E-01
       -2   -1    0    0    0  501  0.00000000000E+00  0.00000000000E+00  0.61013403379E+03  0.61013403379E+03  0.25500000920E-02 0.  1.
        2   -1    0    0  501    0  0.00000000000E+00  0.00000000000E+00 -0.69354503884E+03  0.69354503885E+03  0.25500000920E-02 0. -1.
    10030    2    1    2    0    0  0.00000000000E+00  0.00000000000E+00 -0.83411005055E+02  0.13036790726E+04  0.13010079664E+04 0.  0.
        3    1    3    3  502    0  0.18302345465E+03  0.11383771447E+03 -0.65672355449E+03  0.69118915458E+03  0.10100000352E+00 0. -1.
       -3    1    3    3    0  502 -0.18302345465E+03 -0.11383771447E+03  0.57331254943E+03  0.61248991806E+03  0.10100000352E+00 0.  1.
</event>
<event>
 5   0  0.1408341E-04  0.1300682E+04  0.7818609E-02  0.9029024E-01
        1   -1    0    0  501    0  0.00000000000E+00  0.00000000000E+00  0.10493590990E+04  0.10493590990E+04  0.50400001928E-02 0.  1.
       -1   -1    0    0    0  501  0.00000000000E+00  0.00000000000E+00 -0.40304930111E+03  0.40304930114E+03  0.50400001928E-02 0. -1.
    10030    2    1    2    0    0  0.00000000000E+00  0.00000000000E+00  0.64630979787E+03  0.14524084001E+04  0.13006820541E+04 0.  0.
        5    1    3    3  502    0  0.47537036217E+02 -0.46910478689E+03  0.82328794083E+03  0.94875929214E+03  0.46999998093E+01 0.  1.
       -5    1    3    3    0  502 -0.47537036217E+02  0.46910478689E+03 -0.17697814296E+03  0.50364910799E+03  0.46999998093E+01 0. -1.
</event>
<event>
 5   0  0.2661377E-04  0.1301344E+04  0.7818609E-02  0.9028500E-01
        2   -1    0    0  501    0  0.00000000000E+00  0.00000000000E+00  0.11981158348E+04  0.11981158348E+04  0.25500000920E-02 0. -1.
       -2   -1    0    0    0  501  0.00000000000E+00  0.00000000000E+00 -0.35336662381E+03  0.35336662382E+03  0.25500000920E-02 0.  1.
    10030    2    1    2    0    0  0.00000000000E+00  0.00000000000E+00  0.84474921095E+03  0.15514824586E+04  0.13013441474E+04 0.  0.
        5    1    3    3  502    0  0.23268518145E+03  0.99051285611E+02  0.11371059699E+04  0.11648972605E+04  0.46999998093E+01 0. -1.
       -5    1    3    3    0  502 -0.23268518145E+03 -0.99051285611E+02 -0.29235675894E+03  0.38658519804E+03  0.46999998093E+01 0.  1.
</event>
<event>
 5   0  0.2756984E-04  0.1299540E+04  0.7818609E-02  0.9029930E-01
       -2   -1    0    0    0  501  0.00000000000E+00  0.00000000000E+00  0.65586769630E+03  0.65586769630E+03  0.25500000920E-02 0.  1.
        2   -1    0    0  501    0  0.00000000000E+00  0.00000000000E+00 -0.64372859477E+03  0.64372859477E+03  0.25500000920E-02 0. -1.
    10030    2    1    2    0    0  0.00000000000E+00  0.00000000000E+00  0.12139101528E+02  0.12995962911E+04  0.12995395962E+04 0.  0.
        3    1    3    3  502    0 -0.47252281702E+02  0.22983337513E+02  0.65373950290E+03  0.65584781755E+03  0.10100000352E+00 0.  1.
       -3    1    3    3    0  502  0.47252281702E+02 -0.22983337513E+02 -0.64160040137E+03  0.64374847353E+03  0.10100000352E+00 0. -1.
</event>
<event>
 5   0  0.1475396E-04  0.1302133E+04  0.7818609E-02  0.9027876E-01
        1   -1    0    0  501    0  0.00000000000E+00  0.00000000000E+00  0.12176505175E+04  0.12176505175E+04  0.50400001928E-02 0.  1.
       -1   -1    0    0    0  501  0.00000000000E+00  0.00000000000E+00 -0.34811915522E+03  0.34811915526E+03  0.50400001928E-02 0. -1.
    10030    2    1    2    0    0  0.00000000000E+00  0.00000000000E+00  0.86953136225E+03  0.15657696727E+04  0.13021328189E+04 0.  0.
        3    1    3    3  502    0  0.46136067041E+03  0.45846090654E+03  0.46976937079E+03  0.80232371457E+03  0.10100000352E+00 0. -1.
       -3    1    3    3    0  502 -0.46136067041E+03 -0.45846090654E+03  0.39976199146E+03  0.76344595817E+03  0.10100000352E+00 0.  1.
</event>
<event>
 5   0  0.1475396E-04  0.1283539E+04  0.7818609E-02  0.9042722E-01
        1   -1    0    0  501    0  0.00000000000E+00  0.00000000000E+00  0.10105634174E+04  0.10105634174E+04  0.50400001928E-02 0. -1.
       -1   -1    0    0    0  501  0.00000000000E+00  0.00000000000E+00 -0.40756296894E+03  0.40756296897E+03  0.50400001928E-02 0.  1.
    10030    2    1    2    0    0  0.00000000000E+00  0.00000000000E+00  0.60300044848E+03  0.14181263864E+04  0.12835392113E+04 0.  0.
        3    1    3    3  502    0 -0.19703418800E+03 -0.18967222335E+03 -0.33995444685E+03  0.43631073753E+03  0.10100000352E+00 0.  1.
       -3    1    3    3    0  502  0.19703418800E+03  0.18967222335E+03  0.94295489533E+03  0.98181564888E+03  0.10100000352E+00 0. -1.
</event>
<event>
 5   0  0.1430636E-04  0.1303700E+04  0.7818609E-02  0.9026636E-01
        1   -1    0    0  501    0  0.00000000000E+00  0.00000000000E+00  0.46051906033E+03  0.46051906036E+03  0.50400001928E-02 0. -1.
       -1   -1    0    0    0  501  0.00000000000E+00  0.00000000000E+00 -0.92267264108E+03  0.92267264110E+03  0.50400001928E-02 0.  1.
    10030    2    1    2    0    0  0.00000000000E+00  0.00000000000E+00 -0.46215358075E+03  0.13831917015E+04  0.13036998699E+04 0.  0.
        4    1    3    3  502    0  0.18598322753E+02 -0.42276376668E+03  0.29496909535E+03  0.51583280250E+03  0.12699999809E+01 0. -1.
       -4    1    3    3    0  502 -0.18598322753E+02  0.42276376668E+03 -0.75712267610E+03  0.86735889895E+03  0.12699999809E+01 0.  1.
</event>
<event>
 5   0  0.2794825E-04  0.1295609E+04  0.7818609E-02  0.9033055E-01
       -2   -1    0    0    0  501  0.00000000000E+00  0.00000000000E+00  0.86726640134E+03  0.86726640135E+03  0.25500000920E-02 0. -1.
        2   -1    0    0  501    0  0.00000000000E+00  0.00000000000E+00 -0.48387734150E+03  0.48387734151E+03  0.25500000920E-02 0.  1.
    10030    2    1    2    0    0  0.00000000000E+00  0.00000000000E+00  0.38338905984E+03  0.13511437429E+04  0.12956088309E+04 0.  0.
        1    1    3    3  502    0 -0.36301772967E+03 -0.46781572595E+02  0.74909548046E+03  0.83373522563E+03  0.50400001928E-02 0. -1.
       -1    1    3    3    0  502  0.36301772967E+03  0.46781572595E+02 -0.36570642061E+03  0.51740851722E+03  0.50400001928E-02 0.  1.
</event>
<event>
 5   0  0.1002887E-04  0.1301336E+04  0.7818609E-02  0.9028506E-01
        4   -1    0    0  501    0  0.00000000000E+00  0.00000000000E+00  0.37654148372E+03  0.37654362544E+03  0.12699999809E+01 0.  1.
       -4   -1    0    0    0  501  0.00000000000E+00  0.00000000000E+00 -0.11243563895E+04  0.11243571067E+04  0.12699999809E+01 0. -1.
    10030    2    1    2    0    0  0.00000000000E+00  0.00000000000E+00 -0.74781490576E+03  0.15009007322E+04  0.13013361881E+04 0.  0.
        3    1    3    3  502    0  0.49739987944E+02  0.59999044852E+03 -0.89268873858E+02  0.60863087890E+03  0.10100000352E+00 0.  1.
       -3    1    3    3    0  502 -0.49739987944E+02 -0.59999044852E+03 -0.65854603190E+03  0.89226985326E+03  0.10100000352E+00 0. -1.
</event>
<event>
 5   0  0.2723209E-04  0.1299855E+04  0.7818609E-02  0.9029681E-01
        2   -1    0    0  501    0  0.00000000000E+00  0.00000000000E+00  0.12420115419E+04  0.12420115419E+04  0.25500000920E-02 0.  1.
       -2   -1    0    0    0  501  0.00000000000E+00  0.00000000000E+00 -0.34009784399E+03  0.34009784400E+03  0.25500000920E-02 0. -1.
    10030    2    1    2    0    0  0.00000000000E+00  0.00000000000E+00  0.90191369786E+03  0.15821093859E+04  0.12998545266E+04 0.  0.
        2    1    3    3  502    0  0.53673107920E+03 -0.14309547680E+03  0.86163929378E+03  0.10251725901E+04  0.25500000920E-02 0.  1.
       -2    1    3    3    0  502 -0.53673107920E+03  0.14309547680E+03  0.40274404082E+02  0.55693679578E+03  0.25500000920E-02 0. -1.
</event>
<event>
 5   0  0.2756984E-04  0.1299475E+04  0.7818609E-02  0.9029982E-01
       -2   -1    0    0    0  501  0.00000000000E+00  0.00000000000E+00  0.18183491893E+03  0.18183491895E+03  0.25500000920E-02 0. -1.
        2   -1    0    0  501    0  0.00000000000E+00  0.00000000000E+00 -0.23216601524E+04  0.23216601524E+04  0.25500000920E-02 0.  1.
    10030    2    1    2    0    0  0.00000000000E+00  0.00000000000E+00 -0.21398252335E+04  0.25034950713E+04  0.12994751027E+04 0.  0.
        3    1    3    3  502    0  0.46969959932E+03 -0.48506677968E+02 -0.19297387702E+04  0.19866711713E+04  0.10100000352E+00 0.  1.
       -3    1    3    3    0  502 -0.46969959932E+03  0.48506677968E+02 -0.21008646324E+03  0.51682390003E+03  0.10100000352E+00 0. -1.
</event>
<event>
 5   0  0.1476511E-04  0.1295851E+04  0.7818609E-02  0.9032862E-01
        1   -1    0    0  501    0  0.00000000000E+00  0.00000000000E+00  0.67657626749E+03  0.67657626751E+03  0.50400001928E-02 0. -1.
       -1   -1    0    0    0  501  0.00000000000E+00  0.00000000000E+00 -0.62048806847E+03  0.62048806850E+03  0.50400001928E-02 0.  1.
    10030    2    1    2    0    0  0.00000000000E+00  0.00000000000E+00  0.56088199018E+02  0.12970643360E+04  0.12958510739E+04 0.  0.
        2    1    3    3  502    0 -0.52664437405E+03 -0.72714665200E+02 -0.34266164618E+03  0.63250195496E+03  0.25500000920E-02 0.  1.
       -2    1    3    3    0  502  0.52664437405E+03  0.72714665200E+02  0.39874984520E+03  0.66456238105E+03  0.25500000920E-02 0. -1.
</event>
<event>
 5   0  0.1479690E-04  0.1302030E+04  0.7818609E-02  0.9027957E-01
       -1   -1    0    0    0  501  0.00000000000E+00  0.00000000000E+00  0.46601864803E+03  0.46601864805E+03  0.50400001928E-02 0. -1.
        1   -1    0    0  501    0  0.00000000000E+00  0.00000000000E+00 -0.90944937125E+03  0.90944937126E+03  0.50400001928E-02 0.  1.
    10030    2    1    2    0    0  0.00000000000E+00  0.00000000000E+00 -0.44343072322E+03  0.13754680193E+04  0.13020297485E+04 0.  0.
        1    1    3    3  502    0  0.96951273083E+02 -0.22684662319E+03 -0.85815881971E+03  0.89291404943E+03  0.50400001928E-02 0.  1.
       -1    1    3    3    0  502 -0.96951273083E+02  0.22684662319E+03  0.41472809649E+03  0.48255396988E+03  0.50400001928E-02 0. -1.
</event>
<event>
 5   0  0.2756984E-04  0.1299543E+04  0.7818609E-02  0.9029928E-01
        2   -1    0    0  501    0  0.00000000000E+00  0.00000000000E+00  0.90944417990E+03  0.90944417991E+03  0.25500000920E-02 0.  1.
       -2   -1    0    0    0  501  0.00000000000E+00  0.00000000000E+00 -0.46424287903E+03  0.46424287903E+03  0.25500000920E-02 0. -1.
    10030    2    1    2    0    0  0.00000000000E+00  0.00000000000E+00  0.44520130088E+03  0.13736870589E+04  0.12995429726E+04 0.  0.
        3    1    3    3  502    0  0.69714519675E+02 -0.55963186821E+03  0.56374429921E+03  0.79740553501E+03  0.10100000352E+00 0.  1.
       -3    1    3    3    0  502 -0.69714519675E+02  0.55963186821E+03 -0.11854299834E+03  0.57628152393E+03  0.10100000352E+00 0. -1.
</event>
<event>
 5   0  0.2661377E-04  0.1300710E+04  0.7818609E-02  0.9029002E-01
        2   -1    0    0  501    0  0.00000000000E+00  0.00000000000E+00  0.15255360552E+04  0.15255360552E+04  0.25500000920E-02 0.  1.
       -2   -1    0    0    0  501  0.00000000000E+00  0.00000000000E+00 -0.27725462486E+03  0.27725462487E+03  0.25500000920E-02 0. -1.
    10030    2    1    2    0    0  0.00000000000E+00  0.00000000000E+00  0.12482814303E+04  0.18027906800E+04  0.13007104623E+04 0.  0.
        5    1    3    3  502    0 -0.14633033062E+03 -0.28928063117E+03 -0.15725616143E+03  0.36034350214E+03  0.46999998093E+01 0. -1.
       -5    1    3    3    0  502  0.14633033062E+03  0.28928063117E+03  0.14055375917E+04  0.14424471779E+04  0.46999998093E+01 0.  1.
</event>
<event>
 5   0  0.1475396E-04  0.1301004E+04  0.7818609E-02  0.9028769E-01
        1   -1    0    0  501    0  0.00000000000E+00  0.00000000000E+00  0.17022654810E+04  0.17022654810E+04  0.50400001928E-02 0.  1.
       -1   -1    0    0    0  501  0.00000000000E+00  0.00000000000E+00 -0.24858234897E+03  0.24858234902E+03  0.50400001928E-02 0. -1.
    10030    2    1    2    0    0  0.00000000000E+00  0.00000000000E+00  0.14536831321E+04  0.19508478301E+04  0.13010044610E+04 0.  0.
        3    1    3    3  502    0 -0.39223048756E+03 -0.29197695727E+03  0.83529387693E+02  0.49605691988E+03  0.10100000352E+00 0. -1.
       -3    1    3    3    0  502  0.39223048756E+03  0.29197695727E+03  0.13701537444E+04  0.14547909102E+04  0.10100000352E+00 0.  1.
</event>
<event>
 5   0  0.1430636E-04  0.1301958E+04  0.7818609E-02  0.9028014E-01
       -1   -1    0    0    0  501  0.00000000000E+00  0.00000000000E+00  0.58085571786E+03  0.58085571788E+03  0.50400001928E-02 0. -1.
        1   -1    0    0  501    0  0.00000000000E+00  0.00000000000E+00 -0.72956822443E+03  0.72956822445E+03  0.50400001928E-02 0.  1.
    10030    2    1    2    0    0  0.00000000000E+00  0.00000000000E+00 -0.14871250657E+03  0.13104239423E+04  0.13019583323E+04 0.  0.
        4    1    3    3  502    0 -0.14859799659E+02  0.37153720111E+03 -0.61216341318E+03  0.71624462496E+03  0.12699999809E+01 0.  1.
       -4    1    3    3    0  502  0.14859799659E+02 -0.37153720111E+03  0.46345090660E+03  0.59417931737E+03  0.12699999809E+01 0. -1.
</event>
<event>
 5   0  0.1476511E-04  0.1286413E+04  0.7818609E-02  0.9040410E-01
       -1   -1    0    0    0  501  0.00000000000E+00  0.00000000000E+00  0.47995049029E+03  0.47995049031E+03  0.50400001928E-02 0. -1.
        1   -1    0    0  501    0  0.00000000000E+00  0.00000000000E+00 -0.86199439370E+03  0.86199439372E+03  0.50400001928E-02 0.  1.
    10030    2    1    2    0    0  0.00000000000E+00  0.00000000000E+00 -0.38204390342E+03  0.13419448840E+04  0.12864130471E+04 0.  0.
        2    1    3    3  502    0 -0.38161190693E+02  0.23512362188E+03  0.43224383660E+03  0.49353229715E+03  0.25500000920E-02 0. -1.
       -2    1    3    3    0  502  0.38161190693E+02 -0.23512362188E+03 -0.81428774002E+03  0.84841258689E+03  0.25500000920E-02 0.  1.
</event>
<event>
 5   0  0.2573071E-04  0.1300572E+04  0.7818609E-02  0.9029111E-01
       -2   -1    0    0    0  501  0.00000000000E+00  0.00000000000E+00  0.32445541412E+03  0.32445541413E+03  0.25500000920E-02 0.  1.
        2   -1    0    0  501    0  0.00000000000E+00  0.00000000000E+00 -0.13033286349E+04  0.13033286349E+04  0.25500000920E-02 0. -1.
    10030    2    1    2    0    0  0.00000000000E+00  0.00000000000E+00 -0.97887322074E+03  0.16277840490E+04  0.13005722309E+04 0.  0.
        4    1    3    3  502    0  0.46262919760E+03  0.77071070523E+02 -0.10532149149E+04  0.11529219377E+04  0.12699999809E+01 0. -1.
       -4    1    3    3    0  502 -0.46262919760E+03 -0.77071070523E+02  0.74341694205E+02  0.47486211133E+03  0.12699999809E+01 0.  1.
</event>
<event>
 5   0  0.1408341E-04  0.1267030E+04  0.7818609E-02  0.9056127E-01
        1   -1    0    0  501    0  0.00000000000E+00  0.00000000000E+00  0.99117186085E+03  0.99117186086E+03  0.50400001928E-02 0.  1.
       -1   -1    0    0    0  501  0.00000000000E+00  0.00000000000E+00 -0.40491615388E+03  0.40491615391E+03  0.50400001928E-02 0. -1.
    10030    2    1    2    0    0  0.00000000000E+00  0.00000000000E+00  0.58625570697E+03  0.13960880148E+04  0.12670303828E+04 0.  0.
        5    1    3    3  502    0 -0.27396611271E+03 -0.53534580459E+03  0.73675821458E+02  0.60589007094E+03  0.46999998093E+01 0. -1.
       -5    1    3    3    0  502  0.27396611271E+03  0.53534580459E+03  0.51257988551E+03  0.79019794383E+03  0.46999998093E+01 0.  1.
</event>
<event>
 5   0  0.2661377E-04  0.1300494E+04  0.7818609E-02  0.9029173E-01
       -2   -1    0    0    0  501  0.00000000000E+00  0.00000000000E+00  0.58695092181E+03  0.58695092182E+03  0.25500000920E-02 0. -1.
        2   -1    0    0  501    0  0.00000000000E+00  0.00000000000E+00 -0.72036902693E+03  0.72036902694E+03  0.25500000920E-02 0.  1.
    10030    2    1    2    0    0  0.00000000000E+00  0.00000000000E+00 -0.13341810512E+03  0.13073199488E+04  0.13004941590E+04 0.  0.
        5    1    3    3  502    0  0.44181889783E+03 -0.25946490981E+03  0.33573353398E+03  0.61258882927E+03  0.46999998093E+01 0. -1.
       -5    1    3    3    0  502 -0.44181889783E+03  0.25946490981E+03 -0.46915163910E+03  0.69473111948E+03  0.46999998093E+01 0.  1.
</event>
<event>
 5   0  0.1476511E-04  0.1299349E+04  0.7818609E-02  0.9030082E-01
       -1   -1    0    0    0  501  0.00000000000E+00  0.00000000000E+00  0.44991188737E+03  0.44991188740E+03  0.50400001928E-02 0. -1.
        1   -1    0    0  501    0  0.00000000000E+00  0.00000000000E+00 -0.93813188987E+03  0.93813188988E+03  0.50400001928E-02 0.  1.
    10030    2    1    2    0    0  0.00000000000E+00  0.00000000000E+00 -0.48822000250E+03  0.13880437773E+04  0.12993485894E+04 0.  0.
        2    1    3    3  502    0 -0.85883584311E+02 -0.17895308795E+03 -0.90494551762E+03  0.92645916672E+03  0.25500000920E-02 0.  1.
       -2    1    3    3    0  502  0.85883584311E+02  0.17895308795E+03  0.41672551512E+03  0.46158461055E+03  0.25500000920E-02 0. -1.
</event>
<event>
 5   0  0.2794825E-04  0.1298906E+04  0.7818609E-02  0.9030433E-01
       -2   -1    0    0    0  501  0.00000000000E+00  0.00000000000E+00  0.31869778995E+03  0.31869778996E+03  0.25500000920E-02 0.  1.
        2   -1    0    0  501    0  0.00000000000E+00  0.00000000000E+00 -0.13234762331E+04  0.13234762331E+04  0.25500000920E-02 0. -1.
    10030    2    1    2    0    0  0.00000000000E+00  0.00000000000E+00 -0.10047784432E+04  0.16421740231E+04  0.12989056171E+04 0.  0.
        1    1    3    3  502    0  0.48773540624E+03  0.42199894018E+03 -0.40593888086E+03  0.76207303261E+03  0.50400001928E-02 0.  1.
       -1    1    3    3    0  502 -0.48773540624E+03 -0.42199894018E+03 -0.59883956229E+03  0.88010099046E+03  0.50400001928E-02 0. -1.
</event>
<event>
 5   0  0.1408341E-04  0.1284586E+04  0.7818609E-02  0.9041879E-01
        1   -1    0    0  501    0  0.00000000000E+00  0.00000000000E+00  0.13974476293E+04  0.13974476293E+04  0.50400001928E-02 0.  1.
       -1   -1    0    0    0  501  0.00000000000E+00  0.00000000000E+00 -0.29520990306E+03  0.29520990310E+03  0.50400001928E-02 0. -1.
    10030    2    1    2    0    0  0.00000000000E+00  0.00000000000E+00  0.11022377263E+04  0.16926575324E+04  0.12845861267E+04 0.  0.
        5    1    3    3  502    0  0.25556645678E+03 -0.39197024140E+03  0.11308378142E+04  0.12238346032E+04  0.46999998093E+01 0.  1.
       -5    1    3    3    0  502 -0.25556645678E+03  0.39197024140E+03 -0.28600087911E+02  0.46882292926E+03  0.46999998093E+01 0. -1.
</event>
<event>
 5   0  0.1476511E-04  0.1298497E+04  0.7818609E-02  0.9030758E-01
        1   -1    0    0  501    0  0.00000000000E+00  0.00000000000E+00  0.15239299112E+04  0.15239299112E+04  0.50400001928E-02 0.  1.
       -1   -1    0    0    0  501  0.00000000000E+00  0.00000000000E+00 -0.27660321850E+03  0.27660321855E+03  0.50400001928E-02 0. -1.
    10030    2    1    2    0    0  0.00000000000E+00  0.00000000000E+00  0.12473266927E+04  0.18005331298E+04  0.12984974675E+04 0.  0.
        2    1    3    3  502    0 -0.31659183259E+03 -0.49218769566E+03  0.10135125648E+04  0.11703362061E+04  0.25500000920E-02 0. -1.
       -2    1    3    3    0  502  0.31659183259E+03  0.49218769566E+03  0.23381412790E+03  0.63019692369E+03  0.25500000920E-02 0.  1.
</event>
<event>
 5   0  0.2723209E-04  0.1297914E+04  0.7818609E-02  0.9031221E-01
       -2   -1    0    0    0  501  0.00000000000E+00  0.00000000000E+00  0.24204224886E+03  0.24204224887E+03  0.25500000920E-02 0. -1.
        2   -1    0    0  501    0  0.00000000000E+00  0.00000000000E+00 -0.17399664500E+04  0.17399664500E+04  0.25500000920E-02 0.  1.
    10030    2    1    2    0    0  0.00000000000E+00  0.00000000000E+00 -0.14979242011E+04  0.19820086989E+04  0.12979143154E+04 0.  0.
        2    1    3    3  502    0  0.19486716978E+03 -0.82789017848E+02  0.18781684311E+03  0.28302367727E+03  0.25500000920E-02 0. -1.
       -2    1    3    3    0  502 -0.19486716978E+03  0.82789017848E+02 -0.16857410442E+04  0.16989850216E+04  0.25500000920E-02 0.  1.
</event>
<event>
 5   0  0.2723209E-04  0.1302961E+04  0.7818609E-02  0.9027220E-01
        2   -1    0    0  501    0  0.00000000000E+00  0.00000000000E+00  0.16125643206E+04  0.16125643206E+04  0.25500000920E-02 0.  1.
       -2   -1    0    0    0  501  0.00000000000E+00  0.00000000000E+00 -0.26320011479E+03  0.26320011480E+03  0.25500000920E-02 0. -1.
    10030    2    1    2    0    0  0.00000000000E+00  0.00000000000E+00  0.13493642058E+04  0.18757644354E+04  0.13029614182E+04 0.  0.
        2    1    3    3  502    0 -0.65996444718E+02  0.32029091247E+03 -0.13648169954E+03  0.35435724014E+03  0.25500000920E-02 0. -1.
       -2    1    3    3    0  502  0.65996444718E+02 -0.32029091247E+03  0.14858459054E+04  0.15214071953E+04  0.25500000920E-02 0.  1.
</event>
<event>
 5   0  0.2573071E-04  0.1297816E+04  0.7818609E-02  0.9031299E-01
        2   -1    0    0  501    0  0.00000000000E+00  0.00000000000E+00  0.14208881952E+04  0.14208881952E+04  0.25500000920E-02 0. -1.
       -2   -1    0    0    0  501  0.00000000000E+00  0.00000000000E+00 -0.29635106166E+03  0.29635106167E+03  0.25500000920E-02 0.  1.
    10030    2    1    2    0    0  0.00000000000E+00  0.00000000000E+00  0.11245371336E+04  0.17172392569E+04  0.12978162045E+04 0.  0.
        4    1    3    3  502    0  0.78572304442E+01  0.24754575123E+03  0.13558868515E+04  0.13783219515E+04  0.12699999809E+01 0. -1.
       -4    1    3    3    0  502 -0.78572304442E+01 -0.24754575123E+03 -0.23134971792E+03  0.33891730541E+03  0.12699999809E+01 0.  1.
</event>
<event>
 5   0  0.2723209E-04  0.1301636E+04  0.7818609E-02  0.9028269E-01
       -2   -1    0    0    0  501  0.00000000000E+00  0.00000000000E+00  0.21051009622E+03  0.21051009623E+03  0.25500000920E-02 0.  1.
        2   -1    0    0  501    0  0.00000000000E+00  0.00000000000E+00 -0.20120842371E+04  0.20120842371E+04  0.25500000920E-02 0. -1.
    10030    2    1    2    0    0  0.00000000000E+00  0.00000000000E+00 -0.18015741409E+04  0.22225943333E+04  0.13016359650E+04 0.  0.
        2    1    3    3  502    0 -0.64540305536E+03  0.67984971341E+02 -0.98438652171E+03  0.11790605940E+04  0.25500000920E-02 0. -1.
       -2    1    3    3    0  502  0.64540305536E+03 -0.67984971341E+02 -0.81718761918E+03  0.10435337393E+04  0.25500000920E-02 0.  1.
</event>
<event>
 5   0  0.2723209E-04  0.1297461E+04  0.7818609E-02  0.9031581E-01
        2   -1    0    0  501    0  0.00000000000E+00  0.00000000000E+00  0.19848655777E+04  0.19848655777E+04  0.25500000920E-02 0.  1.
       -2   -1    0    0    0  501  0.00000000000E+00  0.00000000000E+00 -0.21203007075E+03  0.21203007076E+03  0.25500000920E-02 0. -1.
    10030    2    1    2    0    0  0.00000000000E+00  0.00000000000E+00  0.17728355070E+04  0.21968956485E+04  0.12974608879E+04 0.  0.
        2    1    3    3  502    0  0.32083094401E+03 -0.56351863959E+03  0.85404933652E+03  0.10723273852E+04  0.25500000920E-02 0. -1.
       -2    1    3    3    0  502 -0.32083094401E+03  0.56351863959E+03  0.91878617047E+03  0.11245682633E+04  0.25500000920E-02 0.  1.
</event>
<event>
 5   0  0.2756984E-04  0.1302902E+04  0.7818609E-02  0.9027267E-01
       -2   -1    0    0    0  501  0.00000000000E+00  0.00000000000E+00  0.29150389562E+03  0.29150389563E+03  0.25500000920E-02 0. -1.
        2   -1    0    0  501    0  0.00000000000E+00  0.00000000000E+00 -0.14558589658E+04  0.14558589658E+04  0.25500000920E-02 0.  1.
    10030    2    1    2    0    0  0.00000000000E+00  0.00000000000E+00 -0.11643550702E+04  0.17473628615E+04  0.13029022374E+04 0.  0.
        3    1    3    3  502    0  0.23216664431E+03  0.29429707131E+03  0.13237792282E+03  0.39753747190E+03  0.10100000352E+00 0. -1.
       -3    1    3    3    0  502 -0.23216664431E+03 -0.29429707131E+03 -0.12967329930E+04  0.13498253896E+04  0.10100000352E+00 0.  1.
</event>
<event>
 5   0  0.1430636E-04  0.1299665E+04  0.7818609E-02  0.9029831E-01
       -1   -1    0    0    0  501  0.00000000000E+00  0.00000000000E+00  0.38705068003E+03  0.38705068006E+03  0.50400001928E-02 0. -1.
        1   -1    0    0  501    0  0.00000000000E+00  0.00000000000E+00 -0.10910254841E+04  0.10910254841E+04  0.50400001928E-02 0.  1.
    10030    2    1    2    0    0  0.00000000000E+00  0.00000000000E+00 -0.70397480405E+03  0.14780761642E+04  0.12996648115E+04 0.  0.
        4    1    3    3  502    0  0.25702660935E+03 -0.49584641027E+03  0.25810803377E+02  0.55910119921E+03  0.12699999809E+01 0. -1.
       -4    1    3    3    0  502 -0.25702660935E+03  0.49584641027E+03 -0.72978560742E+03  0.91897496494E+03  0.12699999809E+01 0.  1.
</event>
<event>
 5   0  0.1479690E-04  0.1301888E+04  0.7818609E-02  0.9028070E-01
        1   -1    0    0  501    0  0.00000000000E+00  0.00000000000E+00  0.87189510109E+03  0.87189510111E+03  0.50400001928E-02 0.  1.
       -1   -1    0    0    0  501  0.00000000000E+00  0.00000000000E+00 -0.48598492335E+03  0.48598492337E+03  0.50400001928E-02 0. -1.
    10030    2    1    2    0    0  0.00000000000E+00  0.00000000000E+00  0.38591017775E+03  0.13578800245E+04  0.13018876663E+04 0.  0.
        1    1    3    3  502    0  0.49417491147E+03  0.12338501758E+03 -0.22981113470E+03  0.55878964141E+03  0.50400001928E-02 0. -1.
       -1    1    3    3    0  502 -0.49417491147E+03 -0.12338501758E+03  0.61572131245E+03  0.79909038307E+03  0.50400001928E-02 0.  1.
</event>
<event>
 5   0  0.1475396E-04  0.1319136E+04  0.7818609E-02  0.9014527E-01
        1   -1    0    0  501    0  0.00000000000E+00  0.00000000000E+00  0.60034537742E+03  0.60034537744E+03  0.50400001928E-02 0.  1.
       -1   -1    0    0    0  501  0.00000000000E+00  0.00000000000E+00 -0.72463227176E+03  0.72463227178E+03  0.50400001928E-02 0. -1.
    10030    2    1    2    0    0  0.00000000000E+00  0.00000000000E+00 -0.12428689434E+03  0.13249776492E+04  0.13191355271E+04 0.  0.
        3    1    3    3  502    0 -0.12491958844E+03 -0.27031360398E+03 -0.65326941683E+03  0.71793822104E+03  0.10100000352E+00 0. -1.
       -3    1    3    3    0  502  0.12491958844E+03  0.27031360398E+03  0.52898252248E+03  0.60703942818E+03  0.10100000352E+00 0.  1.
</event>
<event>
 5   0  0.1476511E-04  0.1294242E+04  0.7818609E-02  0.9034144E-01
       -1   -1    0    0    0  501  0.00000000000E+00  0.00000000000E+00  0.66998955175E+03  0.66998955177E+03  0.50400001928E-02 0. -1.
        1   -1    0    0  501    0  0.00000000000E+00  0.00000000000E+00 -0.62503292612E+03  0.62503292614E+03  0.50400001928E-02 0.  1.
    10030    2    1    2    0    0  0.00000000000E+00  0.00000000000E+00  0.44956625634E+02  0.12950224779E+04  0.12942419094E+04 0.  0.
        2    1    3    3  502    0  0.49642052976E+03  0.34168898452E+03  0.25837635919E+03  0.65570042512E+03  0.25500000920E-02 0. -1.
       -2    1    3    3    0  502 -0.49642052976E+03 -0.34168898452E+03 -0.21341973356E+03  0.63932205279E+03  0.25500000920E-02 0.  1.
</event>
<event>
 5   0  0.1475396E-04  0.1299864E+04  0.7818609E-02  0.9029673E-01
        1   -1    0    0  501    0  0.00000000000E+00  0.00000000000E+00  0.12096033697E+04  0.12096033697E+04  0.50400001928E-02 0.  1.
       -1   -1    0    0    0  501  0.00000000000E+00  0.00000000000E+00 -0.34921513752E+03  0.34921513755E+03  0.50400001928E-02 0. -1.
    10030    2    1    2    0    0  0.00000000000E+00  0.00000000000E+00  0.86038823219E+03  0.15588185073E+04  0.12998643116E+04 0.  0.
        3    1    3    3  502    0 -0.47996048110E+03 -0.15788474451E+03  0.92044064627E+03  0.10500003093E+04  0.10100000352E+00 0.  1.
       -3    1    3    3    0  502  0.47996048110E+03  0.15788474451E+03 -0.60052414088E+02  0.50881819799E+03  0.10100000352E+00 0. -1.
</event>
<event>
 5   0  0.2573071E-04  0.1295868E+04  0.7818609E-02  0.9032848E-01
       -2   -1    0    0    0  501  0.00000000000E+00  0.00000000000E+00  0.68632530827E+03  0.68632530827E+03  0.25500000920E-02 0. -1.
        2   -1    0    0  501    0  0.00000000000E+00  0.00000000000E+00 -0.61169026543E+03  0.61169026544E+03  0.25500000920E-02 0.  1.
    10030    2    1    2    0    0  0.00000000000E+00  0.00000000000E+00  0.74635042831E+02  0.12980155737E+04  0.12958680643E+04 0.  0.
        4    1    3    3  502    0  0.20517133482E+03  0.60712067236E+03 -0.58371465696E+02  0.64350573295E+03  0.12699999809E+01 0. -1.
       -4    1    3    3    0  502 -0.20517133482E+03 -0.60712067236E+03  0.13300650853E+03  0.65450984076E+03  0.12699999809E+01 0.  1.
</event>
<event>
 5   0  0.2573071E-04  0.1300147E+04  0.7818609E-02  0.9029448E-01
       -2   -1    0    0    0  501  0.00000000000E+00  0.00000000000E+00  0.81454472644E+03  0.81454472644E+03  0.25500000920E-02 0.  1.
        2   -1    0    0  501    0  0.00000000000E+00  0.00000000000E+00 -0.51881209633E+03  0.51881209634E+03  0.25500000920E-02 0. -1.
    10030    2    1    2    0    0  0.00000000000E+00  0.00000000000E+00  0.29573263010E+03  0.13333568228E+04  0.13001471564E+04 0.  0.
        4    1    3    3  502    0  0.11470530173E+03  0.32233587380E+03  0.71473869946E+03  0.79240819228E+03  0.12699999809E+01 0.  1.
       -4    1    3    3    0  502 -0.11470530173E+03 -0.32233587380E+03 -0.41900606936E+03  0.54094863050E+03  0.12699999809E+01 0. -1.
</event>
<event>
 5   0  0.2723209E-04  0.1300012E+04  0.7818609E-02  0.9029555E-01
        2   -1    0    0  501    0  0.00000000000E+00  0.00000000000E+00  0.51668155752E+03  0.51668155753E+03  0.25500000920E-02 0.  1.
       -2   -1    0    0    0  501  0.00000000000E+00  0.00000000000E+00 -0.81773398109E+03  0.81773398110E+03  0.25500000920E-02 0. -1.
    10030    2    1    2    0    0  0.00000000000E+00  0.00000000000E+00 -0.30105242357E+03  0.13344155386E+04  0.13000124107E+04 0.  0.
        2    1    3    3  502    0  0.57622497219E+03 -0.24028024454E+03 -0.33625162750E+03  0.70910857525E+03  0.25500000920E-02 0. -1.
       -2    1    3    3    0  502 -0.57622497219E+03  0.24028024454E+03  0.35199203927E+02  0.62530696338E+03  0.25500000920E-02 0.  1.
</event>
<event>
 5   0  0.1002887E-04  0.1296965E+04  0.7818609E-02  0.9031976E-01
       -3   -1    0    0    0  501  0.00000000000E+00  0.00000000000E+00  0.57181811962E+03  0.57181812854E+03  0.10100000352E+00 0. -1.
        3   -1    0    0  501    0  0.00000000000E+00  0.00000000000E+00 -0.73542505924E+03  0.73542506618E+03  0.10100000352E+00 0.  1.
    10030    2    1    2    0    0  0.00000000000E+00  0.00000000000E+00 -0.16360693962E+03  0.13072431947E+04  0.12969647410E+04 0.  0.
        2    1    3    3  502    0 -0.47436846167E+03  0.32420616629E+03  0.22123569824E+03  0.61569498120E+03  0.25500000920E-02 0. -1.
       -2    1    3    3    0  502  0.47436846167E+03 -0.32420616629E+03 -0.38484263787E+03  0.69154821352E+03  0.25500000920E-02 0.  1.
</event>
<event>
 5   0  0.1430636E-04  0.1300445E+04  0.7818609E-02  0.9029213E-01
       -1   -1    0    0    0  501  0.00000000000E+00  0.00000000000E+00  0.17166474235E+04  0.17166474235E+04  0.50400001928E-02 0. -1.
        1   -1    0    0  501    0  0.00000000000E+00  0.00000000000E+00 -0.24628764884E+03  0.24628764889E+03  0.50400001928E-02 0.  1.
    10030    2    1    2    0    0  0.00000000000E+00  0.00000000000E+00  0.14703597746E+04  0.19629350724E+04  0.13004446284E+04 0.  0.
        4    1    3    3  502    0 -0.22393076488E+03  0.41760362879E+03  0.14072588519E+04  0.14848962480E+04  0.12699999809E+01 0. -1.
       -4    1    3    3    0  502  0.22393076488E+03 -0.41760362879E+03  0.63100922741E+02  0.47803882436E+03  0.12699999809E+01 0.  1.
</event>
<event>
 5   0  0.1475396E-04  0.1298677E+04  0.7818609E-02  0.9030615E-01
       -1   -1    0    0    0  501  0.00000000000E+00  0.00000000000E+00  0.86053158726E+03  0.86053158728E+03  0.50400001928E-02 0. -1.
        1   -1    0    0  501    0  0.00000000000E+00  0.00000000000E+00 -0.48997658071E+03  0.48997658074E+03  0.50400001928E-02 0.  1.
    10030    2    1    2    0    0  0.00000000000E+00  0.00000000000E+00  0.37055500655E+03  0.13505081680E+04  0.12986767492E+04 0.  0.
        3    1    3    3  502    0  0.38578691401E+03  0.38224461063E+03 -0.18487503926E+03  0.57369092351E+03  0.10100000352E+00 0.  1.
       -3    1    3    3    0  502 -0.38578691401E+03 -0.38224461063E+03  0.55543004581E+03  0.77681724451E+03  0.10100000352E+00 0. -1.
</event>
<event>
 5   0  0.1430636E-04  0.1302066E+04  0.7818609E-02  0.9027928E-01
        1   -1    0    0  501    0  0.00000000000E+00  0.00000000000E+00  0.86204790067E+03  0.86204790069E+03  0.50400001928E-02 0.  1.
       -1   -1    0    0    0  501  0.00000000000E+00  0.00000000000E+00 -0.49167134676E+03  0.49167134679E+03  0.50400001928E-02 0. -1.
    10030    2    1    2    0    0  0.00000000000E+00  0.00000000000E+00  0.37037655391E+03  0.13537192475E+04  0.13020664381E+04 0.  0.
        4    1    3    3  502    0  0.19102848455E+03 -0.18592033683E+03  0.80270700971E+03  0.84581227817E+03  0.12699999809E+01 0.  1.
       -4    1    3    3    0  502 -0.19102848455E+03  0.18592033683E+03 -0.43233045580E+03  0.50790696931E+03  0.12699999809E+01 0. -1.
</event>
<event>
 5   0  0.1430636E-04  0.1301608E+04  0.7818609E-02  0.9028291E-01
        1   -1    0    0  501    0  0.00000000000E+00  0.00000000000E+00  0.39399953921E+03  0.39399953924E+03  0.50400001928E-02 0. -1.
       -1   -1    0    0    0  501  0.00000000000E+00  0.00000000000E+00 -0.10749907241E+04  0.10749907241E+04  0.50400001928E-02 0.  1.
    10030    2    1    2    0    0  0.00000000000E+00  0.00000000000E+00 -0.68099118487E+03  0.14689902633E+04  0.13016080055E+04 0.  0.
        4    1    3    3  502    0 -0.43450230689E+03  0.27100868759E+03  0.11278208876E+03  0.52436568908E+03  0.12699999809E+01 0. -1.
       -4    1    3    3    0  502  0.43450230689E+03 -0.27100868759E+03 -0.79377327363E+03  0.94462457424E+03  0.12699999809E+01 0.  1.
</event>
<event>
 5   0  0.2756984E-04  0.1298775E+04  0.7818609E-02  0.9030537E-01
       -2   -1    0    0    0  501  0.00000000000E+00  0.00000000000E+00  0.33998786056E+03  0.33998786057E+03  0.25500000920E-02 0. -1.
        2   -1    0    0  501    0  0.00000000000E+00  0.00000000000E+00 -0.12403512978E+04  0.12403512978E+04  0.25500000920E-02 0.  1.
    10030    2    1    2    0    0  0.00000000000E+00  0.00000000000E+00 -0.90036343729E+03  0.15803391584E+04  0.12987753988E+04 0.  0.
        3    1    3    3  502    0 -0.50061007975E+03 -0.32393204976E+03 -0.76316446216E+03  0.96848460561E+03  0.10100000352E+00 0.  1.
       -3    1    3    3    0  502  0.50061007975E+03  0.32393204976E+03 -0.13719897513E+03  0.61185455280E+03  0.10100000352E+00 0. -1.
</event>
<event>
 5   0  0.2723209E-04  0.1297043E+04  0.7818609E-02  0.9031913E-01
       -2   -1    0    0    0  501  0.00000000000E+00  0.00000000000E+00  0.46690456796E+03  0.46690456797E+03  0.25500000920E-02 0.  1.
        2   -1    0    0  501    0  0.00000000000E+00  0.00000000000E+00 -0.90078417797E+03  0.90078417797E+03  0.25500000920E-02 0. -1.
    10030    2    1    2    0    0  0.00000000000E+00  0.00000000000E+00 -0.43387961001E+03  0.13676887459E+04  0.12970431719E+04 0.  0.
        2    1    3    3  502    0  0.49864863640E+03 -0.28089842729E+03 -0.53855361184E+03  0.78587173373E+03  0.25500000920E-02 0.  1.
       -2    1    3    3    0  502 -0.49864863640E+03  0.28089842729E+03  0.10467400183E+03  0.58181701221E+03  0.25500000920E-02 0. -1.
</event>
<event>
 5   0  0.2756984E-04  0.1260827E+04  0.7818609E-02  0.9061220E-01
       -2   -1    0    0    0  501  0.00000000000E+00  0.00000000000E+00  0.19824828601E+03  0.19824828603E+03  0.25500000920E-02 0.  1.
        2   -1    0    0  501    0  0.00000000000E+00  0.00000000000E+00 -0.20046635364E+04  0.20046635364E+04  0.25500000920E-02 0. -1.
    10030    2    1    2    0    0  0.00000000000E+00  0.00000000000E+00 -0.18064152504E+04  0.22029118224E+04  0.12608268876E+04 0.  0.
        3    1    3    3  502    0  0.54274231495E+03  0.31976423642E+03 -0.94610164932E+03  0.11366295476E+04  0.10100000352E+00 0.  1.
       -3    1    3    3    0  502 -0.54274231495E+03 -0.31976423642E+03 -0.86031360107E+03  0.10662822749E+04  0.10100000352E+00 0. -1.
</event>
<event>
 5   0  0.2661377E-04  0.1287852E+04  0.7818609E-02  0.9039255E-01
        2   -1    0    0  501    0  0.00000000000E+00  0.00000000000E+00  0.16993087256E+04  0.16993087256E+04  0.25500000920E-02 0.  1.
       -2   -1    0    0    0  501  0.00000000000E+00  0.00000000000E+00 -0.24400541516E+03  0.24400541517E+03  0.25500000920E-02 0. -1.
    10030    2    1    2    0    0  0.00000000000E+00  0.00000000000E+00  0.14553033105E+04  0.19433141408E+04  0.12878517478E+04 0.  0.
        5    1    3    3  502    0  0.26286885676E+03 -0.40307722547E+03  0.13732443857E+04  0.14551266331E+04  0.46999998093E+01 0.  1.
       -5    1    3    3    0  502 -0.26286885676E+03  0.40307722547E+03  0.82058924801E+02  0.48818750772E+03  0.46999998093E+01 0. -1.
</event>
<event>
 5   0  0.1408341E-04  0.1299585E+04  0.7818609E-02  0.9029894E-01
       -1   -1    0    0    0  501  0.00000000000E+00  0.00000000000E+00  0.28584057573E+03  0.28584057577E+03  0.50400001928E-02 0.  1.
        1   -1    0    0  501    0  0.00000000000E+00  0.00000000000E+00 -0.14771533667E+04  0.14771533667E+04  0.50400001928E-02 0. -1.
    10030    2    1    2    0    0  0.00000000000E+00  0.00000000000E+00 -0.11913127910E+04  0.17629939425E+04  0.12995851166E+04 0.  0.
        5    1    3    3  502    0  0.63676912400E+03 -0.10881070651E+03 -0.50075776256E+03  0.81737085457E+03  0.46999998093E+01 0. -1.
       -5    1    3    3    0  502 -0.63676912400E+03  0.10881070651E+03 -0.69055502841E+03  0.94562308791E+03  0.46999998093E+01 0.  1.
</event>
<event>
 5   0  0.1476511E-04  0.1299746E+04  0.7818609E-02  0.9029766E-01
       -1   -1    0    0    0  501  0.00000000000E+00  0.00000000000E+00  0.61444110487E+03  0.61444110489E+03  0.50400001928E-02 0.  1.
        1   -1    0    0  501    0  0.00000000000E+00  0.00000000000E+00 -0.68734854729E+03  0.68734854731E+03  0.50400001928E-02 0. -1.
    10030    2    1    2    0    0  0.00000000000E+00  0.00000000000E+00 -0.72907442423E+02  0.13017896522E+04  0.12997464381E+04 0.  0.
        2    1    3    3  502    0 -0.31272192949E+03 -0.48364654331E+03  0.26506140504E+03  0.63400830632E+03  0.25500000920E-02 0.  1.
       -2    1    3    3    0  502  0.31272192949E+03  0.48364654331E+03 -0.33796884746E+03  0.66778134588E+03  0.25500000920E-02 0. -1.
</event>
<event>
 5   0  0.1408341E-04  0.1285928E+04  0.7818609E-02  0.9040799E-01
       -1   -1    0    0    0  501  0.00000000000E+00  0.00000000000E+00  0.40556519292E+03  0.40556519295E+03  0.50400001928E-02 0. -1.
        1   -1    0    0  501    0  0.00000000000E+00  0.00000000000E+00 -0.10193252091E+04  0.10193252091E+04  0.50400001928E-02 0.  1.
    10030    2    1    2    0    0  0.00000000000E+00  0.00000000000E+00 -0.61376001615E+03  0.14248904020E+04  0.12859281863E+04 0.  0.
        5    1    3    3  502    0 -0.43752068299E+03 -0.23060201971E+03 -0.76210287858E+03  0.90852877064E+03  0.46999998093E+01 0.  1.
       -5    1    3    3    0  502  0.43752068299E+03  0.23060201971E+03  0.14834286243E+03  0.51636163139E+03  0.46999998093E+01 0. -1.
</event>
<event>
 5   0  0.2723209E-04  0.1298055E+04  0.7818609E-02  0.9031109E-01
       -2   -1    0    0    0  501  0.00000000000E+00  0.00000000000E+00  0.21342388055E+03  0.21342388056E+03  0.25500000920E-02 0. -1.
        2   -1    0    0  501    0  0.00000000000E+00  0.00000000000E+00 -0.19737099159E+04  0.19737099159E+04  0.25500000920E-02 0.  1.
    10030    2    1    2    0    0  0.00000000000E+00  0.00000000000E+00 -0.17602860353E+04  0.21871337964E+04  0.12980552058E+04 0.  0.
        2    1    3    3  502    0  0.48210713271E+03  0.41167419606E+03 -0.64585941039E+03  0.90500680059E+03  0.25500000920E-02 0.  1.
       -2    1    3    3    0  502 -0.48210713271E+03 -0.41167419606E+03 -0.11144266249E+04  0.12821269958E+04  0.25500000920E-02 0. -1.
</event>
<event>
 5   0  0.2794825E-04  0.1294283E+04  0.7818609E-02  0.9034111E-01
       -2   -1    0    0    0  501  0.00000000000E+00  0.00000000000E+00  0.27203619103E+03  0.27203619104E+03  0.25500000920E-02 0. -1.
        2   -1    0    0  501    0  0.00000000000E+00  0.00000000000E+00 -0.15394725952E+04  0.15394725952E+04  0.25500000920E-02 0.  1.
    10030    2    1    2    0    0  0.00000000000E+00  0.00000000000E+00 -0.12674364042E+04  0.18115087862E+04  0.12942832163E+04 0.  0.
        1    1    3    3  502    0  0.97011517654E+02 -0.25713011367E+03  0.18630467833E+03  0.33201891980E+03  0.50400001928E-02 0. -1.
       -1    1    3    3    0  502 -0.97011517654E+02  0.25713011367E+03 -0.14537410825E+04  0.14794898664E+04  0.50400001928E-02 0.  1.
</event>
<event>
 5   0  0.2794825E-04  0.1299135E+04  0.7818609E-02  0.9030252E-01
       -2   -1    0    0    0  501  0.00000000000E+00  0.00000000000E+00  0.63764744456E+03  0.63764744456E+03  0.25500000920E-02 0. -1.
        2   -1    0    0  501    0  0.00000000000E+00  0.00000000000E+00 -0.66171019065E+03  0.66171019065E+03  0.25500000920E-02 0.  1.
    10030    2    1    2    0    0  0.00000000000E+00  0.00000000000E+00 -0.24062746087E+02  0.12993576352E+04  0.12991348077E+04 0.  0.
        1    1    3    3  502    0 -0.61922416832E+03  0.12424622063E+03 -0.16391958858E+03  0.65249162870E+03  0.50400001928E-02 0.  1.
       -1    1    3    3    0  502  0.61922416832E+03 -0.12424622063E+03  0.13985684250E+03  0.64686600652E+03  0.50400001928E-02 0. -1.
</event>
<event>
 5   0  0.2756984E-04  0.1338325E+04  0.7818609E-02  0.8999713E-01
        2   -1    0    0  501    0  0.00000000000E+00  0.00000000000E+00  0.10329077534E+04  0.10329077534E+04  0.25500000920E-02 0. -1.
       -2   -1    0    0    0  501  0.00000000000E+00  0.00000000000E+00 -0.43351278977E+03  0.43351278978E+03  0.25500000920E-02 0.  1.
    10030    2    1    2    0    0  0.00000000000E+00  0.00000000000E+00  0.59939496364E+03  0.14664205432E+04  0.13383254040E+04 0.  0.
        3    1    3    3  502    0 -0.43642632503E+02  0.56902903445E+03 -0.83144060396E+02  0.57672494865E+03  0.10100000352E+00 0.  1.
       -3    1    3    3    0  502  0.43642632503E+02 -0.56902903445E+03  0.68253902403E+03  0.88969559454E+03  0.10100000352E+00 0. -1.
</event>
<event>
 5   0  0.1430636E-04  0.1299406E+04  0.7818609E-02  0.9030036E-01
       -1   -1    0    0    0  501  0.00000000000E+00  0.00000000000E+00  0.15076933666E+04  0.15076933666E+04  0.50400001928E-02 0.  1.
        1   -1    0    0  501    0  0.00000000000E+00  0.00000000000E+00 -0.27997337059E+03  0.27997337064E+03  0.50400001928E-02 0. -1.
    10030    2    1    2    0    0  0.00000000000E+00  0.00000000000E+00  0.12277199960E+04  0.17876667372E+04  0.12994060085E+04 0.  0.
        4    1    3    3  502    0  0.64028956425E+03  0.94019537372E+02  0.53480506152E+03  0.83954062809E+03  0.12699999809E+01 0. -1.
       -4    1    3    3    0  502 -0.64028956425E+03 -0.94019537372E+02  0.69291493446E+03  0.94812610912E+03  0.12699999809E+01 0.  1.
</event>
<event>
 5   0  0.2756984E-04  0.1300332E+04  0.7818609E-02  0.9029302E-01
       -2   -1    0    0    0  501  0.00000000000E+00  0.00000000000E+00  0.11583738392E+04  0.11583738392E+04  0.25500000920E-02 0.  1.
        2   -1    0    0  501    0  0.00000000000E+00  0.00000000000E+00 -0.36492179280E+03  0.36492179281E+03  0.25500000920E-02 0. -1.
    10030    2    1    2    0    0  0.00000000000E+00  0.00000000000E+00  0.79345204640E+03  0.15232956320E+04  0.13003320470E+04 0.  0.
        3    1    3    3  502    0  0.14198072240E+03  0.63445067728E+03  0.40310600097E+03  0.76497100969E+03  0.10100000352E+00 0. -1.
       -3    1    3    3    0  502 -0.14198072240E+03 -0.63445067728E+03  0.39034604543E+03  0.75832462233E+03  0.10100000352E+00 0.  1.
</event>
<event>
 5   0  0.1476511E-04  0.1302919E+04  0.7818609E-02  0.9027254E-01
       -1   -1    0    0    0  501  0.00000000000E+00  0.00000000000E+00  0.64017680494E+03  0.64017680496E+03  0.50400001928E-02 0. -1.
        1   -1    0    0  501    0  0.00000000000E+00  0.00000000000E+00 -0.66294102309E+03  0.66294102311E+03  0.50400001928E-02 0.  1.
    10030    2    1    2    0    0  0.00000000000E+00  0.00000000000E+00 -0.22764218153E+02  0.13031178281E+04  0.13029189784E+04 0.  0.
        2    1    3    3  502    0  0.35810497487E+03 -0.35268584245E+03 -0.42590041394E+03  0.65880015110E+03  0.25500000920E-02 0.  1.
       -2    1    3    3    0  502 -0.35810497487E+03  0.35268584245E+03  0.40313619579E+03  0.64431767696E+03  0.25500000920E-02 0. -1.
</event>
<event>
 5   0  0.1002887E-04  0.1299488E+04  0.7818609E-02  0.9029971E-01
        4   -1    0    0  501    0  0.00000000000E+00  0.00000000000E+00  0.58394325614E+03  0.58394463718E+03  0.12699999809E+01 0.  1.
       -4   -1    0    0    0  501  0.00000000000E+00  0.00000000000E+00 -0.72295666372E+03  0.72295777921E+03  0.12699999809E+01 0. -1.
    10030    2    1    2    0    0  0.00000000000E+00  0.00000000000E+00 -0.13901340758E+03  0.13069024164E+04  0.12994880525E+04 0.  0.
        1    1    3    3  502    0  0.91402578315E+02 -0.64271017544E+03 -0.42213353443E+02  0.65054805216E+03  0.50400001928E-02 0. -1.
       -1    1    3    3    0  502 -0.91402578315E+02  0.64271017544E+03 -0.96800054136E+02  0.65635436423E+03  0.50400001928E-02 0.  1.
</event>
<event>
 5   0  0.2756984E-04  0.1300743E+04  0.7818609E-02  0.9028976E-01
       -2   -1    0    0    0  501  0.00000000000E+00  0.00000000000E+00  0.36328016088E+03  0.36328016089E+03  0.25500000920E-02 0.  1.
        2   -1    0    0  501    0  0.00000000000E+00  0.00000000000E+00 -0.11643440166E+04  0.11643440166E+04  0.25500000920E-02 0. -1.
    10030    2    1    2    0    0  0.00000000000E+00  0.00000000000E+00 -0.80106385576E+03  0.15276241775E+04  0.13007429903E+04 0.  0.
        3    1    3    3  502    0  0.39188989320E+03  0.14351988008E+03 -0.98634181766E+03  0.10710022576E+04  0.10100000352E+00 0. -1.
       -3    1    3    3    0  502 -0.39188989320E+03 -0.14351988008E+03  0.18527796190E+03  0.45662191991E+03  0.10100000352E+00 0.  1.
</event>
<event>
 5   0  0.1476511E-04  0.1293224E+04  0.7818609E-02  0.9034956E-01
       -1   -1    0    0    0  501  0.00000000000E+00  0.00000000000E+00  0.19746446069E+04  0.19746446069E+04  0.50400001928E-02 0.  1.
        1   -1    0    0  501    0  0.00000000000E+00  0.00000000000E+00 -0.21173792043E+03  0.21173792049E+03  0.50400001928E-02 0. -1.
    10030    2    1    2    0    0  0.00000000000E+00  0.00000000000E+00  0.17629066865E+04  0.21863825274E+04  0.12932240993E+04 0.  0.
        2    1    3    3  502    0 -0.53120295648E+03 -0.30724147716E+03  0.12260017502E+04  0.13710048132E+04  0.25500000920E-02 0.  1.
       -2    1    3    3    0  502  0.53120295648E+03  0.30724147716E+03  0.53690493625E+03  0.81537771421E+03  0.25500000920E-02 0. -1.
</event>
<event>
 5   0  0.1476511E-04  0.1299340E+04  0.7818609E-02  0.9030089E-01
       -1   -1    0    0    0  501  0.00000000000E+00  0.00000000000E+00  0.59848764124E+03  0.59848764126E+03  0.50400001928E-02 0. -1.
        1   -1    0    0  501    0  0.00000000000E+00  0.00000000000E+00 -0.70522960288E+03  0.70522960289E+03  0.50400001928E-02 0.  1.
    10030    2    1    2    0    0  0.00000000000E+00  0.00000000000E+00 -0.10674196164E+03  0.13037172442E+04  0.12993401427E+04 0.  0.
        2    1    3    3  502    0 -0.33094383863E+03  0.37036721438E+03 -0.47356031047E+03  0.68626165963E+03  0.25500000920E-02 0.  1.
       -2    1    3    3    0  502  0.33094383863E+03 -0.37036721438E+03  0.36681834883E+03  0.61745558453E+03  0.25500000920E-02 0. -1.
</event>
<event>
 5   0  0.1408341E-04  0.1302937E+04  0.7818609E-02  0.9027239E-01
       -1   -1    0    0    0  501  0.00000000000E+00  0.00000000000E+00  0.55970334316E+03  0.55970334319E+03  0.50400001928E-02 0.  1.
        1   -1    0    0  501    0  0.00000000000E+00  0.00000000000E+00 -0.75827870059E+03  0.75827870061E+03  0.50400001928E-02 0. -1.
    10030    2    1    2    0    0  0.00000000000E+00  0.00000000000E+00 -0.19857535743E+03  0.13179820438E+04  0.13029368731E+04 0.  0.
        5    1    3    3  502    0 -0.12352902270E+03 -0.47655928520E+03 -0.53085316168E+03  0.72401335694E+03  0.46999998093E+01 0. -1.
       -5    1    3    3    0  502  0.12352902270E+03  0.47655928520E+03  0.33227780426E+03  0.59396868685E+03  0.46999998093E+01 0.  1.
</event>
<event>
 5   0  0.2723209E-04  0.1304483E+04  0.7818609E-02  0.9026018E-01
        2   -1    0    0  501    0  0.00000000000E+00  0.00000000000E+00  0.32478371887E+03  0.32478371888E+03  0.25500000920E-02 0. -1.
       -2   -1    0    0    0  501  0.00000000000E+00  0.00000000000E+00 -0.13098531904E+04  0.13098531904E+04  0.25500000920E-02 0.  1.
    10030    2    1    2    0    0  0.00000000000E+00  0.00000000000E+00 -0.98506947157E+03  0.16346369093E+04  0.13044830246E+04 0.  0.
        2    1    3    3  502    0 -0.55074268036E+03  0.12695163911E+03 -0.90048254320E+03  0.10631571047E+04  0.25500000920E-02 0.  1.
       -2    1    3    3    0  502  0.55074268036E+03 -0.12695163911E+03 -0.84586928366E+02  0.57147980463E+03  0.25500000920E-02 0. -1.
</event>
<event>
 5   0  0.2723209E-04  0.1299834E+04  0.7818609E-02  0.9029697E-01
        2   -1    0    0  501    0  0.00000000000E+00  0.00000000000E+00  0.81792727776E+03  0.81792727777E+03  0.25500000920E-02 0. -1.
       -2   -1    0    0    0  501  0.00000000000E+00  0.00000000000E+00 -0.51641765184E+03  0.51641765185E+03  0.25500000920E-02 0.  1.
    10030    2    1    2    0    0  0.00000000000E+00  0.00000000000E+00  0.30150962592E+03  0.13343449296E+04  0.12998339650E+04 0.  0.
        2    1    3    3  502    0  0.60621359354E+03 -0.18818450098E+03  0.29404504243E+03  0.69955043734E+03  0.25500000920E-02 0. -1.
       -2    1    3    3    0  502 -0.60621359354E+03  0.18818450098E+03  0.74645834966E+01  0.63479449227E+03  0.25500000920E-02 0.  1.
</event>
<event>
 5   0  0.1475396E-04  0.1300254E+04  0.7818609E-02  0.9029364E-01
        1   -1    0    0  501    0  0.00000000000E+00  0.00000000000E+00  0.21157960239E+04  0.21157960239E+04  0.50400001928E-02 0.  1.
       -1   -1    0    0    0  501  0.00000000000E+00  0.00000000000E+00 -0.19976648280E+03  0.19976648287E+03  0.50400001928E-02 0. -1.
    10030    2    1    2    0    0  0.00000000000E+00  0.00000000000E+00  0.19160295411E+04  0.23155625068E+04  0.13002540215E+04 0.  0.
        3    1    3    3  502    0  0.60606471034E+03 -0.22757036517E+03  0.10643067757E+04  0.12457333692E+04  0.10100000352E+00 0.  1.
       -3    1    3    3    0  502 -0.60606471034E+03  0.22757036517E+03  0.85172276543E+03  0.10698291376E+04  0.10100000352E+00 0. -1.
</event>
<event>
 5   0  0.2573071E-04  0.1300244E+04  0.7818609E-02  0.9029372E-01
       -2   -1    0    0    0  501  0.00000000000E+00  0.00000000000E+00  0.27015001653E+03  0.27015001654E+03  0.25500000920E-02 0. -1.
        2   -1    0    0  501    0  0.00000000000E+00  0.00000000000E+00 -0.15645330145E+04  0.15645330145E+04  0.25500000920E-02 0.  1.
    10030    2    1    2    0    0  0.00000000000E+00  0.00000000000E+00 -0.12943829980E+04  0.18346830310E+04  0.13002440075E+04 0.  0.
        4    1    3    3  502    0 -0.25763455284E+03  0.36805470088E+03  0.15868172516E+02  0.44954781443E+03  0.12699999809E+01 0. -1.
       -4    1    3    3    0  502  0.25763455284E+03 -0.36805470088E+03 -0.13102511705E+04  0.13851352166E+04  0.12699999809E+01 0.  1.
</event>
<event>
 5   0  0.1479690E-04  0.1301564E+04  0.7818609E-02  0.9028326E-01
        1   -1    0    0  501    0  0.00000000000E+00  0.00000000000E+00  0.49716508729E+03  0.49716508732E+03  0.50400001928E-02 0.  1.
       -1   -1    0    0    0  501  0.00000000000E+00  0.00000000000E+00 -0.85186375429E+03  0.85186375431E+03  0.50400001928E-02 0. -1.
    10030    2    1    2    0    0  0.00000000000E+00  0.00000000000E+00 -0.35469866700E+03  0.13490288416E+04  0.13015635486E+04 0.  0.
        1    1    3    3  502    0  0.40138622233E+03  0.47865951453E+03  0.11762997668E+02  0.62479132394E+03  0.50400001928E-02 0.  1.
       -1    1    3    3    0  502 -0.40138622233E+03 -0.47865951453E+03 -0.36646166467E+03  0.72423751769E+03  0.50400001928E-02 0. -1.
</event>
<event>
 5   0  0.2723209E-04  0.1299483E+04  0.7818609E-02  0.9029975E-01
       -2   -1    0    0    0  501  0.00000000000E+00  0.00000000000E+00  0.56805097363E+03  0.56805097364E+03  0.25500000920E-02 0.  1.
        2   -1    0    0  501    0  0.00000000000E+00  0.00000000000E+00 -0.74318029196E+03  0.74318029196E+03  0.25500000920E-02 0. -1.
    10030    2    1    2    0    0  0.00000000000E+00  0.00000000000E+00 -0.17512931833E+03  0.13112312656E+04  0.12994834180E+04 0.  0.
        2    1    3    3  502    0  0.17298518635E+03 -0.59240423532E+03 -0.29262002988E+03  0.68300302680E+03  0.25500000920E-02 0. -1.
       -2    1    3    3    0  502 -0.17298518635E+03  0.59240423532E+03  0.11749071156E+03  0.62822823880E+03  0.25500000920E-02 0.  1.
</event>
<event>
 5   0  0.1475396E-04  0.1301351E+04  0.7818609E-02  0.9028494E-01
       -1   -1    0    0    0  501  0.00000000000E+00  0.00000000000E+00  0.53485776891E+03  0.53485776894E+03  0.50400001928E-02 0.  1.
        1   -1    0    0  501    0  0.00000000000E+00  0.00000000000E+00 -0.79157277619E+03  0.79157277620E+03  0.50400001928E-02 0. -1.
    10030    2    1    2    0    0  0.00000000000E+00  0.00000000000E+00 -0.25671500727E+03  0.13264305451E+04  0.13013513730E+04 0.  0.
        3    1    3    3  502    0 -0.32090356202E+03  0.37886765014E+03  0.30029323769E+03  0.58025497089E+03  0.10100000352E+00 0.  1.
       -3    1    3    3    0  502  0.32090356202E+03 -0.37886765014E+03 -0.55700824496E+03  0.74617557425E+03  0.10100000352E+00 0. -1.
</event>
<event>
 5   0  0.2794825E-04  0.1298539E+04  0.7818609E-02  0.9030724E-01
        2   -1    0    0  501    0  0.00000000000E+00  0.00000000000E+00  0.12460704677E+04  0.12460704677E+04  0.25500000920E-02 0. -1.
       -2   -1    0    0    0  501  0.00000000000E+00  0.00000000000E+00 -0.33830429316E+03  0.33830429317E+03  0.25500000920E-02 0.  1.
    10030    2    1    2    0    0  0.00000000000E+00  0.00000000000E+00  0.90776617455E+03  0.15843747609E+04  0.12985391620E+04 0.  0.
        1    1    3    3  502    0 -0.37540227826E+03 -0.52168772107E+03  0.34161843887E+03  0.72786544542E+03  0.50400001928E-02 0.  1.
       -1    1    3    3    0  502  0.37540227826E+03  0.52168772107E+03  0.56614773569E+03  0.85650931547E+03  0.50400001928E-02 0. -1.
</event>
<event>
 5   0  0.1002887E-04  0.1316833E+04  0.7818609E-02  0.9016322E-01
       -4   -1    0    0    0  501  0.00000000000E+00  0.00000000000E+00  0.85386712359E+03  0.85386806806E+03  0.12699999809E+01 0. -1.
        4   -1    0    0  501    0  0.00000000000E+00  0.00000000000E+00 -0.50770276256E+03  0.50770435098E+03  0.12699999809E+01 0.  1.
    10030    2    1    2    0    0  0.00000000000E+00  0.00000000000E+00  0.34616436103E+03  0.13615724190E+04  0.13168332041E+04 0.  0.
        1    1    3    3  502    0 -0.52629824811E+03  0.35634863238E+03 -0.46238624414E+01  0.63560646149E+03  0.50400001928E-02 0.  1.
       -1    1    3    3    0  502  0.52629824811E+03 -0.35634863238E+03  0.35078822347E+03  0.72596595755E+03  0.50400001928E-02 0. -1.
</event>
<event>
 5   0  0.1479690E-04  0.1298898E+04  0.7818609E-02  0.9030440E-01
        1   -1    0    0  501    0  0.00000000000E+00  0.00000000000E+00  0.95698967989E+03  0.95698967991E+03  0.50400001928E-02 0.  1.
       -1   -1    0    0    0  501  0.00000000000E+00  0.00000000000E+00 -0.44074038163E+03  0.44074038166E+03  0.50400001928E-02 0. -1.
    10030    2    1    2    0    0  0.00000000000E+00  0.00000000000E+00  0.51624929826E+03  0.13977300616E+04  0.12988979895E+04 0.  0.
        1    1    3    3  502    0  0.64893588281E+03  0.80997402208E+01  0.23175253890E+03  0.68912453526E+03  0.50400001928E-02 0.  1.
       -1    1    3    3    0  502 -0.64893588281E+03 -0.80997402208E+01  0.28449675937E+03  0.70860552630E+03  0.50400001928E-02 0. -1.
</event>
<event>
 5   0  0.1430636E-04  0.1313057E+04  0.7818609E-02  0.9019274E-01
        1   -1    0    0  501    0  0.00000000000E+00  0.00000000000E+00  0.14460473599E+04  0.14460473599E+04  0.50400001928E-02 0. -1.
       -1   -1    0    0    0  501  0.00000000000E+00  0.00000000000E+00 -0.29807437731E+03  0.29807437735E+03  0.50400001928E-02 0.  1.
    10030    2    1    2    0    0  0.00000000000E+00  0.00000000000E+00  0.11479729826E+04  0.17441217373E+04  0.13130569925E+04 0.  0.
        4    1    3    3  502    0 -0.23680429671E+03 -0.42405542080E+03  0.11607375489E+04  0.12582577420E+04  0.12699999809E+01 0. -1.
       -4    1    3    3    0  502  0.23680429671E+03  0.42405542080E+03 -0.12764566342E+02  0.48586399528E+03  0.12699999809E+01 0.  1.
</event>
<event>
 5   0  0.1430636E-04  0.1300496E+04  0.7818609E-02  0.9029172E-01
       -1   -1    0    0    0  501  0.00000000000E+00  0.00000000000E+00  0.49873200579E+03  0.49873200582E+03  0.50400001928E-02 0.  1.
        1   -1    0    0  501    0  0.00000000000E+00  0.00000000000E+00 -0.84779482275E+03  0.84779482276E+03  0.50400001928E-02 0. -1.
    10030    2    1    2    0    0  0.00000000000E+00  0.00000000000E+00 -0.34906281695E+03  0.13465268286E+04  0.13004959246E+04 0.  0.
        4    1    3    3  502    0 -0.44396958467E+03 -0.17904036225E+03 -0.63017146096E+03  0.79137988762E+03  0.12699999809E+01 0.  1.
       -4    1    3    3    0  502  0.44396958467E+03  0.17904036225E+03  0.28110864400E+03  0.55514694096E+03  0.12699999809E+01 0. -1.
</event>
<event>
 5   0  0.2723209E-04  0.1300024E+04  0.7818609E-02  0.9029546E-01
        2   -1    0    0  501    0  0.00000000000E+00  0.00000000000E+00  0.10106052120E+04  0.10106052120E+04  0.25500000920E-02 0.  1.
       -2   -1    0    0    0  501  0.00000000000E+00  0.00000000000E+00 -0.41808190769E+03  0.41808190770E+03  0.25500000920E-02 0. -1.
    10030    2    1    2    0    0  0.00000000000E+00  0.00000000000E+00  0.59252330435E+03  0.14286871197E+04  0.13000242382E+04 0.  0.
        2    1    3    3  502    0 -0.26495230467E+03  0.23273644906E+03  0.89633304602E+03  0.96321280508E+03  0.25500000920E-02 0.  1.
       -2    1    3    3    0  502  0.26495230467E+03 -0.23273644906E+03 -0.30380974167E+03  0.46547431466E+03  0.25500000920E-02 0. -1.
</event>
<event>
 5   0  0.2723209E-04  0.1299294E+04  0.7818609E-02  0.9030125E-01
        2   -1    0    0  501    0  0.00000000000E+00  0.00000000000E+00  0.19458424299E+04  0.19458424299E+04  0.25500000920E-02 0.  1.
       -2   -1    0    0    0  501  0.00000000000E+00  0.00000000000E+00 -0.21689385805E+03  0.21689385806E+03  0.25500000920E-02 0. -1.
    10030    2    1    2    0    0  0.00000000000E+00  0.00000000000E+00  0.17289485719E+04  0.21627362880E+04  0.12992940726E+04 0.  0.
        2    1    3    3  502    0  0.13015562604E+03 -0.55636829899E+03  0.34992965935E+03  0.67002756481E+03  0.25500000920E-02 0. -1.
       -2    1    3    3    0  502 -0.13015562604E+03  0.55636829899E+03  0.13790189125E+04  0.14927087231E+04  0.25500000920E-02 0.  1.
</event>
<event>
 5   0  0.2573071E-04  0.1298045E+04  0.7818609E-02  0.9031117E-01
        2   -1    0    0  501    0  0.00000000000E+00  0.00000000000E+00  0.60290903308E+03  0.60290903309E+03  0.25500000920E-02 0.  1.
       -2   -1    0    0    0  501  0.00000000000E+00  0.00000000000E+00 -0.69866284356E+03  0.69866284357E+03  0.25500000920E-02 0. -1.
    10030    2    1    2    0    0  0.00000000000E+00  0.00000000000E+00 -0.95753810484E+02  0.13015718767E+04  0.12980448983E+04 0.  0.
        4    1    3    3  502    0  0.47495148064E+03 -0.33905650124E+03 -0.33270913147E+03  0.67174042536E+03  0.12699999809E+01 0. -1.
       -4    1    3    3    0  502 -0.47495148064E+03  0.33905650124E+03  0.23695532099E+03  0.62983145130E+03  0.12699999809E+01 0.  1.
</event>
<event>
 5   0  0.2661377E-04  0.1318995E+04  0.7818609E-02  0.9014636E-01
       -2   -1    0    0    0  501  0.00000000000E+00  0.00000000000E+00  0.35845788368E+03  0.35845788369E+03  0.25500000920E-02 0.  1.
        2   -1    0    0  501    0  0.00000000000E+00  0.00000000000E+00 -0.12133562137E+04  0.12133562137E+04  0.25500000920E-02 0. -1.
    10030    2    1    2    0    0  0.00000000000E+00  0.00000000000E+00 -0.85489833005E+03  0.15718140974E+04  0.13189952245E+04 0.  0.
        5    1    3    3  502    0 -0.51734341818E+03 -0.17322039862E+03 -0.86895723032E+03  0.10260400952E+04  0.46999998093E+01 0. -1.
       -5    1    3    3    0  502  0.51734341818E+03  0.17322039862E+03  0.14058900268E+02  0.54577400223E+03  0.46999998093E+01 0.  1.
</event>
<event>
 5   0  0.2723209E-04  0.1301564E+04  0.7818609E-02  0.9028326E-01
       -2   -1    0    0    0  501  0.00000000000E+00  0.00000000000E+00  0.22152987681E+03  0.22152987682E+03  0.25500000920E-02 0. -1.
        2   -1    0    0  501    0  0.00000000000E+00  0.00000000000E+00 -0.19117844147E+04  0.19117844147E+04  0.25500000920E-02 0.  1.
    10030    2    1    2    0    0  0.00000000000E+00  0.00000000000E+00 -0.16902545379E+04  0.21333142915E+04  0.13015642372E+04 0.  0.
        2    1    3    3  502    0 -0.40595508654E+03 -0.36497682770E+03 -0.14257953662E+04  0.15267285428E+04  0.25500000920E-02 0.  1.
       -2    1    3    3    0  502  0.40595508654E+03  0.36497682770E+03 -0.26445917164E+03  0.60658574870E+03  0.25500000920E-02 0. -1.
</event>
<event>
 5   0  0.2794825E-04  0.1297958E+04  0.7818609E-02  0.9031186E-01
       -2   -1    0    0    0  501  0.00000000000E+00  0.00000000000E+00  0.51038677001E+03  0.51038677002E+03  0.25500000920E-02 0. -1.
        2   -1    0    0  501    0  0.00000000000E+00  0.00000000000E+00 -0.82520509891E+03  0.82520509891E+03  0.25500000920E-02 0.  1.
    10030    2    1    2    0    0  0.00000000000E+00  0.00000000000E+00 -0.31481832889E+03  0.13355918689E+04  0.12979580348E+04 0.  0.
        1    1    3    3  502    0 -0.41958564875E+03 -0.32208050489E+03 -0.54432455653E+03  0.75899749086E+03  0.50400001928E-02 0.  1.
       -1    1    3    3    0  502  0.41958564875E+03  0.32208050489E+03  0.22950622764E+03  0.57659437807E+03  0.50400001928E-02 0. -1.
</event>
<event>
 5   0  0.2573071E-04  0.1299958E+04  0.7818609E-02  0.9029598E-01
        2   -1    0    0  501    0  0.00000000000E+00  0.00000000000E+00  0.10032460890E+04  0.10032460890E+04  0.25500000920E-02 0. -1.
       -2   -1    0    0    0  501  0.00000000000E+00  0.00000000000E+00 -0.42110580331E+03  0.42110580332E+03  0.25500000920E-02 0.  1.
    10030    2    1    2    0    0  0.00000000000E+00  0.00000000000E+00  0.58214028573E+03  0.14243518924E+04  0.12999580766E+04 0.  0.
        4    1    3    3  502    0  0.41796325454E+03  0.48171526137E+03  0.15365698503E+03  0.65601444888E+03  0.12699999809E+01 0.  1.
       -4    1    3    3    0  502 -0.41796325454E+03 -0.48171526137E+03  0.42848330071E+03  0.76833744349E+03  0.12699999809E+01 0. -1.
</event>
<event>
 5   0  0.2573071E-04  0.1305467E+04  0.7818609E-02  0.9025241E-01
        2   -1    0    0  501    0  0.00000000000E+00  0.00000000000E+00  0.68492103398E+03  0.68492103398E+03  0.25500000920E-02 0. -1.
       -2   -1    0    0    0  501  0.00000000000E+00  0.00000000000E+00 -0.62205816922E+03  0.62205816923E+03  0.25500000920E-02 0.  1.
    10030    2    1    2    0    0  0.00000000000E+00  0.00000000000E+00  0.62862864756E+02  0.13069792032E+04  0.13054665441E+04 0.  0.
        4    1    3    3  502    0 -0.47722991595E+03 -0.36315431275E+02  0.47578341718E+03  0.67486196825E+03  0.12699999809E+01 0. -1.
       -4    1    3    3    0  502  0.47722991595E+03  0.36315431275E+02 -0.41292055242E+03  0.63211723496E+03  0.12699999809E+01 0.  1.
</event>
<event>
 5   0  0.2661377E-04  0.1301371E+04  0.7818609E-02  0.9028479E-01
        2   -1    0    0  501    0  0.00000000000E+00  0.00000000000E+00  0.75080149212E+03  0.75080149213E+03  0.25500000920E-02 0. -1.
       -2   -1    0    0    0  501  0.00000000000E+00  0.00000000000E+00 -0.56391911569E+03  0.56391911569E+03  0.25500000920E-02 0.  1.
    10030    2    1    2    0    0  0.00000000000E+00  0.00000000000E+00  0.18688237644E+03  0.13147206078E+04  0.13013705291E+04 0.  0.
        5    1    3    3  502    0 -0.12380136146E+03 -0.46007803072E+03 -0.35424200863E+03  0.59372389385E+03  0.46999998093E+01 0. -1.
       -5    1    3    3    0  502  0.12380136146E+03  0.46007803072E+03  0.54112438506E+03  0.72099671397E+03  0.46999998093E+01 0.  1.
</event>
<event>
 5   0  0.1430636E-04  0.1303606E+04  0.7818609E-02  0.9026710E-01
       -1   -1    0    0    0  501  0.00000000000E+00  0.00000000000E+00  0.23977709272E+03  0.23977709277E+03  0.50400001928E-02 0. -1.
        1   -1    0    0  501    0  0.00000000000E+00  0.00000000000E+00 -0.17718421340E+04  0.17718421340E+04  0.50400001928E-02 0.  1.
    10030    2    1    2    0    0  0.00000000000E+00  0.00000000000E+00 -0.15320650413E+04  0.20116192268E+04  0.13036060075E+04 0.  0.
        4    1    3    3  502    0 -0.32825984401E+03  0.42068714136E+03 -0.18841656943E+03  0.56589275718E+03  0.12699999809E+01 0. -1.
       -4    1    3    3    0  502  0.32825984401E+03 -0.42068714136E+03 -0.13436484718E+04  0.14457264696E+04  0.12699999809E+01 0.  1.
</event>
<event>
 5   0  0.2661377E-04  0.1297122E+04  0.7818609E-02  0.9031851E-01
        2   -1    0    0  501    0  0.00000000000E+00  0.00000000000E+00  0.22283341269E+04  0.22283341269E+04  0.25500000920E-02 0. -1.
       -2   -1    0    0    0  501  0.00000000000E+00  0.00000000000E+00 -0.18876489134E+03  0.18876489136E+03  0.25500000920E-02 0.  1.
    10030    2    1    2    0    0  0.00000000000E+00  0.00000000000E+00  0.20395692356E+04  0.24170990183E+04  0.12971218129E+04 0.  0.
        5    1    3    3  502    0  0.58595171186E+03 -0.27334349969E+03  0.92562903975E+03  0.11291002111E+04  0.46999998093E+01 0.  1.
       -5    1    3    3    0  502 -0.58595171186E+03  0.27334349969E+03  0.11139401959E+04  0.12879988072E+04  0.46999998093E+01 0. -1.
</event>
<event>
 5   0  0.2756984E-04  0.1300257E+04  0.7818609E-02  0.9029362E-01
        2   -1    0    0  501    0  0.00000000000E+00  0.00000000000E+00  0.10109299990E+04  0.10109299990E+04  0.25500000920E-02 0.  1.
       -2   -1    0    0    0  501  0.00000000000E+00  0.00000000000E+00 -0.41809714437E+03  0.41809714437E+03  0.25500000920E-02 0. -1.
    10030    2    1    2    0    0  0.00000000000E+00  0.00000000000E+00  0.59283285462E+03  0.14290271434E+04  0.13002568142E+04 0.  0.
        3    1    3    3  502    0 -0.62843398725E+03  0.12217971065E+03  0.17202738251E+03  0.66291069426E+03  0.10100000352E+00 0. -1.
       -3    1    3    3    0  502  0.62843398725E+03 -0.12217971065E+03  0.42080547211E+03  0.76611644910E+03  0.10100000352E+00 0.  1.
</event>
<event>
 5   0  0.1002887E-04  0.1298744E+04  0.7818609E-02  0.9030561E-01
       -4   -1    0    0    0  501  0.00000000000E+00  0.00000000000E+00  0.50974013425E+03  0.50974171633E+03  0.12699999809E+01 0. -1.
        4   -1    0    0  501    0  0.00000000000E+00  0.00000000000E+00 -0.82725005671E+03  0.82725103157E+03  0.12699999809E+01 0.  1.
    10030    2    1    2    0    0  0.00000000000E+00  0.00000000000E+00 -0.31750992246E+03  0.13369927479E+04  0.12987444156E+04 0.  0.
        5    1    3    3  502    0 -0.22068526961E+03 -0.26998988011E+03 -0.72266977067E+03  0.80241523604E+03  0.46999998093E+01 0.  1.
       -5    1    3    3    0  502  0.22068526961E+03  0.26998988011E+03  0.40515984821E+03  0.53457751186E+03  0.46999998093E+01 0. -1.
</event>
<event>
 5   0  0.1479690E-04  0.1294771E+04  0.7818609E-02  0.9033722E-01
        1   -1    0    0  501    0  0.00000000000E+00  0.00000000000E+00  0.55993458969E+03  0.55993458971E+03  0.50400001928E-02 0. -1.
       -1   -1    0    0    0  501  0.00000000000E+00  0.00000000000E+00 -0.74849403367E+03  0.74849403369E+03  0.50400001928E-02 0.  1.
    10030    2    1    2    0    0  0.00000000000E+00  0.00000000000E+00 -0.18855944398E+03  0.13084286234E+04  0.12947705583E+04 0.  0.
        1    1    3    3  502    0 -0.10553742237E+03 -0.15508769401E+03  0.53186697744E+03  0.56397945182E+03  0.50400001928E-02 0. -1.
       -1    1    3    3    0  502  0.10553742237E+03  0.15508769401E+03 -0.72042642142E+03  0.74444917158E+03  0.50400001928E-02 0.  1.
</event>
<event>
 5   0  0.1408341E-04  0.1298690E+04  0.7818609E-02  0.9030605E-01
        1   -1    0    0  501    0  0.00000000000E+00  0.00000000000E+00  0.12616263643E+04  0.12616263644E+04  0.50400001928E-02 0.  1.
       -1   -1    0    0    0  501  0.00000000000E+00  0.00000000000E+00 -0.33421066397E+03  0.33421066401E+03  0.50400001928E-02 0. -1.
    10030    2    1    2    0    0  0.00000000000E+00  0.00000000000E+00  0.92741570037E+03  0.15958370284E+04  0.12986900861E+04 0.  0.
        5    1    3    3  502    0 -0.36425653709E+03 -0.37475315663E+03  0.93724308078E+03  0.10731120332E+04  0.46999998093E+01 0.  1.
       -5    1    3    3    0  502  0.36425653709E+03  0.37475315663E+03 -0.98273804100E+01  0.52272499521E+03  0.46999998093E+01 0. -1.
</event>
<event>
 5   0  0.1408341E-04  0.1296725E+04  0.7818609E-02  0.9032167E-01
       -1   -1    0    0    0  501  0.00000000000E+00  0.00000000000E+00  0.18841211348E+03  0.18841211354E+03  0.50400001928E-02 0.  1.
        1   -1    0    0  501    0  0.00000000000E+00  0.00000000000E+00 -0.22311392842E+04  0.22311392842E+04  0.50400001928E-02 0. -1.
    10030    2    1    2    0    0  0.00000000000E+00  0.00000000000E+00 -0.20427271707E+04  0.24195513977E+04  0.12967245939E+04 0.  0.
        5    1    3    3  502    0  0.49911288747E+03 -0.41071694408E+03 -0.92714984872E+03  0.11302349378E+04  0.46999998093E+01 0.  1.
       -5    1    3    3    0  502 -0.49911288747E+03  0.41071694408E+03 -0.11155773220E+04  0.12893164599E+04  0.46999998093E+01 0. -1.
</event>
<event>
 5   0  0.2794825E-04  0.1296639E+04  0.7818609E-02  0.9032234E-01
       -2   -1    0    0    0  501  0.00000000000E+00  0.00000000000E+00  0.83868818441E+03  0.83868818441E+03  0.25500000920E-02 0.  1.
        2   -1    0    0  501    0  0.00000000000E+00  0.00000000000E+00 -0.50116181819E+03  0.50116181820E+03  0.25500000920E-02 0. -1.
    10030    2    1    2    0    0  0.00000000000E+00  0.00000000000E+00  0.33752636622E+03  0.13398500026E+04  0.12966394956E+04 0.  0.
        1    1    3    3  502    0 -0.48445351510E+03  0.43071023715E+03  0.17969782696E+03  0.67267958622E+03  0.50400001928E-02 0.  1.
       -1    1    3    3    0  502  0.48445351510E+03 -0.43071023715E+03  0.15782853925E+03  0.66717041639E+03  0.50400001928E-02 0. -1.
</event>
<event>
 5   0  0.2794825E-04  0.1304985E+04  0.7818609E-02  0.9025622E-01
        2   -1    0    0  501    0  0.00000000000E+00  0.00000000000E+00  0.81015936904E+03  0.81015936905E+03  0.25500000920E-02 0. -1.
       -2   -1    0    0    0  501  0.00000000000E+00  0.00000000000E+00 -0.52550915504E+03  0.52550915504E+03  0.25500000920E-02 0.  1.
    10030    2    1    2    0    0  0.00000000000E+00  0.00000000000E+00  0.28465021401E+03  0.13356685241E+04  0.13049845447E+04 0.  0.
        1    1    3    3  502    0  0.46586654158E+03  0.14408969465E+02 -0.32503705873E+03  0.56823264825E+03  0.50400001928E-02 0.  1.
       -1    1    3    3    0  502 -0.46586654158E+03 -0.14408969465E+02  0.60968727274E+03  0.76743587584E+03  0.50400001928E-02 0. -1.
</event>
<event>
 5   0  0.1430636E-04  0.1299116E+04  0.7818609E-02  0.9030267E-01
        1   -1    0    0  501    0  0.00000000000E+00  0.00000000000E+00  0.64920988784E+03  0.64920988786E+03  0.50400001928E-02 0.  1.
       -1   -1    0    0    0  501  0.00000000000E+00  0.00000000000E+00 -0.64990621194E+03  0.64990621196E+03  0.50400001928E-02 0. -1.
    10030    2    1    2    0    0  0.00000000000E+00  0.00000000000E+00 -0.69632410887E+00  0.12991160998E+04  0.12991159132E+04 0.  0.
        4    1    3    3  502    0  0.36933480397E+03  0.37076726189E+03  0.38442113078E+03  0.64935181420E+03  0.12699999809E+01 0.  1.
       -4    1    3    3    0  502 -0.36933480397E+03 -0.37076726189E+03 -0.38511745489E+03  0.64976428562E+03  0.12699999809E+01 0. -1.
</event>
<event>
 5   0  0.2723209E-04  0.1302082E+04  0.7818609E-02  0.9027916E-01
       -2   -1    0    0    0  501  0.00000000000E+00  0.00000000000E+00  0.69416617015E+03  0.69416617015E+03  0.25500000920E-02 0.  1.
        2   -1    0    0  501    0  0.00000000000E+00  0.00000000000E+00 -0.61059515436E+03  0.61059515436E+03  0.25500000920E-02 0. -1.
    10030    2    1    2    0    0  0.00000000000E+00  0.00000000000E+00  0.83571015792E+02  0.13047613245E+04  0.13020821784E+04 0.  0.
        2    1    3    3  502    0 -0.47569051283E+03  0.15690986443E+03  0.45851658555E+03  0.67907262409E+03  0.25500000920E-02 0.  1.
       -2    1    3    3    0  502  0.47569051283E+03 -0.15690986443E+03 -0.37494556976E+03  0.62568870043E+03  0.25500000920E-02 0. -1.
</event>
<event>
 5   0  0.1002887E-04  0.1301405E+04  0.7818609E-02  0.9028452E-01
       -3   -1    0    0    0  501  0.00000000000E+00  0.00000000000E+00  0.75086887382E+03  0.75086888062E+03  0.10100000352E+00 0. -1.
        3   -1    0    0  501    0  0.00000000000E+00  0.00000000000E+00 -0.56389809931E+03  0.56389810836E+03  0.10100000352E+00 0.  1.
    10030    2    1    2    0    0  0.00000000000E+00  0.00000000000E+00  0.18697077451E+03  0.13147669890E+04  0.13014046891E+04 0.  0.
        4    1    3    3  502    0  0.43801037605E+03  0.11633742797E+03 -0.37823974571E+03  0.59030026666E+03  0.12699999809E+01 0.  1.
       -4    1    3    3    0  502 -0.43801037605E+03 -0.11633742797E+03  0.56521052022E+03  0.72446672232E+03  0.12699999809E+01 0. -1.
</event>
<event>
 5   0  0.2661377E-04  0.1300103E+04  0.7818609E-02  0.9029484E-01
        2   -1    0    0  501    0  0.00000000000E+00  0.00000000000E+00  0.92664111881E+03  0.92664111881E+03  0.25500000920E-02 0.  1.
       -2   -1    0    0    0  501  0.00000000000E+00  0.00000000000E+00 -0.45602001380E+03  0.45602001381E+03  0.25500000920E-02 0. -1.
    10030    2    1    2    0    0  0.00000000000E+00  0.00000000000E+00  0.47062110501E+03  0.13826611326E+04  0.13001029125E+04 0.  0.
        5    1    3    3  502    0  0.15686183684E+03  0.57106052361E+03 -0.49717811278E+02  0.59431448597E+03  0.46999998093E+01 0. -1.
       -5    1    3    3    0  502 -0.15686183684E+03 -0.57106052361E+03  0.52033891629E+03  0.78834664665E+03  0.46999998093E+01 0.  1.
</event>
<event>
 5   0  0.2661377E-04  0.1294620E+04  0.7818609E-02  0.9033843E-01
        2   -1    0    0  501    0  0.00000000000E+00  0.00000000000E+00  0.12270637182E+04  0.12270637182E+04  0.25500000920E-02 0. -1.
       -2   -1    0    0    0  501  0.00000000000E+00  0.00000000000E+00 -0.34147374934E+03  0.34147374935E+03  0.25500000920E-02 0.  1.
    10030    2    1    2    0    0  0.00000000000E+00  0.00000000000E+00  0.88558996890E+03  0.15685374676E+04  0.12946197103E+04 0.  0.
        5    1    3    3  502    0  0.40430363416E+03  0.39785891188E+03  0.82059640032E+03  0.99757389930E+03  0.46999998093E+01 0. -1.
       -5    1    3    3    0  502 -0.40430363416E+03 -0.39785891188E+03  0.64993568576E+02  0.57096356829E+03  0.46999998093E+01 0.  1.
</event>
<event>
 5   0  0.1479690E-04  0.1298899E+04  0.7818609E-02  0.9030439E-01
        1   -1    0    0  501    0  0.00000000000E+00  0.00000000000E+00  0.75223116969E+03  0.75223116971E+03  0.50400001928E-02 0. -1.
       -1   -1    0    0    0  501  0.00000000000E+00  0.00000000000E+00 -0.56071144478E+03  0.56071144480E+03  0.50400001928E-02 0.  1.
    10030    2    1    2    0    0  0.00000000000E+00  0.00000000000E+00  0.19151972491E+03  0.13129426145E+04  0.12988989583E+04 0.  0.
        1    1    3    3  502    0 -0.28761237757E+03 -0.21866600169E+03  0.64126964393E+03  0.73604514554E+03  0.50400001928E-02 0. -1.
       -1    1    3    3    0  502  0.28761237757E+03  0.21866600169E+03 -0.44974991901E+03  0.57689746897E+03  0.50400001928E-02 0.  1.
</event>
<event>
 5   0  0.1430636E-04  0.1321448E+04  0.7818609E-02  0.9012728E-01
        1   -1    0    0  501    0  0.00000000000E+00  0.00000000000E+00  0.42377366982E+03  0.42377366985E+03  0.50400001928E-02 0.  1.
       -1   -1    0    0    0  501  0.00000000000E+00  0.00000000000E+00 -0.10301632564E+04  0.10301632564E+04  0.50400001928E-02 0. -1.
    10030    2    1    2    0    0  0.00000000000E+00  0.00000000000E+00 -0.60638958661E+03  0.14539369263E+04  0.13214477874E+04 0.  0.
        4    1    3    3  502    0  0.42881116037E+03  0.62568562630E+02  0.24557016195E+03  0.49809653043E+03  0.12699999809E+01 0.  1.
       -4    1    3    3    0  502 -0.42881116037E+03 -0.62568562630E+02 -0.85195974855E+03  0.95584039585E+03  0.12699999809E+01 0. -1.
</event>
<event>
 5   0  0.2756984E-04  0.1303604E+04  0.7818609E-02  0.9026712E-01
        2   -1    0    0  501    0  0.00000000000E+00  0.00000000000E+00  0.12752746628E+04  0.12752746628E+04  0.25500000920E-02 0. -1.
       -2   -1    0    0    0  501  0.00000000000E+00  0.00000000000E+00 -0.33314045081E+03  0.33314045082E+03  0.25500000920E-02 0.  1.
    10030    2    1    2    0    0  0.00000000000E+00  0.00000000000E+00  0.94213421201E+03  0.16084151136E+04  0.13036035840E+04 0.  0.
        3    1    3    3  502    0  0.46097017746E+03 -0.45578088294E+03  0.38724118100E+03  0.75510625758E+03  0.10100000352E+00 0. -1.
       -3    1    3    3    0  502 -0.46097017746E+03  0.45578088294E+03  0.55489303101E+03  0.85330885606E+03  0.10100000352E+00 0.  1.
</event>
<event>
 5   0  0.2794825E-04  0.1300419E+04  0.7818609E-02  0.9029233E-01
        2   -1    0    0  501    0  0.00000000000E+00  0.00000000000E+00  0.73239020759E+03  0.73239020760E+03  0.25500000920E-02 0. -1.
       -2   -1    0    0    0  501  0.00000000000E+00  0.00000000000E+00 -0.57725041330E+03  0.57725041331E+03  0.25500000920E-02 0.  1.
    10030    2    1    2    0    0  0.00000000000E+00  0.00000000000E+00  0.15513979429E+03  0.13096406209E+04  0.13004192401E+04 0.  0.
        1    1    3    3  502    0  0.11387869708E+03 -0.18366012873E+03 -0.54002672814E+03  0.58165992441E+03  0.50400001928E-02 0.  1.
       -1    1    3    3    0  502 -0.11387869708E+03  0.18366012873E+03  0.69516652243E+03  0.72798069649E+03  0.50400001928E-02 0. -1.
</event>
<event>
 5   0  0.2661377E-04  0.1299562E+04  0.7818609E-02  0.9029912E-01
       -2   -1    0    0    0  501  0.00000000000E+00  0.00000000000E+00  0.64537406542E+03  0.64537406542E+03  0.25500000920E-02 0. -1.
        2   -1    0    0  501    0  0.00000000000E+00  0.00000000000E+00 -0.65421825722E+03  0.65421825722E+03  0.25500000920E-02 0.  1.
    10030    2    1    2    0    0  0.00000000000E+00  0.00000000000E+00 -0.88441918011E+01  0.12995923226E+04  0.12995622283E+04 0.  0.
        5    1    3    3  502    0 -0.25646271728E+03  0.56169547717E+03  0.19786573629E+03  0.64841952008E+03  0.46999998093E+01 0. -1.
       -5    1    3    3    0  502  0.25646271728E+03 -0.56169547717E+03 -0.20670992809E+03  0.65117280256E+03  0.46999998093E+01 0.  1.
</event>
<event>
 5   0  0.1002887E-04  0.1316165E+04  0.7818609E-02  0.9016844E-01
       -4   -1    0    0    0  501  0.00000000000E+00  0.00000000000E+00  0.27707577578E+03  0.27707868634E+03  0.12699999809E+01 0.  1.
        4   -1    0    0  501    0  0.00000000000E+00  0.00000000000E+00 -0.15629987696E+04  0.15629992855E+04  0.12699999809E+01 0. -1.
    10030    2    1    2    0    0  0.00000000000E+00  0.00000000000E+00 -0.12859229938E+04  0.18400779719E+04  0.13161645021E+04 0.  0.
        5    1    3    3  502    0 -0.12959152664E+03 -0.64120744310E+03 -0.74289312028E+03  0.98987535933E+03  0.46999998093E+01 0. -1.
       -5    1    3    3    0  502  0.12959152664E+03  0.64120744310E+03 -0.54302987353E+03  0.85020261256E+03  0.46999998093E+01 0.  1.
</event>
<event>
 5   0  0.2756984E-04  0.1290034E+04  0.7818609E-02  0.9037506E-01
        2   -1    0    0  501    0  0.00000000000E+00  0.00000000000E+00  0.95347161696E+03  0.95347161697E+03  0.25500000920E-02 0. -1.
       -2   -1    0    0    0  501  0.00000000000E+00  0.00000000000E+00 -0.43634933349E+03  0.43634933349E+03  0.25500000920E-02 0.  1.
    10030    2    1    2    0    0  0.00000000000E+00  0.00000000000E+00  0.51712228348E+03  0.13898209505E+04  0.12900336501E+04 0.  0.
        3    1    3    3  502    0  0.33663549859E+03 -0.53577600726E+03  0.39341239010E+03  0.74508570497E+03  0.10100000352E+00 0.  1.
       -3    1    3    3    0  502 -0.33663549859E+03  0.53577600726E+03  0.12370989338E+03  0.64473524549E+03  0.10100000352E+00 0. -1.
</event>
<event>
 5   0  0.2573071E-04  0.1296942E+04  0.7818609E-02  0.9031994E-01
        2   -1    0    0  501    0  0.00000000000E+00  0.00000000000E+00  0.15942452678E+04  0.15942452678E+04  0.25500000920E-02 0. -1.
       -2   -1    0    0    0  501  0.00000000000E+00  0.00000000000E+00 -0.26377021025E+03  0.26377021027E+03  0.25500000920E-02 0.  1.
    10030    2    1    2    0    0  0.00000000000E+00  0.00000000000E+00  0.13304750575E+04  0.18580154781E+04  0.12969416479E+04 0.  0.
        4    1    3    3  502    0  0.42861782649E+03 -0.46530153110E+03  0.46115155734E+03  0.78286724785E+03  0.12699999809E+01 0. -1.
       -4    1    3    3    0  502 -0.42861782649E+03  0.46530153110E+03  0.86932350019E+03  0.10751482302E+04  0.12699999809E+01 0.  1.
</event>
<event>
 5   0  0.1408341E-04  0.1304073E+04  0.7818609E-02  0.9026342E-01
        1   -1    0    0  501    0  0.00000000000E+00  0.00000000000E+00  0.85641835235E+03  0.85641835236E+03  0.50400001928E-02 0.  1.
       -1   -1    0    0    0  501  0.00000000000E+00  0.00000000000E+00 -0.49642956000E+03  0.49642956003E+03  0.50400001928E-02 0. -1.
    10030    2    1    2    0    0  0.00000000000E+00  0.00000000000E+00  0.35998879235E+03  0.13528479124E+04  0.13040726757E+04 0.  0.
        5    1    3    3  502    0 -0.18665424445E+03  0.33214324285E+03 -0.36891820988E+03  0.53035994978E+03  0.46999998093E+01 0. -1.
       -5    1    3    3    0  502  0.18665424445E+03 -0.33214324285E+03  0.72890700223E+03  0.82248796261E+03  0.46999998093E+01 0.  1.
</event>
<event>
 5   0  0.2756984E-04  0.1266670E+04  0.7818609E-02  0.9056422E-01
       -2   -1    0    0    0  501  0.00000000000E+00  0.00000000000E+00  0.37045998790E+03  0.37045998791E+03  0.25500000920E-02 0.  1.
        2   -1    0    0  501    0  0.00000000000E+00  0.00000000000E+00 -0.10827442856E+04  0.10827442856E+04  0.25500000920E-02 0. -1.
    10030    2    1    2    0    0  0.00000000000E+00  0.00000000000E+00 -0.71228429770E+03  0.14532042735E+04  0.12666703359E+04 0.  0.
        3    1    3    3  502    0 -0.54169304007E+02  0.40057235521E+03 -0.91550902955E+03  0.10007743595E+04  0.10100000352E+00 0. -1.
       -3    1    3    3    0  502  0.54169304007E+02 -0.40057235521E+03  0.20322473185E+03  0.45242991401E+03  0.10100000352E+00 0.  1.
</event>
<event>
 5   0  0.2573071E-04  0.1301964E+04  0.7818609E-02  0.9028009E-01
       -2   -1    0    0    0  501  0.00000000000E+00  0.00000000000E+00  0.39305043484E+03  0.39305043485E+03  0.25500000920E-02 0.  1.
        2   -1    0    0  501    0  0.00000000000E+00  0.00000000000E+00 -0.10781763037E+04  0.10781763037E+04  0.25500000920E-02 0. -1.
    10030    2    1    2    0    0  0.00000000000E+00  0.00000000000E+00 -0.68512586890E+03  0.14712267386E+04  0.13019641547E+04 0.  0.
        4    1    3    3  502    0 -0.26336664173E+03 -0.19869313118E+03 -0.97671165047E+03  0.10309258991E+04  0.12699999809E+01 0. -1.
       -4    1    3    3    0  502  0.26336664173E+03  0.19869313118E+03  0.29158578157E+03  0.44030083950E+03  0.12699999809E+01 0.  1.
</event>
<event>
 5   0  0.2794825E-04  0.1301197E+04  0.7818609E-02  0.9028617E-01
        2   -1    0    0  501    0  0.00000000000E+00  0.00000000000E+00  0.14720271920E+04  0.14720271920E+04  0.25500000920E-02 0. -1.
       -2   -1    0    0    0  501  0.00000000000E+00  0.00000000000E+00 -0.28754788760E+03  0.28754788762E+03  0.25500000920E-02 0.  1.
    10030    2    1    2    0    0  0.00000000000E+00  0.00000000000E+00  0.11844793044E+04  0.17595750796E+04  0.13011968484E+04 0.  0.
        1    1    3    3  502    0 -0.27294685563E+03 -0.50550563423E+03  0.17931437525E+03  0.60182188181E+03  0.50400001928E-02 0.  1.
       -1    1    3    3    0  502  0.27294685563E+03  0.50550563423E+03  0.10051649292E+04  0.11577531978E+04  0.50400001928E-02 0. -1.
</event>
<event>
 5   0  0.1430636E-04  0.1303166E+04  0.7818609E-02  0.9027058E-01
       -1   -1    0    0    0  501  0.00000000000E+00  0.00000000000E+00  0.29309180928E+03  0.29309180932E+03  0.50400001928E-02 0.  1.
        1   -1    0    0  501    0  0.00000000000E+00  0.00000000000E+00 -0.14485570886E+04  0.14485570886E+04  0.50400001928E-02 0. -1.
    10030    2    1    2    0    0  0.00000000000E+00  0.00000000000E+00 -0.11554652793E+04  0.17416488979E+04  0.13031657116E+04 0.  0.
        4    1    3    3  502    0 -0.41497637930E+03 -0.18987858141E+03  0.43835229054E+02  0.45845655329E+03  0.12699999809E+01 0.  1.
       -4    1    3    3    0  502  0.41497637930E+03  0.18987858141E+03 -0.11993005083E+04  0.12831923446E+04  0.12699999809E+01 0. -1.
</event>
<event>
 5   0  0.2756984E-04  0.1300415E+04  0.7818609E-02  0.9029236E-01
       -2   -1    0    0    0  501  0.00000000000E+00  0.00000000000E+00  0.26057686887E+03  0.26057686889E+03  0.25500000920E-02 0.  1.
        2   -1    0    0  501    0  0.00000000000E+00  0.00000000000E+00 -0.16224387640E+04  0.16224387640E+04  0.25500000920E-02 0. -1.
    10030    2    1    2    0    0  0.00000000000E+00  0.00000000000E+00 -0.13618618951E+04  0.18830156329E+04  0.13004153384E+04 0.  0.
        3    1    3    3  502    0 -0.55207043624E+03  0.26696121360E+03 -0.36794631694E+03  0.71514652938E+03  0.10100000352E+00 0. -1.
       -3    1    3    3    0  502  0.55207043624E+03 -0.26696121360E+03 -0.99391557818E+03  0.11678691035E+04  0.10100000352E+00 0.  1.
</event>
<event>
 5   0  0.2661377E-04  0.1301620E+04  0.7818609E-02  0.9028281E-01
       -2   -1    0    0    0  501  0.00000000000E+00  0.00000000000E+00  0.47382758509E+03  0.47382758510E+03  0.25500000920E-02 0.  1.
        2   -1    0    0  501    0  0.00000000000E+00  0.00000000000E+00 -0.89389821896E+03  0.89389821896E+03  0.25500000920E-02 0. -1.
    10030    2    1    2    0    0  0.00000000000E+00  0.00000000000E+00 -0.42007063387E+03  0.13677258041E+04  0.13016199667E+04 0.  0.
        5    1    3    3  502    0  0.21539836363E+03 -0.56851188813E+03  0.33985749307E+02  0.60891653217E+03  0.46999998093E+01 0. -1.
       -5    1    3    3    0  502 -0.21539836363E+03  0.56851188813E+03 -0.45405638317E+03  0.75880927189E+03  0.46999998093E+01 0.  1.
</event>
<event>
 5   0  0.1475396E-04  0.1301678E+04  0.7818609E-02  0.9028235E-01
        1   -1    0    0  501    0  0.00000000000E+00  0.00000000000E+00  0.23302748643E+03  0.23302748649E+03  0.50400001928E-02 0.  1.
       -1   -1    0    0    0  501  0.00000000000E+00  0.00000000000E+00 -0.18177754772E+04  0.18177754772E+04  0.50400001928E-02 0. -1.
    10030    2    1    2    0    0  0.00000000000E+00  0.00000000000E+00 -0.15847479908E+04  0.20508029637E+04  0.13016783787E+04 0.  0.
        3    1    3    3  502    0 -0.20443852380E+03  0.23101162382E+03 -0.16952783781E+04  0.17231164412E+04  0.10100000352E+00 0. -1.
       -3    1    3    3    0  502  0.20443852380E+03 -0.23101162382E+03  0.11053038730E+03  0.32768652257E+03  0.10100000352E+00 0.  1.
</event>
<event>
 5   0  0.1002887E-04  0.1300484E+04  0.7818609E-02  0.9029181E-01
       -3   -1    0    0    0  501  0.00000000000E+00  0.00000000000E+00  0.41980137617E+03  0.41980138832E+03  0.10100000352E+00 0.  1.
        3   -1    0    0  501    0  0.00000000000E+00  0.00000000000E+00 -0.10071783622E+04  0.10071783673E+04  0.10100000352E+00 0. -1.
    10030    2    1    2    0    0  0.00000000000E+00  0.00000000000E+00 -0.58737698602E+03  0.14269797556E+04  0.13004843325E+04 0.  0.
        5    1    3    3  502    0 -0.25280179046E+03 -0.59502244598E+03 -0.36996501877E+03  0.74488701263E+03  0.46999998093E+01 0.  1.
       -5    1    3    3    0  502  0.25280179046E+03  0.59502244598E+03 -0.21741196725E+03  0.68209274295E+03  0.46999998093E+01 0. -1.
</event>
<event>
 5   0  0.1430636E-04  0.1299208E+04  0.7818609E-02  0.9030193E-01
       -1   -1    0    0    0  501  0.00000000000E+00  0.00000000000E+00  0.24771164807E+03  0.24771164812E+03  0.50400001928E-02 0. -1.
        1   -1    0    0  501    0  0.00000000000E+00  0.00000000000E+00 -0.17035347450E+04  0.17035347450E+04  0.50400001928E-02 0.  1.
    10030    2    1    2    0    0  0.00000000000E+00  0.00000000000E+00 -0.14558230969E+04  0.19512463931E+04  0.12992080654E+04 0.  0.
        4    1    3    3  502    0  0.37956604862E+03  0.31907677571E+03 -0.13581679869E+04  0.14458569319E+04  0.12699999809E+01 0.  1.
       -4    1    3    3    0  502 -0.37956604862E+03 -0.31907677571E+03 -0.97655110020E+02  0.50538946118E+03  0.12699999809E+01 0. -1.
</event>
<event>
 5   0  0.2573071E-04  0.1300321E+04  0.7818609E-02  0.9029311E-01
       -2   -1    0    0    0  501  0.00000000000E+00  0.00000000000E+00  0.25990726232E+03  0.25990726233E+03  0.25500000920E-02 0.  1.
        2   -1    0    0  501    0  0.00000000000E+00  0.00000000000E+00 -0.16263816291E+04  0.16263816291E+04  0.25500000920E-02 0. -1.
    10030    2    1    2    0    0  0.00000000000E+00  0.00000000000E+00 -0.13664743668E+04  0.18862888914E+04  0.13003205708E+04 0.  0.
        4    1    3    3  502    0  0.77845218727E+02 -0.29449237240E+03  0.14998889044E+03  0.33953485188E+03  0.12699999809E+01 0.  1.
       -4    1    3    3    0  502 -0.77845218727E+02  0.29449237240E+03 -0.15164632572E+04  0.15467540395E+04  0.12699999809E+01 0. -1.
</event>
<event>
 5   0  0.1475396E-04  0.1299037E+04  0.7818609E-02  0.9030329E-01
        1   -1    0    0  501    0  0.00000000000E+00  0.00000000000E+00  0.40066064669E+03  0.40066064673E+03  0.50400001928E-02 0.  1.
       -1   -1    0    0    0  501  0.00000000000E+00  0.00000000000E+00 -0.10529465943E+04  0.10529465943E+04  0.50400001928E-02 0. -1.
    10030    2    1    2    0    0  0.00000000000E+00  0.00000000000E+00 -0.65228594762E+03  0.14536072411E+04  0.12990369717E+04 0.  0.
        3    1    3    3  502    0  0.50030126351E+03 -0.41324039970E+03 -0.29438910805E+03  0.71255451676E+03  0.10100000352E+00 0. -1.
       -3    1    3    3    0  502 -0.50030126351E+03  0.41324039970E+03 -0.35789683957E+03  0.74105272430E+03  0.10100000352E+00 0.  1.
</event>
<event>
 5   0  0.2661377E-04  0.1298715E+04  0.7818609E-02  0.9030585E-01
        2   -1    0    0  501    0  0.00000000000E+00  0.00000000000E+00  0.80761237262E+03  0.80761237262E+03  0.25500000920E-02 0.  1.
       -2   -1    0    0    0  501  0.00000000000E+00  0.00000000000E+00 -0.52211340918E+03  0.52211340919E+03  0.25500000920E-02 0. -1.
    10030    2    1    2    0    0  0.00000000000E+00  0.00000000000E+00  0.28549896343E+03  0.13297257818E+04  0.12987151330E+04 0.  0.
        5    1    3    3  502    0 -0.60009464799E+03  0.46673953172E+01  0.39667903157E+03  0.71938287109E+03  0.46999998093E+01 0.  1.
       -5    1    3    3    0  502  0.60009464799E+03 -0.46673953172E+01 -0.11118006814E+03  0.61034291073E+03  0.46999998093E+01 0. -1.
</event>
<event>
 5   0  0.2723209E-04  0.1306168E+04  0.7818609E-02  0.9024688E-01
        2   -1    0    0  501    0  0.00000000000E+00  0.00000000000E+00  0.14613205148E+04  0.14613205148E+04  0.25500000920E-02 0.  1.
       -2   -1    0    0    0  501  0.00000000000E+00  0.00000000000E+00 -0.29187199421E+03  0.29187199422E+03  0.25500000920E-02 0. -1.
    10030    2    1    2    0    0  0.00000000000E+00  0.00000000000E+00  0.11694485206E+04  0.17531925090E+04  0.13061677271E+04 0.  0.
        2    1    3    3  502    0  0.44280341567E+03 -0.20930387249E+03  0.11645905351E+04  0.12633899202E+04  0.25500000920E-02 0.  1.
       -2    1    3    3    0  502 -0.44280341567E+03  0.20930387249E+03  0.48579854413E+01  0.48980258880E+03  0.25500000920E-02 0. -1.
</event>
<event>
 5   0  0.2661377E-04  0.1322898E+04  0.7818609E-02  0.9011601E-01
        2   -1    0    0  501    0  0.00000000000E+00  0.00000000000E+00  0.15327363903E+04  0.15327363903E+04  0.25500000920E-02 0.  1.
       -2   -1    0    0    0  501  0.00000000000E+00  0.00000000000E+00 -0.28544705851E+03  0.28544705852E+03  0.25500000920E-02 0. -1.
    10030    2    1    2    0    0  0.00000000000E+00  0.00000000000E+00  0.12472893318E+04  0.18181834488E+04  0.13228984754E+04 0.  0.
        5    1    3    3  502    0 -0.36192365637E+03 -0.27229095247E+03  0.12861565167E+04  0.13635804969E+04  0.46999998093E+01 0.  1.
       -5    1    3    3    0  502  0.36192365637E+03  0.27229095247E+03 -0.38867184989E+02  0.45460295193E+03  0.46999998093E+01 0. -1.
</event>
<event>
 5   0  0.1408341E-04  0.1301503E+04  0.7818609E-02  0.9028374E-01
       -1   -1    0    0    0  501  0.00000000000E+00  0.00000000000E+00  0.39605313523E+03  0.39605313526E+03  0.50400001928E-02 0.  1.
        1   -1    0    0  501    0  0.00000000000E+00  0.00000000000E+00 -0.10692439244E+04  0.10692439244E+04  0.50400001928E-02 0. -1.
    10030    2    1    2    0    0  0.00000000000E+00  0.00000000000E+00 -0.67319078917E+03  0.14652970597E+04  0.13015028369E+04 0.  0.
        5    1    3    3  502    0  0.49562679159E+03  0.31969784504E+03 -0.27032297469E+02  0.59042820374E+03  0.46999998093E+01 0. -1.
       -5    1    3    3    0  502 -0.49562679159E+03 -0.31969784504E+03 -0.64615849170E+03  0.87486885592E+03  0.46999998093E+01 0.  1.
</event>
<event>
 5   0  0.1430636E-04  0.1300801E+04  0.7818609E-02  0.9028930E-01
        1   -1    0    0  501    0  0.00000000000E+00  0.00000000000E+00  0.61289119810E+03  0.61289119812E+03  0.50400001928E-02 0.  1.
       -1   -1    0    0    0  501  0.00000000000E+00  0.00000000000E+00 -0.69020563746E+03  0.69020563747E+03  0.50400001928E-02 0. -1.
    10030    2    1    2    0    0  0.00000000000E+00  0.00000000000E+00 -0.77314439355E+02  0.13030968356E+04  0.13008012302E+04 0.  0.
        4    1    3    3  502    0 -0.14655872347E+03  0.90592239110E+02 -0.66692661852E+03  0.68882446284E+03  0.12699999809E+01 0. -1.
       -4    1    3    3    0  502  0.14655872347E+03 -0.90592239110E+02  0.58961217917E+03  0.61427237276E+03  0.12699999809E+01 0.  1.
</event>
<event>
 5   0  0.2756984E-04  0.1295591E+04  0.7818609E-02  0.9033069E-01
        2   -1    0    0  501    0  0.00000000000E+00  0.00000000000E+00  0.10026733223E+04  0.10026733223E+04  0.25500000920E-02 0.  1.
       -2   -1    0    0    0  501  0.00000000000E+00  0.00000000000E+00 -0.41851986043E+03  0.41851986043E+03  0.25500000920E-02 0. -1.
    10030    2    1    2    0    0  0.00000000000E+00  0.00000000000E+00  0.58415346189E+03  0.14211931828E+04  0.12955905201E+04 0.  0.
        3    1    3    3  502    0  0.54339172350E+03  0.15693522492E+03  0.63850246729E+03  0.85298806611E+03  0.10100000352E+00 0.  1.
       -3    1    3    3    0  502 -0.54339172350E+03 -0.15693522492E+03 -0.54349005397E+02  0.56820511664E+03  0.10100000352E+00 0. -1.
</event>
<event>
 5   0  0.1476511E-04  0.1300056E+04  0.7818609E-02  0.9029521E-01
       -1   -1    0    0    0  501  0.00000000000E+00  0.00000000000E+00  0.38628248097E+03  0.38628248100E+03  0.50400001928E-02 0.  1.
        1   -1    0    0  501    0  0.00000000000E+00  0.00000000000E+00 -0.10938539194E+04  0.10938539194E+04  0.50400001928E-02 0. -1.
    10030    2    1    2    0    0  0.00000000000E+00  0.00000000000E+00 -0.70757143843E+03  0.14801364004E+04  0.13000563154E+04 0.  0.
        2    1    3    3  502    0  0.27287127292E+03 -0.55723508642E+02  0.31491528985E+03  0.42039919218E+03  0.25500000920E-02 0.  1.
       -2    1    3    3    0  502 -0.27287127292E+03  0.55723508642E+02 -0.10224867283E+04  0.10597372082E+04  0.25500000920E-02 0. -1.
</event>
<event>
 5   0  0.2573071E-04  0.1299452E+04  0.7818609E-02  0.9030000E-01
        2   -1    0    0  501    0  0.00000000000E+00  0.00000000000E+00  0.42168998630E+03  0.42168998631E+03  0.25500000920E-02 0.  1.
       -2   -1    0    0    0  501  0.00000000000E+00  0.00000000000E+00 -0.10010768797E+04  0.10010768798E+04  0.25500000920E-02 0. -1.
    10030    2    1    2    0    0  0.00000000000E+00  0.00000000000E+00 -0.57938689345E+03  0.14227668661E+04  0.12994523396E+04 0.  0.
        4    1    3    3  502    0  0.18899873558E+03 -0.53118619342E+03  0.63846822795E+02  0.56741283367E+03  0.12699999809E+01 0.  1.
       -4    1    3    3    0  502 -0.18899873558E+03  0.53118619342E+03 -0.64323371624E+03  0.85535403240E+03  0.12699999809E+01 0. -1.
</event>
<event>
 5   0  0.1430636E-04  0.1298412E+04  0.7818609E-02  0.9030826E-01
        1   -1    0    0  501    0  0.00000000000E+00  0.00000000000E+00  0.24714358940E+04  0.24714358940E+04  0.50400001928E-02 0.  1.
       -1   -1    0    0    0  501  0.00000000000E+00  0.00000000000E+00 -0.17053575413E+03  0.17053575420E+03  0.50400001928E-02 0. -1.
    10030    2    1    2    0    0  0.00000000000E+00  0.00000000000E+00  0.23009001399E+04  0.26419716482E+04  0.12984116205E+04 0.  0.
        4    1    3    3  502    0 -0.51461882881E+03  0.22177142092E+02  0.19544868493E+04  0.20212235952E+04  0.12699999809E+01 0.  1.
       -4    1    3    3    0  502  0.51461882881E+03 -0.22177142092E+02  0.34641329059E+03  0.62074805307E+03  0.12699999809E+01 0. -1.
</event>
<event>
 5   0  0.1479690E-04  0.1299444E+04  0.7818609E-02  0.9030006E-01
        1   -1    0    0  501    0  0.00000000000E+00  0.00000000000E+00  0.78039748614E+03  0.78039748615E+03  0.50400001928E-02 0.  1.
       -1   -1    0    0    0  501  0.00000000000E+00  0.00000000000E+00 -0.54092812642E+03  0.54092812644E+03  0.50400001928E-02 0. -1.
    10030    2    1    2    0    0  0.00000000000E+00  0.00000000000E+00  0.23946935972E+03  0.13213256126E+04  0.12994444198E+04 0.  0.
        1    1    3    3  502    0 -0.16996782654E+03  0.28259941483E+03  0.68897145722E+03  0.76382796506E+03  0.50400001928E-02 0.  1.
       -1    1    3    3    0  502  0.16996782654E+03 -0.28259941483E+03 -0.44950209750E+03  0.55749764753E+03  0.50400001928E-02 0. -1.
</event>
<event>
 5   0  0.1408341E-04  0.1300455E+04  0.7818609E-02  0.9029204E-01
        1   -1    0    0  501    0  0.00000000000E+00  0.00000000000E+00  0.50524985752E+03  0.50524985754E+03  0.50400001928E-02 0. -1.
       -1   -1    0    0    0  501  0.00000000000E+00  0.00000000000E+00 -0.83680581233E+03  0.83680581234E+03  0.50400001928E-02 0.  1.
    10030    2    1    2    0    0  0.00000000000E+00  0.00000000000E+00 -0.33155595481E+03  0.13420556699E+04  0.13004553318E+04 0.  0.
        5    1    3    3  502    0  0.58989671022E+03  0.18516115053E+03  0.41934392988E+02  0.61971232334E+03  0.46999998093E+01 0. -1.
       -5    1    3    3    0  502 -0.58989671022E+03 -0.18516115053E+03 -0.37349034780E+03  0.72234334654E+03  0.46999998093E+01 0.  1.
</event>
<event>
 5   0  0.1475396E-04  0.1299805E+04  0.7818609E-02  0.9029720E-01
        1   -1    0    0  501    0  0.00000000000E+00  0.00000000000E+00  0.96766385999E+03  0.96766386000E+03  0.50400001928E-02 0. -1.
       -1   -1    0    0    0  501  0.00000000000E+00  0.00000000000E+00 -0.43648750650E+03  0.43648750653E+03  0.50400001928E-02 0.  1.
    10030    2    1    2    0    0  0.00000000000E+00  0.00000000000E+00  0.53117635349E+03  0.14041513665E+04  0.12998048860E+04 0.  0.
        3    1    3    3  502    0 -0.18586856864E+03  0.33285181768E+03  0.83418397316E+03  0.91716975998E+03  0.10100000352E+00 0. -1.
       -3    1    3    3    0  502  0.18586856864E+03 -0.33285181768E+03 -0.30300761968E+03  0.48698160656E+03  0.10100000352E+00 0.  1.
</event>
<event>
 5   0  0.2723209E-04  0.1298448E+04  0.7818609E-02  0.9030797E-01
        2   -1    0    0  501    0  0.00000000000E+00  0.00000000000E+00  0.44683982421E+03  0.44683982421E+03  0.25500000920E-02 0. -1.
       -2   -1    0    0    0  501  0.00000000000E+00  0.00000000000E+00 -0.94327199326E+03  0.94327199326E+03  0.25500000920E-02 0.  1.
    10030    2    1    2    0    0  0.00000000000E+00  0.00000000000E+00 -0.49643216905E+03  0.13901118175E+04  0.12984475217E+04 0.  0.
        2    1    3    3  502    0  0.59900608248E+03  0.89158637262E+02  0.22527518667E+01  0.60560930008E+03  0.25500000920E-02 0. -1.
       -2    1    3    3    0  502 -0.59900608248E+03 -0.89158637262E+02 -0.49868492092E+03  0.78450251740E+03  0.25500000920E-02 0.  1.
</event>
<event>
 5   0  0.1430636E-04  0.1300323E+04  0.7818609E-02  0.9029309E-01
       -1   -1    0    0    0  501  0.00000000000E+00  0.00000000000E+00  0.26307851596E+03  0.26307851601E+03  0.50400001928E-02 0. -1.
        1   -1    0    0  501    0  0.00000000000E+00  0.00000000000E+00 -0.16067830232E+04  0.16067830232E+04  0.50400001928E-02 0.  1.
    10030    2    1    2    0    0  0.00000000000E+00  0.00000000000E+00 -0.13437045072E+04  0.18698615392E+04  0.13003231802E+04 0.  0.
        4    1    3    3  502    0  0.43146075128E+01  0.39268853191E+03 -0.14169592271E+04  0.14703734095E+04  0.12699999809E+01 0.  1.
       -4    1    3    3    0  502 -0.43146075128E+01 -0.39268853191E+03  0.73254719907E+02  0.39948812976E+03  0.12699999809E+01 0. -1.
</event>
<event>
 5   0  0.2661377E-04  0.1300761E+04  0.7818609E-02  0.9028962E-01
       -2   -1    0    0    0  501  0.00000000000E+00  0.00000000000E+00  0.45073026343E+03  0.45073026344E+03  0.25500000920E-02 0.  1.
        2   -1    0    0  501    0  0.00000000000E+00  0.00000000000E+00 -0.93846503052E+03  0.93846503053E+03  0.25500000920E-02 0. -1.
    10030    2    1    2    0    0  0.00000000000E+00  0.00000000000E+00 -0.48773476709E+03  0.13891952940E+04  0.13007606858E+04 0.  0.
        5    1    3    3  502    0  0.37857136082E+03 -0.41774028205E+03 -0.59018059265E+03  0.81618529784E+03  0.46999998093E+01 0. -1.
       -5    1    3    3    0  502 -0.37857136082E+03  0.41774028205E+03  0.10244582556E+03  0.57300999612E+03  0.46999998093E+01 0.  1.
</event>
<event>
 5   0  0.1002887E-04  0.1297788E+04  0.7818609E-02  0.9031321E-01
       -3   -1    0    0    0  501  0.00000000000E+00  0.00000000000E+00  0.42987234558E+03  0.42987235744E+03  0.10100000352E+00 0. -1.
        3   -1    0    0  501    0  0.00000000000E+00  0.00000000000E+00 -0.97950867217E+03  0.97950867738E+03  0.10100000352E+00 0.  1.
    10030    2    1    2    0    0  0.00000000000E+00  0.00000000000E+00 -0.54963632660E+03  0.14093810348E+04  0.12977884303E+04 0.  0.
        5    1    3    3  502    0 -0.50306905651E+03  0.12386139356E+03  0.14944211496E+03  0.53923571484E+03  0.46999998093E+01 0. -1.
       -5    1    3    3    0  502  0.50306905651E+03 -0.12386139356E+03 -0.69907844156E+03  0.87014531998E+03  0.46999998093E+01 0.  1.
</event>
<event>
 5   0  0.2573071E-04  0.1300842E+04  0.7818609E-02  0.9028898E-01
        2   -1    0    0  501    0  0.00000000000E+00  0.00000000000E+00  0.92779711500E+03  0.92779711500E+03  0.25500000920E-02 0. -1.
       -2   -1    0    0    0  501  0.00000000000E+00  0.00000000000E+00 -0.45596984329E+03  0.45596984330E+03  0.25500000920E-02 0.  1.
    10030    2    1    2    0    0  0.00000000000E+00  0.00000000000E+00  0.47182727171E+03  0.13837669583E+04  0.13008420429E+04 0.  0.
        4    1    3    3  502    0  0.19980298506E+03  0.15173664424E+03 -0.40242384339E+03  0.47422758742E+03  0.12699999809E+01 0.  1.
       -4    1    3    3    0  502 -0.19980298506E+03 -0.15173664424E+03  0.87425111509E+03  0.90953937088E+03  0.12699999809E+01 0. -1.
</event>
<event>
 5   0  0.1479690E-04  0.1299521E+04  0.7818609E-02  0.9029945E-01
       -1   -1    0    0    0  501  0.00000000000E+00  0.00000000000E+00  0.28048514763E+03  0.28048514768E+03  0.50400001928E-02 0. -1.
        1   -1    0    0  501    0  0.00000000000E+00  0.00000000000E+00 -0.15052081955E+04  0.15052081955E+04  0.50400001928E-02 0.  1.
    10030    2    1    2    0    0  0.00000000000E+00  0.00000000000E+00 -0.12247230478E+04  0.17856933432E+04  0.12995207470E+04 0.  0.
        1    1    3    3  502    0 -0.47897873608E+03 -0.26105152054E+03 -0.12727683692E+03  0.56014990783E+03  0.50400001928E-02 0.  1.
       -1    1    3    3    0  502  0.47897873608E+03  0.26105152054E+03 -0.10974462109E+04  0.12255434353E+04  0.50400001928E-02 0. -1.
</event>
<event>
 5   0  0.2661377E-04  0.1300456E+04  0.7818609E-02  0.9029204E-01
       -2   -1    0    0    0  501  0.00000000000E+00  0.00000000000E+00  0.42108307463E+03  0.42108307464E+03  0.25500000920E-02 0. -1.
        2   -1    0    0  501    0  0.00000000000E+00  0.00000000000E+00 -0.10040683254E+04  0.10040683254E+04  0.25500000920E-02 0.  1.
    10030    2    1    2    0    0  0.00000000000E+00  0.00000000000E+00 -0.58298525075E+03  0.14251514000E+04  0.13004555780E+04 0.  0.
        5    1    3    3  502    0 -0.56498569172E+03 -0.32147948338E+03 -0.30760616043E+03  0.71916724760E+03  0.46999998093E+01 0. -1.
       -5    1    3    3    0  502  0.56498569172E+03  0.32147948338E+03 -0.27537909032E+03  0.70598415242E+03  0.46999998093E+01 0.  1.
</event>
<event>
 5   0  0.1002887E-04  0.1304345E+04  0.7818609E-02  0.9026126E-01
        3   -1    0    0  501    0  0.00000000000E+00  0.00000000000E+00  0.31903686017E+03  0.31903687616E+03  0.10100000352E+00 0. -1.
       -3   -1    0    0    0  501  0.00000000000E+00  0.00000000000E+00 -0.13331660369E+04  0.13331660407E+04  0.10100000352E+00 0.  1.
    10030    2    1    2    0    0  0.00000000000E+00  0.00000000000E+00 -0.10141291767E+04  0.16522029169E+04  0.13043452348E+04 0.  0.
        3    1    3    3  502    0  0.21579347155E+02 -0.62378235992E+03 -0.26753256474E+03  0.67907568368E+03  0.10100000352E+00 0. -1.
       -3    1    3    3    0  502 -0.21579347155E+02  0.62378235992E+03 -0.74659661200E+03  0.97312723321E+03  0.10100000352E+00 0.  1.
</event>
<event>
 5   0  0.2794825E-04  0.1301194E+04  0.7818609E-02  0.9028619E-01
        2   -1    0    0  501    0  0.00000000000E+00  0.00000000000E+00  0.90235083970E+03  0.90235083970E+03  0.25500000920E-02 0.  1.
       -2   -1    0    0    0  501  0.00000000000E+00  0.00000000000E+00 -0.46908180084E+03  0.46908180085E+03  0.25500000920E-02 0. -1.
    10030    2    1    2    0    0  0.00000000000E+00  0.00000000000E+00  0.43326903886E+03  0.13714326406E+04  0.13011938470E+04 0.  0.
        1    1    3    3  502    0 -0.59555090672E+03 -0.13327297588E+03  0.45426859607E+03  0.76079072418E+03  0.50400001928E-02 0.  1.
       -1    1    3    3    0  502  0.59555090672E+03  0.13327297588E+03 -0.20999557208E+02  0.61064191637E+03  0.50400001928E-02 0. -1.
</event>
<event>
 5   0  0.2756984E-04  0.1282478E+04  0.7818609E-02  0.9043576E-01
        2   -1    0    0  501    0  0.00000000000E+00  0.00000000000E+00  0.19362105821E+04  0.19362105821E+04  0.25500000920E-02 0.  1.
       -2   -1    0    0    0  501  0.00000000000E+00  0.00000000000E+00 -0.21236725801E+03  0.21236725802E+03  0.25500000920E-02 0. -1.
    10030    2    1    2    0    0  0.00000000000E+00  0.00000000000E+00  0.17238433241E+04  0.21485778401E+04  0.12824784322E+04 0.  0.
        3    1    3    3  502    0  0.56895503906E+03  0.74135515069E+02  0.13416106801E+04  0.14591521985E+04  0.10100000352E+00 0.  1.
       -3    1    3    3    0  502 -0.56895503906E+03 -0.74135515069E+02  0.38223264398E+03  0.68942564167E+03  0.10100000352E+00 0. -1.
</event>
<event>
 5   0  0.1479690E-04  0.1299254E+04  0.7818609E-02  0.9030157E-01
       -1   -1    0    0    0  501  0.00000000000E+00  0.00000000000E+00  0.29025005681E+03  0.29025005685E+03  0.50400001928E-02 0.  1.
        1   -1    0    0  501    0  0.00000000000E+00  0.00000000000E+00 -0.14539707081E+04  0.14539707081E+04  0.50400001928E-02 0. -1.
    10030    2    1    2    0    0  0.00000000000E+00  0.00000000000E+00 -0.11637206513E+04  0.17442207650E+04  0.12992537561E+04 0.  0.
        1    1    3    3  502    0 -0.30747393894E+03  0.12720586086E+03  0.16715812549E+03  0.37237533902E+03  0.50400001928E-02 0.  1.
       -1    1    3    3    0  502  0.30747393894E+03 -0.12720586086E+03 -0.13308787768E+04  0.13718454260E+04  0.50400001928E-02 0. -1.
</event>
<event>
 5   0  0.1476511E-04  0.1265552E+04  0.7818609E-02  0.9057338E-01
        1   -1    0    0  501    0  0.00000000000E+00  0.00000000000E+00  0.90681089121E+03  0.90681089123E+03  0.50400001928E-02 0.  1.
       -1   -1    0    0    0  501  0.00000000000E+00  0.00000000000E+00 -0.44155309034E+03  0.44155309036E+03  0.50400001928E-02 0. -1.
    10030    2    1    2    0    0  0.00000000000E+00  0.00000000000E+00  0.46525780088E+03  0.13483639816E+04  0.12655515025E+04 0.  0.
        2    1    3    3  502    0 -0.22698191838E+03 -0.13498572276E+03 -0.38003213549E+03  0.46278111525E+03  0.25500000920E-02 0. -1.
       -2    1    3    3    0  502  0.22698191838E+03  0.13498572276E+03  0.84528993637E+03  0.88558286634E+03  0.25500000920E-02 0.  1.
</event>
<event>
 5   0  0.2794825E-04  0.1296370E+04  0.7818609E-02  0.9032449E-01
        2   -1    0    0  501    0  0.00000000000E+00  0.00000000000E+00  0.30991723861E+03  0.30991723862E+03  0.25500000920E-02 0.  1.
       -2   -1    0    0    0  501  0.00000000000E+00  0.00000000000E+00 -0.13556650064E+04  0.13556650064E+04  0.25500000920E-02 0. -1.
    10030    2    1    2    0    0  0.00000000000E+00  0.00000000000E+00 -0.10457477678E+04  0.16655822450E+04  0.12963702485E+04 0.  0.
        1    1    3    3  502    0 -0.31057139525E+02  0.42104939988E+03 -0.11547793320E+04  0.12295374938E+04  0.50400001928E-02 0. -1.
       -1    1    3    3    0  502  0.31057139525E+02 -0.42104939988E+03  0.10903156420E+03  0.43604475123E+03  0.50400001928E-02 0.  1.
</event>
<event>
 5   0  0.2756984E-04  0.1291712E+04  0.7818609E-02  0.9036164E-01
        2   -1    0    0  501    0  0.00000000000E+00  0.00000000000E+00  0.56207264086E+03  0.56207264086E+03  0.25500000920E-02 0.  1.
       -2   -1    0    0    0  501  0.00000000000E+00  0.00000000000E+00 -0.74212811215E+03  0.74212811215E+03  0.25500000920E-02 0. -1.
    10030    2    1    2    0    0  0.00000000000E+00  0.00000000000E+00 -0.18005547129E+03  0.13042007530E+04  0.12917118995E+04 0.  0.
        3    1    3    3  502    0 -0.40573497024E+03 -0.32858082585E+03  0.29383709883E+03  0.59910472877E+03  0.10100000352E+00 0.  1.
       -3    1    3    3    0  502  0.40573497024E+03  0.32858082585E+03 -0.47389257012E+03  0.70509602424E+03  0.10100000352E+00 0. -1.
</event>
<event>
 5   0  0.1408341E-04  0.1300309E+04  0.7818609E-02  0.9029320E-01
        1   -1    0    0  501    0  0.00000000000E+00  0.00000000000E+00  0.18055038568E+04  0.18055038568E+04  0.50400001928E-02 0.  1.
       -1   -1    0    0    0  501  0.00000000000E+00  0.00000000000E+00 -0.23411786549E+03  0.23411786554E+03  0.50400001928E-02 0. -1.
    10030    2    1    2    0    0  0.00000000000E+00  0.00000000000E+00  0.15713859913E+04  0.20396217223E+04  0.13003087466E+04 0.  0.
        5    1    3    3  502    0  0.60162192881E+03 -0.11346181925E+03  0.44255267821E+03  0.75544522809E+03  0.46999998093E+01 0. -1.
       -5    1    3    3    0  502 -0.60162192881E+03  0.11346181925E+03  0.11288333131E+04  0.12841764942E+04  0.46999998093E+01 0.  1.
</event>
<event>
 5   0  0.2756984E-04  0.1301079E+04  0.7818609E-02  0.9028710E-01
        2   -1    0    0  501    0  0.00000000000E+00  0.00000000000E+00  0.71722760270E+03  0.71722760270E+03  0.25500000920E-02 0. -1.
       -2   -1    0    0    0  501  0.00000000000E+00  0.00000000000E+00 -0.59005229934E+03  0.59005229934E+03  0.25500000920E-02 0.  1.
    10030    2    1    2    0    0  0.00000000000E+00  0.00000000000E+00  0.12717530336E+03  0.13072799020E+04  0.13010792384E+04 0.  0.
        3    1    3    3  502    0  0.23220873102E+03  0.60324375055E+03 -0.10095794611E+02  0.64647184982E+03  0.10100000352E+00 0.  1.
       -3    1    3    3    0  502 -0.23220873102E+03 -0.60324375055E+03  0.13727109798E+03  0.66080805222E+03  0.10100000352E+00 0. -1.
</event>
<event>
 5   0  0.1430636E-04  0.1299750E+04  0.7818609E-02  0.9029763E-01
       -1   -1    0    0    0  501  0.00000000000E+00  0.00000000000E+00  0.38479250726E+03  0.38479250729E+03  0.50400001928E-02 0. -1.
        1   -1    0    0  501    0  0.00000000000E+00  0.00000000000E+00 -0.10975724255E+04  0.10975724255E+04  0.50400001928E-02 0.  1.
    10030    2    1    2    0    0  0.00000000000E+00  0.00000000000E+00 -0.71277991820E+03  0.14823649328E+04  0.12997501999E+04 0.  0.
        4    1    3    3  502    0  0.45715173937E+03 -0.66374758843E+02 -0.87771532007E+03  0.99185639959E+03  0.12699999809E+01 0.  1.
       -4    1    3    3    0  502 -0.45715173937E+03  0.66374758843E+02  0.16493540187E+03  0.49050853317E+03  0.12699999809E+01 0. -1.
</event>
<event>
 5   0  0.1430636E-04  0.1299549E+04  0.7818609E-02  0.9029923E-01
        1   -1    0    0  501    0  0.00000000000E+00  0.00000000000E+00  0.97328933267E+03  0.97328933269E+03  0.50400001928E-02 0. -1.
       -1   -1    0    0    0  501  0.00000000000E+00  0.00000000000E+00 -0.43379358496E+03  0.43379358499E+03  0.50400001928E-02 0.  1.
    10030    2    1    2    0    0  0.00000000000E+00  0.00000000000E+00  0.53949574772E+03  0.14070829177E+04  0.12995486430E+04 0.  0.
        4    1    3    3  502    0  0.19399220883E+03  0.38943129896E+03  0.79229588474E+03  0.90389385194E+03  0.12699999809E+01 0. -1.
       -4    1    3    3    0  502 -0.19399220883E+03 -0.38943129896E+03 -0.25280013702E+03  0.50318906574E+03  0.12699999809E+01 0.  1.
</event>
<event>
 5   0  0.2756984E-04  0.1300391E+04  0.7818609E-02  0.9029255E-01
        2   -1    0    0  501    0  0.00000000000E+00  0.00000000000E+00  0.23276583923E+04  0.23276583923E+04  0.25500000920E-02 0.  1.
       -2   -1    0    0    0  501  0.00000000000E+00  0.00000000000E+00 -0.18162214068E+03  0.18162214070E+03  0.25500000920E-02 0. -1.
    10030    2    1    2    0    0  0.00000000000E+00  0.00000000000E+00  0.21460362517E+04  0.25092805330E+04  0.13003911719E+04 0.  0.
        3    1    3    3  502    0 -0.13765929991E+02 -0.54004630456E+03  0.17712015623E+04  0.18517544374E+04  0.10100000352E+00 0.  1.
       -3    1    3    3    0  502  0.13765929991E+02  0.54004630456E+03  0.37483468934E+03  0.65752609563E+03  0.10100000352E+00 0. -1.
</event>
<event>
 5   0  0.1475396E-04  0.1301873E+04  0.7818609E-02  0.9028081E-01
        1   -1    0    0  501    0  0.00000000000E+00  0.00000000000E+00  0.46030646381E+03  0.46030646384E+03  0.50400001928E-02 0.  1.
       -1   -1    0    0    0  501  0.00000000000E+00  0.00000000000E+00 -0.92051329102E+03  0.92051329103E+03  0.50400001928E-02 0. -1.
    10030    2    1    2    0    0  0.00000000000E+00  0.00000000000E+00 -0.46020682721E+03  0.13808197549E+04  0.13018728324E+04 0.  0.
        3    1    3    3  502    0  0.21079789724E+03  0.15068500233E+03 -0.86345487484E+03  0.90149656377E+03  0.10100000352E+00 0. -1.
       -3    1    3    3    0  502 -0.21079789724E+03 -0.15068500233E+03  0.40324804763E+03  0.47932319110E+03  0.10100000352E+00 0.  1.
</event>
<event>
 5   0  0.1479690E-04  0.1300192E+04  0.7818609E-02  0.9029413E-01
        1   -1    0    0  501    0  0.00000000000E+00  0.00000000000E+00  0.10221233956E+04  0.10221233956E+04  0.50400001928E-02 0. -1.
       -1   -1    0    0    0  501  0.00000000000E+00  0.00000000000E+00 -0.41347753763E+03  0.41347753766E+03  0.50400001928E-02 0.  1.
    10030    2    1    2    0    0  0.00000000000E+00  0.00000000000E+00  0.60864585798E+03  0.14356009333E+04  0.13001923932E+04 0.  0.
        1    1    3    3  502    0  0.53560675883E+01  0.64427401116E+03  0.20865415886E+03  0.67724016933E+03  0.50400001928E-02 0.  1.
       -1    1    3    3    0  502 -0.53560675883E+01 -0.64427401116E+03  0.39999169913E+03  0.75836076396E+03  0.50400001928E-02 0. -1.
</event>
<event>
 5   0  0.1430636E-04  0.1291302E+04  0.7818609E-02  0.9036491E-01
       -1   -1    0    0    0  501  0.00000000000E+00  0.00000000000E+00  0.36381554256E+03  0.36381554260E+03  0.50400001928E-02 0. -1.
        1   -1    0    0  501    0  0.00000000000E+00  0.00000000000E+00 -0.11458146888E+04  0.11458146888E+04  0.50400001928E-02 0.  1.
    10030    2    1    2    0    0  0.00000000000E+00  0.00000000000E+00 -0.78199914620E+03  0.15096302314E+04  0.12913019673E+04 0.  0.
        4    1    3    3  502    0  0.19469335588E+03  0.19149521021E+03  0.29297253795E+03  0.40051272047E+03  0.12699999809E+01 0. -1.
       -4    1    3    3    0  502 -0.19469335588E+03 -0.19149521021E+03 -0.10749716842E+04  0.11091175109E+04  0.12699999809E+01 0.  1.
</event>
<event>
 5   0  0.2723209E-04  0.1300791E+04  0.7818609E-02  0.9028938E-01
       -2   -1    0    0    0  501  0.00000000000E+00  0.00000000000E+00  0.38196723123E+03  0.38196723124E+03  0.25500000920E-02 0.  1.
        2   -1    0    0  501    0  0.00000000000E+00  0.00000000000E+00 -0.11074625891E+04  0.11074625892E+04  0.25500000920E-02 0. -1.
    10030    2    1    2    0    0  0.00000000000E+00  0.00000000000E+00 -0.72549535791E+03  0.14894298204E+04  0.13007911729E+04 0.  0.
        2    1    3    3  502    0  0.17018010891E+03 -0.62364654465E+03 -0.28083174138E+03  0.70481398191E+03  0.25500000920E-02 0.  1.
       -2    1    3    3    0  502 -0.17018010891E+03  0.62364654465E+03 -0.44466361653E+03  0.78461583848E+03  0.25500000920E-02 0. -1.
</event>
<event>
 5   0  0.2723209E-04  0.1300417E+04  0.7818609E-02  0.9029235E-01
       -2   -1    0    0    0  501  0.00000000000E+00  0.00000000000E+00  0.68100523643E+03  0.68100523644E+03  0.25500000920E-02 0. -1.
        2   -1    0    0  501    0  0.00000000000E+00  0.00000000000E+00 -0.62080435640E+03  0.62080435641E+03  0.25500000920E-02 0.  1.
    10030    2    1    2    0    0  0.00000000000E+00  0.00000000000E+00  0.60200880031E+02  0.13018095928E+04  0.13004168832E+04 0.  0.
        2    1    3    3  502    0 -0.59162455084E+03  0.24738947908E+03  0.13768578464E+03  0.65587997287E+03  0.25500000920E-02 0. -1.
       -2    1    3    3    0  502  0.59162455084E+03 -0.24738947908E+03 -0.77484904605E+02  0.64592961997E+03  0.25500000920E-02 0.  1.
</event>
<event>
 5   0  0.2723209E-04  0.1301530E+04  0.7818609E-02  0.9028353E-01
        2   -1    0    0  501    0  0.00000000000E+00  0.00000000000E+00  0.13544007302E+04  0.13544007302E+04  0.25500000920E-02 0.  1.
       -2   -1    0    0    0  501  0.00000000000E+00  0.00000000000E+00 -0.31268071485E+03  0.31268071487E+03  0.25500000920E-02 0. -1.
    10030    2    1    2    0    0  0.00000000000E+00  0.00000000000E+00  0.10417200154E+04  0.16670814451E+04  0.13015298514E+04 0.  0.
        2    1    3    3  502    0 -0.44009238595E+03 -0.44267461253E+03  0.28519211583E+03  0.68627739558E+03  0.25500000920E-02 0. -1.
       -2    1    3    3    0  502  0.44009238595E+03  0.44267461253E+03  0.75652789952E+03  0.98080404950E+03  0.25500000920E-02 0.  1.
</event>
<event>
 5   0  0.1476511E-04  0.1300539E+04  0.7818609E-02  0.9029138E-01
       -1   -1    0    0    0  501  0.00000000000E+00  0.00000000000E+00  0.58972511223E+03  0.58972511226E+03  0.50400001928E-02 0.  1.
        1   -1    0    0  501    0  0.00000000000E+00  0.00000000000E+00 -0.71703013668E+03  0.71703013670E+03  0.50400001928E-02 0. -1.
    10030    2    1    2    0    0  0.00000000000E+00  0.00000000000E+00 -0.12730502445E+03  0.13067552490E+04  0.13005393925E+04 0.  0.
        2    1    3    3  502    0 -0.18900994686E+03  0.15154728833E+03  0.54268783345E+03  0.59430751736E+03  0.25500000920E-02 0.  1.
       -2    1    3    3    0  502  0.18900994686E+03 -0.15154728833E+03 -0.66999285790E+03  0.71244773160E+03  0.25500000920E-02 0. -1.
</event>
<event>
 5   0  0.1430636E-04  0.1299811E+04  0.7818609E-02  0.9029715E-01
        1   -1    0    0  501    0  0.00000000000E+00  0.00000000000E+00  0.21221362772E+04  0.21221362772E+04  0.50400001928E-02 0. -1.
       -1   -1    0    0    0  501  0.00000000000E+00  0.00000000000E+00 -0.19903401439E+03  0.19903401446E+03  0.50400001928E-02 0.  1.
    10030    2    1    2    0    0  0.00000000000E+00  0.00000000000E+00  0.19231022628E+04  0.23211702916E+04  0.12998112208E+04 0.  0.
        4    1    3    3  502    0  0.18771084238E+03 -0.62220470041E+03  0.96383800556E+03  0.11624798336E+04  0.12699999809E+01 0. -1.
       -4    1    3    3    0  502 -0.18771084238E+03  0.62220470041E+03  0.95926425720E+03  0.11586904581E+04  0.12699999809E+01 0.  1.
</event>
<event>
 5   0  0.1475396E-04  0.1288018E+04  0.7818609E-02  0.9039122E-01
        1   -1    0    0  501    0  0.00000000000E+00  0.00000000000E+00  0.45737271307E+03  0.45737271310E+03  0.50400001928E-02 0. -1.
       -1   -1    0    0    0  501  0.00000000000E+00  0.00000000000E+00 -0.90680391103E+03  0.90680391104E+03  0.50400001928E-02 0.  1.
    10030    2    1    2    0    0  0.00000000000E+00  0.00000000000E+00 -0.44943119796E+03  0.13641766241E+04  0.12880176474E+04 0.  0.
        3    1    3    3  502    0 -0.59291857456E+03  0.19607010206E+03 -0.39134397873E+03  0.73698442376E+03  0.10100000352E+00 0.  1.
       -3    1    3    3    0  502  0.59291857456E+03 -0.19607010206E+03 -0.58087219230E+02  0.62719220038E+03  0.10100000352E+00 0. -1.
</event>
<event>
 5   0  0.2661377E-04  0.1301164E+04  0.7818609E-02  0.9028642E-01
       -2   -1    0    0    0  501  0.00000000000E+00  0.00000000000E+00  0.25340471149E+03  0.25340471150E+03  0.25500000920E-02 0.  1.
        2   -1    0    0  501    0  0.00000000000E+00  0.00000000000E+00 -0.16702814169E+04  0.16702814169E+04  0.25500000920E-02 0. -1.
    10030    2    1    2    0    0  0.00000000000E+00  0.00000000000E+00 -0.14168767054E+04  0.19236861284E+04  0.13011643717E+04 0.  0.
        5    1    3    3  502    0  0.33575911265E+03  0.43064469072E+03 -0.12312401298E+04  0.13469088234E+04  0.46999998093E+01 0. -1.
       -5    1    3    3    0  502 -0.33575911265E+03 -0.43064469072E+03 -0.18563657564E+03  0.57677730502E+03  0.46999998093E+01 0.  1.
</event>
<event>
 5   0  0.1430636E-04  0.1301193E+04  0.7818609E-02  0.9028619E-01
        1   -1    0    0  501    0  0.00000000000E+00  0.00000000000E+00  0.75927572399E+03  0.75927572401E+03  0.50400001928E-02 0. -1.
       -1   -1    0    0    0  501  0.00000000000E+00  0.00000000000E+00 -0.55747344518E+03  0.55747344520E+03  0.50400001928E-02 0.  1.
    10030    2    1    2    0    0  0.00000000000E+00  0.00000000000E+00  0.20180227882E+03  0.13167491692E+04  0.13011933810E+04 0.  0.
        4    1    3    3  502    0 -0.31485740658E+03  0.13249101759E+03  0.66122218051E+03  0.74424823891E+03  0.12699999809E+01 0. -1.
       -4    1    3    3    0  502  0.31485740658E+03 -0.13249101759E+03 -0.45941990169E+03  0.57250093030E+03  0.12699999809E+01 0.  1.
</event>
<event>
 5   0  0.2661377E-04  0.1297197E+04  0.7818609E-02  0.9031791E-01
       -2   -1    0    0    0  501  0.00000000000E+00  0.00000000000E+00  0.72967547090E+03  0.72967547090E+03  0.25500000920E-02 0.  1.
        2   -1    0    0  501    0  0.00000000000E+00  0.00000000000E+00 -0.57653073026E+03  0.57653073026E+03  0.25500000920E-02 0. -1.
    10030    2    1    2    0    0  0.00000000000E+00  0.00000000000E+00  0.15314474064E+03  0.13062062012E+04  0.12971974901E+04 0.  0.
        5    1    3    3  502    0  0.63847685899E+03  0.99230153620E+02  0.19977782203E+02  0.64646772899E+03  0.46999998093E+01 0. -1.
       -5    1    3    3    0  502 -0.63847685899E+03 -0.99230153620E+02  0.13316695844E+03  0.65973847217E+03  0.46999998093E+01 0.  1.
</event>
<event>
 5   0  0.1430636E-04  0.1300384E+04  0.7818609E-02  0.9029261E-01
       -1   -1    0    0    0  501  0.00000000000E+00  0.00000000000E+00  0.32983309055E+03  0.32983309059E+03  0.50400001928E-02 0.  1.
        1   -1    0    0  501    0  0.00000000000E+00  0.00000000000E+00 -0.12817070755E+04  0.12817070756E+04  0.50400001928E-02 0. -1.
    10030    2    1    2    0    0  0.00000000000E+00  0.00000000000E+00 -0.95187398499E+03  0.16115401661E+04  0.13003836448E+04 0.  0.
        4    1    3    3  502    0 -0.38010301802E+03  0.39080005028E+03 -0.36831351204E+02  0.54640748983E+03  0.12699999809E+01 0.  1.
       -4    1    3    3    0  502  0.38010301802E+03 -0.39080005028E+03 -0.91504263379E+03  0.10651326763E+04  0.12699999809E+01 0. -1.
</event>
<event>
 5   0  0.1408341E-04  0.1300577E+04  0.7818609E-02  0.9029108E-01
       -1   -1    0    0    0  501  0.00000000000E+00  0.00000000000E+00  0.43113473230E+03  0.43113473233E+03  0.50400001928E-02 0.  1.
        1   -1    0    0  501    0  0.00000000000E+00  0.00000000000E+00 -0.98084212140E+03  0.98084212141E+03  0.50400001928E-02 0. -1.
    10030    2    1    2    0    0  0.00000000000E+00  0.00000000000E+00 -0.54970738910E+03  0.14119768537E+04  0.13005769573E+04 0.  0.
        5    1    3    3  502    0  0.21583764899E+03 -0.33317738130E+02  0.39011022297E+03  0.44710629436E+03  0.46999998093E+01 0.  1.
       -5    1    3    3    0  502 -0.21583764899E+03  0.33317738130E+02 -0.93981761207E+03  0.96487055938E+03  0.46999998093E+01 0. -1.
</event>
<event>
 5   0  0.1475396E-04  0.1286657E+04  0.7818609E-02  0.9040214E-01
       -1   -1    0    0    0  501  0.00000000000E+00  0.00000000000E+00  0.92426761673E+03  0.92426761674E+03  0.50400001928E-02 0. -1.
        1   -1    0    0  501    0  0.00000000000E+00  0.00000000000E+00 -0.44778304022E+03  0.44778304025E+03  0.50400001928E-02 0.  1.
    10030    2    1    2    0    0  0.00000000000E+00  0.00000000000E+00  0.47648457650E+03  0.13720506570E+04  0.12866566961E+04 0.  0.
        3    1    3    3  502    0 -0.45627532047E+03 -0.27917223323E+00  0.72186627133E+03  0.85397785094E+03  0.10100000352E+00 0. -1.
       -3    1    3    3    0  502  0.45627532047E+03  0.27917223323E+00 -0.24538169483E+03  0.51807280605E+03  0.10100000352E+00 0.  1.
</event>
<event>
 5   0  0.1475396E-04  0.1301597E+04  0.7818609E-02  0.9028299E-01
       -1   -1    0    0    0  501  0.00000000000E+00  0.00000000000E+00  0.68231266978E+03  0.68231266980E+03  0.50400001928E-02 0. -1.
        1   -1    0    0  501    0  0.00000000000E+00  0.00000000000E+00 -0.62074030581E+03  0.62074030583E+03  0.50400001928E-02 0.  1.
    10030    2    1    2    0    0  0.00000000000E+00  0.00000000000E+00  0.61572363971E+02  0.13030529756E+04  0.13015974421E+04 0.  0.
        3    1    3    3  502    0  0.31081559726E+03  0.50217276286E+03  0.30450580456E+03  0.66446039345E+03  0.10100000352E+00 0.  1.
       -3    1    3    3    0  502 -0.31081559726E+03 -0.50217276286E+03 -0.24293344059E+03  0.63859258218E+03  0.10100000352E+00 0. -1.
</event>
<event>
 5   0  0.2573071E-04  0.1300705E+04  0.7818609E-02  0.9029006E-01
        2   -1    0    0  501    0  0.00000000000E+00  0.00000000000E+00  0.95498166802E+03  0.95498166802E+03  0.25500000920E-02 0.  1.
       -2   -1    0    0    0  501  0.00000000000E+00  0.00000000000E+00 -0.44289681699E+03  0.44289681700E+03  0.25500000920E-02 0. -1.
    10030    2    1    2    0    0  0.00000000000E+00  0.00000000000E+00  0.51208485103E+03  0.13978784850E+04  0.13007049490E+04 0.  0.
        4    1    3    3  502    0 -0.59446281764E+03  0.44708479666E+02 -0.23323539727E+02  0.59659910335E+03  0.12699999809E+01 0. -1.
       -4    1    3    3    0  502  0.59446281764E+03 -0.44708479666E+02  0.53540839075E+03  0.80127938167E+03  0.12699999809E+01 0.  1.
</event>
<event>
 5   0  0.2723209E-04  0.1286792E+04  0.7818609E-02  0.9040105E-01
       -2   -1    0    0    0  501  0.00000000000E+00  0.00000000000E+00  0.79914822027E+03  0.79914822027E+03  0.25500000920E-02 0.  1.
        2   -1    0    0  501    0  0.00000000000E+00  0.00000000000E+00 -0.51799954379E+03  0.51799954379E+03  0.25500000920E-02 0. -1.
    10030    2    1    2    0    0  0.00000000000E+00  0.00000000000E+00  0.28114867648E+03  0.13171477641E+04  0.12867920011E+04 0.  0.
        2    1    3    3  502    0  0.52163887301E+02 -0.53364530446E+03 -0.22342683969E+03  0.58087686716E+03  0.25500000920E-02 0. -1.
       -2    1    3    3    0  502 -0.52163887301E+02  0.53364530446E+03  0.50457551617E+03  0.73627089691E+03  0.25500000920E-02 0.  1.
</event>
<event>
 5   0  0.1475396E-04  0.1301304E+04  0.7818609E-02  0.9028532E-01
        1   -1    0    0  501    0  0.00000000000E+00  0.00000000000E+00  0.87191903879E+03  0.87191903880E+03  0.50400001928E-02 0.  1.
       -1   -1    0    0    0  501  0.00000000000E+00  0.00000000000E+00 -0.48553603732E+03  0.48553603735E+03  0.50400001928E-02 0. -1.
    10030    2    1    2    0    0  0.00000000000E+00  0.00000000000E+00  0.38638300146E+03  0.13574550761E+04  0.13013041381E+04 0.  0.
        3    1    3    3  502    0  0.33509475489E+02 -0.36865144563E+03  0.75137051903E+03  0.83760637557E+03  0.10100000352E+00 0.  1.
       -3    1    3    3    0  502 -0.33509475489E+02  0.36865144563E+03 -0.36498751757E+03  0.51984870058E+03  0.10100000352E+00 0. -1.
</event>
<event>
 5   0  0.2756984E-04  0.1298593E+04  0.7818609E-02  0.9030682E-01
        2   -1    0    0  501    0  0.00000000000E+00  0.00000000000E+00  0.91145480999E+03  0.91145480999E+03  0.25500000920E-02 0.  1.
       -2   -1    0    0    0  501  0.00000000000E+00  0.00000000000E+00 -0.46254187146E+03  0.46254187146E+03  0.25500000920E-02 0. -1.
    10030    2    1    2    0    0  0.00000000000E+00  0.00000000000E+00  0.44891293853E+03  0.13739966815E+04  0.12985931057E+04 0.  0.
        3    1    3    3  502    0 -0.47362743732E+03 -0.25194046337E+03 -0.16255415465E+03  0.56055402047E+03  0.10100000352E+00 0. -1.
       -3    1    3    3    0  502  0.47362743732E+03  0.25194046337E+03  0.61146709319E+03  0.81344266099E+03  0.10100000352E+00 0.  1.
</event>
<event>
 5   0  0.1479690E-04  0.1299472E+04  0.7818609E-02  0.9029984E-01
        1   -1    0    0  501    0  0.00000000000E+00  0.00000000000E+00  0.10898472252E+04  0.10898472253E+04  0.50400001928E-02 0.  1.
       -1   -1    0    0    0  501  0.00000000000E+00  0.00000000000E+00 -0.38735399449E+03  0.38735399453E+03  0.50400001928E-02 0. -1.
    10030    2    1    2    0    0  0.00000000000E+00  0.00000000000E+00  0.70249323075E+03  0.14772012198E+04  0.12994717021E+04 0.  0.
        1    1    3    3  502    0  0.41787680462E+03  0.12221342575E+03  0.89949485799E+03  0.99932384383E+03  0.50400001928E-02 0.  1.
       -1    1    3    3    0  502 -0.41787680462E+03 -0.12221342575E+03 -0.19700162724E+03  0.47787737594E+03  0.50400001928E-02 0. -1.
</event>
<event>
 5   0  0.1430636E-04  0.1306056E+04  0.7818609E-02  0.9024777E-01
       -1   -1    0    0    0  501  0.00000000000E+00  0.00000000000E+00  0.50464128526E+03  0.50464128529E+03  0.50400001928E-02 0.  1.
        1   -1    0    0  501    0  0.00000000000E+00  0.00000000000E+00 -0.84504629768E+03  0.84504629770E+03  0.50400001928E-02 0. -1.
    10030    2    1    2    0    0  0.00000000000E+00  0.00000000000E+00 -0.34040501242E+03  0.13496875830E+04  0.13060555115E+04 0.  0.
        4    1    3    3  502    0 -0.20117150097E+03 -0.61847411897E+03 -0.23101946714E+03  0.69018245105E+03  0.12699999809E+01 0.  1.
       -4    1    3    3    0  502  0.20117150097E+03  0.61847411897E+03 -0.10938554528E+03  0.65950513194E+03  0.12699999809E+01 0. -1.
</event>
<event>
 5   0  0.1408341E-04  0.1301006E+04  0.7818609E-02  0.9028768E-01
        1   -1    0    0  501    0  0.00000000000E+00  0.00000000000E+00  0.66768696409E+03  0.66768696410E+03  0.50400001928E-02 0. -1.
       -1   -1    0    0    0  501  0.00000000000E+00  0.00000000000E+00 -0.63376158286E+03  0.63376158288E+03  0.50400001928E-02 0.  1.
    10030    2    1    2    0    0  0.00000000000E+00  0.00000000000E+00  0.33925381223E+02  0.13014485470E+04  0.13010062986E+04 0.  0.
        5    1    3    3  502    0 -0.22524643803E+03  0.29965194859E+03 -0.51482408286E+03  0.63686197440E+03  0.46999998093E+01 0.  1.
       -5    1    3    3    0  502  0.22524643803E+03 -0.29965194859E+03  0.54874946408E+03  0.66458657259E+03  0.46999998093E+01 0. -1.
</event>
<event>
 5   0  0.2756984E-04  0.1295062E+04  0.7818609E-02  0.9033490E-01
        2   -1    0    0  501    0  0.00000000000E+00  0.00000000000E+00  0.85855213662E+03  0.85855213662E+03  0.25500000920E-02 0.  1.
       -2   -1    0    0    0  501  0.00000000000E+00  0.00000000000E+00 -0.48837595759E+03  0.48837595760E+03  0.25500000920E-02 0. -1.
    10030    2    1    2    0    0  0.00000000000E+00  0.00000000000E+00  0.37017617903E+03  0.13469280942E+04  0.12950617311E+04 0.  0.
        3    1    3    3  502    0 -0.68548717185E+02  0.32840425899E+03  0.76111763548E+03  0.83177421767E+03  0.10100000352E+00 0.  1.
       -3    1    3    3    0  502  0.68548717185E+02 -0.32840425899E+03 -0.39094145645E+03  0.51515387655E+03  0.10100000352E+00 0. -1.
</event>
<event>
 5   0  0.1479690E-04  0.1302828E+04  0.7818609E-02  0.9027326E-01
       -1   -1    0    0    0  501  0.00000000000E+00  0.00000000000E+00  0.70573824706E+03  0.70573824707E+03  0.50400001928E-02 0.  1.
        1   -1    0    0  501    0  0.00000000000E+00  0.00000000000E+00 -0.60127130629E+03  0.60127130631E+03  0.50400001928E-02 0. -1.
    10030    2    1    2    0    0  0.00000000000E+00  0.00000000000E+00  0.10446694077E+03  0.13070095534E+04  0.13028279360E+04 0.  0.
        1    1    3    3  502    0  0.30281113954E+02  0.43234287310E+03  0.54010996041E+03  0.69249987375E+03  0.50400001928E-02 0.  1.
       -1    1    3    3    0  502 -0.30281113954E+02 -0.43234287310E+03 -0.43564301964E+03  0.61450967964E+03  0.50400001928E-02 0. -1.
</event>
<event>
 5   0  0.2794825E-04  0.1300568E+04  0.7818609E-02  0.9029115E-01
        2   -1    0    0  501    0  0.00000000000E+00  0.00000000000E+00  0.76162946173E+03  0.76162946173E+03  0.25500000920E-02 0. -1.
       -2   -1    0    0    0  501  0.00000000000E+00  0.00000000000E+00 -0.55521664202E+03  0.55521664203E+03  0.25500000920E-02 0.  1.
    10030    2    1    2    0    0  0.00000000000E+00  0.00000000000E+00  0.20641281971E+03  0.13168461038E+04  0.13005681100E+04 0.  0.
        1    1    3    3  502    0 -0.44517761515E+03  0.44246131690E+03 -0.68963681301E+02  0.63143575710E+03  0.50400001928E-02 0.  1.
       -1    1    3    3    0  502  0.44517761515E+03 -0.44246131690E+03  0.27537650101E+03  0.68541034666E+03  0.50400001928E-02 0. -1.
</event>
<event>
 5   0  0.1430636E-04  0.1302558E+04  0.7818609E-02  0.9027539E-01
       -1   -1    0    0    0  501  0.00000000000E+00  0.00000000000E+00  0.30127540540E+03  0.30127540544E+03  0.50400001928E-02 0. -1.
        1   -1    0    0  501    0  0.00000000000E+00  0.00000000000E+00 -0.14078957984E+04  0.14078957984E+04  0.50400001928E-02 0.  1.
    10030    2    1    2    0    0  0.00000000000E+00  0.00000000000E+00 -0.11066203930E+04  0.17091712039E+04  0.13025580639E+04 0.  0.
        4    1    3    3  502    0  0.31572616006E+03  0.28499934051E+03 -0.12004818421E+04  0.12736035091E+04  0.12699999809E+01 0.  1.
       -4    1    3    3    0  502 -0.31572616006E+03 -0.28499934051E+03  0.93861449063E+02  0.43556769481E+03  0.12699999809E+01 0. -1.
</event>
<event>
 5   0  0.1408341E-04  0.1300086E+04  0.7818609E-02  0.9029497E-01
       -1   -1    0    0    0  501  0.00000000000E+00  0.00000000000E+00  0.41799189837E+03  0.41799189840E+03  0.50400001928E-02 0.  1.
        1   -1    0    0  501    0  0.00000000000E+00  0.00000000000E+00 -0.10109194646E+04  0.10109194646E+04  0.50400001928E-02 0. -1.
    10030    2    1    2    0    0  0.00000000000E+00  0.00000000000E+00 -0.59292756623E+03  0.14289113630E+04  0.13000863758E+04 0.  0.
        5    1    3    3  502    0 -0.38518783663E+02 -0.36859101322E+03  0.29048608491E+03  0.47090050673E+03  0.46999998093E+01 0.  1.
       -5    1    3    3    0  502  0.38518783663E+02  0.36859101322E+03 -0.88341365114E+03  0.95801085627E+03  0.46999998093E+01 0. -1.
</event>
<event>
 5   0  0.1476511E-04  0.1299751E+04  0.7818609E-02  0.9029763E-01
        1   -1    0    0  501    0  0.00000000000E+00  0.00000000000E+00  0.23076524691E+04  0.23076524691E+04  0.50400001928E-02 0.  1.
       -1   -1    0    0    0  501  0.00000000000E+00  0.00000000000E+00 -0.18301629374E+03  0.18301629381E+03  0.50400001928E-02 0. -1.
    10030    2    1    2    0    0  0.00000000000E+00  0.00000000000E+00  0.21246361754E+04  0.24906687629E+04  0.12997507487E+04 0.  0.
        2    1    3    3  502    0 -0.17632562107E+03 -0.19829635552E+03 -0.74475123410E+02  0.27560608351E+03  0.25500000920E-02 0. -1.
       -2    1    3    3    0  502  0.17632562107E+03  0.19829635552E+03  0.21991112988E+04  0.22150626794E+04  0.25500000920E-02 0.  1.
</event>
<event>
 5   0  0.1430636E-04  0.1302178E+04  0.7818609E-02  0.9027840E-01
        1   -1    0    0  501    0  0.00000000000E+00  0.00000000000E+00  0.41830111875E+03  0.41830111878E+03  0.50400001928E-02 0.  1.
       -1   -1    0    0    0  501  0.00000000000E+00  0.00000000000E+00 -0.10134254621E+04  0.10134254621E+04  0.50400001928E-02 0. -1.
    10030    2    1    2    0    0  0.00000000000E+00  0.00000000000E+00 -0.59512434335E+03  0.14317265809E+04  0.13021781823E+04 0.  0.
        4    1    3    3  502    0 -0.61135028765E+03  0.21509306700E+03 -0.22888882295E+03  0.68731790887E+03  0.12699999809E+01 0.  1.
       -4    1    3    3    0  502  0.61135028765E+03 -0.21509306700E+03 -0.36623552040E+03  0.74440867202E+03  0.12699999809E+01 0. -1.
</event>
<event>
 5   0  0.1408341E-04  0.1299120E+04  0.7818609E-02  0.9030264E-01
       -1   -1    0    0    0  501  0.00000000000E+00  0.00000000000E+00  0.45449418574E+03  0.45449418577E+03  0.50400001928E-02 0.  1.
        1   -1    0    0  501    0  0.00000000000E+00  0.00000000000E+00 -0.92834610091E+03  0.92834610092E+03  0.50400001928E-02 0. -1.
    10030    2    1    2    0    0  0.00000000000E+00  0.00000000000E+00 -0.47385191517E+03  0.13828402867E+04  0.12991195561E+04 0.  0.
        5    1    3    3  502    0  0.22438881586E+03 -0.53698743537E+03 -0.54395855373E+03  0.79662967846E+03  0.46999998093E+01 0. -1.
       -5    1    3    3    0  502 -0.22438881586E+03  0.53698743537E+03  0.70106638557E+02  0.58621060823E+03  0.46999998093E+01 0.  1.
</event>
<event>
 5   0  0.2723209E-04  0.1299213E+04  0.7818609E-02  0.9030190E-01
       -2   -1    0    0    0  501  0.00000000000E+00  0.00000000000E+00  0.11799610765E+04  0.11799610765E+04  0.25500000920E-02 0. -1.
        2   -1    0    0  501    0  0.00000000000E+00  0.00000000000E+00 -0.35762899581E+03  0.35762899582E+03  0.25500000920E-02 0.  1.
    10030    2    1    2    0    0  0.00000000000E+00  0.00000000000E+00  0.82233208068E+03  0.15375900723E+04  0.12992125229E+04 0.  0.
        2    1    3    3  502    0 -0.14741074287E+03 -0.40376609687E+03  0.98759576621E+03  0.10770804917E+04  0.25500000920E-02 0. -1.
       -2    1    3    3    0  502  0.14741074287E+03  0.40376609687E+03 -0.16526368554E+03  0.46050958064E+03  0.25500000920E-02 0.  1.
</event>
<event>
 5   0  0.1479690E-04  0.1299337E+04  0.7818609E-02  0.9030091E-01
        1   -1    0    0  501    0  0.00000000000E+00  0.00000000000E+00  0.60746788171E+03  0.60746788173E+03  0.50400001928E-02 0.  1.
       -1   -1    0    0    0  501  0.00000000000E+00  0.00000000000E+00 -0.69480044679E+03  0.69480044681E+03  0.50400001928E-02 0. -1.
    10030    2    1    2    0    0  0.00000000000E+00  0.00000000000E+00 -0.87332565088E+02  0.13022683285E+04  0.12993366856E+04 0.  0.
        1    1    3    3  502    0 -0.44519819834E+03 -0.23919447373E+03 -0.45281955418E+03  0.67857275273E+03  0.50400001928E-02 0. -1.
       -1    1    3    3    0  502  0.44519819834E+03  0.23919447373E+03  0.36548698909E+03  0.62369557581E+03  0.50400001928E-02 0.  1.
</event>
<event>
 5   0  0.1479690E-04  0.1300514E+04  0.7818609E-02  0.9029157E-01
        1   -1    0    0  501    0  0.00000000000E+00  0.00000000000E+00  0.14845031038E+04  0.14845031039E+04  0.50400001928E-02 0.  1.
       -1   -1    0    0    0  501  0.00000000000E+00  0.00000000000E+00 -0.28483227906E+03  0.28483227911E+03  0.50400001928E-02 0. -1.
    10030    2    1    2    0    0  0.00000000000E+00  0.00000000000E+00  0.11996708248E+04  0.17693353830E+04  0.13005143635E+04 0.  0.
        1    1    3    3  502    0 -0.38564427360E+03  0.13048620096E+03  0.12896532693E+04  0.13523881504E+04  0.50400001928E-02 0.  1.
       -1    1    3    3    0  502  0.38564427360E+03 -0.13048620096E+03 -0.89982444472E+02  0.41694723256E+03  0.50400001928E-02 0. -1.
</event>
<event>
 5   0  0.1479690E-04  0.1300328E+04  0.7818609E-02  0.9029305E-01
       -1   -1    0    0    0  501  0.00000000000E+00  0.00000000000E+00  0.67923407868E+03  0.67923407870E+03  0.50400001928E-02 0. -1.
        1   -1    0    0  501    0  0.00000000000E+00  0.00000000000E+00 -0.62233783230E+03  0.62233783232E+03  0.50400001928E-02 0.  1.
    10030    2    1    2    0    0  0.00000000000E+00  0.00000000000E+00  0.56896246380E+02  0.13015719110E+04  0.13003277497E+04 0.  0.
        1    1    3    3  502    0 -0.21544397789E+03 -0.47433973628E+03 -0.36089547411E+03  0.63376638936E+03  0.50400001928E-02 0.  1.
       -1    1    3    3    0  502  0.21544397789E+03  0.47433973628E+03  0.41779172049E+03  0.66780552166E+03  0.50400001928E-02 0. -1.
</event>
<event>
 5   0  0.2573071E-04  0.1301411E+04  0.7818609E-02  0.9028447E-01
        2   -1    0    0  501    0  0.00000000000E+00  0.00000000000E+00  0.14418272555E+04  0.14418272555E+04  0.25500000920E-02 0. -1.
       -2   -1    0    0    0  501  0.00000000000E+00  0.00000000000E+00 -0.29366741100E+03  0.29366741101E+03  0.25500000920E-02 0.  1.
    10030    2    1    2    0    0  0.00000000000E+00  0.00000000000E+00  0.11481598445E+04  0.17354946665E+04  0.13014110454E+04 0.  0.
        4    1    3    3  502    0  0.61052781012E+03  0.21994218348E+03  0.63799701643E+03  0.91003328339E+03  0.12699999809E+01 0.  1.
       -4    1    3    3    0  502 -0.61052781012E+03 -0.21994218348E+03  0.51016282811E+03  0.82546138316E+03  0.12699999809E+01 0. -1.
</event>
<event>
 5   0  0.1475396E-04  0.1299764E+04  0.7818609E-02  0.9029752E-01
        1   -1    0    0  501    0  0.00000000000E+00  0.00000000000E+00  0.12226907215E+04  0.12226907216E+04  0.50400001928E-02 0. -1.
       -1   -1    0    0    0  501  0.00000000000E+00  0.00000000000E+00 -0.34542405688E+03  0.34542405692E+03  0.50400001928E-02 0.  1.
    10030    2    1    2    0    0  0.00000000000E+00  0.00000000000E+00  0.87726666466E+03  0.15681147785E+04  0.12997642700E+04 0.  0.
        3    1    3    3  502    0 -0.47806702881E+02  0.44318778697E+03 -0.13191666581E+03  0.46486870435E+03  0.10100000352E+00 0.  1.
       -3    1    3    3    0  502  0.47806702881E+02 -0.44318778697E+03  0.10091833305E+04  0.11032460741E+04  0.10100000352E+00 0. -1.
</event>
<event>
 5   0  0.2573071E-04  0.1299052E+04  0.7818609E-02  0.9030317E-01
        2   -1    0    0  501    0  0.00000000000E+00  0.00000000000E+00  0.18423045681E+04  0.18423045681E+04  0.25500000920E-02 0.  1.
       -2   -1    0    0    0  501  0.00000000000E+00  0.00000000000E+00 -0.22899790552E+03  0.22899790553E+03  0.25500000920E-02 0. -1.
    10030    2    1    2    0    0  0.00000000000E+00  0.00000000000E+00  0.16133066626E+04  0.20713024737E+04  0.12990517887E+04 0.  0.
        4    1    3    3  502    0 -0.15333258384E+03 -0.40163801776E+03  0.15829802364E+04  0.16403207065E+04  0.12699999809E+01 0.  1.
       -4    1    3    3    0  502  0.15333258384E+03  0.40163801776E+03  0.30326426232E+02  0.43098176714E+03  0.12699999809E+01 0. -1.
</event>
<event>
 5   0  0.2756984E-04  0.1300575E+04  0.7818609E-02  0.9029109E-01
        2   -1    0    0  501    0  0.00000000000E+00  0.00000000000E+00  0.10197732274E+04  0.10197732274E+04  0.25500000920E-02 0. -1.
       -2   -1    0    0    0  501  0.00000000000E+00  0.00000000000E+00 -0.41467446528E+03  0.41467446529E+03  0.25500000920E-02 0.  1.
    10030    2    1    2    0    0  0.00000000000E+00  0.00000000000E+00  0.60509876213E+03  0.14344476927E+04  0.13005751309E+04 0.  0.
        3    1    3    3  502    0 -0.12859110617E+03  0.53806700438E+03 -0.74425001170E+02  0.55820324685E+03  0.10100000352E+00 0.  1.
       -3    1    3    3    0  502  0.12859110617E+03 -0.53806700438E+03  0.67952376330E+03  0.87624444585E+03  0.10100000352E+00 0. -1.
</event>
<event>
 5   0  0.2794825E-04  0.1299332E+04  0.7818609E-02  0.9030095E-01
        2   -1    0    0  501    0  0.00000000000E+00  0.00000000000E+00  0.84056261014E+03  0.84056261015E+03  0.25500000920E-02 0. -1.
       -2   -1    0    0    0  501  0.00000000000E+00  0.00000000000E+00 -0.50212301986E+03  0.50212301987E+03  0.25500000920E-02 0.  1.
    10030    2    1    2    0    0  0.00000000000E+00  0.00000000000E+00  0.33843959028E+03  0.13426856300E+04  0.12993318840E+04 0.  0.
        1    1    3    3  502    0  0.40739649163E+03 -0.48362351672E+03  0.32319561769E+03  0.71015421891E+03  0.50400001928E-02 0. -1.
       -1    1    3    3    0  502 -0.40739649163E+03  0.48362351672E+03  0.15243972590E+02  0.63253141111E+03  0.50400001928E-02 0.  1.
</event>
<event>
 5   0  0.2573071E-04  0.1317215E+04  0.7818609E-02  0.9016024E-01
        2   -1    0    0  501    0  0.00000000000E+00  0.00000000000E+00  0.61091341143E+03  0.61091341144E+03  0.25500000920E-02 0. -1.
       -2   -1    0    0    0  501  0.00000000000E+00  0.00000000000E+00 -0.71002529818E+03  0.71002529818E+03  0.25500000920E-02 0.  1.
    10030    2    1    2    0    0  0.00000000000E+00  0.00000000000E+00 -0.99111886745E+02  0.13209387096E+04  0.13172152096E+04 0.  0.
        4    1    3    3  502    0 -0.42301908968E+03 -0.41849105566E+03  0.23352280762E+03  0.63922955852E+03  0.12699999809E+01 0. -1.
       -4    1    3    3    0  502  0.42301908968E+03  0.41849105566E+03 -0.33263469436E+03  0.68170915110E+03  0.12699999809E+01 0.  1.
</event>
<event>
 5   0  0.1475396E-04  0.1298822E+04  0.7818609E-02  0.9030500E-01
        1   -1    0    0  501    0  0.00000000000E+00  0.00000000000E+00  0.41452407909E+03  0.41452407912E+03  0.50400001928E-02 0.  1.
       -1   -1    0    0    0  501  0.00000000000E+00  0.00000000000E+00 -0.10173945036E+04  0.10173945036E+04  0.50400001928E-02 0. -1.
    10030    2    1    2    0    0  0.00000000000E+00  0.00000000000E+00 -0.60287042452E+03  0.14319185827E+04  0.12988218041E+04 0.  0.
        3    1    3    3  502    0  0.20389655382E+03 -0.58445453198E+03 -0.84907310096E+02  0.62479609964E+03  0.10100000352E+00 0.  1.
       -3    1    3    3    0  502 -0.20389655382E+03  0.58445453198E+03 -0.51796311443E+03  0.80712248310E+03  0.10100000352E+00 0. -1.
</event>
<event>
 5   0  0.2756984E-04  0.1301024E+04  0.7818609E-02  0.9028753E-01
        2   -1    0    0  501    0  0.00000000000E+00  0.00000000000E+00  0.42546636609E+03  0.42546636610E+03  0.25500000920E-02 0. -1.
       -2   -1    0    0    0  501  0.00000000000E+00  0.00000000000E+00 -0.99459318495E+03  0.99459318495E+03  0.25500000920E-02 0.  1.
    10030    2    1    2    0    0  0.00000000000E+00  0.00000000000E+00 -0.56912681886E+03  0.14200595510E+04  0.13010241322E+04 0.  0.
        3    1    3    3  502    0 -0.33457279610E+02 -0.61542748042E+03 -0.51167688810E+03  0.80105157214E+03  0.10100000352E+00 0.  1.
       -3    1    3    3    0  502  0.33457279610E+02  0.61542748042E+03 -0.57449930763E+02  0.61900797891E+03  0.10100000352E+00 0. -1.
</event>
<event>
 5   0  0.1475396E-04  0.1301538E+04  0.7818609E-02  0.9028347E-01
        1   -1    0    0  501    0  0.00000000000E+00  0.00000000000E+00  0.14218189279E+04  0.14218189279E+04  0.50400001928E-02 0.  1.
       -1   -1    0    0    0  501  0.00000000000E+00  0.00000000000E+00 -0.29785801939E+03  0.29785801943E+03  0.50400001928E-02 0. -1.
    10030    2    1    2    0    0  0.00000000000E+00  0.00000000000E+00  0.11239609085E+04  0.17196769473E+04  0.13015378133E+04 0.  0.
        3    1    3    3  502    0 -0.39479971119E+03 -0.19959692225E+01 -0.12154856965E+03  0.41309183100E+03  0.10100000352E+00 0. -1.
       -3    1    3    3    0  502  0.39479971119E+03  0.19959692225E+01  0.12455094782E+04  0.13065851163E+04  0.10100000352E+00 0.  1.
</event>
<event>
 5   0  0.2573071E-04  0.1304679E+04  0.7818609E-02  0.9025863E-01
        2   -1    0    0  501    0  0.00000000000E+00  0.00000000000E+00  0.12339285537E+04  0.12339285537E+04  0.25500000920E-02 0.  1.
       -2   -1    0    0    0  501  0.00000000000E+00  0.00000000000E+00 -0.34487153568E+03  0.34487153568E+03  0.25500000920E-02 0. -1.
    10030    2    1    2    0    0  0.00000000000E+00  0.00000000000E+00  0.88905701799E+03  0.15788000894E+04  0.13046790183E+04 0.  0.
        4    1    3    3  502    0 -0.23559620980E+03  0.14401805843E+03 -0.27066208082E+03  0.38666051016E+03  0.12699999809E+01 0. -1.
       -4    1    3    3    0  502  0.23559620980E+03 -0.14401805843E+03  0.11597190988E+04  0.11921395792E+04  0.12699999809E+01 0.  1.
</event>
<event>
 5   0  0.2723209E-04  0.1299832E+04  0.7818609E-02  0.9029698E-01
       -2   -1    0    0    0  501  0.00000000000E+00  0.00000000000E+00  0.50471339947E+03  0.50471339948E+03  0.25500000920E-02 0. -1.
        2   -1    0    0  501    0  0.00000000000E+00  0.00000000000E+00 -0.83689237114E+03  0.83689237115E+03  0.25500000920E-02 0.  1.
    10030    2    1    2    0    0  0.00000000000E+00  0.00000000000E+00 -0.33217897167E+03  0.13416057706E+04  0.12998319794E+04 0.  0.
        2    1    3    3  502    0 -0.28839614530E+03 -0.56574895674E+03 -0.30890758488E+03  0.70616436804E+03  0.25500000920E-02 0.  1.
       -2    1    3    3    0  502  0.28839614530E+03  0.56574895674E+03 -0.23271386788E+02  0.63544140259E+03  0.25500000920E-02 0. -1.
</event>
<event>
 5   0  0.2794825E-04  0.1307386E+04  0.7818609E-02  0.9023728E-01
       -2   -1    0    0    0  501  0.00000000000E+00  0.00000000000E+00  0.43500750329E+03  0.43500750330E+03  0.25500000920E-02 0. -1.
        2   -1    0    0  501    0  0.00000000000E+00  0.00000000000E+00 -0.98231574250E+03  0.98231574250E+03  0.25500000920E-02 0.  1.
    10030    2    1    2    0    0  0.00000000000E+00  0.00000000000E+00 -0.54730823920E+03  0.14173232458E+04  0.13073862759E+04 0.  0.
        1    1    3    3  502    0  0.10915845624E+03 -0.46055423499E+03  0.21513538401E+03  0.51991249785E+03  0.50400001928E-02 0. -1.
       -1    1    3    3    0  502 -0.10915845624E+03  0.46055423499E+03 -0.76244362322E+03  0.89741074796E+03  0.50400001928E-02 0.  1.
</event>
<event>
 5   0  0.2756984E-04  0.1304238E+04  0.7818609E-02  0.9026211E-01
        2   -1    0    0  501    0  0.00000000000E+00  0.00000000000E+00  0.54475250544E+03  0.54475250545E+03  0.25500000920E-02 0. -1.
       -2   -1    0    0    0  501  0.00000000000E+00  0.00000000000E+00 -0.78064667217E+03  0.78064667218E+03  0.25500000920E-02 0.  1.
    10030    2    1    2    0    0  0.00000000000E+00  0.00000000000E+00 -0.23589416673E+03  0.13253991776E+04  0.13042380619E+04 0.  0.
        3    1    3    3  502    0 -0.51416007548E+03 -0.34499724826E+03 -0.32590239378E+03  0.69971141551E+03  0.10100000352E+00 0.  1.
       -3    1    3    3    0  502  0.51416007548E+03  0.34499724826E+03  0.90008227049E+02  0.62568776211E+03  0.10100000352E+00 0. -1.
</event>
<event>
 5   0  0.2723209E-04  0.1299742E+04  0.7818609E-02  0.9029770E-01
       -2   -1    0    0    0  501  0.00000000000E+00  0.00000000000E+00  0.67472171603E+03  0.67472171604E+03  0.25500000920E-02 0. -1.
        2   -1    0    0  501    0  0.00000000000E+00  0.00000000000E+00 -0.62593534467E+03  0.62593534468E+03  0.25500000920E-02 0.  1.
    10030    2    1    2    0    0  0.00000000000E+00  0.00000000000E+00  0.48786371361E+02  0.13006570607E+04  0.12997417742E+04 0.  0.
        2    1    3    3  502    0  0.55616467137E+03 -0.28414445513E+03 -0.15538564871E+03  0.64358520251E+03  0.25500000920E-02 0. -1.
       -2    1    3    3    0  502 -0.55616467137E+03  0.28414445513E+03  0.20417202007E+03  0.65707185821E+03  0.25500000920E-02 0.  1.
</event>
<event>
 5   0  0.1476511E-04  0.1300371E+04  0.7818609E-02  0.9029271E-01
        1   -1    0    0  501    0  0.00000000000E+00  0.00000000000E+00  0.63470606697E+03  0.63470606699E+03  0.50400001928E-02 0.  1.
       -1   -1    0    0    0  501  0.00000000000E+00  0.00000000000E+00 -0.66604263812E+03  0.66604263814E+03  0.50400001928E-02 0. -1.
    10030    2    1    2    0    0  0.00000000000E+00  0.00000000000E+00 -0.31336571148E+02  0.13007487051E+04  0.13003711829E+04 0.  0.
        2    1    3    3  502    0 -0.43670563974E+03  0.26185819092E+03 -0.42008725156E+03  0.66011728266E+03  0.25500000920E-02 0. -1.
       -2    1    3    3    0  502  0.43670563974E+03 -0.26185819092E+03  0.38875068041E+03  0.64063142248E+03  0.25500000920E-02 0.  1.
</event>
<event>
 5   0  0.1476511E-04  0.1298866E+04  0.7818609E-02  0.9030465E-01
        1   -1    0    0  501    0  0.00000000000E+00  0.00000000000E+00  0.69104163771E+03  0.69104163773E+03  0.50400001928E-02 0. -1.
       -1   -1    0    0    0  501  0.00000000000E+00  0.00000000000E+00 -0.61032989272E+03  0.61032989274E+03  0.50400001928E-02 0.  1.
    10030    2    1    2    0    0  0.00000000000E+00  0.00000000000E+00  0.80711744992E+02  0.13013715305E+04  0.12988662266E+04 0.  0.
        2    1    3    3  502    0  0.14032261146E+03 -0.58239085093E+03 -0.21091427741E+03  0.63510185873E+03  0.25500000920E-02 0. -1.
       -2    1    3    3    0  502 -0.14032261146E+03  0.58239085093E+03  0.29162602240E+03  0.66626967174E+03  0.25500000920E-02 0.  1.
</event>
<event>
 5   0  0.1430636E-04  0.1302137E+04  0.7818609E-02  0.9027872E-01
       -1   -1    0    0    0  501  0.00000000000E+00  0.00000000000E+00  0.17999670440E+03  0.17999670447E+03  0.50400001928E-02 0. -1.
        1   -1    0    0  501    0  0.00000000000E+00  0.00000000000E+00 -0.23549892639E+04  0.23549892639E+04  0.50400001928E-02 0.  1.
    10030    2    1    2    0    0  0.00000000000E+00  0.00000000000E+00 -0.21749925595E+04  0.25349859684E+04  0.13021371763E+04 0.  0.
        4    1    3    3  502    0  0.40492138679E+03 -0.49510107499E+03 -0.13243516690E+04  0.14707125348E+04  0.12699999809E+01 0.  1.
       -4    1    3    3    0  502 -0.40492138679E+03  0.49510107499E+03 -0.85064089050E+03  0.10642734336E+04  0.12699999809E+01 0. -1.
</event>
<event>
 5   0  0.1408341E-04  0.1301809E+04  0.7818609E-02  0.9028132E-01
        1   -1    0    0  501    0  0.00000000000E+00  0.00000000000E+00  0.61168045211E+03  0.61168045213E+03  0.50400001928E-02 0. -1.
       -1   -1    0    0    0  501  0.00000000000E+00  0.00000000000E+00 -0.69264351332E+03  0.69264351333E+03  0.50400001928E-02 0.  1.
    10030    2    1    2    0    0  0.00000000000E+00  0.00000000000E+00 -0.80963061203E+02  0.13043239655E+04  0.13018087377E+04 0.  0.
        5    1    3    3  502    0 -0.33861941332E+03 -0.28053213589E+03 -0.52129727507E+03  0.68200756986E+03  0.46999998093E+01 0.  1.
       -5    1    3    3    0  502  0.33861941332E+03  0.28053213589E+03  0.44033421387E+03  0.62231639561E+03  0.46999998093E+01 0. -1.
</event>
<event>
 5   0  0.1408341E-04  0.1289814E+04  0.7818609E-02  0.9037682E-01
        1   -1    0    0  501    0  0.00000000000E+00  0.00000000000E+00  0.16771977855E+04  0.16771977855E+04  0.50400001928E-02 0.  1.
       -1   -1    0    0    0  501  0.00000000000E+00  0.00000000000E+00 -0.24797618287E+03  0.24797618292E+03  0.50400001928E-02 0. -1.
    10030    2    1    2    0    0  0.00000000000E+00  0.00000000000E+00  0.14292216026E+04  0.19251739684E+04  0.12898141026E+04 0.  0.
        5    1    3    3  502    0 -0.10488175281E+03 -0.59662737947E+03  0.38448468580E+03  0.71750608054E+03  0.46999998093E+01 0. -1.
       -5    1    3    3    0  502  0.10488175281E+03  0.59662737947E+03  0.10447369168E+04  0.12076678878E+04  0.46999998093E+01 0.  1.
</event>
<event>
 5   0  0.2756984E-04  0.1299900E+04  0.7818609E-02  0.9029645E-01
       -2   -1    0    0    0  501  0.00000000000E+00  0.00000000000E+00  0.30874568888E+03  0.30874568889E+03  0.25500000920E-02 0. -1.
        2   -1    0    0  501    0  0.00000000000E+00  0.00000000000E+00 -0.13682294215E+04  0.13682294215E+04  0.25500000920E-02 0.  1.
    10030    2    1    2    0    0  0.00000000000E+00  0.00000000000E+00 -0.10594837326E+04  0.16769751104E+04  0.12998998966E+04 0.  0.
        3    1    3    3  502    0 -0.10896707523E+03  0.41282774280E+03 -0.11619263866E+04  0.12378907492E+04  0.10100000352E+00 0.  1.
       -3    1    3    3    0  502  0.10896707523E+03 -0.41282774280E+03  0.10244265402E+03  0.43908436123E+03  0.10100000352E+00 0. -1.
</event>
<event>
 5   0  0.2756984E-04  0.1265271E+04  0.7818609E-02  0.9057569E-01
        2   -1    0    0  501    0  0.00000000000E+00  0.00000000000E+00  0.53096697869E+03  0.53096697870E+03  0.25500000920E-02 0.  1.
       -2   -1    0    0    0  501  0.00000000000E+00  0.00000000000E+00 -0.75377073794E+03  0.75377073794E+03  0.25500000920E-02 0. -1.
    10030    2    1    2    0    0  0.00000000000E+00  0.00000000000E+00 -0.22280375924E+03  0.12847377166E+04  0.12652705187E+04 0.  0.
        3    1    3    3  502    0  0.58672409384E+03  0.13468112071E+03 -0.30892820320E+03  0.67662457205E+03  0.10100000352E+00 0. -1.
       -3    1    3    3    0  502 -0.58672409384E+03 -0.13468112071E+03  0.86124443953E+02  0.60811314459E+03  0.10100000352E+00 0.  1.
</event>
<event>
 5   0  0.1408341E-04  0.1300504E+04  0.7818609E-02  0.9029165E-01
       -1   -1    0    0    0  501  0.00000000000E+00  0.00000000000E+00  0.11189251862E+04  0.11189251862E+04  0.50400001928E-02 0.  1.
        1   -1    0    0  501    0  0.00000000000E+00  0.00000000000E+00 -0.37788741451E+03  0.37788741455E+03  0.50400001928E-02 0. -1.
    10030    2    1    2    0    0  0.00000000000E+00  0.00000000000E+00  0.74103777166E+03  0.14968126007E+04  0.13005041264E+04 0.  0.
        5    1    3    3  502    0  0.17759288223E+03 -0.56781775546E+03  0.67251811918E+03  0.89791923125E+03  0.46999998093E+01 0.  1.
       -5    1    3    3    0  502 -0.17759288223E+03  0.56781775546E+03  0.68519652487E+02  0.59889336948E+03  0.46999998093E+01 0. -1.
</event>
<event>
 5   0  0.2794825E-04  0.1300015E+04  0.7818609E-02  0.9029553E-01
        2   -1    0    0  501    0  0.00000000000E+00  0.00000000000E+00  0.15803097679E+04  0.15803097679E+04  0.25500000920E-02 0.  1.
       -2   -1    0    0    0  501  0.00000000000E+00  0.00000000000E+00 -0.26735897171E+03  0.26735897172E+03  0.25500000920E-02 0. -1.
    10030    2    1    2    0    0  0.00000000000E+00  0.00000000000E+00  0.13129507962E+04  0.18476687396E+04  0.13000153761E+04 0.  0.
        1    1    3    3  502    0  0.26460700280E+03  0.59362313076E+03  0.67101873014E+03  0.93416884101E+03  0.50400001928E-02 0. -1.
       -1    1    3    3    0  502 -0.26460700280E+03 -0.59362313076E+03  0.64193206605E+03  0.91349989861E+03  0.50400001928E-02 0.  1.
</event>
<event>
 5   0  0.1476511E-04  0.1300500E+04  0.7818609E-02  0.9029168E-01
       -1   -1    0    0    0  501  0.00000000000E+00  0.00000000000E+00  0.25631012869E+03  0.25631012874E+03  0.50400001928E-02 0. -1.
        1   -1    0    0  501    0  0.00000000000E+00  0.00000000000E+00 -0.16496631316E+04  0.16496631316E+04  0.50400001928E-02 0.  1.
    10030    2    1    2    0    0  0.00000000000E+00  0.00000000000E+00 -0.13933530029E+04  0.19059732603E+04  0.13005004723E+04 0.  0.
        2    1    3    3  502    0  0.43647206424E+03 -0.29906790557E+03 -0.12506458945E+04  0.13579634121E+04  0.25500000920E-02 0.  1.
       -2    1    3    3    0  502 -0.43647206424E+03  0.29906790557E+03 -0.14270710835E+03  0.54800984826E+03  0.25500000920E-02 0. -1.
</event>
<event>
 5   0  0.2756984E-04  0.1300392E+04  0.7818609E-02  0.9029254E-01
       -2   -1    0    0    0  501  0.00000000000E+00  0.00000000000E+00  0.98967940018E+03  0.98967940018E+03  0.25500000920E-02 0.  1.
        2   -1    0    0  501    0  0.00000000000E+00  0.00000000000E+00 -0.42716336428E+03  0.42716336429E+03  0.25500000920E-02 0. -1.
    10030    2    1    2    0    0  0.00000000000E+00  0.00000000000E+00  0.56251603590E+03  0.14168427645E+04  0.13003919135E+04 0.  0.
        3    1    3    3  502    0 -0.62203996096E+03  0.12795622448E+03  0.43320350721E+03  0.76874690066E+03  0.10100000352E+00 0.  1.
       -3    1    3    3    0  502  0.62203996096E+03 -0.12795622448E+03  0.12931252869E+03  0.64809586381E+03  0.10100000352E+00 0. -1.
</event>
<event>
 5   0  0.2573071E-04  0.1299055E+04  0.7818609E-02  0.9030315E-01
       -2   -1    0    0    0  501  0.00000000000E+00  0.00000000000E+00  0.45986904977E+03  0.45986904978E+03  0.25500000920E-02 0.  1.
        2   -1    0    0  501    0  0.00000000000E+00  0.00000000000E+00 -0.91740483091E+03  0.91740483092E+03  0.25500000920E-02 0. -1.
    10030    2    1    2    0    0  0.00000000000E+00  0.00000000000E+00 -0.45753578114E+03  0.13772738807E+04  0.12990551764E+04 0.  0.
        4    1    3    3  502    0  0.32035390229E+03  0.30985160113E+03  0.27217508291E+03  0.52222172120E+03  0.12699999809E+01 0.  1.
       -4    1    3    3    0  502 -0.32035390229E+03 -0.30985160113E+03 -0.72971086405E+03  0.85505215949E+03  0.12699999809E+01 0. -1.
</event>
<event>
 5   0  0.2661377E-04  0.1299670E+04  0.7818609E-02  0.9029827E-01
        2   -1    0    0  501    0  0.00000000000E+00  0.00000000000E+00  0.80286018225E+03  0.80286018225E+03  0.25500000920E-02 0.  1.
       -2   -1    0    0    0  501  0.00000000000E+00  0.00000000000E+00 -0.52597650439E+03  0.52597650440E+03  0.25500000920E-02 0. -1.
    10030    2    1    2    0    0  0.00000000000E+00  0.00000000000E+00  0.27688367786E+03  0.13288366867E+04  0.12996701000E+04 0.  0.
        5    1    3    3  502    0 -0.54066825843E+03  0.15016597881E+03  0.47350252014E+03  0.73423341891E+03  0.46999998093E+01 0.  1.
       -5    1    3    3    0  502  0.54066825843E+03 -0.15016597881E+03 -0.19661884228E+03  0.59460326774E+03  0.46999998093E+01 0. -1.
</event>
<event>
 5   0  0.1479690E-04  0.1299077E+04  0.7818609E-02  0.9030297E-01
        1   -1    0    0  501    0  0.00000000000E+00  0.00000000000E+00  0.56655267897E+03  0.56655267899E+03  0.50400001928E-02 0. -1.
       -1   -1    0    0    0  501  0.00000000000E+00  0.00000000000E+00 -0.74467984974E+03  0.74467984976E+03  0.50400001928E-02 0.  1.
    10030    2    1    2    0    0  0.00000000000E+00  0.00000000000E+00 -0.17812717078E+03  0.13112325287E+04  0.12990771553E+04 0.  0.
        1    1    3    3  502    0  0.54454062479E+03  0.29282199558E+03 -0.29000206419E+03  0.68291317926E+03  0.50400001928E-02 0. -1.
       -1    1    3    3    0  502 -0.54454062479E+03 -0.29282199558E+03  0.11187489341E+03  0.62831934949E+03  0.50400001928E-02 0.  1.
</event>
<event>
 5   0  0.1475396E-04  0.1294328E+04  0.7818609E-02  0.9034075E-01
       -1   -1    0    0    0  501  0.00000000000E+00  0.00000000000E+00  0.55934197824E+03  0.55934197827E+03  0.50400001928E-02 0.  1.
        1   -1    0    0  501    0  0.00000000000E+00  0.00000000000E+00 -0.74877532649E+03  0.74877532651E+03  0.50400001928E-02 0. -1.
    10030    2    1    2    0    0  0.00000000000E+00  0.00000000000E+00 -0.18943334825E+03  0.13081173048E+04  0.12943283546E+04 0.  0.
        3    1    3    3  502    0 -0.12997526164E+03  0.22554206985E+03  0.50409750610E+03  0.56734213643E+03  0.10100000352E+00 0.  1.
       -3    1    3    3    0  502  0.12997526164E+03 -0.22554206985E+03 -0.69353085435E+03  0.74077516835E+03  0.10100000352E+00 0. -1.
</event>
<event>
 5   0  0.1430636E-04  0.1297964E+04  0.7818609E-02  0.9031181E-01
       -1   -1    0    0    0  501  0.00000000000E+00  0.00000000000E+00  0.23633210860E+03  0.23633210866E+03  0.50400001928E-02 0. -1.
        1   -1    0    0  501    0  0.00000000000E+00  0.00000000000E+00 -0.17821429525E+04  0.17821429525E+04  0.50400001928E-02 0.  1.
    10030    2    1    2    0    0  0.00000000000E+00  0.00000000000E+00 -0.15458108439E+04  0.20184750611E+04  0.12979639469E+04 0.  0.
        4    1    3    3  502    0 -0.38829309154E+03  0.49870521971E+03 -0.54383643978E+03  0.83380939503E+03  0.12699999809E+01 0. -1.
       -4    1    3    3    0  502  0.38829309154E+03 -0.49870521971E+03 -0.10019744041E+04  0.11846656661E+04  0.12699999809E+01 0.  1.
</event>
<event>
 5   0  0.1408341E-04  0.1301928E+04  0.7818609E-02  0.9028038E-01
       -1   -1    0    0    0  501  0.00000000000E+00  0.00000000000E+00  0.65173670568E+03  0.65173670570E+03  0.50400001928E-02 0. -1.
        1   -1    0    0  501    0  0.00000000000E+00  0.00000000000E+00 -0.65019233762E+03  0.65019233764E+03  0.50400001928E-02 0.  1.
    10030    2    1    2    0    0  0.00000000000E+00  0.00000000000E+00  0.15443680641E+01  0.13019290433E+04  0.13019281274E+04 0.  0.
        5    1    3    3  502    0 -0.18649058882E+03 -0.31291177014E+03 -0.53870906320E+03  0.65032458080E+03  0.46999998093E+01 0.  1.
       -5    1    3    3    0  502  0.18649058882E+03  0.31291177014E+03  0.54025343127E+03  0.65160446254E+03  0.46999998093E+01 0. -1.
</event>
<event>
 5   0  0.2756984E-04  0.1301036E+04  0.7818609E-02  0.9028744E-01
        2   -1    0    0  501    0  0.00000000000E+00  0.00000000000E+00  0.65576852068E+03  0.65576852068E+03  0.25500000920E-02 0. -1.
       -2   -1    0    0    0  501  0.00000000000E+00  0.00000000000E+00 -0.64530925383E+03  0.64530925383E+03  0.25500000920E-02 0.  1.
    10030    2    1    2    0    0  0.00000000000E+00  0.00000000000E+00  0.10459266849E+02  0.13010777745E+04  0.13010357332E+04 0.  0.
        3    1    3    3  502    0  0.35746183770E+03  0.51230517300E+03  0.18672359366E+03  0.65199790362E+03  0.10100000352E+00 0. -1.
       -3    1    3    3    0  502 -0.35746183770E+03 -0.51230517300E+03 -0.17626432682E+03  0.64907987090E+03  0.10100000352E+00 0.  1.
</event>
<event>
 5   0  0.1476511E-04  0.1300036E+04  0.7818609E-02  0.9029537E-01
       -1   -1    0    0    0  501  0.00000000000E+00  0.00000000000E+00  0.18722326617E+03  0.18722326624E+03  0.50400001928E-02 0. -1.
        1   -1    0    0  501    0  0.00000000000E+00  0.00000000000E+00 -0.22567879128E+04  0.22567879128E+04  0.50400001928E-02 0.  1.
    10030    2    1    2    0    0  0.00000000000E+00  0.00000000000E+00 -0.20695646466E+04  0.24440111790E+04  0.13000356982E+04 0.  0.
        2    1    3    3  502    0 -0.58408730533E+03  0.22025028541E+03 -0.69402210967E+03  0.93345318961E+03  0.25500000920E-02 0. -1.
       -2    1    3    3    0  502  0.58408730533E+03 -0.22025028541E+03 -0.13755425369E+04  0.15105579894E+04  0.25500000920E-02 0.  1.
</event>
<event>
 5   0  0.1430636E-04  0.1301810E+04  0.7818609E-02  0.9028131E-01
        1   -1    0    0  501    0  0.00000000000E+00  0.00000000000E+00  0.71970431075E+03  0.71970431077E+03  0.50400001928E-02 0.  1.
       -1   -1    0    0    0  501  0.00000000000E+00  0.00000000000E+00 -0.58868203632E+03  0.58868203634E+03  0.50400001928E-02 0. -1.
    10030    2    1    2    0    0  0.00000000000E+00  0.00000000000E+00  0.13102227443E+03  0.13083863471E+04  0.13018095087E+04 0.  0.
        4    1    3    3  502    0 -0.83474030530E+02  0.91492919157E+02  0.70775161660E+03  0.71850736373E+03  0.12699999809E+01 0.  1.
       -4    1    3    3    0  502  0.83474030530E+02 -0.91492919157E+02 -0.57672934217E+03  0.58987898339E+03  0.12699999809E+01 0. -1.
</event>
<event>
 5   0  0.1475396E-04  0.1300719E+04  0.7818609E-02  0.9028995E-01
       -1   -1    0    0    0  501  0.00000000000E+00  0.00000000000E+00  0.41536919030E+03  0.41536919033E+03  0.50400001928E-02 0.  1.
        1   -1    0    0  501    0  0.00000000000E+00  0.00000000000E+00 -0.10182934770E+04  0.10182934770E+04  0.50400001928E-02 0. -1.
    10030    2    1    2    0    0  0.00000000000E+00  0.00000000000E+00 -0.60292428667E+03  0.14336626673E+04  0.13007193964E+04 0.  0.
        3    1    3    3  502    0  0.62314355999E+03  0.12782541549E+03 -0.45064947478E+03  0.77957180075E+03  0.10100000352E+00 0. -1.
       -3    1    3    3    0  502 -0.62314355999E+03 -0.12782541549E+03 -0.15227481190E+03  0.65409086657E+03  0.10100000352E+00 0.  1.
</event>
<event>
 5   0  0.1430636E-04  0.1299141E+04  0.7818609E-02  0.9030247E-01
       -1   -1    0    0    0  501  0.00000000000E+00  0.00000000000E+00  0.49223087481E+03  0.49223087483E+03  0.50400001928E-02 0. -1.
        1   -1    0    0  501    0  0.00000000000E+00  0.00000000000E+00 -0.85720262080E+03  0.85720262082E+03  0.50400001928E-02 0.  1.
    10030    2    1    2    0    0  0.00000000000E+00  0.00000000000E+00 -0.36497174600E+03  0.13494334956E+04  0.12991406328E+04 0.  0.
        4    1    3    3  502    0  0.18097335686E+03  0.58325241225E+03 -0.41242698521E+03  0.73690729628E+03  0.12699999809E+01 0.  1.
       -4    1    3    3    0  502 -0.18097335686E+03 -0.58325241225E+03  0.47455239208E+02  0.61252619937E+03  0.12699999809E+01 0. -1.
</event>
<event>
 5   0  0.2723209E-04  0.1301371E+04  0.7818609E-02  0.9028478E-01
        2   -1    0    0  501    0  0.00000000000E+00  0.00000000000E+00  0.56081781231E+03  0.56081781232E+03  0.25500000920E-02 0.  1.
       -2   -1    0    0    0  501  0.00000000000E+00  0.00000000000E+00 -0.75495439700E+03  0.75495439700E+03  0.25500000920E-02 0. -1.
    10030    2    1    2    0    0  0.00000000000E+00  0.00000000000E+00 -0.19413658468E+03  0.13157722093E+04  0.13013713895E+04 0.  0.
        2    1    3    3  502    0 -0.62855825245E+03  0.13522204806E+03  0.41463932193E+01  0.64295230895E+03  0.25500000920E-02 0. -1.
       -2    1    3    3    0  502  0.62855825245E+03 -0.13522204806E+03 -0.19828297790E+03  0.67281990037E+03  0.25500000920E-02 0.  1.
</event>
<event>
 5   0  0.2661377E-04  0.1319345E+04  0.7818609E-02  0.9014364E-01
        2   -1    0    0  501    0  0.00000000000E+00  0.00000000000E+00  0.19255600525E+04  0.19255600525E+04  0.25500000920E-02 0.  1.
       -2   -1    0    0    0  501  0.00000000000E+00  0.00000000000E+00 -0.22599537018E+03  0.22599537019E+03  0.25500000920E-02 0. -1.
    10030    2    1    2    0    0  0.00000000000E+00  0.00000000000E+00  0.16995646823E+04  0.21515554227E+04  0.13193447720E+04 0.  0.
        5    1    3    3  502    0  0.55495050473E+03 -0.18898760711E+03  0.13429651266E+04  0.14653544962E+04  0.46999998093E+01 0.  1.
       -5    1    3    3    0  502 -0.55495050473E+03  0.18898760711E+03  0.35659955571E+03  0.68620092646E+03  0.46999998093E+01 0. -1.
</event>
<event>
 5   0  0.2756984E-04  0.1300204E+04  0.7818609E-02  0.9029403E-01
       -2   -1    0    0    0  501  0.00000000000E+00  0.00000000000E+00  0.34211801486E+03  0.34211801487E+03  0.25500000920E-02 0.  1.
        2   -1    0    0  501    0  0.00000000000E+00  0.00000000000E+00 -0.12353423689E+04  0.12353423689E+04  0.25500000920E-02 0. -1.
    10030    2    1    2    0    0  0.00000000000E+00  0.00000000000E+00 -0.89322435401E+03  0.15774603837E+04  0.13002044130E+04 0.  0.
        3    1    3    3  502    0 -0.58397708219E+03  0.86287723202E+02 -0.11622284172E+03  0.60164986731E+03  0.10100000352E+00 0.  1.
       -3    1    3    3    0  502  0.58397708219E+03 -0.86287723202E+02 -0.77700151229E+03  0.97581051644E+03  0.10100000352E+00 0. -1.
</event>
<event>
 5   0  0.2661377E-04  0.1301061E+04  0.7818609E-02  0.9028724E-01
        2   -1    0    0  501    0  0.00000000000E+00  0.00000000000E+00  0.16190607254E+04  0.16190607254E+04  0.25500000920E-02 0.  1.
       -2   -1    0    0    0  501  0.00000000000E+00  0.00000000000E+00 -0.26137984073E+03  0.26137984074E+03  0.25500000920E-02 0. -1.
    10030    2    1    2    0    0  0.00000000000E+00  0.00000000000E+00  0.13576808847E+04  0.18804405662E+04  0.13010608511E+04 0.  0.
        5    1    3    3  502    0  0.40694653301E+03 -0.33894916379E+02 -0.53026885569E+02  0.41181098416E+03  0.46999998093E+01 0. -1.
       -5    1    3    3    0  502 -0.40694653301E+03  0.33894916379E+02  0.14107077703E+04  0.14686295820E+04  0.46999998093E+01 0.  1.
</event>
<event>
 5   0  0.1430636E-04  0.1299554E+04  0.7818609E-02  0.9029919E-01
        1   -1    0    0  501    0  0.00000000000E+00  0.00000000000E+00  0.98800186566E+03  0.98800186567E+03  0.50400001928E-02 0. -1.
       -1   -1    0    0    0  501  0.00000000000E+00  0.00000000000E+00 -0.42733767774E+03  0.42733767777E+03  0.50400001928E-02 0.  1.
    10030    2    1    2    0    0  0.00000000000E+00  0.00000000000E+00  0.56066418792E+03  0.14153395434E+04  0.12995544204E+04 0.  0.
        4    1    3    3  502    0  0.48866527172E+03  0.21030794784E+03  0.68664757389E+03  0.86862516907E+03  0.12699999809E+01 0. -1.
       -4    1    3    3    0  502 -0.48866527172E+03 -0.21030794784E+03 -0.12598338597E+03  0.54671437437E+03  0.12699999809E+01 0.  1.
</event>
<event>
 5   0  0.1408341E-04  0.1299487E+04  0.7818609E-02  0.9029972E-01
        1   -1    0    0  501    0  0.00000000000E+00  0.00000000000E+00  0.11657243960E+04  0.11657243960E+04  0.50400001928E-02 0. -1.
       -1   -1    0    0    0  501  0.00000000000E+00  0.00000000000E+00 -0.36214957687E+03  0.36214957690E+03  0.50400001928E-02 0.  1.
    10030    2    1    2    0    0  0.00000000000E+00  0.00000000000E+00  0.80357481914E+03  0.15278739729E+04  0.12994869708E+04 0.  0.
        5    1    3    3  502    0 -0.47032910801E+03  0.15628749656E+03 -0.92181192375E+02  0.50413759397E+03  0.46999998093E+01 0.  1.
       -5    1    3    3    0  502  0.47032910801E+03 -0.15628749656E+03  0.89575601152E+03  0.10237363790E+04  0.46999998093E+01 0. -1.
</event>
<event>
 5   0  0.1475396E-04  0.1304039E+04  0.7818609E-02  0.9026369E-01
       -1   -1    0    0    0  501  0.00000000000E+00  0.00000000000E+00  0.62777873178E+03  0.62777873180E+03  0.50400001928E-02 0.  1.
        1   -1    0    0  501    0  0.00000000000E+00  0.00000000000E+00 -0.67719584607E+03  0.67719584609E+03  0.50400001928E-02 0. -1.
    10030    2    1    2    0    0  0.00000000000E+00  0.00000000000E+00 -0.49417114284E+02  0.13049745779E+04  0.13040385722E+04 0.  0.
        3    1    3    3  502    0 -0.51204716263E+03  0.89786302781E+01 -0.42855270864E+03  0.66778016355E+03  0.10100000352E+00 0. -1.
       -3    1    3    3    0  502  0.51204716263E+03 -0.89786302781E+01  0.37913559435E+03  0.63719441434E+03  0.10100000352E+00 0.  1.
</event>
<event>
 5   0  0.1408341E-04  0.1298822E+04  0.7818609E-02  0.9030500E-01
       -1   -1    0    0    0  501  0.00000000000E+00  0.00000000000E+00  0.10443211530E+04  0.10443211530E+04  0.50400001928E-02 0. -1.
        1   -1    0    0  501    0  0.00000000000E+00  0.00000000000E+00 -0.40383602340E+03  0.40383602343E+03  0.50400001928E-02 0.  1.
    10030    2    1    2    0    0  0.00000000000E+00  0.00000000000E+00  0.64048512962E+03  0.14481571765E+04  0.12988217762E+04 0.  0.
        5    1    3    3  502    0 -0.11121279761E+03 -0.20574017727E+02  0.10332363738E+04  0.10394186215E+04  0.46999998093E+01 0. -1.
       -5    1    3    3    0  502  0.11121279761E+03  0.20574017727E+02 -0.39275124415E+03  0.40873855499E+03  0.46999998093E+01 0.  1.
</event>
<event>
 5   0  0.2723209E-04  0.1299821E+04  0.7818609E-02  0.9029707E-01
        2   -1    0    0  501    0  0.00000000000E+00  0.00000000000E+00  0.10669048097E+04  0.10669048097E+04  0.25500000920E-02 0. -1.
       -2   -1    0    0    0  501  0.00000000000E+00  0.00000000000E+00 -0.39589610309E+03  0.39589610309E+03  0.25500000920E-02 0.  1.
    10030    2    1    2    0    0  0.00000000000E+00  0.00000000000E+00  0.67100870661E+03  0.14628009128E+04  0.12998206900E+04 0.  0.
        2    1    3    3  502    0  0.53272521259E+03  0.72975315571E+02  0.74632739159E+03  0.91985114244E+03  0.25500000920E-02 0. -1.
       -2    1    3    3    0  502 -0.53272521259E+03 -0.72975315571E+02 -0.75318684976E+02  0.54294977035E+03  0.25500000920E-02 0.  1.
</event>
<event>
 5   0  0.2756984E-04  0.1301260E+04  0.7818609E-02  0.9028567E-01
        2   -1    0    0  501    0  0.00000000000E+00  0.00000000000E+00  0.26114742327E+04  0.26114742327E+04  0.25500000920E-02 0.  1.
       -2   -1    0    0    0  501  0.00000000000E+00  0.00000000000E+00 -0.16209977472E+03  0.16209977474E+03  0.25500000920E-02 0. -1.
    10030    2    1    2    0    0  0.00000000000E+00  0.00000000000E+00  0.24493744580E+04  0.27735740074E+04  0.13012599815E+04 0.  0.
        3    1    3    3  502    0  0.83425802925E+02 -0.58273273028E+03  0.18153037722E+04  0.19083671280E+04  0.10100000352E+00 0.  1.
       -3    1    3    3    0  502 -0.83425802925E+02  0.58273273028E+03  0.63407068576E+03  0.86520687947E+03  0.10100000352E+00 0. -1.
</event>
<event>
 5   0  0.2756984E-04  0.1298840E+04  0.7818609E-02  0.9030485E-01
        2   -1    0    0  501    0  0.00000000000E+00  0.00000000000E+00  0.47254466992E+03  0.47254466993E+03  0.25500000920E-02 0. -1.
       -2   -1    0    0    0  501  0.00000000000E+00  0.00000000000E+00 -0.89250080231E+03  0.89250080232E+03  0.25500000920E-02 0.  1.
    10030    2    1    2    0    0  0.00000000000E+00  0.00000000000E+00 -0.41995613239E+03  0.13650454722E+04  0.12988402474E+04 0.  0.
        3    1    3    3  502    0  0.63004928993E+03  0.62667042059E+00 -0.37543194842E+03  0.73342461000E+03  0.10100000352E+00 0.  1.
       -3    1    3    3    0  502 -0.63004928993E+03 -0.62667042059E+00 -0.44524183976E+02  0.63162086224E+03  0.10100000352E+00 0. -1.
</event>
<event>
 5   0  0.1476511E-04  0.1299958E+04  0.7818609E-02  0.9029598E-01
        1   -1    0    0  501    0  0.00000000000E+00  0.00000000000E+00  0.60769984479E+03  0.60769984481E+03  0.50400001928E-02 0.  1.
       -1   -1    0    0    0  501  0.00000000000E+00  0.00000000000E+00 -0.69519976235E+03  0.69519976237E+03  0.50400001928E-02 0. -1.
    10030    2    1    2    0    0  0.00000000000E+00  0.00000000000E+00 -0.87499917560E+02  0.13028996072E+04  0.12999581343E+04 0.  0.
        2    1    3    3  502    0  0.22138195985E+03  0.33728358533E+03  0.46701340078E+03  0.61714804188E+03  0.25500000920E-02 0.  1.
       -2    1    3    3    0  502 -0.22138195985E+03 -0.33728358533E+03 -0.55451331834E+03  0.68575156530E+03  0.25500000920E-02 0. -1.
</event>
<event>
 5   0  0.2573071E-04  0.1301269E+04  0.7818609E-02  0.9028559E-01
       -2   -1    0    0    0  501  0.00000000000E+00  0.00000000000E+00  0.38398699494E+03  0.38398699495E+03  0.25500000920E-02 0. -1.
        2   -1    0    0  501    0  0.00000000000E+00  0.00000000000E+00 -0.11024468025E+04  0.11024468025E+04  0.25500000920E-02 0.  1.
    10030    2    1    2    0    0  0.00000000000E+00  0.00000000000E+00 -0.71845980759E+03  0.14864337975E+04  0.13012689726E+04 0.  0.
        4    1    3    3  502    0 -0.49692456432E+03 -0.32971667424E+03 -0.62065020204E+02  0.59958384529E+03  0.12699999809E+01 0. -1.
       -4    1    3    3    0  502  0.49692456432E+03  0.32971667424E+03 -0.65639478739E+03  0.88684995219E+03  0.12699999809E+01 0.  1.
</event>
<event>
 5   0  0.2756984E-04  0.1299285E+04  0.7818609E-02  0.9030133E-01
        2   -1    0    0  501    0  0.00000000000E+00  0.00000000000E+00  0.24502216239E+04  0.24502216239E+04  0.25500000920E-02 0.  1.
       -2   -1    0    0    0  501  0.00000000000E+00  0.00000000000E+00 -0.17224365996E+03  0.17224365998E+03  0.25500000920E-02 0. -1.
    10030    2    1    2    0    0  0.00000000000E+00  0.00000000000E+00  0.22779779639E+04  0.26224652838E+04  0.12992846343E+04 0.  0.
        3    1    3    3  502    0  0.43053983553E+03 -0.10810213337E+03  0.18161470763E+03  0.47961915459E+03  0.10100000352E+00 0. -1.
       -3    1    3    3    0  502 -0.43053983553E+03  0.10810213337E+03  0.20963632563E+04  0.21428461292E+04  0.10100000352E+00 0.  1.
</event>
<event>
 5   0  0.2756984E-04  0.1299477E+04  0.7818609E-02  0.9029980E-01
        2   -1    0    0  501    0  0.00000000000E+00  0.00000000000E+00  0.75127862935E+03  0.75127862936E+03  0.25500000920E-02 0. -1.
       -2   -1    0    0    0  501  0.00000000000E+00  0.00000000000E+00 -0.56192218898E+03  0.56192218898E+03  0.25500000920E-02 0.  1.
    10030    2    1    2    0    0  0.00000000000E+00  0.00000000000E+00  0.18935644038E+03  0.13132008183E+04  0.12994770209E+04 0.  0.
        3    1    3    3  502    0  0.33163590740E+03  0.48848499739E+03 -0.17940588813E+03  0.61707896630E+03  0.10100000352E+00 0.  1.
       -3    1    3    3    0  502 -0.33163590740E+03 -0.48848499739E+03  0.36876232851E+03  0.69612185204E+03  0.10100000352E+00 0. -1.
</event>
<event>
 5   0  0.2756984E-04  0.1297193E+04  0.7818609E-02  0.9031794E-01
       -2   -1    0    0    0  501  0.00000000000E+00  0.00000000000E+00  0.30426360802E+03  0.30426360803E+03  0.25500000920E-02 0.  1.
        2   -1    0    0  501    0  0.00000000000E+00  0.00000000000E+00 -0.13826080826E+04  0.13826080826E+04  0.25500000920E-02 0. -1.
    10030    2    1    2    0    0  0.00000000000E+00  0.00000000000E+00 -0.10783444746E+04  0.16868716906E+04  0.12971928518E+04 0.  0.
        3    1    3    3  502    0 -0.23801975941E+03  0.60301033393E+03 -0.56525962913E+03  0.86011239220E+03  0.10100000352E+00 0. -1.
       -3    1    3    3    0  502  0.23801975941E+03 -0.60301033393E+03 -0.51308484544E+03  0.82675929842E+03  0.10100000352E+00 0.  1.
</event>
<event>
 5   0  0.2661377E-04  0.1300702E+04  0.7818609E-02  0.9029009E-01
        2   -1    0    0  501    0  0.00000000000E+00  0.00000000000E+00  0.11217613789E+04  0.11217613789E+04  0.25500000920E-02 0.  1.
       -2   -1    0    0    0  501  0.00000000000E+00  0.00000000000E+00 -0.37704641866E+03  0.37704641867E+03  0.25500000920E-02 0. -1.
    10030    2    1    2    0    0  0.00000000000E+00  0.00000000000E+00  0.74471496022E+03  0.14988077975E+04  0.13007015192E+04 0.  0.
        5    1    3    3  502    0 -0.55405295281E+03  0.32352293648E+03  0.49480743950E+03  0.81024580044E+03  0.46999998093E+01 0.  1.
       -5    1    3    3    0  502  0.55405295281E+03 -0.32352293648E+03  0.24990752072E+03  0.68856199711E+03  0.46999998093E+01 0. -1.
</event>
<event>
 5   0  0.1475396E-04  0.1304661E+04  0.7818609E-02  0.9025877E-01
        1   -1    0    0  501    0  0.00000000000E+00  0.00000000000E+00  0.92449078312E+03  0.92449078313E+03  0.50400001928E-02 0.  1.
       -1   -1    0    0    0  501  0.00000000000E+00  0.00000000000E+00 -0.46029100419E+03  0.46029100422E+03  0.50400001928E-02 0. -1.
    10030    2    1    2    0    0  0.00000000000E+00  0.00000000000E+00  0.46419977893E+03  0.13847817873E+04  0.13046605550E+04 0.  0.
        3    1    3    3  502    0 -0.25321776770E+03 -0.46475709703E+03  0.63685326642E+03  0.82807034138E+03  0.10100000352E+00 0.  1.
       -3    1    3    3    0  502  0.25321776770E+03  0.46475709703E+03 -0.17265348750E+03  0.55671144597E+03  0.10100000352E+00 0. -1.
</event>
<event>
 5   0  0.1476511E-04  0.1301881E+04  0.7818609E-02  0.9028075E-01
       -1   -1    0    0    0  501  0.00000000000E+00  0.00000000000E+00  0.36299897251E+03  0.36299897254E+03  0.50400001928E-02 0.  1.
        1   -1    0    0  501    0  0.00000000000E+00  0.00000000000E+00 -0.11672858855E+04  0.11672858856E+04  0.50400001928E-02 0. -1.
    10030    2    1    2    0    0  0.00000000000E+00  0.00000000000E+00 -0.80428691303E+03  0.15302848581E+04  0.13018810654E+04 0.  0.
        2    1    3    3  502    0 -0.51534539183E+03  0.17280962736E+03  0.18854184246E+02  0.54387454478E+03  0.25500000920E-02 0.  1.
       -2    1    3    3    0  502  0.51534539183E+03 -0.17280962736E+03 -0.82314109728E+03  0.98641031332E+03  0.25500000920E-02 0. -1.
</event>
<event>
 5   0  0.1430636E-04  0.1298528E+04  0.7818609E-02  0.9030733E-01
       -1   -1    0    0    0  501  0.00000000000E+00  0.00000000000E+00  0.36699910811E+03  0.36699910815E+03  0.50400001928E-02 0.  1.
        1   -1    0    0  501    0  0.00000000000E+00  0.00000000000E+00 -0.11486231022E+04  0.11486231022E+04  0.50400001928E-02 0. -1.
    10030    2    1    2    0    0  0.00000000000E+00  0.00000000000E+00 -0.78162399406E+03  0.15156222103E+04  0.12985278651E+04 0.  0.
        4    1    3    3  502    0  0.24957586517E+03  0.50797927505E+03 -0.76213641819E+03  0.94930742607E+03  0.12699999809E+01 0.  1.
       -4    1    3    3    0  502 -0.24957586517E+03 -0.50797927505E+03 -0.19487575870E+02  0.56631478426E+03  0.12699999809E+01 0. -1.
</event>
<event>
 5   0  0.2756984E-04  0.1299272E+04  0.7818609E-02  0.9030143E-01
        2   -1    0    0  501    0  0.00000000000E+00  0.00000000000E+00  0.18075761320E+04  0.18075761320E+04  0.25500000920E-02 0.  1.
       -2   -1    0    0    0  501  0.00000000000E+00  0.00000000000E+00 -0.23347674692E+03  0.23347674693E+03  0.25500000920E-02 0. -1.
    10030    2    1    2    0    0  0.00000000000E+00  0.00000000000E+00  0.15740993851E+04  0.20410528790E+04  0.12992720964E+04 0.  0.
        3    1    3    3  502    0 -0.12712463303E+02 -0.58557256596E+03  0.12285038604E+04  0.13609844165E+04  0.10100000352E+00 0.  1.
       -3    1    3    3    0  502  0.12712463303E+02  0.58557256596E+03  0.34559552468E+03  0.68006846244E+03  0.10100000352E+00 0. -1.
</event>
<event>
 5   0  0.2756984E-04  0.1300298E+04  0.7818609E-02  0.9029329E-01
       -2   -1    0    0    0  501  0.00000000000E+00  0.00000000000E+00  0.56814317577E+03  0.56814317578E+03  0.25500000920E-02 0. -1.
        2   -1    0    0  501    0  0.00000000000E+00  0.00000000000E+00 -0.74399141162E+03  0.74399141162E+03  0.25500000920E-02 0.  1.
    10030    2    1    2    0    0  0.00000000000E+00  0.00000000000E+00 -0.17584823584E+03  0.13121345874E+04  0.13002978787E+04 0.  0.
        3    1    3    3  502    0 -0.14708207578E+03 -0.37927304438E+03  0.42385377965E+03  0.58748039622E+03  0.10100000352E+00 0. -1.
       -3    1    3    3    0  502  0.14708207578E+03  0.37927304438E+03 -0.59970201550E+03  0.72465419118E+03  0.10100000352E+00 0.  1.
</event>
<event>
 5   0  0.2794825E-04  0.1303193E+04  0.7818609E-02  0.9027037E-01
        2   -1    0    0  501    0  0.00000000000E+00  0.00000000000E+00  0.13417148155E+04  0.13417148155E+04  0.25500000920E-02 0. -1.
       -2   -1    0    0    0  501  0.00000000000E+00  0.00000000000E+00 -0.31644434704E+03  0.31644434705E+03  0.25500000920E-02 0.  1.
    10030    2    1    2    0    0  0.00000000000E+00  0.00000000000E+00  0.10252704685E+04  0.16581591626E+04  0.13031931073E+04 0.  0.
        1    1    3    3  502    0  0.27137787991E+03 -0.48842276132E+02  0.12638218358E+04  0.12935521460E+04  0.50400001928E-02 0. -1.
       -1    1    3    3    0  502 -0.27137787991E+03  0.48842276132E+02 -0.23855136736E+03  0.36460701658E+03  0.50400001928E-02 0.  1.
</event>
<event>
 5   0  0.1479690E-04  0.1296629E+04  0.7818609E-02  0.9032243E-01
        1   -1    0    0  501    0  0.00000000000E+00  0.00000000000E+00  0.13438679910E+04  0.13438679910E+04  0.50400001928E-02 0.  1.
       -1   -1    0    0    0  501  0.00000000000E+00  0.00000000000E+00 -0.31276254878E+03  0.31276254882E+03  0.50400001928E-02 0. -1.
    10030    2    1    2    0    0  0.00000000000E+00  0.00000000000E+00  0.10311054422E+04  0.16566305398E+04  0.12966288260E+04 0.  0.
        1    1    3    3  502    0 -0.21905022439E+03  0.37397696229E+02 -0.26258409663E+03  0.34399418065E+03  0.50400001928E-02 0.  1.
       -1    1    3    3    0  502  0.21905022439E+03 -0.37397696229E+02  0.12936895388E+04  0.13126363592E+04  0.50400001928E-02 0. -1.
</event>
<event>
 5   0  0.2723209E-04  0.1301165E+04  0.7818609E-02  0.9028642E-01
        2   -1    0    0  501    0  0.00000000000E+00  0.00000000000E+00  0.12318978726E+04  0.12318978726E+04  0.25500000920E-02 0. -1.
       -2   -1    0    0    0  501  0.00000000000E+00  0.00000000000E+00 -0.34358192200E+03  0.34358192200E+03  0.25500000920E-02 0.  1.
    10030    2    1    2    0    0  0.00000000000E+00  0.00000000000E+00  0.88831595058E+03  0.15754797946E+04  0.13011653834E+04 0.  0.
        2    1    3    3  502    0  0.35066856597E+03  0.53246907385E+03  0.60093994526E+03  0.87613958681E+03  0.25500000920E-02 0. -1.
       -2    1    3    3    0  502 -0.35066856597E+03 -0.53246907385E+03  0.28737600531E+03  0.69934020777E+03  0.25500000920E-02 0.  1.
</event>
<event>
 5   0  0.2756984E-04  0.1299191E+04  0.7818609E-02  0.9030207E-01
       -2   -1    0    0    0  501  0.00000000000E+00  0.00000000000E+00  0.24895875815E+03  0.24895875817E+03  0.25500000920E-02 0.  1.
        2   -1    0    0  501    0  0.00000000000E+00  0.00000000000E+00 -0.16949571880E+04  0.16949571880E+04  0.25500000920E-02 0. -1.
    10030    2    1    2    0    0  0.00000000000E+00  0.00000000000E+00 -0.14459984298E+04  0.19439159461E+04  0.12991911894E+04 0.  0.
        3    1    3    3  502    0  0.16560991139E+03 -0.47888289978E+03 -0.13311823139E+04  0.14243601502E+04  0.10100000352E+00 0. -1.
       -3    1    3    3    0  502 -0.16560991139E+03  0.47888289978E+03 -0.11481611596E+03  0.51955579598E+03  0.10100000352E+00 0.  1.
</event>
<event>
 5   0  0.1479690E-04  0.1305185E+04  0.7818609E-02  0.9025463E-01
        1   -1    0    0  501    0  0.00000000000E+00  0.00000000000E+00  0.43295037914E+03  0.43295037916E+03  0.50400001928E-02 0.  1.
       -1   -1    0    0    0  501  0.00000000000E+00  0.00000000000E+00 -0.98366288509E+03  0.98366288510E+03  0.50400001928E-02 0. -1.
    10030    2    1    2    0    0  0.00000000000E+00  0.00000000000E+00 -0.55071250595E+03  0.14166132643E+04  0.13051853800E+04 0.  0.
        1    1    3    3  502    0 -0.11667788571E+03 -0.18937920734E+03  0.39053504178E+03  0.44943946430E+03  0.50400001928E-02 0.  1.
       -1    1    3    3    0  502  0.11667788571E+03  0.18937920734E+03 -0.94124754773E+03  0.96717379996E+03  0.50400001928E-02 0. -1.
</event>
<event>
 5   0  0.2573071E-04  0.1295615E+04  0.7818609E-02  0.9033050E-01
        2   -1    0    0  501    0  0.00000000000E+00  0.00000000000E+00  0.18600731937E+04  0.18600731937E+04  0.25500000920E-02 0.  1.
       -2   -1    0    0    0  501  0.00000000000E+00  0.00000000000E+00 -0.22561186560E+03  0.22561186561E+03  0.25500000920E-02 0. -1.
    10030    2    1    2    0    0  0.00000000000E+00  0.00000000000E+00  0.16344613281E+04  0.20856850593E+04  0.12956150407E+04 0.  0.
        4    1    3    3  502    0 -0.27831379774E+02  0.61115747040E+03  0.11601033403E+04  0.13115370419E+04  0.12699999809E+01 0.  1.
       -4    1    3    3    0  502  0.27831379774E+02 -0.61115747040E+03  0.47435798784E+03  0.77414801740E+03  0.12699999809E+01 0. -1.
</event>
<event>
 5   0  0.1408341E-04  0.1298251E+04  0.7818609E-02  0.9030953E-01
       -1   -1    0    0    0  501  0.00000000000E+00  0.00000000000E+00  0.44835750201E+03  0.44835750204E+03  0.50400001928E-02 0.  1.
        1   -1    0    0  501    0  0.00000000000E+00  0.00000000000E+00 -0.93979447228E+03  0.93979447229E+03  0.50400001928E-02 0. -1.
    10030    2    1    2    0    0  0.00000000000E+00  0.00000000000E+00 -0.49143697027E+03  0.13881519743E+04  0.12982509804E+04 0.  0.
        5    1    3    3  502    0  0.34157058719E+03  0.25966775780E+03 -0.76652448184E+03  0.87845300485E+03  0.46999998093E+01 0. -1.
       -5    1    3    3    0  502 -0.34157058719E+03 -0.25966775780E+03  0.27508751157E+03  0.50969896949E+03  0.46999998093E+01 0.  1.
</event>
<event>
 5   0  0.2661377E-04  0.1298945E+04  0.7818609E-02  0.9030402E-01
        2   -1    0    0  501    0  0.00000000000E+00  0.00000000000E+00  0.74165542017E+03  0.74165542018E+03  0.25500000920E-02 0.  1.
       -2   -1    0    0    0  501  0.00000000000E+00  0.00000000000E+00 -0.56874747671E+03  0.56874747672E+03  0.25500000920E-02 0. -1.
    10030    2    1    2    0    0  0.00000000000E+00  0.00000000000E+00  0.17290794346E+03  0.13104028969E+04  0.12989451856E+04 0.  0.
        5    1    3    3  502    0  0.20267329552E+03  0.87945087115E+00  0.70891791105E+03  0.73733569882E+03  0.46999998093E+01 0.  1.
       -5    1    3    3    0  502 -0.20267329552E+03 -0.87945087115E+00 -0.53600996759E+03  0.57306719807E+03  0.46999998093E+01 0. -1.
</event>
<event>
 5   0  0.2573071E-04  0.1301262E+04  0.7818609E-02  0.9028565E-01
        2   -1    0    0  501    0  0.00000000000E+00  0.00000000000E+00  0.13968548795E+04  0.13968548795E+04  0.25500000920E-02 0.  1.
       -2   -1    0    0    0  501  0.00000000000E+00  0.00000000000E+00 -0.30305282604E+03  0.30305282605E+03  0.25500000920E-02 0. -1.
    10030    2    1    2    0    0  0.00000000000E+00  0.00000000000E+00  0.10938020535E+04  0.16999077056E+04  0.13012621855E+04 0.  0.
        4    1    3    3  502    0  0.21915521872E+03 -0.20741276205E+03  0.12999204731E+04  0.13344826387E+04  0.12699999809E+01 0.  1.
       -4    1    3    3    0  502 -0.21915521872E+03  0.20741276205E+03 -0.20611841956E+03  0.36542506692E+03  0.12699999809E+01 0. -1.
</event>
<event>
 5   0  0.2756984E-04  0.1300429E+04  0.7818609E-02  0.9029225E-01
        2   -1    0    0  501    0  0.00000000000E+00  0.00000000000E+00  0.85964425507E+03  0.85964425507E+03  0.25500000920E-02 0.  1.
       -2   -1    0    0    0  501  0.00000000000E+00  0.00000000000E+00 -0.49180657742E+03  0.49180657743E+03  0.25500000920E-02 0. -1.
    10030    2    1    2    0    0  0.00000000000E+00  0.00000000000E+00  0.36783767765E+03  0.13514508325E+04  0.13004286968E+04 0.  0.
        3    1    3    3  502    0 -0.43822811689E+03 -0.44790087745E+03  0.36427807163E+03  0.72481556422E+03  0.10100000352E+00 0. -1.
       -3    1    3    3    0  502  0.43822811689E+03  0.44790087745E+03  0.35596060189E+01  0.62663526828E+03  0.10100000352E+00 0.  1.
</event>
<event>
 5   0  0.2661377E-04  0.1301030E+04  0.7818609E-02  0.9028748E-01
        2   -1    0    0  501    0  0.00000000000E+00  0.00000000000E+00  0.71517331883E+03  0.71517331884E+03  0.25500000920E-02 0.  1.
       -2   -1    0    0    0  501  0.00000000000E+00  0.00000000000E+00 -0.59170281962E+03  0.59170281962E+03  0.25500000920E-02 0. -1.
    10030    2    1    2    0    0  0.00000000000E+00  0.00000000000E+00  0.12347049922E+03  0.13068761385E+04  0.13010304674E+04 0.  0.
        5    1    3    3  502    0 -0.19117967323E+03  0.53310123980E+03  0.38317521016E+03  0.68380693987E+03  0.46999998093E+01 0.  1.
       -5    1    3    3    0  502  0.19117967323E+03 -0.53310123980E+03 -0.25970471094E+03  0.62306919858E+03  0.46999998093E+01 0. -1.
</event>
<event>
 5   0  0.2573071E-04  0.1300115E+04  0.7818609E-02  0.9029474E-01
        2   -1    0    0  501    0  0.00000000000E+00  0.00000000000E+00  0.24272362597E+04  0.24272362597E+04  0.25500000920E-02 0.  1.
       -2   -1    0    0    0  501  0.00000000000E+00  0.00000000000E+00 -0.17409717605E+03  0.17409717607E+03  0.25500000920E-02 0. -1.
    10030    2    1    2    0    0  0.00000000000E+00  0.00000000000E+00  0.22531390836E+04  0.26013334357E+04  0.13001153463E+04 0.  0.
        4    1    3    3  502    0 -0.63978541274E+03 -0.93642671914E+02  0.12604775858E+04  0.14166508679E+04  0.12699999809E+01 0.  1.
       -4    1    3    3    0  502  0.63978541274E+03  0.93642671914E+02  0.99266149780E+03  0.11846825678E+04  0.12699999809E+01 0. -1.
</event>
<event>
 5   0  0.2756984E-04  0.1299948E+04  0.7818609E-02  0.9029606E-01
        2   -1    0    0  501    0  0.00000000000E+00  0.00000000000E+00  0.50413392172E+03  0.50413392173E+03  0.25500000920E-02 0. -1.
       -2   -1    0    0    0  501  0.00000000000E+00  0.00000000000E+00 -0.83800404252E+03  0.83800404252E+03  0.25500000920E-02 0.  1.
    10030    2    1    2    0    0  0.00000000000E+00  0.00000000000E+00 -0.33387012079E+03  0.13421379642E+04  0.12999480980E+04 0.  0.
        3    1    3    3  502    0  0.19947032242E+03  0.39720363109E+02  0.47043359360E+03  0.51251721236E+03  0.10100000352E+00 0. -1.
       -3    1    3    3    0  502 -0.19947032242E+03 -0.39720363109E+02 -0.80430371440E+03  0.82962075189E+03  0.10100000352E+00 0.  1.
</event>
<event>
 5   0  0.1408341E-04  0.1296491E+04  0.7818609E-02  0.9032352E-01
        1   -1    0    0  501    0  0.00000000000E+00  0.00000000000E+00  0.92380807135E+03  0.92380807136E+03  0.50400001928E-02 0.  1.
       -1   -1    0    0    0  501  0.00000000000E+00  0.00000000000E+00 -0.45488047897E+03  0.45488047900E+03  0.50400001928E-02 0. -1.
    10030    2    1    2    0    0  0.00000000000E+00  0.00000000000E+00  0.46892759238E+03  0.13786885504E+04  0.12964910459E+04 0.  0.
        5    1    3    3  502    0  0.43104387571E+03 -0.42214167051E+02 -0.27842064927E+03  0.51489902566E+03  0.46999998093E+01 0. -1.
       -5    1    3    3    0  502 -0.43104387571E+03  0.42214167051E+02  0.74734824164E+03  0.86378952470E+03  0.46999998093E+01 0.  1.
</event>
<event>
 5   0  0.2794825E-04  0.1292120E+04  0.7818609E-02  0.9035837E-01
        2   -1    0    0  501    0  0.00000000000E+00  0.00000000000E+00  0.17508693547E+04  0.17508693547E+04  0.25500000920E-02 0. -1.
       -2   -1    0    0    0  501  0.00000000000E+00  0.00000000000E+00 -0.23839231856E+03  0.23839231857E+03  0.25500000920E-02 0.  1.
    10030    2    1    2    0    0  0.00000000000E+00  0.00000000000E+00  0.15124770362E+04  0.19892616733E+04  0.12921204355E+04 0.  0.
        1    1    3    3  502    0  0.53662484527E+02  0.29763828774E+03 -0.12267906320E+03  0.32637151399E+03  0.50400001928E-02 0.  1.
       -1    1    3    3    0  502 -0.53662484527E+02 -0.29763828774E+03  0.16351560994E+04  0.16628901593E+04  0.50400001928E-02 0. -1.
</event>
<event>
 5   0  0.1475396E-04  0.1297592E+04  0.7818609E-02  0.9031477E-01
        1   -1    0    0  501    0  0.00000000000E+00  0.00000000000E+00  0.65588026123E+03  0.65588026125E+03  0.50400001928E-02 0.  1.
       -1   -1    0    0    0  501  0.00000000000E+00  0.00000000000E+00 -0.64178779105E+03  0.64178779107E+03  0.50400001928E-02 0. -1.
    10030    2    1    2    0    0  0.00000000000E+00  0.00000000000E+00  0.14092470182E+02  0.12976680523E+04  0.12975915291E+04 0.  0.
        3    1    3    3  502    0  0.52286585529E+03 -0.12675495804E+03 -0.35557742655E+03  0.64489599044E+03  0.10100000352E+00 0. -1.
       -3    1    3    3    0  502 -0.52286585529E+03  0.12675495804E+03  0.36966989673E+03  0.65277206188E+03  0.10100000352E+00 0.  1.
</event>
<event>
 5   0  0.2573071E-04  0.1300810E+04  0.7818609E-02  0.9028923E-01
        2   -1    0    0  501    0  0.00000000000E+00  0.00000000000E+00  0.96435435965E+03  0.96435435965E+03  0.25500000920E-02 0. -1.
       -2   -1    0    0    0  501  0.00000000000E+00  0.00000000000E+00 -0.43866328260E+03  0.43866328261E+03  0.25500000920E-02 0.  1.
    10030    2    1    2    0    0  0.00000000000E+00  0.00000000000E+00  0.52569107705E+03  0.14030176423E+04  0.13008102844E+04 0.  0.
        4    1    3    3  502    0 -0.56997784039E+03 -0.12144311793E+03 -0.48639776358E+02  0.58479963249E+03  0.12699999809E+01 0. -1.
       -4    1    3    3    0  502  0.56997784039E+03  0.12144311793E+03  0.57433085341E+03  0.81821800976E+03  0.12699999809E+01 0.  1.
</event>
<event>
 5   0  0.2573071E-04  0.1320131E+04  0.7818609E-02  0.9013752E-01
        2   -1    0    0  501    0  0.00000000000E+00  0.00000000000E+00  0.55375604641E+03  0.55375604642E+03  0.25500000920E-02 0. -1.
       -2   -1    0    0    0  501  0.00000000000E+00  0.00000000000E+00 -0.78678375293E+03  0.78678375293E+03  0.25500000920E-02 0.  1.
    10030    2    1    2    0    0  0.00000000000E+00  0.00000000000E+00 -0.23302770652E+03  0.13405397993E+04  0.13201306911E+04 0.  0.
        4    1    3    3  502    0  0.54299006477E+03 -0.29125956636E+03 -0.35684621205E+03  0.71204717357E+03  0.12699999809E+01 0.  1.
       -4    1    3    3    0  502 -0.54299006477E+03  0.29125956636E+03  0.12381850554E+03  0.62849262577E+03  0.12699999809E+01 0. -1.
</event>
<event>
 5   0  0.1002887E-04  0.1296253E+04  0.7818609E-02  0.9032541E-01
       -3   -1    0    0    0  501  0.00000000000E+00  0.00000000000E+00  0.35635089300E+03  0.35635090732E+03  0.10100000352E+00 0.  1.
        3   -1    0    0  501    0  0.00000000000E+00  0.00000000000E+00 -0.11788051537E+04  0.11788051580E+04  0.10100000352E+00 0. -1.
    10030    2    1    2    0    0  0.00000000000E+00  0.00000000000E+00 -0.82245426069E+03  0.15351560653E+04  0.12962534991E+04 0.  0.
        1    1    3    3  502    0  0.41926068366E+03 -0.18188245234E+03 -0.95550076402E+03  0.10591706460E+04  0.50400001928E-02 0. -1.
       -1    1    3    3    0  502 -0.41926068366E+03  0.18188245234E+03  0.13304650332E+03  0.47598541932E+03  0.50400001928E-02 0.  1.
</event>
<event>
 5   0  0.2573071E-04  0.1304844E+04  0.7818609E-02  0.9025732E-01
        2   -1    0    0  501    0  0.00000000000E+00  0.00000000000E+00  0.71609916227E+03  0.71609916228E+03  0.25500000920E-02 0. -1.
       -2   -1    0    0    0  501  0.00000000000E+00  0.00000000000E+00 -0.59440737764E+03  0.59440737764E+03  0.25500000920E-02 0.  1.
    10030    2    1    2    0    0  0.00000000000E+00  0.00000000000E+00  0.12169178464E+03  0.13105065399E+04  0.13048442439E+04 0.  0.
        4    1    3    3  502    0  0.33456528800E+03  0.18589188962E+02  0.62307285359E+03  0.70746087077E+03  0.12699999809E+01 0. -1.
       -4    1    3    3    0  502 -0.33456528800E+03 -0.18589188962E+02 -0.50138106896E+03  0.60304566916E+03  0.12699999809E+01 0.  1.
</event>
<event>
 5   0  0.2794825E-04  0.1300673E+04  0.7818609E-02  0.9029032E-01
       -2   -1    0    0    0  501  0.00000000000E+00  0.00000000000E+00  0.40949191411E+03  0.40949191412E+03  0.25500000920E-02 0. -1.
        2   -1    0    0  501    0  0.00000000000E+00  0.00000000000E+00 -0.10328344162E+04  0.10328344162E+04  0.25500000920E-02 0.  1.
    10030    2    1    2    0    0  0.00000000000E+00  0.00000000000E+00 -0.62334250205E+03  0.14423263303E+04  0.13006726599E+04 0.  0.
        1    1    3    3  502    0 -0.50390204462E+02  0.52992366897E+03  0.10261991924E+03  0.54211540790E+03  0.50400001928E-02 0. -1.
       -1    1    3    3    0  502  0.50390204462E+02 -0.52992366897E+03 -0.72596242129E+03  0.90021092238E+03  0.50400001928E-02 0.  1.
</event>
<event>
 5   0  0.1430636E-04  0.1300492E+04  0.7818609E-02  0.9029175E-01
       -1   -1    0    0    0  501  0.00000000000E+00  0.00000000000E+00  0.59224185949E+03  0.59224185951E+03  0.50400001928E-02 0.  1.
        1   -1    0    0  501    0  0.00000000000E+00  0.00000000000E+00 -0.71393055843E+03  0.71393055844E+03  0.50400001928E-02 0. -1.
    10030    2    1    2    0    0  0.00000000000E+00  0.00000000000E+00 -0.12168869894E+03  0.13061724180E+04  0.13004915401E+04 0.  0.
        4    1    3    3  502    0  0.53755904242E+03  0.31235932620E+03 -0.25214915228E+03  0.67090899580E+03  0.12699999809E+01 0.  1.
       -4    1    3    3    0  502 -0.53755904242E+03 -0.31235932620E+03  0.13046045334E+03  0.63526342216E+03  0.12699999809E+01 0. -1.
</event>
<event>
 5   0  0.1002887E-04  0.1297293E+04  0.7818609E-02  0.9031715E-01
        3   -1    0    0  501    0  0.00000000000E+00  0.00000000000E+00  0.32101944653E+03  0.32101946242E+03  0.10100000352E+00 0. -1.
       -3   -1    0    0    0  501  0.00000000000E+00  0.00000000000E+00 -0.13106435891E+04  0.13106435930E+04  0.10100000352E+00 0.  1.
    10030    2    1    2    0    0  0.00000000000E+00  0.00000000000E+00 -0.98962414259E+03  0.16316630554E+04  0.12972927129E+04 0.  0.
        1    1    3    3  502    0  0.36489229629E+03  0.38935243595E+03 -0.30978075715E+02  0.53451038200E+03  0.50400001928E-02 0. -1.
       -1    1    3    3    0  502 -0.36489229629E+03 -0.38935243595E+03 -0.95864606688E+03  0.10971526734E+04  0.50400001928E-02 0.  1.
</event>
<event>
 5   0  0.1408341E-04  0.1299297E+04  0.7818609E-02  0.9030123E-01
        1   -1    0    0  501    0  0.00000000000E+00  0.00000000000E+00  0.98887114464E+03  0.98887114465E+03  0.50400001928E-02 0. -1.
       -1   -1    0    0    0  501  0.00000000000E+00  0.00000000000E+00 -0.42679257209E+03  0.42679257212E+03  0.50400001928E-02 0.  1.
    10030    2    1    2    0    0  0.00000000000E+00  0.00000000000E+00  0.56207857254E+03  0.14156637168E+04  0.12992965163E+04 0.  0.
        5    1    3    3  502    0  0.19481786376E+03 -0.37533249573E+03 -0.25627294351E+03  0.49449610107E+03  0.46999998093E+01 0.  1.
       -5    1    3    3    0  502 -0.19481786376E+03  0.37533249573E+03  0.81835151606E+03  0.92116761571E+03  0.46999998093E+01 0. -1.
</event>
<event>
 5   0  0.2573071E-04  0.1299940E+04  0.7818609E-02  0.9029613E-01
        2   -1    0    0  501    0  0.00000000000E+00  0.00000000000E+00  0.86952101295E+03  0.86952101295E+03  0.25500000920E-02 0. -1.
       -2   -1    0    0    0  501  0.00000000000E+00  0.00000000000E+00 -0.48585466226E+03  0.48585466227E+03  0.25500000920E-02 0.  1.
    10030    2    1    2    0    0  0.00000000000E+00  0.00000000000E+00  0.38366635069E+03  0.13553756752E+04  0.12999397495E+04 0.  0.
        4    1    3    3  502    0 -0.10334863157E+03 -0.26779437845E+03 -0.41618573151E+03  0.50557585463E+03  0.12699999809E+01 0.  1.
       -4    1    3    3    0  502  0.10334863157E+03  0.26779437845E+03  0.79985208220E+03  0.84979982059E+03  0.12699999809E+01 0. -1.
</event>
<event>
 5   0  0.2794825E-04  0.1300399E+04  0.7818609E-02  0.9029249E-01
        2   -1    0    0  501    0  0.00000000000E+00  0.00000000000E+00  0.15693698758E+04  0.15693698758E+04  0.25500000920E-02 0.  1.
       -2   -1    0    0    0  501  0.00000000000E+00  0.00000000000E+00 -0.26938150999E+03  0.26938151000E+03  0.25500000920E-02 0. -1.
    10030    2    1    2    0    0  0.00000000000E+00  0.00000000000E+00  0.12999883658E+04  0.18387513858E+04  0.13003987494E+04 0.  0.
        1    1    3    3  502    0 -0.47468519521E+03  0.43614948584E+03  0.52995631950E+03  0.83450950214E+03  0.50400001928E-02 0.  1.
       -1    1    3    3    0  502  0.47468519521E+03 -0.43614948584E+03  0.77003204630E+03  0.10042418837E+04  0.50400001928E-02 0. -1.
</event>
<event>
 5   0  0.2723209E-04  0.1300532E+04  0.7818609E-02  0.9029143E-01
        2   -1    0    0  501    0  0.00000000000E+00  0.00000000000E+00  0.13857324356E+04  0.13857324356E+04  0.25500000920E-02 0.  1.
       -2   -1    0    0    0  501  0.00000000000E+00  0.00000000000E+00 -0.30514269434E+03  0.30514269435E+03  0.25500000920E-02 0. -1.
    10030    2    1    2    0    0  0.00000000000E+00  0.00000000000E+00  0.10805897413E+04  0.16908751300E+04  0.13005323972E+04 0.  0.
        2    1    3    3  502    0 -0.36254885148E+03 -0.74643408782E+02  0.12353934627E+04  0.12896551151E+04  0.25500000920E-02 0.  1.
       -2    1    3    3    0  502  0.36254885148E+03  0.74643408782E+02 -0.15480372142E+03  0.40122001489E+03  0.25500000920E-02 0. -1.
</event>
<event>
 5   0  0.2661377E-04  0.1301406E+04  0.7818609E-02  0.9028451E-01
       -2   -1    0    0    0  501  0.00000000000E+00  0.00000000000E+00  0.37279367538E+03  0.37279367539E+03  0.25500000920E-02 0. -1.
        2   -1    0    0  501    0  0.00000000000E+00  0.00000000000E+00 -0.11357880196E+04  0.11357880196E+04  0.25500000920E-02 0.  1.
    10030    2    1    2    0    0  0.00000000000E+00  0.00000000000E+00 -0.76299434424E+03  0.15085816950E+04  0.13014063013E+04 0.  0.
        5    1    3    3  502    0  0.48302810777E+03 -0.42015732677E+03 -0.24659091382E+03  0.68605940042E+03  0.46999998093E+01 0. -1.
       -5    1    3    3    0  502 -0.48302810777E+03  0.42015732677E+03 -0.51640343042E+03  0.82252229458E+03  0.46999998093E+01 0.  1.
</event>
<event>
 5   0  0.2723209E-04  0.1299627E+04  0.7818609E-02  0.9029861E-01
       -2   -1    0    0    0  501  0.00000000000E+00  0.00000000000E+00  0.68568074974E+03  0.68568074974E+03  0.25500000920E-02 0.  1.
        2   -1    0    0  501    0  0.00000000000E+00  0.00000000000E+00 -0.61582218948E+03  0.61582218949E+03  0.25500000920E-02 0. -1.
    10030    2    1    2    0    0  0.00000000000E+00  0.00000000000E+00  0.69858560254E+02  0.13015029392E+04  0.12996267473E+04 0.  0.
        2    1    3    3  502    0  0.44691292112E+03 -0.44507582696E+03  0.19146799035E+03  0.65915373179E+03  0.25500000920E-02 0.  1.
       -2    1    3    3    0  502 -0.44691292112E+03  0.44507582696E+03 -0.12160943010E+03  0.64234920744E+03  0.25500000920E-02 0. -1.
</event>
<event>
 5   0  0.1475396E-04  0.1332111E+04  0.7818609E-02  0.9004481E-01
        1   -1    0    0  501    0  0.00000000000E+00  0.00000000000E+00  0.67404207929E+03  0.67404207931E+03  0.50400001928E-02 0. -1.
       -1   -1    0    0    0  501  0.00000000000E+00  0.00000000000E+00 -0.65816378548E+03  0.65816378550E+03  0.50400001928E-02 0.  1.
    10030    2    1    2    0    0  0.00000000000E+00  0.00000000000E+00  0.15878293809E+02  0.13322058648E+04  0.13321112364E+04 0.  0.
        3    1    3    3  502    0 -0.24934507940E+03  0.34830137340E+03 -0.50213949565E+03  0.66002340764E+03  0.10100000352E+00 0.  1.
       -3    1    3    3    0  502  0.24934507940E+03 -0.34830137340E+03  0.51801778946E+03  0.67218245717E+03  0.10100000352E+00 0. -1.
</event>
<event>
 5   0  0.2794825E-04  0.1301961E+04  0.7818609E-02  0.9028012E-01
       -2   -1    0    0    0  501  0.00000000000E+00  0.00000000000E+00  0.20856151796E+03  0.20856151798E+03  0.25500000920E-02 0.  1.
        2   -1    0    0  501    0  0.00000000000E+00  0.00000000000E+00 -0.20318958653E+04  0.20318958653E+04  0.25500000920E-02 0. -1.
    10030    2    1    2    0    0  0.00000000000E+00  0.00000000000E+00 -0.18233343473E+04  0.22404573832E+04  0.13019605002E+04 0.  0.
        1    1    3    3  502    0  0.24545104058E+03 -0.26468737418E+03  0.20557274262E+02  0.36156357798E+03  0.50400001928E-02 0.  1.
       -1    1    3    3    0  502 -0.24545104058E+03  0.26468737418E+03 -0.18438916216E+04  0.18788938053E+04  0.50400001928E-02 0. -1.
</event>
<event>
 5   0  0.1476511E-04  0.1297490E+04  0.7818609E-02  0.9031558E-01
       -1   -1    0    0    0  501  0.00000000000E+00  0.00000000000E+00  0.51123750961E+03  0.51123750964E+03  0.50400001928E-02 0.  1.
        1   -1    0    0  501    0  0.00000000000E+00  0.00000000000E+00 -0.82323774761E+03  0.82323774763E+03  0.50400001928E-02 0. -1.
    10030    2    1    2    0    0  0.00000000000E+00  0.00000000000E+00 -0.31200023800E+03  0.13344752573E+04  0.12974899089E+04 0.  0.
        2    1    3    3  502    0 -0.26872201400E+03 -0.35306266560E+03 -0.64278337896E+03  0.78104752667E+03  0.25500000920E-02 0. -1.
       -2    1    3    3    0  502  0.26872201400E+03  0.35306266560E+03  0.33078314096E+03  0.55342773060E+03  0.25500000920E-02 0.  1.
</event>
<event>
 5   0  0.1430636E-04  0.1299314E+04  0.7818609E-02  0.9030109E-01
       -1   -1    0    0    0  501  0.00000000000E+00  0.00000000000E+00  0.27816320840E+03  0.27816320844E+03  0.50400001928E-02 0.  1.
        1   -1    0    0  501    0  0.00000000000E+00  0.00000000000E+00 -0.15172895722E+04  0.15172895722E+04  0.50400001928E-02 0. -1.
    10030    2    1    2    0    0  0.00000000000E+00  0.00000000000E+00 -0.12391263638E+04  0.17954527807E+04  0.12993138736E+04 0.  0.
        4    1    3    3  502    0  0.11054657117E+03  0.27093187640E+03  0.18194122091E+03  0.34457052517E+03  0.12699999809E+01 0.  1.
       -4    1    3    3    0  502 -0.11054657117E+03 -0.27093187640E+03 -0.14210675847E+04  0.14508822555E+04  0.12699999809E+01 0. -1.
</event>
<event>
 5   0  0.2756984E-04  0.1300296E+04  0.7818609E-02  0.9029331E-01
       -2   -1    0    0    0  501  0.00000000000E+00  0.00000000000E+00  0.27329319603E+03  0.27329319605E+03  0.25500000920E-02 0.  1.
        2   -1    0    0  501    0  0.00000000000E+00  0.00000000000E+00 -0.15466618477E+04  0.15466618477E+04  0.25500000920E-02 0. -1.
    10030    2    1    2    0    0  0.00000000000E+00  0.00000000000E+00 -0.12733686517E+04  0.18199550438E+04  0.13002955965E+04 0.  0.
        3    1    3    3  502    0  0.56175628252E+03 -0.15804666562E+03 -0.23553636551E+03  0.62930617282E+03  0.10100000352E+00 0.  1.
       -3    1    3    3    0  502 -0.56175628252E+03  0.15804666562E+03 -0.10378322862E+04  0.11906488709E+04  0.10100000352E+00 0. -1.
</event>
<event>
 5   0  0.2661377E-04  0.1300441E+04  0.7818609E-02  0.9029216E-01
        2   -1    0    0  501    0  0.00000000000E+00  0.00000000000E+00  0.38766760943E+03  0.38766760944E+03  0.25500000920E-02 0.  1.
       -2   -1    0    0    0  501  0.00000000000E+00  0.00000000000E+00 -0.10905899767E+04  0.10905899767E+04  0.25500000920E-02 0. -1.
    10030    2    1    2    0    0  0.00000000000E+00  0.00000000000E+00 -0.70292236727E+03  0.14782575861E+04  0.13004405548E+04 0.  0.
        5    1    3    3  502    0 -0.28748989549E+03  0.13848781134E+03  0.29251255390E+03  0.43291453901E+03  0.46999998093E+01 0.  1.
       -5    1    3    3    0  502  0.28748989549E+03 -0.13848781134E+03 -0.99543492117E+03  0.10453430471E+04  0.46999998093E+01 0. -1.
</event>
<event>
 5   0  0.1002887E-04  0.1298372E+04  0.7818609E-02  0.9030857E-01
        3   -1    0    0  501    0  0.00000000000E+00  0.00000000000E+00  0.82380377309E+03  0.82380377928E+03  0.10100000352E+00 0.  1.
       -3   -1    0    0    0  501  0.00000000000E+00  0.00000000000E+00 -0.51158138613E+03  0.51158139610E+03  0.10100000352E+00 0. -1.
    10030    2    1    2    0    0  0.00000000000E+00  0.00000000000E+00  0.31222238696E+03  0.13353851754E+04  0.12983723456E+04 0.  0.
        1    1    3    3  502    0  0.31137441726E+03 -0.53974789751E+03 -0.31181237991E+02  0.62390230824E+03  0.50400001928E-02 0. -1.
       -1    1    3    3    0  502 -0.31137441726E+03  0.53974789751E+03  0.34340362495E+03  0.71148286715E+03  0.50400001928E-02 0.  1.
</event>
<event>
 5   0  0.2661377E-04  0.1293997E+04  0.7818609E-02  0.9034339E-01
        2   -1    0    0  501    0  0.00000000000E+00  0.00000000000E+00  0.14807323080E+04  0.14807323080E+04  0.25500000920E-02 0. -1.
       -2   -1    0    0    0  501  0.00000000000E+00  0.00000000000E+00 -0.28270276311E+03  0.28270276312E+03  0.25500000920E-02 0.  1.
    10030    2    1    2    0    0  0.00000000000E+00  0.00000000000E+00  0.11980295449E+04  0.17634350712E+04  0.12939970864E+04 0.  0.
        5    1    3    3  502    0  0.38538827129E+03  0.32745967659E+03  0.49100732801E+02  0.50812098107E+03  0.46999998093E+01 0.  1.
       -5    1    3    3    0  502 -0.38538827129E+03 -0.32745967659E+03  0.11489288121E+04  0.12553140901E+04  0.46999998093E+01 0. -1.
</event>
<event>
 5   0  0.2794825E-04  0.1299613E+04  0.7818609E-02  0.9029872E-01
       -2   -1    0    0    0  501  0.00000000000E+00  0.00000000000E+00  0.39527549628E+03  0.39527549629E+03  0.25500000920E-02 0. -1.
        2   -1    0    0  501    0  0.00000000000E+00  0.00000000000E+00 -0.10682384110E+04  0.10682384110E+04  0.25500000920E-02 0.  1.
    10030    2    1    2    0    0  0.00000000000E+00  0.00000000000E+00 -0.67296291471E+03  0.14635139073E+04  0.12996129702E+04 0.  0.
        1    1    3    3  502    0  0.21793724639E+03  0.56769696038E+03 -0.59443801165E+03  0.85037229018E+03  0.50400001928E-02 0.  1.
       -1    1    3    3    0  502 -0.21793724639E+03 -0.56769696038E+03 -0.78524903060E+02  0.61314161709E+03  0.50400001928E-02 0. -1.
</event>
<event>
 5   0  0.1430636E-04  0.1299614E+04  0.7818609E-02  0.9029871E-01
       -1   -1    0    0    0  501  0.00000000000E+00  0.00000000000E+00  0.43812769259E+03  0.43812769262E+03  0.50400001928E-02 0. -1.
        1   -1    0    0  501    0  0.00000000000E+00  0.00000000000E+00 -0.96375808227E+03  0.96375808229E+03  0.50400001928E-02 0.  1.
    10030    2    1    2    0    0  0.00000000000E+00  0.00000000000E+00 -0.52563038968E+03  0.14018857749E+04  0.12996139501E+04 0.  0.
        4    1    3    3  502    0  0.39795439990E+03 -0.33259872894E+03 -0.68510409045E+03  0.85927809616E+03  0.12699999809E+01 0.  1.
       -4    1    3    3    0  502 -0.39795439990E+03  0.33259872894E+03  0.15947370076E+03  0.54260767875E+03  0.12699999809E+01 0. -1.
</event>
<event>
 5   0  0.1408341E-04  0.1299524E+04  0.7818609E-02  0.9029943E-01
       -1   -1    0    0    0  501  0.00000000000E+00  0.00000000000E+00  0.71242616103E+03  0.71242616105E+03  0.50400001928E-02 0. -1.
        1   -1    0    0  501    0  0.00000000000E+00  0.00000000000E+00 -0.59260930004E+03  0.59260930007E+03  0.50400001928E-02 0.  1.
    10030    2    1    2    0    0  0.00000000000E+00  0.00000000000E+00  0.11981686099E+03  0.13050354611E+04  0.12995235568E+04 0.  0.
        5    1    3    3  502    0 -0.59159845262E+02 -0.16805591107E+03 -0.56758227972E+03  0.59490706063E+03  0.46999998093E+01 0.  1.
       -5    1    3    3    0  502  0.59159845262E+02  0.16805591107E+03  0.68739914071E+03  0.71012840049E+03  0.46999998093E+01 0. -1.
</event>
<event>
 5   0  0.2661377E-04  0.1299872E+04  0.7818609E-02  0.9029667E-01
       -2   -1    0    0    0  501  0.00000000000E+00  0.00000000000E+00  0.64393484997E+03  0.64393484997E+03  0.25500000920E-02 0.  1.
        2   -1    0    0  501    0  0.00000000000E+00  0.00000000000E+00 -0.65599269371E+03  0.65599269371E+03  0.25500000920E-02 0. -1.
    10030    2    1    2    0    0  0.00000000000E+00  0.00000000000E+00 -0.12057843740E+02  0.12999275437E+04  0.12998716195E+04 0.  0.
        5    1    3    3  502    0  0.61425834713E+03  0.21224379595E+03 -0.11836138977E+02  0.65001763832E+03  0.46999998093E+01 0. -1.
       -5    1    3    3    0  502 -0.61425834713E+03 -0.21224379595E+03 -0.22170476249E+00  0.64990990537E+03  0.46999998093E+01 0.  1.
</event>
<event>
 5   0  0.2723209E-04  0.1300452E+04  0.7818609E-02  0.9029207E-01
       -2   -1    0    0    0  501  0.00000000000E+00  0.00000000000E+00  0.36746576591E+03  0.36746576592E+03  0.25500000920E-02 0. -1.
        2   -1    0    0  501    0  0.00000000000E+00  0.00000000000E+00 -0.11505671788E+04  0.11505671788E+04  0.25500000920E-02 0.  1.
    10030    2    1    2    0    0  0.00000000000E+00  0.00000000000E+00 -0.78310141287E+03  0.15180329447E+04  0.13004523053E+04 0.  0.
        2    1    3    3  502    0 -0.19573762432E+03 -0.61788755832E+03 -0.33094264636E+03  0.72775084163E+03  0.25500000920E-02 0. -1.
       -2    1    3    3    0  502  0.19573762432E+03  0.61788755832E+03 -0.45215876652E+03  0.79028210308E+03  0.25500000920E-02 0.  1.
</event>
<event>
 5   0  0.2756984E-04  0.1296005E+04  0.7818609E-02  0.9032739E-01
        2   -1    0    0  501    0  0.00000000000E+00  0.00000000000E+00  0.60370951835E+03  0.60370951836E+03  0.25500000920E-02 0. -1.
       -2   -1    0    0    0  501  0.00000000000E+00  0.00000000000E+00 -0.69554532488E+03  0.69554532489E+03  0.25500000920E-02 0.  1.
    10030    2    1    2    0    0  0.00000000000E+00  0.00000000000E+00 -0.91835806530E+02  0.12992548432E+04  0.12960051436E+04 0.  0.
        3    1    3    3  502    0  0.15164702578E+03  0.23853743516E+03  0.53864831790E+03  0.60830826806E+03  0.10100000352E+00 0. -1.
       -3    1    3    3    0  502 -0.15164702578E+03 -0.23853743516E+03 -0.63048412443E+03  0.69094657519E+03  0.10100000352E+00 0.  1.
</event>
<event>
 5   0  0.1479690E-04  0.1294529E+04  0.7818609E-02  0.9033915E-01
       -1   -1    0    0    0  501  0.00000000000E+00  0.00000000000E+00  0.83409441101E+03  0.83409441103E+03  0.50400001928E-02 0.  1.
        1   -1    0    0  501    0  0.00000000000E+00  0.00000000000E+00 -0.50228288487E+03  0.50228288489E+03  0.50400001928E-02 0. -1.
    10030    2    1    2    0    0  0.00000000000E+00  0.00000000000E+00  0.33181152614E+03  0.13363772959E+04  0.12945290218E+04 0.  0.
        1    1    3    3  502    0 -0.33829734631E+03 -0.12915827056E+03  0.71974165426E+03  0.80570155906E+03  0.50400001928E-02 0.  1.
       -1    1    3    3    0  502  0.33829734631E+03  0.12915827056E+03 -0.38793012811E+03  0.53067573686E+03  0.50400001928E-02 0. -1.
</event>
<event>
 5   0  0.2756984E-04  0.1299361E+04  0.7818609E-02  0.9030072E-01
       -2   -1    0    0    0  501  0.00000000000E+00  0.00000000000E+00  0.48323508163E+03  0.48323508163E+03  0.25500000920E-02 0.  1.
        2   -1    0    0  501    0  0.00000000000E+00  0.00000000000E+00 -0.87345680480E+03  0.87345680480E+03  0.25500000920E-02 0. -1.
    10030    2    1    2    0    0  0.00000000000E+00  0.00000000000E+00 -0.39022172317E+03  0.13566918864E+04  0.12993613360E+04 0.  0.
        3    1    3    3  502    0 -0.48398419799E+03 -0.11388889182E+03  0.24151894979E+03  0.55275925763E+03  0.10100000352E+00 0.  1.
       -3    1    3    3    0  502  0.48398419799E+03  0.11388889182E+03 -0.63174067296E+03  0.80393262881E+03  0.10100000352E+00 0. -1.
</event>
<event>
 5   0  0.1002887E-04  0.1299654E+04  0.7818609E-02  0.9029839E-01
        4   -1    0    0  501    0  0.00000000000E+00  0.00000000000E+00  0.23058429592E+04  0.23058433089E+04  0.12699999809E+01 0. -1.
       -4   -1    0    0    0  501  0.00000000000E+00  0.00000000000E+00 -0.18313018650E+03  0.18313459015E+03  0.12699999809E+01 0.  1.
    10030    2    1    2    0    0  0.00000000000E+00  0.00000000000E+00  0.21227127727E+04  0.24889778991E+04  0.12996543643E+04 0.  0.
        2    1    3    3  502    0  0.21309577217E+03 -0.62549327319E+01  0.22369679554E+04  0.22471035948E+04  0.25500000920E-02 0. -1.
       -2    1    3    3    0  502 -0.21309577217E+03  0.62549327319E+01 -0.11425518269E+03  0.24187430429E+03  0.25500000920E-02 0.  1.
</event>
<event>
 5   0  0.1479690E-04  0.1299815E+04  0.7818609E-02  0.9029712E-01
       -1   -1    0    0    0  501  0.00000000000E+00  0.00000000000E+00  0.85964081932E+03  0.85964081934E+03  0.50400001928E-02 0.  1.
        1   -1    0    0  501    0  0.00000000000E+00  0.00000000000E+00 -0.49134457833E+03  0.49134457836E+03  0.50400001928E-02 0. -1.
    10030    2    1    2    0    0  0.00000000000E+00  0.00000000000E+00  0.36829624099E+03  0.13509853977E+04  0.12998151498E+04 0.  0.
        1    1    3    3  502    0 -0.47189644097E+03 -0.40925647342E+03 -0.23676244690E+01  0.62464607395E+03  0.50400001928E-02 0. -1.
       -1    1    3    3    0  502  0.47189644097E+03  0.40925647342E+03  0.37066386546E+03  0.72633932374E+03  0.50400001928E-02 0.  1.
</event>
<event>
 5   0  0.1476511E-04  0.1298602E+04  0.7818609E-02  0.9030674E-01
        1   -1    0    0  501    0  0.00000000000E+00  0.00000000000E+00  0.11381839544E+04  0.11381839545E+04  0.50400001928E-02 0. -1.
       -1   -1    0    0    0  501  0.00000000000E+00  0.00000000000E+00 -0.37040755430E+03  0.37040755433E+03  0.50400001928E-02 0.  1.
    10030    2    1    2    0    0  0.00000000000E+00  0.00000000000E+00  0.76777640015E+03  0.15085915088E+04  0.12986022254E+04 0.  0.
        2    1    3    3  502    0  0.61528638685E+03 -0.19114620278E+03  0.47738716685E+03  0.80188073662E+03  0.25500000920E-02 0. -1.
       -2    1    3    3    0  502 -0.61528638685E+03  0.19114620278E+03  0.29038923330E+03  0.70671077217E+03  0.25500000920E-02 0.  1.
</event>
<event>
 5   0  0.2573071E-04  0.1301624E+04  0.7818609E-02  0.9028278E-01
       -2   -1    0    0    0  501  0.00000000000E+00  0.00000000000E+00  0.58639064555E+03  0.58639064555E+03  0.25500000920E-02 0.  1.
        2   -1    0    0  501    0  0.00000000000E+00  0.00000000000E+00 -0.72231059583E+03  0.72231059584E+03  0.25500000920E-02 0. -1.
    10030    2    1    2    0    0  0.00000000000E+00  0.00000000000E+00 -0.13591995028E+03  0.13087012414E+04  0.13016238728E+04 0.  0.
        4    1    3    3  502    0  0.36931249765E+03  0.19830133085E+03  0.43258165702E+03  0.60236504018E+03  0.12699999809E+01 0.  1.
       -4    1    3    3    0  502 -0.36931249765E+03 -0.19830133085E+03 -0.56850160730E+03  0.70633620121E+03  0.12699999809E+01 0. -1.
</event>
<event>
 5   0  0.2573071E-04  0.1291601E+04  0.7818609E-02  0.9036252E-01
        2   -1    0    0  501    0  0.00000000000E+00  0.00000000000E+00  0.39119198701E+03  0.39119198702E+03  0.25500000920E-02 0. -1.
       -2   -1    0    0    0  501  0.00000000000E+00  0.00000000000E+00 -0.10661223073E+04  0.10661223073E+04  0.25500000920E-02 0.  1.
    10030    2    1    2    0    0  0.00000000000E+00  0.00000000000E+00 -0.67493032033E+03  0.14573142944E+04  0.12916013376E+04 0.  0.
        4    1    3    3  502    0 -0.20206089018E+03 -0.45338284222E+03  0.12866396667E+03  0.51277737292E+03  0.12699999809E+01 0. -1.
       -4    1    3    3    0  502  0.20206089018E+03  0.45338284222E+03 -0.80359428700E+03  0.94453692144E+03  0.12699999809E+01 0.  1.
</event>
<event>
 5   0  0.2723209E-04  0.1299789E+04  0.7818609E-02  0.9029733E-01
       -2   -1    0    0    0  501  0.00000000000E+00  0.00000000000E+00  0.49351756560E+03  0.49351756561E+03  0.25500000920E-02 0. -1.
        2   -1    0    0  501    0  0.00000000000E+00  0.00000000000E+00 -0.85582126742E+03  0.85582126743E+03  0.25500000920E-02 0.  1.
    10030    2    1    2    0    0  0.00000000000E+00  0.00000000000E+00 -0.36230370182E+03  0.13493388330E+04  0.12997889498E+04 0.  0.
        2    1    3    3  502    0 -0.27792621508E+03  0.38314863282E+03 -0.64345635095E+03  0.79880030761E+03  0.25500000920E-02 0.  1.
       -2    1    3    3    0  502  0.27792621508E+03 -0.38314863282E+03  0.28115264912E+03  0.55053852542E+03  0.25500000920E-02 0. -1.
</event>
<event>
 5   0  0.2794825E-04  0.1298504E+04  0.7818609E-02  0.9030752E-01
       -2   -1    0    0    0  501  0.00000000000E+00  0.00000000000E+00  0.21591572869E+03  0.21591572870E+03  0.25500000920E-02 0.  1.
        2   -1    0    0  501    0  0.00000000000E+00  0.00000000000E+00 -0.19522823046E+04  0.19522823046E+04  0.25500000920E-02 0. -1.
    10030    2    1    2    0    0  0.00000000000E+00  0.00000000000E+00 -0.17363665759E+04  0.21681980333E+04  0.12985044573E+04 0.  0.
        1    1    3    3  502    0  0.30178122759E+03  0.35188386825E+03 -0.10915720886E+03  0.47624517040E+03  0.50400001928E-02 0.  1.
       -1    1    3    3    0  502 -0.30178122759E+03 -0.35188386825E+03 -0.16272093670E+04  0.16919528629E+04  0.50400001928E-02 0. -1.
</event>
<event>
 5   0  0.2573071E-04  0.1301429E+04  0.7818609E-02  0.9028433E-01
       -2   -1    0    0    0  501  0.00000000000E+00  0.00000000000E+00  0.63695983906E+03  0.63695983907E+03  0.25500000920E-02 0.  1.
        2   -1    0    0  501    0  0.00000000000E+00  0.00000000000E+00 -0.66476618310E+03  0.66476618311E+03  0.25500000920E-02 0. -1.
    10030    2    1    2    0    0  0.00000000000E+00  0.00000000000E+00 -0.27806344039E+02  0.13017260222E+04  0.13014290008E+04 0.  0.
        4    1    3    3  502    0 -0.15909410901E+02  0.34126275404E+03  0.54004121916E+03  0.63903013070E+03  0.12699999809E+01 0.  1.
       -4    1    3    3    0  502  0.15909410901E+02 -0.34126275404E+03 -0.56784756320E+03  0.66269589148E+03  0.12699999809E+01 0. -1.
</event>
<event>
 5   0  0.2661377E-04  0.1296435E+04  0.7818609E-02  0.9032397E-01
       -2   -1    0    0    0  501  0.00000000000E+00  0.00000000000E+00  0.39087566731E+03  0.39087566732E+03  0.25500000920E-02 0.  1.
        2   -1    0    0  501    0  0.00000000000E+00  0.00000000000E+00 -0.10749858280E+04  0.10749858280E+04  0.25500000920E-02 0. -1.
    10030    2    1    2    0    0  0.00000000000E+00  0.00000000000E+00 -0.68411016070E+03  0.14658614953E+04  0.12964348081E+04 0.  0.
        5    1    3    3  502    0 -0.35815674120E+03  0.49885512485E+03 -0.10750633998E+03  0.62346803446E+03  0.46999998093E+01 0.  1.
       -5    1    3    3    0  502  0.35815674120E+03 -0.49885512485E+03 -0.57660382072E+03  0.84239346087E+03  0.46999998093E+01 0. -1.
</event>
<event>
 5   0  0.1475396E-04  0.1302511E+04  0.7818609E-02  0.9027576E-01
        1   -1    0    0  501    0  0.00000000000E+00  0.00000000000E+00  0.11088812948E+04  0.11088812948E+04  0.50400001928E-02 0. -1.
       -1   -1    0    0    0  501  0.00000000000E+00  0.00000000000E+00 -0.38248792970E+03  0.38248792974E+03  0.50400001928E-02 0.  1.
    10030    2    1    2    0    0  0.00000000000E+00  0.00000000000E+00  0.72639336511E+03  0.14913692246E+04  0.13025109762E+04 0.  0.
        3    1    3    3  502    0 -0.24319782694E+03 -0.28384596301E+03  0.97383470246E+03  0.10431048613E+04  0.10100000352E+00 0. -1.
       -3    1    3    3    0  502  0.24319782694E+03  0.28384596301E+03 -0.24744133735E+03  0.44826436327E+03  0.10100000352E+00 0.  1.
</event>
<event>
 5   0  0.1475396E-04  0.1300024E+04  0.7818609E-02  0.9029546E-01
       -1   -1    0    0    0  501  0.00000000000E+00  0.00000000000E+00  0.88965013057E+03  0.88965013059E+03  0.50400001928E-02 0.  1.
        1   -1    0    0  501    0  0.00000000000E+00  0.00000000000E+00 -0.47492354566E+03  0.47492354569E+03  0.50400001928E-02 0. -1.
    10030    2    1    2    0    0  0.00000000000E+00  0.00000000000E+00  0.41472658491E+03  0.13645736763E+04  0.13000242989E+04 0.  0.
        3    1    3    3  502    0  0.21428797473E+03 -0.80126965582E+02  0.84599388280E+03  0.87638195250E+03  0.10100000352E+00 0.  1.
       -3    1    3    3    0  502 -0.21428797473E+03  0.80126965582E+02 -0.43126729790E+03  0.48819172378E+03  0.10100000352E+00 0. -1.
</event>
<event>
 5   0  0.1430636E-04  0.1301522E+04  0.7818609E-02  0.9028359E-01
       -1   -1    0    0    0  501  0.00000000000E+00  0.00000000000E+00  0.97755224302E+03  0.97755224303E+03  0.50400001928E-02 0. -1.
        1   -1    0    0  501    0  0.00000000000E+00  0.00000000000E+00 -0.43321436686E+03  0.43321436689E+03  0.50400001928E-02 0.  1.
    10030    2    1    2    0    0  0.00000000000E+00  0.00000000000E+00  0.54433787616E+03  0.14107666099E+04  0.13015216880E+04 0.  0.
        4    1    3    3  502    0 -0.64398610973E+03 -0.66897159966E+02  0.34320377270E+03  0.73279177262E+03  0.12699999809E+01 0. -1.
       -4    1    3    3    0  502  0.64398610973E+03  0.66897159966E+02  0.20113410346E+03  0.67797483730E+03  0.12699999809E+01 0.  1.
</event>
<event>
 5   0  0.1479690E-04  0.1298433E+04  0.7818609E-02  0.9030809E-01
        1   -1    0    0  501    0  0.00000000000E+00  0.00000000000E+00  0.72655103887E+03  0.72655103889E+03  0.50400001928E-02 0. -1.
       -1   -1    0    0    0  501  0.00000000000E+00  0.00000000000E+00 -0.58011318483E+03  0.58011318485E+03  0.50400001928E-02 0.  1.
    10030    2    1    2    0    0  0.00000000000E+00  0.00000000000E+00  0.14643785404E+03  0.13066642237E+04  0.12984326507E+04 0.  0.
        1    1    3    3  502    0 -0.63434714142E+03  0.67597684020E+02 -0.48027643721E+02  0.63974400920E+03  0.50400001928E-02 0.  1.
       -1    1    3    3    0  502  0.63434714142E+03 -0.67597684020E+02  0.19446549776E+03  0.66692021454E+03  0.50400001928E-02 0. -1.
</event>
<event>
 5   0  0.2794825E-04  0.1299838E+04  0.7818609E-02  0.9029694E-01
       -2   -1    0    0    0  501  0.00000000000E+00  0.00000000000E+00  0.50247214033E+03  0.50247214033E+03  0.25500000920E-02 0. -1.
        2   -1    0    0  501    0  0.00000000000E+00  0.00000000000E+00 -0.84063317147E+03  0.84063317147E+03  0.25500000920E-02 0.  1.
    10030    2    1    2    0    0  0.00000000000E+00  0.00000000000E+00 -0.33816103114E+03  0.13431053118E+04  0.12998380652E+04 0.  0.
        1    1    3    3  502    0 -0.50309524692E+03  0.40698418912E+03 -0.23153917795E+03  0.68727821777E+03  0.50400001928E-02 0.  1.
       -1    1    3    3    0  502  0.50309524692E+03 -0.40698418912E+03 -0.10662185319E+03  0.65582709404E+03  0.50400001928E-02 0. -1.
</event>
<event>
 5   0  0.2573071E-04  0.1301071E+04  0.7818609E-02  0.9028717E-01
       -2   -1    0    0    0  501  0.00000000000E+00  0.00000000000E+00  0.22345272249E+03  0.22345272250E+03  0.25500000920E-02 0. -1.
        2   -1    0    0  501    0  0.00000000000E+00  0.00000000000E+00 -0.18938960960E+04  0.18938960960E+04  0.25500000920E-02 0.  1.
    10030    2    1    2    0    0  0.00000000000E+00  0.00000000000E+00 -0.16704433735E+04  0.21173488185E+04  0.13010706957E+04 0.  0.
        4    1    3    3  502    0  0.34040340358E+03  0.13971210736E+03 -0.17082682767E+04  0.17474484450E+04  0.12699999809E+01 0.  1.
       -4    1    3    3    0  502 -0.34040340358E+03 -0.13971210736E+03  0.37824903121E+02  0.36990037349E+03  0.12699999809E+01 0. -1.
</event>
<event>
 5   0  0.2723209E-04  0.1304752E+04  0.7818609E-02  0.9025805E-01
        2   -1    0    0  501    0  0.00000000000E+00  0.00000000000E+00  0.15668325792E+04  0.15668325792E+04  0.25500000920E-02 0. -1.
       -2   -1    0    0    0  501  0.00000000000E+00  0.00000000000E+00 -0.27162732123E+03  0.27162732124E+03  0.25500000920E-02 0.  1.
    10030    2    1    2    0    0  0.00000000000E+00  0.00000000000E+00  0.12952052580E+04  0.18384599005E+04  0.13047521394E+04 0.  0.
        2    1    3    3  502    0  0.58778029330E+03  0.22149201246E+03  0.39931332782E+03  0.74430875217E+03  0.25500000920E-02 0.  1.
       -2    1    3    3    0  502 -0.58778029330E+03 -0.22149201246E+03  0.89589193015E+03  0.10941511483E+04  0.25500000920E-02 0. -1.
</event>
<event>
 5   0  0.1408341E-04  0.1315200E+04  0.7818609E-02  0.9017598E-01
       -1   -1    0    0    0  501  0.00000000000E+00  0.00000000000E+00  0.50565533523E+03  0.50565533525E+03  0.50400001928E-02 0.  1.
        1   -1    0    0  501    0  0.00000000000E+00  0.00000000000E+00 -0.85520253010E+03  0.85520253012E+03  0.50400001928E-02 0. -1.
    10030    2    1    2    0    0  0.00000000000E+00  0.00000000000E+00 -0.34954719487E+03  0.13608578654E+04  0.13151999423E+04 0.  0.
        5    1    3    3  502    0  0.20407210890E+02  0.38186064104E+03  0.37875729279E+03  0.53825010940E+03  0.46999998093E+01 0.  1.
       -5    1    3    3    0  502 -0.20407210890E+02 -0.38186064104E+03 -0.72830448766E+03  0.82260775597E+03  0.46999998093E+01 0. -1.
</event>
<event>
 5   0  0.1475396E-04  0.1300811E+04  0.7818609E-02  0.9028922E-01
       -1   -1    0    0    0  501  0.00000000000E+00  0.00000000000E+00  0.24606015624E+03  0.24606015629E+03  0.50400001928E-02 0. -1.
        1   -1    0    0  501    0  0.00000000000E+00  0.00000000000E+00 -0.17192030354E+04  0.17192030354E+04  0.50400001928E-02 0.  1.
    10030    2    1    2    0    0  0.00000000000E+00  0.00000000000E+00 -0.14731428791E+04  0.19652631917E+04  0.13008110817E+04 0.  0.
        3    1    3    3  502    0  0.39559693518E+03  0.21222335542E+03 -0.25545916415E+02  0.44965352412E+03  0.10100000352E+00 0. -1.
       -3    1    3    3    0  502 -0.39559693518E+03 -0.21222335542E+03 -0.14475969627E+04  0.15156096676E+04  0.10100000352E+00 0.  1.
</event>
<event>
 5   0  0.2794825E-04  0.1300987E+04  0.7818609E-02  0.9028783E-01
        2   -1    0    0  501    0  0.00000000000E+00  0.00000000000E+00  0.10724319955E+04  0.10724319955E+04  0.25500000920E-02 0. -1.
       -2   -1    0    0    0  501  0.00000000000E+00  0.00000000000E+00 -0.39456258413E+03  0.39456258414E+03  0.25500000920E-02 0.  1.
    10030    2    1    2    0    0  0.00000000000E+00  0.00000000000E+00  0.67786941133E+03  0.14669945796E+04  0.13009866094E+04 0.  0.
        1    1    3    3  502    0 -0.48566196037E+03  0.14711300544E+03  0.79784467809E+03  0.94555058378E+03  0.50400001928E-02 0. -1.
       -1    1    3    3    0  502  0.48566196037E+03 -0.14711300544E+03 -0.11997526675E+03  0.52144399582E+03  0.50400001928E-02 0.  1.
</event>
<event>
 5   0  0.1430636E-04  0.1298647E+04  0.7818609E-02  0.9030639E-01
        1   -1    0    0  501    0  0.00000000000E+00  0.00000000000E+00  0.10578063220E+04  0.10578063220E+04  0.50400001928E-02 0. -1.
       -1   -1    0    0    0  501  0.00000000000E+00  0.00000000000E+00 -0.39858061704E+03  0.39858061708E+03  0.50400001928E-02 0.  1.
    10030    2    1    2    0    0  0.00000000000E+00  0.00000000000E+00  0.65922570491E+03  0.14563869390E+04  0.12986471369E+04 0.  0.
        4    1    3    3  502    0  0.34230800286E+03  0.26577739814E+03  0.87188144441E+03  0.97364842740E+03  0.12699999809E+01 0. -1.
       -4    1    3    3    0  502 -0.34230800286E+03 -0.26577739814E+03 -0.21265573950E+03  0.48273851164E+03  0.12699999809E+01 0.  1.
</event>
<event>
 5   0  0.1475396E-04  0.1300984E+04  0.7818609E-02  0.9028785E-01
       -1   -1    0    0    0  501  0.00000000000E+00  0.00000000000E+00  0.53736168291E+03  0.53736168293E+03  0.50400001928E-02 0. -1.
        1   -1    0    0  501    0  0.00000000000E+00  0.00000000000E+00 -0.78744004549E+03  0.78744004550E+03  0.50400001928E-02 0.  1.
    10030    2    1    2    0    0  0.00000000000E+00  0.00000000000E+00 -0.25007836258E+03  0.13248017284E+04  0.13009844089E+04 0.  0.
        3    1    3    3  502    0 -0.11534554655E+03  0.63603237162E+03 -0.19916134546E+03  0.67639265563E+03  0.10100000352E+00 0. -1.
       -3    1    3    3    0  502  0.11534554655E+03 -0.63603237162E+03 -0.50917017117E+02  0.64840907281E+03  0.10100000352E+00 0.  1.
</event>
<event>
 5   0  0.1479690E-04  0.1299500E+04  0.7818609E-02  0.9029961E-01
       -1   -1    0    0    0  501  0.00000000000E+00  0.00000000000E+00  0.66384591522E+03  0.66384591524E+03  0.50400001928E-02 0.  1.
        1   -1    0    0  501    0  0.00000000000E+00  0.00000000000E+00 -0.63595384592E+03  0.63595384594E+03  0.50400001928E-02 0. -1.
    10030    2    1    2    0    0  0.00000000000E+00  0.00000000000E+00  0.27892069304E+02  0.12997997612E+04  0.12995004623E+04 0.  0.
        1    1    3    3  502    0  0.23336874463E+03  0.35978466550E+03  0.50218691235E+03  0.66037691621E+03  0.50400001928E-02 0.  1.
       -1    1    3    3    0  502 -0.23336874463E+03 -0.35978466550E+03 -0.47429484305E+03  0.63942284497E+03  0.50400001928E-02 0. -1.
</event>
<event>
 5   0  0.1408341E-04  0.1298429E+04  0.7818609E-02  0.9030812E-01
       -1   -1    0    0    0  501  0.00000000000E+00  0.00000000000E+00  0.23900648295E+03  0.23900648300E+03  0.50400001928E-02 0. -1.
        1   -1    0    0  501    0  0.00000000000E+00  0.00000000000E+00 -0.17634657659E+04  0.17634657659E+04  0.50400001928E-02 0.  1.
    10030    2    1    2    0    0  0.00000000000E+00  0.00000000000E+00 -0.15244592830E+04  0.20024722489E+04  0.12984294368E+04 0.  0.
        5    1    3    3  502    0  0.25483653520E+03  0.26235676916E+02 -0.16821876916E+04  0.17015896950E+04  0.46999998093E+01 0.  1.
       -5    1    3    3    0  502 -0.25483653520E+03 -0.26235676916E+02  0.15772840857E+03  0.30088255397E+03  0.46999998093E+01 0. -1.
</event>
<event>
 5   0  0.1475396E-04  0.1302172E+04  0.7818609E-02  0.9027845E-01
        1   -1    0    0  501    0  0.00000000000E+00  0.00000000000E+00  0.20118937802E+04  0.20118937802E+04  0.50400001928E-02 0.  1.
       -1   -1    0    0    0  501  0.00000000000E+00  0.00000000000E+00 -0.21070335499E+03  0.21070335505E+03  0.50400001928E-02 0. -1.
    10030    2    1    2    0    0  0.00000000000E+00  0.00000000000E+00  0.18011904252E+04  0.22225971353E+04  0.13021716776E+04 0.  0.
        3    1    3    3  502    0 -0.37163197249E+02 -0.64124084454E+03  0.71882020406E+03  0.96398828826E+03  0.10100000352E+00 0. -1.
       -3    1    3    3    0  502  0.37163197249E+02  0.64124084454E+03  0.10823702212E+04  0.12586088470E+04  0.10100000352E+00 0.  1.
</event>
<event>
 5   0  0.2573071E-04  0.1298249E+04  0.7818609E-02  0.9030955E-01
        2   -1    0    0  501    0  0.00000000000E+00  0.00000000000E+00  0.12732623108E+04  0.12732623108E+04  0.25500000920E-02 0.  1.
       -2   -1    0    0    0  501  0.00000000000E+00  0.00000000000E+00 -0.33093126652E+03  0.33093126653E+03  0.25500000920E-02 0. -1.
    10030    2    1    2    0    0  0.00000000000E+00  0.00000000000E+00  0.94233104431E+03  0.16041935774E+04  0.12982485265E+04 0.  0.
        4    1    3    3  502    0  0.25252387320E+03 -0.16319353278E+03  0.11820300767E+04  0.12196709191E+04  0.12699999809E+01 0.  1.
       -4    1    3    3    0  502 -0.25252387320E+03  0.16319353278E+03 -0.23969903242E+03  0.38452265827E+03  0.12699999809E+01 0. -1.
</event>
<event>
 5   0  0.2794825E-04  0.1301707E+04  0.7818609E-02  0.9028212E-01
        2   -1    0    0  501    0  0.00000000000E+00  0.00000000000E+00  0.13598570357E+04  0.13598570357E+04  0.25500000920E-02 0.  1.
       -2   -1    0    0    0  501  0.00000000000E+00  0.00000000000E+00 -0.31151099838E+03  0.31151099839E+03  0.25500000920E-02 0. -1.
    10030    2    1    2    0    0  0.00000000000E+00  0.00000000000E+00  0.10483460373E+04  0.16713680341E+04  0.13017072219E+04 0.  0.
        1    1    3    3  502    0 -0.22856065667E+03 -0.33834927796E+03 -0.12660452552E+03  0.42749141931E+03  0.50400001928E-02 0. -1.
       -1    1    3    3    0  502  0.22856065667E+03  0.33834927796E+03  0.11749505628E+04  0.12438766148E+04  0.50400001928E-02 0.  1.
</event>
<event>
 5   0  0.1430636E-04  0.1298961E+04  0.7818609E-02  0.9030390E-01
        1   -1    0    0  501    0  0.00000000000E+00  0.00000000000E+00  0.13373743157E+04  0.13373743157E+04  0.50400001928E-02 0.  1.
       -1   -1    0    0    0  501  0.00000000000E+00  0.00000000000E+00 -0.31541252863E+03  0.31541252867E+03  0.50400001928E-02 0. -1.
    10030    2    1    2    0    0  0.00000000000E+00  0.00000000000E+00  0.10219617871E+04  0.16527868444E+04  0.12989605301E+04 0.  0.
        4    1    3    3  502    0 -0.15356437510E+03 -0.36972091102E+03 -0.13974205503E+03  0.42403422526E+03  0.12699999809E+01 0. -1.
       -4    1    3    3    0  502  0.15356437510E+03  0.36972091102E+03  0.11617038421E+04  0.12287526192E+04  0.12699999809E+01 0.  1.
</event>
<event>
 5   0  0.2661377E-04  0.1300332E+04  0.7818609E-02  0.9029302E-01
       -2   -1    0    0    0  501  0.00000000000E+00  0.00000000000E+00  0.18690332895E+03  0.18690332897E+03  0.25500000920E-02 0. -1.
        2   -1    0    0  501    0  0.00000000000E+00  0.00000000000E+00 -0.22616822395E+04  0.22616822395E+04  0.25500000920E-02 0.  1.
    10030    2    1    2    0    0  0.00000000000E+00  0.00000000000E+00 -0.20747789106E+04  0.24485855685E+04  0.13003321724E+04 0.  0.
        5    1    3    3  502    0 -0.30439867225E+02 -0.64621849172E+03 -0.91580640875E+03  0.11212708829E+04  0.46999998093E+01 0.  1.
       -5    1    3    3    0  502  0.30439867225E+02  0.64621849172E+03 -0.11589725018E+04  0.13273146856E+04  0.46999998093E+01 0. -1.
</event>
<event>
 5   0  0.1430636E-04  0.1300827E+04  0.7818609E-02  0.9028909E-01
       -1   -1    0    0    0  501  0.00000000000E+00  0.00000000000E+00  0.60608238684E+03  0.60608238686E+03  0.50400001928E-02 0.  1.
        1   -1    0    0  501    0  0.00000000000E+00  0.00000000000E+00 -0.69798736846E+03  0.69798736848E+03  0.50400001928E-02 0. -1.
    10030    2    1    2    0    0  0.00000000000E+00  0.00000000000E+00 -0.91904981624E+02  0.13040697553E+04  0.13008271988E+04 0.  0.
        4    1    3    3  502    0 -0.59522552692E+03  0.23110549788E+03  0.78182897692E+02  0.64328637281E+03  0.12699999809E+01 0. -1.
       -4    1    3    3    0  502  0.59522552692E+03 -0.23110549788E+03 -0.17008787932E+03  0.66078338254E+03  0.12699999809E+01 0.  1.
</event>
<event>
 5   0  0.1479690E-04  0.1298451E+04  0.7818609E-02  0.9030794E-01
        1   -1    0    0  501    0  0.00000000000E+00  0.00000000000E+00  0.10884179953E+04  0.10884179953E+04  0.50400001928E-02 0. -1.
       -1   -1    0    0    0  501  0.00000000000E+00  0.00000000000E+00 -0.38725357329E+03  0.38725357333E+03  0.50400001928E-02 0.  1.
    10030    2    1    2    0    0  0.00000000000E+00  0.00000000000E+00  0.70116442202E+03  0.14756715687E+04  0.12984510125E+04 0.  0.
        1    1    3    3  502    0  0.12955814313E+03 -0.32532559810E+03  0.97188962784E+03  0.10330496145E+04  0.50400001928E-02 0. -1.
       -1    1    3    3    0  502 -0.12955814313E+03  0.32532559810E+03 -0.27072520582E+03  0.44262195418E+03  0.50400001928E-02 0.  1.
</event>
<event>
 5   0  0.1479690E-04  0.1300457E+04  0.7818609E-02  0.9029203E-01
        1   -1    0    0  501    0  0.00000000000E+00  0.00000000000E+00  0.12681713818E+04  0.12681713818E+04  0.50400001928E-02 0.  1.
       -1   -1    0    0    0  501  0.00000000000E+00  0.00000000000E+00 -0.33339100602E+03  0.33339100606E+03  0.50400001928E-02 0. -1.
    10030    2    1    2    0    0  0.00000000000E+00  0.00000000000E+00  0.93478037577E+03  0.16015623879E+04  0.13004567395E+04 0.  0.
        1    1    3    3  502    0 -0.13041658781E+03  0.60481881440E+03  0.22113594101E+03  0.65705052245E+03  0.50400001928E-02 0. -1.
       -1    1    3    3    0  502  0.13041658781E+03 -0.60481881440E+03  0.71364443476E+03  0.94451186541E+03  0.50400001928E-02 0.  1.
</event>
<event>
 5   0  0.1475396E-04  0.1297832E+04  0.7818609E-02  0.9031286E-01
        1   -1    0    0  501    0  0.00000000000E+00  0.00000000000E+00  0.24023525708E+04  0.24023525708E+04  0.50400001928E-02 0. -1.
       -1   -1    0    0    0  501  0.00000000000E+00  0.00000000000E+00 -0.17528318953E+03  0.17528318961E+03  0.50400001928E-02 0.  1.
    10030    2    1    2    0    0  0.00000000000E+00  0.00000000000E+00  0.22270693813E+04  0.25776357604E+04  0.12978320710E+04 0.  0.
        3    1    3    3  502    0 -0.11154994331E+03 -0.32471072666E+03  0.19890809687E+02  0.34391292557E+03  0.10100000352E+00 0.  1.
       -3    1    3    3    0  502  0.11154994331E+03  0.32471072666E+03  0.22071785716E+04  0.22337228349E+04  0.10100000352E+00 0. -1.
</event>
<event>
 5   0  0.2661377E-04  0.1299846E+04  0.7818609E-02  0.9029688E-01
       -2   -1    0    0    0  501  0.00000000000E+00  0.00000000000E+00  0.11368128878E+04  0.11368128878E+04  0.25500000920E-02 0.  1.
        2   -1    0    0  501    0  0.00000000000E+00  0.00000000000E+00 -0.37156478501E+03  0.37156478502E+03  0.25500000920E-02 0. -1.
    10030    2    1    2    0    0  0.00000000000E+00  0.00000000000E+00  0.76524810277E+03  0.15083776728E+04  0.12998455851E+04 0.  0.
        5    1    3    3  502    0 -0.41822128162E+03  0.22418894492E+03  0.89794808931E+03  0.10156291570E+04  0.46999998093E+01 0.  1.
       -5    1    3    3    0  502  0.41822128162E+03 -0.22418894492E+03 -0.13269998654E+03  0.49274851582E+03  0.46999998093E+01 0. -1.
</event>
<event>
 5   0  0.2794825E-04  0.1299538E+04  0.7818609E-02  0.9029931E-01
        2   -1    0    0  501    0  0.00000000000E+00  0.00000000000E+00  0.56136869341E+03  0.56136869342E+03  0.25500000920E-02 0.  1.
       -2   -1    0    0    0  501  0.00000000000E+00  0.00000000000E+00 -0.75209028066E+03  0.75209028066E+03  0.25500000920E-02 0. -1.
    10030    2    1    2    0    0  0.00000000000E+00  0.00000000000E+00 -0.19072158725E+03  0.13134589741E+04  0.12995382844E+04 0.  0.
        1    1    3    3  502    0 -0.25602189600E+03  0.13406982090E+03 -0.68355525868E+03  0.74213861226E+03  0.50400001928E-02 0. -1.
       -1    1    3    3    0  502  0.25602189600E+03 -0.13406982090E+03  0.49283367143E+03  0.57132036182E+03  0.50400001928E-02 0.  1.
</event>
<event>
 5   0  0.1430636E-04  0.1299367E+04  0.7818609E-02  0.9030067E-01
        1   -1    0    0  501    0  0.00000000000E+00  0.00000000000E+00  0.93065833118E+03  0.93065833119E+03  0.50400001928E-02 0. -1.
       -1   -1    0    0    0  501  0.00000000000E+00  0.00000000000E+00 -0.45353779805E+03  0.45353779807E+03  0.50400001928E-02 0.  1.
    10030    2    1    2    0    0  0.00000000000E+00  0.00000000000E+00  0.47712053314E+03  0.13841961293E+04  0.12993671233E+04 0.  0.
        4    1    3    3  502    0  0.32795361546E+03 -0.49907646467E+03 -0.33986627344E+02  0.59815348801E+03  0.12699999809E+01 0.  1.
       -4    1    3    3    0  502 -0.32795361546E+03  0.49907646467E+03  0.51110716048E+03  0.78604264126E+03  0.12699999809E+01 0. -1.
</event>
<event>
 5   0  0.1475396E-04  0.1297423E+04  0.7818609E-02  0.9031611E-01
       -1   -1    0    0    0  501  0.00000000000E+00  0.00000000000E+00  0.10431470594E+04  0.10431470594E+04  0.50400001928E-02 0. -1.
        1   -1    0    0  501    0  0.00000000000E+00  0.00000000000E+00 -0.40342007578E+03  0.40342007581E+03  0.50400001928E-02 0.  1.
    10030    2    1    2    0    0  0.00000000000E+00  0.00000000000E+00  0.63972698364E+03  0.14465671352E+04  0.12974227773E+04 0.  0.
        3    1    3    3  502    0  0.56422459985E+02  0.20247379103E+03  0.10041287967E+04  0.10258917002E+04  0.10100000352E+00 0. -1.
       -3    1    3    3    0  502 -0.56422459985E+02 -0.20247379103E+03 -0.36440181307E+03  0.42067543500E+03  0.10100000352E+00 0.  1.
</event>
<event>
 5   0  0.2661377E-04  0.1299123E+04  0.7818609E-02  0.9030261E-01
        2   -1    0    0  501    0  0.00000000000E+00  0.00000000000E+00  0.64608231107E+03  0.64608231108E+03  0.25500000920E-02 0. -1.
       -2   -1    0    0    0  501  0.00000000000E+00  0.00000000000E+00 -0.65305977410E+03  0.65305977411E+03  0.25500000920E-02 0.  1.
    10030    2    1    2    0    0  0.00000000000E+00  0.00000000000E+00 -0.69774630295E+01  0.12991420852E+04  0.12991233477E+04 0.  0.
        5    1    3    3  502    0 -0.30076856641E+03 -0.39539503660E+03 -0.42195541349E+03  0.65181855334E+03  0.46999998093E+01 0.  1.
       -5    1    3    3    0  502  0.30076856641E+03  0.39539503660E+03  0.41497795046E+03  0.64732353184E+03  0.46999998093E+01 0. -1.
</event>
<event>
 5   0  0.1475396E-04  0.1328869E+04  0.7818609E-02  0.9006980E-01
        1   -1    0    0  501    0  0.00000000000E+00  0.00000000000E+00  0.57605043151E+03  0.57605043153E+03  0.50400001928E-02 0.  1.
       -1   -1    0    0    0  501  0.00000000000E+00  0.00000000000E+00 -0.76637965092E+03  0.76637965094E+03  0.50400001928E-02 0. -1.
    10030    2    1    2    0    0  0.00000000000E+00  0.00000000000E+00 -0.19032921941E+03  0.13424300825E+04  0.13288691864E+04 0.  0.
        3    1    3    3  502    0 -0.52433857602E+03  0.10371055156E+03 -0.49389042188E+03  0.72774623313E+03  0.10100000352E+00 0. -1.
       -3    1    3    3    0  502  0.52433857602E+03 -0.10371055156E+03  0.30356120247E+03  0.61468384935E+03  0.10100000352E+00 0.  1.
</event>
<event>
 5   0  0.1475396E-04  0.1299632E+04  0.7818609E-02  0.9029857E-01
        1   -1    0    0  501    0  0.00000000000E+00  0.00000000000E+00  0.72121069783E+03  0.72121069784E+03  0.50400001928E-02 0. -1.
       -1   -1    0    0    0  501  0.00000000000E+00  0.00000000000E+00 -0.58548890624E+03  0.58548890626E+03  0.50400001928E-02 0.  1.
    10030    2    1    2    0    0  0.00000000000E+00  0.00000000000E+00  0.13572179158E+03  0.13066996041E+04  0.12996320443E+04 0.  0.
        3    1    3    3  502    0  0.10645151899E+03  0.42160466836E+03 -0.41765062034E+03  0.60292161443E+03  0.10100000352E+00 0.  1.
       -3    1    3    3    0  502 -0.10645151899E+03 -0.42160466836E+03  0.55337241192E+03  0.70377798968E+03  0.10100000352E+00 0. -1.
</event>
<event>
 5   0  0.2573071E-04  0.1300935E+04  0.7818609E-02  0.9028824E-01
        2   -1    0    0  501    0  0.00000000000E+00  0.00000000000E+00  0.17584063477E+04  0.17584063477E+04  0.25500000920E-02 0.  1.
       -2   -1    0    0    0  501  0.00000000000E+00  0.00000000000E+00 -0.24061999871E+03  0.24061999872E+03  0.25500000920E-02 0. -1.
    10030    2    1    2    0    0  0.00000000000E+00  0.00000000000E+00  0.15177863490E+04  0.19990263465E+04  0.13009346381E+04 0.  0.
        4    1    3    3  502    0 -0.15104313273E+03  0.52653220023E+03  0.12979248940E+04  0.14087799080E+04  0.12699999809E+01 0.  1.
       -4    1    3    3    0  502  0.15104313273E+03 -0.52653220023E+03  0.21986145506E+03  0.59024643848E+03  0.12699999809E+01 0. -1.
</event>
<event>
 5   0  0.2723209E-04  0.1298695E+04  0.7818609E-02  0.9030601E-01
        2   -1    0    0  501    0  0.00000000000E+00  0.00000000000E+00  0.74185415961E+03  0.74185415961E+03  0.25500000920E-02 0.  1.
       -2   -1    0    0    0  501  0.00000000000E+00  0.00000000000E+00 -0.56837611454E+03  0.56837611454E+03  0.25500000920E-02 0. -1.
    10030    2    1    2    0    0  0.00000000000E+00  0.00000000000E+00  0.17347804507E+03  0.13102302742E+04  0.12986950139E+04 0.  0.
        2    1    3    3  502    0 -0.40576720995E+03  0.40735016620E+02 -0.42306684387E+03  0.58761545644E+03  0.25500000920E-02 0. -1.
       -2    1    3    3    0  502  0.40576720995E+03 -0.40735016620E+02  0.59654488894E+03  0.72261481772E+03  0.25500000920E-02 0.  1.
</event>
<event>
 5   0  0.1476511E-04  0.1292881E+04  0.7818609E-02  0.9035229E-01
       -1   -1    0    0    0  501  0.00000000000E+00  0.00000000000E+00  0.43325512597E+03  0.43325512600E+03  0.50400001928E-02 0. -1.
        1   -1    0    0  501    0  0.00000000000E+00  0.00000000000E+00 -0.96452523297E+03  0.96452523298E+03  0.50400001928E-02 0.  1.
    10030    2    1    2    0    0  0.00000000000E+00  0.00000000000E+00 -0.53127010700E+03  0.13977803590E+04  0.12928812805E+04 0.  0.
        2    1    3    3  502    0 -0.59045287355E+03 -0.14678252630E+03 -0.29497066351E+02  0.60913855800E+03  0.25500000920E-02 0. -1.
       -2    1    3    3    0  502  0.59045287355E+03  0.14678252630E+03 -0.50177304065E+03  0.78864180097E+03  0.25500000920E-02 0.  1.
</event>
<event>
 5   0  0.2723209E-04  0.1306220E+04  0.7818609E-02  0.9024647E-01
       -2   -1    0    0    0  501  0.00000000000E+00  0.00000000000E+00  0.51362430171E+03  0.51362430172E+03  0.25500000920E-02 0. -1.
        2   -1    0    0  501    0  0.00000000000E+00  0.00000000000E+00 -0.83047601096E+03  0.83047601096E+03  0.25500000920E-02 0.  1.
    10030    2    1    2    0    0  0.00000000000E+00  0.00000000000E+00 -0.31685170925E+03  0.13441003127E+04  0.13062199833E+04 0.  0.
        2    1    3    3  502    0  0.58274065451E+03 -0.28659366839E+03 -0.86911763568E+02  0.65519177027E+03  0.25500000920E-02 0.  1.
       -2    1    3    3    0  502 -0.58274065451E+03  0.28659366839E+03 -0.22993994568E+03  0.68890854241E+03  0.25500000920E-02 0. -1.
</event>
<event>
 5   0  0.1476511E-04  0.1300095E+04  0.7818609E-02  0.9029490E-01
        1   -1    0    0  501    0  0.00000000000E+00  0.00000000000E+00  0.12310160987E+04  0.12310160987E+04  0.50400001928E-02 0.  1.
       -1   -1    0    0    0  501  0.00000000000E+00  0.00000000000E+00 -0.34326255185E+03  0.34326255189E+03  0.50400001928E-02 0. -1.
    10030    2    1    2    0    0  0.00000000000E+00  0.00000000000E+00  0.88775354688E+03  0.15742786506E+04  0.13000949618E+04 0.  0.
        2    1    3    3  502    0 -0.21317645304E+03  0.35882477524E+03  0.10473380041E+04  0.11274379425E+04  0.25500000920E-02 0.  1.
       -2    1    3    3    0  502  0.21317645304E+03 -0.35882477524E+03 -0.15958445718E+03  0.44684070812E+03  0.25500000920E-02 0. -1.
</event>
<event>
 5   0  0.1002887E-04  0.1302562E+04  0.7818609E-02  0.9027536E-01
        3   -1    0    0  501    0  0.00000000000E+00  0.00000000000E+00  0.40660840321E+03  0.40660841575E+03  0.10100000352E+00 0.  1.
       -3   -1    0    0    0  501  0.00000000000E+00  0.00000000000E+00 -0.10431821081E+04  0.10431821130E+04  0.10100000352E+00 0. -1.
    10030    2    1    2    0    0  0.00000000000E+00  0.00000000000E+00 -0.63657370491E+03  0.14497905288E+04  0.13025615131E+04 0.  0.
        4    1    3    3  502    0 -0.38953270065E+03  0.46570124283E+03 -0.55952325935E+02  0.60970947846E+03  0.12699999809E+01 0.  1.
       -4    1    3    3    0  502  0.38953270065E+03 -0.46570124283E+03 -0.58062137898E+03  0.84008105030E+03  0.12699999809E+01 0. -1.
</event>
<event>
 5   0  0.1479690E-04  0.1300324E+04  0.7818609E-02  0.9029308E-01
       -1   -1    0    0    0  501  0.00000000000E+00  0.00000000000E+00  0.79614679715E+03  0.79614679717E+03  0.50400001928E-02 0.  1.
        1   -1    0    0  501    0  0.00000000000E+00  0.00000000000E+00 -0.53094573450E+03  0.53094573452E+03  0.50400001928E-02 0. -1.
    10030    2    1    2    0    0  0.00000000000E+00  0.00000000000E+00  0.26520106265E+03  0.13270925317E+04  0.13003241842E+04 0.  0.
        1    1    3    3  502    0 -0.17719811249E+03  0.18621454057E+02  0.77074410980E+03  0.79107042192E+03  0.50400001928E-02 0.  1.
       -1    1    3    3    0  502  0.17719811249E+03 -0.18621454057E+02 -0.50554304715E+03  0.53602210977E+03  0.50400001928E-02 0. -1.
</event>
<event>
 5   0  0.2723209E-04  0.1300086E+04  0.7818609E-02  0.9029497E-01
        2   -1    0    0  501    0  0.00000000000E+00  0.00000000000E+00  0.15513132425E+04  0.15513132425E+04  0.25500000920E-02 0.  1.
       -2   -1    0    0    0  501  0.00000000000E+00  0.00000000000E+00 -0.27238592682E+03  0.27238592683E+03  0.25500000920E-02 0. -1.
    10030    2    1    2    0    0  0.00000000000E+00  0.00000000000E+00  0.12789273156E+04  0.18236991693E+04  0.13000859900E+04 0.  0.
        2    1    3    3  502    0 -0.89200914824E+01  0.15335564534E+03 -0.24655917593E+03  0.29049776114E+03  0.25500000920E-02 0. -1.
       -2    1    3    3    0  502  0.89200914824E+01 -0.15335564534E+03  0.15254864916E+04  0.15332014081E+04  0.25500000920E-02 0.  1.
</event>
<event>
 5   0  0.2573071E-04  0.1296267E+04  0.7818609E-02  0.9032531E-01
        2   -1    0    0  501    0  0.00000000000E+00  0.00000000000E+00  0.87834438534E+03  0.87834438534E+03  0.25500000920E-02 0. -1.
       -2   -1    0    0    0  501  0.00000000000E+00  0.00000000000E+00 -0.47826007030E+03  0.47826007031E+03  0.25500000920E-02 0.  1.
    10030    2    1    2    0    0  0.00000000000E+00  0.00000000000E+00  0.40008431503E+03  0.13566044557E+04  0.12962670211E+04 0.  0.
        4    1    3    3  502    0  0.56889218198E+03  0.29533890219E+03  0.99595156541E+02  0.64867880339E+03  0.12699999809E+01 0.  1.
       -4    1    3    3    0  502 -0.56889218198E+03 -0.29533890219E+03  0.30048915849E+03  0.70792565226E+03  0.12699999809E+01 0. -1.
</event>
<event>
 5   0  0.2794825E-04  0.1295571E+04  0.7818609E-02  0.9033085E-01
       -2   -1    0    0    0  501  0.00000000000E+00  0.00000000000E+00  0.49287662289E+03  0.49287662289E+03  0.25500000920E-02 0. -1.
        2   -1    0    0  501    0  0.00000000000E+00  0.00000000000E+00 -0.85138165824E+03  0.85138165824E+03  0.25500000920E-02 0.  1.
    10030    2    1    2    0    0  0.00000000000E+00  0.00000000000E+00 -0.35850503535E+03  0.13442582811E+04  0.12955710965E+04 0.  0.
        1    1    3    3  502    0  0.22653255775E+03 -0.26199116315E+02 -0.80835680346E+03  0.83990720627E+03  0.50400001928E-02 0.  1.
       -1    1    3    3    0  502 -0.22653255775E+03  0.26199116315E+02  0.44985176811E+03  0.50435107486E+03  0.50400001928E-02 0. -1.
</event>
<event>
 5   0  0.2794825E-04  0.1303763E+04  0.7818609E-02  0.9026586E-01
        2   -1    0    0  501    0  0.00000000000E+00  0.00000000000E+00  0.54493381812E+03  0.54493381813E+03  0.25500000920E-02 0.  1.
       -2   -1    0    0    0  501  0.00000000000E+00  0.00000000000E+00 -0.77981876964E+03  0.77981876964E+03  0.25500000920E-02 0. -1.
    10030    2    1    2    0    0  0.00000000000E+00  0.00000000000E+00 -0.23488495152E+03  0.13247525878E+04  0.13037631987E+04 0.  0.
        1    1    3    3  502    0 -0.57936579520E+03 -0.19310767697E+03 -0.34913606097E+03  0.70345667148E+03  0.50400001928E-02 0. -1.
       -1    1    3    3    0  502  0.57936579520E+03  0.19310767697E+03  0.11425110946E+03  0.62129591629E+03  0.50400001928E-02 0.  1.
</event>
<event>
 5   0  0.1476511E-04  0.1290895E+04  0.7818609E-02  0.9036817E-01
        1   -1    0    0  501    0  0.00000000000E+00  0.00000000000E+00  0.17635182131E+04  0.17635182131E+04  0.50400001928E-02 0.  1.
       -1   -1    0    0    0  501  0.00000000000E+00  0.00000000000E+00 -0.23623372666E+03  0.23623372671E+03  0.50400001928E-02 0. -1.
    10030    2    1    2    0    0  0.00000000000E+00  0.00000000000E+00  0.15272844865E+04  0.19997519398E+04  0.12908950067E+04 0.  0.
        2    1    3    3  502    0  0.10604004020E+03 -0.58400198989E+03  0.37082588793E+03  0.69986759712E+03  0.25500000920E-02 0. -1.
       -2    1    3    3    0  502 -0.10604004020E+03  0.58400198989E+03  0.11564585985E+04  0.12998843427E+04  0.25500000920E-02 0.  1.
</event>
<event>
 5   0  0.1476511E-04  0.1301320E+04  0.7818609E-02  0.9028519E-01
       -1   -1    0    0    0  501  0.00000000000E+00  0.00000000000E+00  0.37340206282E+03  0.37340206285E+03  0.50400001928E-02 0.  1.
        1   -1    0    0  501    0  0.00000000000E+00  0.00000000000E+00 -0.11337875484E+04  0.11337875484E+04  0.50400001928E-02 0. -1.
    10030    2    1    2    0    0  0.00000000000E+00  0.00000000000E+00 -0.76038548555E+03  0.15071896112E+04  0.13013202671E+04 0.  0.
        2    1    3    3  502    0 -0.42671354258E+03  0.81485606434E+02 -0.94121411900E+03  0.10366331894E+04  0.25500000920E-02 0. -1.
       -2    1    3    3    0  502  0.42671354258E+03 -0.81485606434E+02  0.18082863346E+03  0.47055642187E+03  0.25500000920E-02 0.  1.
</event>
<event>
 5   0  0.2794825E-04  0.1299826E+04  0.7818609E-02  0.9029703E-01
        2   -1    0    0  501    0  0.00000000000E+00  0.00000000000E+00  0.35883881629E+03  0.35883881630E+03  0.25500000920E-02 0. -1.
       -2   -1    0    0    0  501  0.00000000000E+00  0.00000000000E+00 -0.11770944013E+04  0.11770944013E+04  0.25500000920E-02 0.  1.
    10030    2    1    2    0    0  0.00000000000E+00  0.00000000000E+00 -0.81825558496E+03  0.15359332176E+04  0.12998263909E+04 0.  0.
        1    1    3    3  502    0  0.40214003133E+03  0.32804974314E+03 -0.87141216795E+03  0.10142447462E+04  0.50400001928E-02 0.  1.
       -1    1    3    3    0  502 -0.40214003133E+03 -0.32804974314E+03  0.53156582983E+02  0.52168847133E+03  0.50400001928E-02 0. -1.
</event>
<event>
 5   0  0.2661377E-04  0.1299534E+04  0.7818609E-02  0.9029934E-01
        2   -1    0    0  501    0  0.00000000000E+00  0.00000000000E+00  0.11870539263E+04  0.11870539263E+04  0.25500000920E-02 0.  1.
       -2   -1    0    0    0  501  0.00000000000E+00  0.00000000000E+00 -0.35566825408E+03  0.35566825409E+03  0.25500000920E-02 0. -1.
    10030    2    1    2    0    0  0.00000000000E+00  0.00000000000E+00  0.83138567226E+03  0.15427221804E+04  0.12995343743E+04 0.  0.
        5    1    3    3  502    0  0.57627158428E+03  0.10709906103E+03  0.82837238517E+02  0.59198247086E+03  0.46999998093E+01 0. -1.
       -5    1    3    3    0  502 -0.57627158428E+03 -0.10709906103E+03  0.74854843374E+03  0.95073970958E+03  0.46999998093E+01 0.  1.
</event>
<event>
 5   0  0.2573071E-04  0.1299061E+04  0.7818609E-02  0.9030310E-01
       -2   -1    0    0    0  501  0.00000000000E+00  0.00000000000E+00  0.54909187535E+03  0.54909187536E+03  0.25500000920E-02 0. -1.
        2   -1    0    0  501    0  0.00000000000E+00  0.00000000000E+00 -0.76834092553E+03  0.76834092553E+03  0.25500000920E-02 0.  1.
    10030    2    1    2    0    0  0.00000000000E+00  0.00000000000E+00 -0.21924905018E+03  0.13174328009E+04  0.12990608295E+04 0.  0.
        4    1    3    3  502    0  0.31788488379E+02 -0.13151611134E+03  0.53464030150E+03  0.55149692694E+03  0.12699999809E+01 0. -1.
       -4    1    3    3    0  502 -0.31788488379E+02  0.13151611134E+03 -0.75388935168E+03  0.76593587395E+03  0.12699999809E+01 0.  1.
</event>
<event>
 5   0  0.1479690E-04  0.1299524E+04  0.7818609E-02  0.9029943E-01
       -1   -1    0    0    0  501  0.00000000000E+00  0.00000000000E+00  0.49566171187E+03  0.49566171189E+03  0.50400001928E-02 0. -1.
        1   -1    0    0  501    0  0.00000000000E+00  0.00000000000E+00 -0.85177176878E+03  0.85177176879E+03  0.50400001928E-02 0.  1.
    10030    2    1    2    0    0  0.00000000000E+00  0.00000000000E+00 -0.35611005691E+03  0.13474334807E+04  0.12995239945E+04 0.  0.
        1    1    3    3  502    0  0.12635239988E+03  0.14751577412E+02  0.48262379798E+03  0.49910747179E+03  0.50400001928E-02 0. -1.
       -1    1    3    3    0  502 -0.12635239988E+03 -0.14751577412E+02 -0.83873385489E+03  0.84832600889E+03  0.50400001928E-02 0.  1.
</event>
<event>
 5   0  0.2756984E-04  0.1299785E+04  0.7818609E-02  0.9029736E-01
        2   -1    0    0  501    0  0.00000000000E+00  0.00000000000E+00  0.10260139140E+04  0.10260139140E+04  0.25500000920E-02 0.  1.
       -2   -1    0    0    0  501  0.00000000000E+00  0.00000000000E+00 -0.41165165809E+03  0.41165165810E+03  0.25500000920E-02 0. -1.
    10030    2    1    2    0    0  0.00000000000E+00  0.00000000000E+00  0.61436225595E+03  0.14376655721E+04  0.12997851037E+04 0.  0.
        3    1    3    3  502    0 -0.52218039711E+03  0.25571220360E+03 -0.13961603497E+02  0.58159782906E+03  0.10100000352E+00 0. -1.
       -3    1    3    3    0  502  0.52218039711E+03 -0.25571220360E+03  0.62832385945E+03  0.85606774308E+03  0.10100000352E+00 0.  1.
</event>
<event>
 5   0  0.2794825E-04  0.1295971E+04  0.7818609E-02  0.9032766E-01
       -2   -1    0    0    0  501  0.00000000000E+00  0.00000000000E+00  0.11127188331E+04  0.11127188331E+04  0.25500000920E-02 0. -1.
        2   -1    0    0  501    0  0.00000000000E+00  0.00000000000E+00 -0.37735079646E+03  0.37735079647E+03  0.25500000920E-02 0.  1.
    10030    2    1    2    0    0  0.00000000000E+00  0.00000000000E+00  0.73536803663E+03  0.14900696296E+04  0.12959712002E+04 0.  0.
        1    1    3    3  502    0 -0.51476853824E+03  0.52361250639E+02 -0.80810527414E+02  0.52369713566E+03  0.50400001928E-02 0.  1.
       -1    1    3    3    0  502  0.51476853824E+03 -0.52361250639E+02  0.81617856404E+03  0.96637249390E+03  0.50400001928E-02 0. -1.
</event>
<event>
 5   0  0.1430636E-04  0.1300668E+04  0.7818609E-02  0.9029036E-01
       -1   -1    0    0    0  501  0.00000000000E+00  0.00000000000E+00  0.62622647029E+03  0.62622647031E+03  0.50400001928E-02 0. -1.
        1   -1    0    0  501    0  0.00000000000E+00  0.00000000000E+00 -0.67536956029E+03  0.67536956031E+03  0.50400001928E-02 0.  1.
    10030    2    1    2    0    0  0.00000000000E+00  0.00000000000E+00 -0.49143090000E+02  0.13015960306E+04  0.13006679759E+04 0.  0.
        4    1    3    3  502    0  0.85033659458E+02 -0.59691454884E+03 -0.26845629359E+03  0.66000613355E+03  0.12699999809E+01 0.  1.
       -4    1    3    3    0  502 -0.85033659458E+02  0.59691454884E+03  0.21931320359E+03  0.64158989707E+03  0.12699999809E+01 0. -1.
</event>
<event>
 5   0  0.2756984E-04  0.1300179E+04  0.7818609E-02  0.9029423E-01
        2   -1    0    0  501    0  0.00000000000E+00  0.00000000000E+00  0.69798270936E+03  0.69798270936E+03  0.25500000920E-02 0. -1.
       -2   -1    0    0    0  501  0.00000000000E+00  0.00000000000E+00 -0.60548273357E+03  0.60548273357E+03  0.25500000920E-02 0.  1.
    10030    2    1    2    0    0  0.00000000000E+00  0.00000000000E+00  0.92499975788E+02  0.13034654429E+04  0.13001791859E+04 0.  0.
        3    1    3    3  502    0  0.12103846224E+03 -0.48843766564E+03 -0.36636629041E+03  0.62245154953E+03  0.10100000352E+00 0.  1.
       -3    1    3    3    0  502 -0.12103846224E+03  0.48843766564E+03  0.45886626620E+03  0.68101389341E+03  0.10100000352E+00 0. -1.
</event>
<event>
 5   0  0.2794825E-04  0.1299028E+04  0.7818609E-02  0.9030337E-01
        2   -1    0    0  501    0  0.00000000000E+00  0.00000000000E+00  0.99853881275E+03  0.99853881275E+03  0.25500000920E-02 0.  1.
       -2   -1    0    0    0  501  0.00000000000E+00  0.00000000000E+00 -0.42248554336E+03  0.42248554337E+03  0.25500000920E-02 0. -1.
    10030    2    1    2    0    0  0.00000000000E+00  0.00000000000E+00  0.57605326939E+03  0.14210243561E+04  0.12990276562E+04 0.  0.
        1    1    3    3  502    0  0.58431526915E+03 -0.17215192503E+03  0.41452545112E+02  0.61055624850E+03  0.50400001928E-02 0. -1.
       -1    1    3    3    0  502 -0.58431526915E+03  0.17215192503E+03  0.53460072428E+03  0.81046810763E+03  0.50400001928E-02 0.  1.
</event>
<event>
 5   0  0.1476511E-04  0.1299467E+04  0.7818609E-02  0.9029988E-01
        1   -1    0    0  501    0  0.00000000000E+00  0.00000000000E+00  0.13411101166E+04  0.13411101166E+04  0.50400001928E-02 0. -1.
       -1   -1    0    0    0  501  0.00000000000E+00  0.00000000000E+00 -0.31477928874E+03  0.31477928878E+03  0.50400001928E-02 0.  1.
    10030    2    1    2    0    0  0.00000000000E+00  0.00000000000E+00  0.10263308278E+04  0.16558894053E+04  0.12994671041E+04 0.  0.
        2    1    3    3  502    0 -0.12861340386E+03  0.34946644103E+03  0.11916366699E+04  0.12484655198E+04  0.25500000920E-02 0. -1.
       -2    1    3    3    0  502  0.12861340386E+03 -0.34946644103E+03 -0.16530584211E+03  0.40742388553E+03  0.25500000920E-02 0.  1.
</event>
<event>
 5   0  0.2661377E-04  0.1300476E+04  0.7818609E-02  0.9029187E-01
        2   -1    0    0  501    0  0.00000000000E+00  0.00000000000E+00  0.55980860717E+03  0.55980860717E+03  0.25500000920E-02 0. -1.
       -2   -1    0    0    0  501  0.00000000000E+00  0.00000000000E+00 -0.75527549891E+03  0.75527549891E+03  0.25500000920E-02 0.  1.
    10030    2    1    2    0    0  0.00000000000E+00  0.00000000000E+00 -0.19546689174E+03  0.13150841061E+04  0.13004764128E+04 0.  0.
        5    1    3    3  502    0  0.59698560563E+03  0.19245201962E+02 -0.35757386875E+03  0.69616330896E+03  0.46999998093E+01 0.  1.
       -5    1    3    3    0  502 -0.59698560563E+03 -0.19245201962E+02  0.16210697701E+03  0.61892079713E+03  0.46999998093E+01 0. -1.
</event>
<event>
 5   0  0.1479690E-04  0.1300271E+04  0.7818609E-02  0.9029350E-01
        1   -1    0    0  501    0  0.00000000000E+00  0.00000000000E+00  0.60490211806E+03  0.60490211808E+03  0.50400001928E-02 0.  1.
       -1   -1    0    0    0  501  0.00000000000E+00  0.00000000000E+00 -0.69875108023E+03  0.69875108024E+03  0.50400001928E-02 0. -1.
    10030    2    1    2    0    0  0.00000000000E+00  0.00000000000E+00 -0.93848962166E+02  0.13036531983E+04  0.13002707540E+04 0.  0.
        1    1    3    3  502    0 -0.40275108468E+03  0.32388719075E+02 -0.55758089142E+03  0.68858835006E+03  0.50400001928E-02 0. -1.
       -1    1    3    3    0  502  0.40275108468E+03 -0.32388719075E+02  0.46373192925E+03  0.61506484826E+03  0.50400001928E-02 0.  1.
</event>
<event>
 5   0  0.2794825E-04  0.1302172E+04  0.7818609E-02  0.9027844E-01
        2   -1    0    0  501    0  0.00000000000E+00  0.00000000000E+00  0.36421146734E+03  0.36421146735E+03  0.25500000920E-02 0.  1.
       -2   -1    0    0    0  501  0.00000000000E+00  0.00000000000E+00 -0.11639200597E+04  0.11639200597E+04  0.25500000920E-02 0. -1.
    10030    2    1    2    0    0  0.00000000000E+00  0.00000000000E+00 -0.79970859234E+03  0.15281315270E+04  0.13021720820E+04 0.  0.
        1    1    3    3  502    0  0.17159297748E+03 -0.30601703344E+03 -0.10435009023E+04  0.11009017703E+04  0.50400001928E-02 0. -1.
       -1    1    3    3    0  502 -0.17159297748E+03  0.30601703344E+03  0.24379230993E+03  0.42722975678E+03  0.50400001928E-02 0.  1.
</event>
<event>
 5   0  0.2723209E-04  0.1306510E+04  0.7818609E-02  0.9024419E-01
       -2   -1    0    0    0  501  0.00000000000E+00  0.00000000000E+00  0.50650271859E+03  0.50650271860E+03  0.25500000920E-02 0.  1.
        2   -1    0    0  501    0  0.00000000000E+00  0.00000000000E+00 -0.84252636018E+03  0.84252636018E+03  0.25500000920E-02 0. -1.
    10030    2    1    2    0    0  0.00000000000E+00  0.00000000000E+00 -0.33602364159E+03  0.13490290788E+04  0.13065096891E+04 0.  0.
        2    1    3    3  502    0 -0.20471387656E+03 -0.59507520510E+03 -0.34898599456E+03  0.71959258986E+03  0.25500000920E-02 0. -1.
       -2    1    3    3    0  502  0.20471387656E+03  0.59507520510E+03  0.12962352974E+02  0.62943648892E+03  0.25500000920E-02 0.  1.
</event>
<event>
 5   0  0.1408341E-04  0.1300185E+04  0.7818609E-02  0.9029418E-01
        1   -1    0    0  501    0  0.00000000000E+00  0.00000000000E+00  0.46463923401E+03  0.46463923404E+03  0.50400001928E-02 0.  1.
       -1   -1    0    0    0  501  0.00000000000E+00  0.00000000000E+00 -0.90956705640E+03  0.90956705641E+03  0.50400001928E-02 0. -1.
    10030    2    1    2    0    0  0.00000000000E+00  0.00000000000E+00 -0.44492782239E+03  0.13742062905E+04  0.13001854335E+04 0.  0.
        5    1    3    3  502    0  0.19604083541E+03  0.14146299746E+03 -0.86027133939E+03  0.89360654439E+03  0.46999998093E+01 0. -1.
       -5    1    3    3    0  502 -0.19604083541E+03 -0.14146299746E+03  0.41534351701E+03  0.48059974606E+03  0.46999998093E+01 0.  1.
</event>
<event>
 5   0  0.1475396E-04  0.1298673E+04  0.7818609E-02  0.9030618E-01
       -1   -1    0    0    0  501  0.00000000000E+00  0.00000000000E+00  0.30121086095E+03  0.30121086099E+03  0.50400001928E-02 0. -1.
        1   -1    0    0  501    0  0.00000000000E+00  0.00000000000E+00 -0.13998094233E+04  0.13998094233E+04  0.50400001928E-02 0.  1.
    10030    2    1    2    0    0  0.00000000000E+00  0.00000000000E+00 -0.10985985624E+04  0.17010202843E+04  0.12986728635E+04 0.  0.
        3    1    3    3  502    0 -0.57779386770E+03  0.19875083124E+03 -0.26146734365E+03  0.66461479706E+03  0.10100000352E+00 0. -1.
       -3    1    3    3    0  502  0.57779386770E+03 -0.19875083124E+03 -0.83713121873E+03  0.10364054873E+04  0.10100000352E+00 0.  1.
</event>
<event>
 5   0  0.2756984E-04  0.1297844E+04  0.7818609E-02  0.9031277E-01
       -2   -1    0    0    0  501  0.00000000000E+00  0.00000000000E+00  0.25135993129E+03  0.25135993131E+03  0.25500000920E-02 0.  1.
        2   -1    0    0  501    0  0.00000000000E+00  0.00000000000E+00 -0.16752859715E+04  0.16752859715E+04  0.25500000920E-02 0. -1.
    10030    2    1    2    0    0  0.00000000000E+00  0.00000000000E+00 -0.14239260402E+04  0.19266459028E+04  0.12978440071E+04 0.  0.
        3    1    3    3  502    0 -0.12455757236E+03 -0.48117418497E+03 -0.13312965880E+04  0.14210537641E+04  0.10100000352E+00 0. -1.
       -3    1    3    3    0  502  0.12455757236E+03  0.48117418497E+03 -0.92629452243E+02  0.50559213872E+03  0.10100000352E+00 0.  1.
</event>
<event>
 5   0  0.2661377E-04  0.1300481E+04  0.7818609E-02  0.9029184E-01
       -2   -1    0    0    0  501  0.00000000000E+00  0.00000000000E+00  0.33362703244E+03  0.33362703245E+03  0.25500000920E-02 0. -1.
        2   -1    0    0  501    0  0.00000000000E+00  0.00000000000E+00 -0.12673218266E+04  0.12673218266E+04  0.25500000920E-02 0.  1.
    10030    2    1    2    0    0  0.00000000000E+00  0.00000000000E+00 -0.93369479412E+03  0.16009488590E+04  0.13004811727E+04 0.  0.
        5    1    3    3  502    0  0.30487393840E+03 -0.18322354343E+03 -0.11369148251E+04  0.11912667186E+04  0.46999998093E+01 0.  1.
       -5    1    3    3    0  502 -0.30487393840E+03  0.18322354343E+03  0.20322003102E+03  0.40968214043E+03  0.46999998093E+01 0. -1.
</event>
<event>
 5   0  0.1408341E-04  0.1298092E+04  0.7818609E-02  0.9031080E-01
        1   -1    0    0  501    0  0.00000000000E+00  0.00000000000E+00  0.44719782899E+03  0.44719782902E+03  0.50400001928E-02 0.  1.
       -1   -1    0    0    0  501  0.00000000000E+00  0.00000000000E+00 -0.94200076225E+03  0.94200076227E+03  0.50400001928E-02 0. -1.
    10030    2    1    2    0    0  0.00000000000E+00  0.00000000000E+00 -0.49480293326E+03  0.13891985913E+04  0.12980919780E+04 0.  0.
        5    1    3    3  502    0  0.21435057665E+02 -0.53677124465E+03  0.14238068522E+03  0.55576719973E+03  0.46999998093E+01 0.  1.
       -5    1    3    3    0  502 -0.21435057665E+02  0.53677124465E+03 -0.63718361848E+03  0.83343139156E+03  0.46999998093E+01 0. -1.
</event>
<event>
 5   0  0.2794825E-04  0.1307772E+04  0.7818609E-02  0.9023424E-01
        2   -1    0    0  501    0  0.00000000000E+00  0.00000000000E+00  0.11949481474E+04  0.11949481474E+04  0.25500000920E-02 0. -1.
       -2   -1    0    0    0  501  0.00000000000E+00  0.00000000000E+00 -0.35781232578E+03  0.35781232579E+03  0.25500000920E-02 0.  1.
    10030    2    1    2    0    0  0.00000000000E+00  0.00000000000E+00  0.83713582163E+03  0.15527604732E+04  0.13077724203E+04 0.  0.
        1    1    3    3  502    0  0.15266024529E+03 -0.62922401774E+03  0.31014190313E+03  0.71792479766E+03  0.50400001928E-02 0.  1.
       -1    1    3    3    0  502 -0.15266024529E+03  0.62922401774E+03  0.52699391850E+03  0.83483567554E+03  0.50400001928E-02 0. -1.
</event>
<event>
 5   0  0.1479690E-04  0.1295257E+04  0.7818609E-02  0.9033335E-01
       -1   -1    0    0    0  501  0.00000000000E+00  0.00000000000E+00  0.33245171190E+03  0.33245171194E+03  0.50400001928E-02 0. -1.
        1   -1    0    0  501    0  0.00000000000E+00  0.00000000000E+00 -0.12616044889E+04  0.12616044889E+04  0.50400001928E-02 0.  1.
    10030    2    1    2    0    0  0.00000000000E+00  0.00000000000E+00 -0.92915277697E+03  0.15940562008E+04  0.12952568427E+04 0.  0.
        1    1    3    3  502    0 -0.90293356118E+02  0.32955216374E+03 -0.11416390641E+04  0.11916783423E+04  0.50400001928E-02 0.  1.
       -1    1    3    3    0  502  0.90293356118E+02 -0.32955216374E+03  0.21248628714E+03  0.40237785853E+03  0.50400001928E-02 0. -1.
</event>
<event>
 5   0  0.2756984E-04  0.1294241E+04  0.7818609E-02  0.9034145E-01
       -2   -1    0    0    0  501  0.00000000000E+00  0.00000000000E+00  0.27390456328E+03  0.27390456329E+03  0.25500000920E-02 0. -1.
        2   -1    0    0  501    0  0.00000000000E+00  0.00000000000E+00 -0.15288706441E+04  0.15288706441E+04  0.25500000920E-02 0.  1.
    10030    2    1    2    0    0  0.00000000000E+00  0.00000000000E+00 -0.12549660809E+04  0.18027752074E+04  0.12942405435E+04 0.  0.
        3    1    3    3  502    0 -0.49114659281E+03 -0.34979566270E+03 -0.30027205873E+03  0.67360619113E+03  0.10100000352E+00 0. -1.
       -3    1    3    3    0  502  0.49114659281E+03  0.34979566270E+03 -0.95469402213E+03  0.11291690163E+04  0.10100000352E+00 0.  1.
</event>
<event>
 5   0  0.2573071E-04  0.1299883E+04  0.7818609E-02  0.9029658E-01
        2   -1    0    0  501    0  0.00000000000E+00  0.00000000000E+00  0.98039971729E+03  0.98039971729E+03  0.25500000920E-02 0. -1.
       -2   -1    0    0    0  501  0.00000000000E+00  0.00000000000E+00 -0.43086938116E+03  0.43086938117E+03  0.25500000920E-02 0.  1.
    10030    2    1    2    0    0  0.00000000000E+00  0.00000000000E+00  0.54953033613E+03  0.14112690985E+04  0.12998834094E+04 0.  0.
        4    1    3    3  502    0 -0.55686244648E+03 -0.28291419880E+03  0.79684112163E+02  0.62967245359E+03  0.12699999809E+01 0.  1.
       -4    1    3    3    0  502  0.55686244648E+03  0.28291419880E+03  0.46984622397E+03  0.78159664486E+03  0.12699999809E+01 0. -1.
</event>
<event>
 5   0  0.2723209E-04  0.1297267E+04  0.7818609E-02  0.9031735E-01
       -2   -1    0    0    0  501  0.00000000000E+00  0.00000000000E+00  0.23968657861E+03  0.23968657862E+03  0.25500000920E-02 0. -1.
        2   -1    0    0  501    0  0.00000000000E+00  0.00000000000E+00 -0.17553152799E+04  0.17553152799E+04  0.25500000920E-02 0.  1.
    10030    2    1    2    0    0  0.00000000000E+00  0.00000000000E+00 -0.15156287013E+04  0.19950018585E+04  0.12972671488E+04 0.  0.
        2    1    3    3  502    0 -0.55258134757E+03 -0.12890105923E+03 -0.12411100905E+04  0.13646669504E+04  0.25500000920E-02 0.  1.
       -2    1    3    3    0  502  0.55258134757E+03  0.12890105923E+03 -0.27451861083E+03  0.63033490816E+03  0.25500000920E-02 0. -1.
</event>
<event>
 5   0  0.2573071E-04  0.1298581E+04  0.7818609E-02  0.9030691E-01
       -2   -1    0    0    0  501  0.00000000000E+00  0.00000000000E+00  0.48098655030E+03  0.48098655031E+03  0.25500000920E-02 0. -1.
        2   -1    0    0  501    0  0.00000000000E+00  0.00000000000E+00 -0.87648659999E+03  0.87648660000E+03  0.25500000920E-02 0.  1.
    10030    2    1    2    0    0  0.00000000000E+00  0.00000000000E+00 -0.39550004969E+03  0.13574731503E+04  0.12985811736E+04 0.  0.
        4    1    3    3  502    0 -0.60540967375E+03  0.20892397830E+03 -0.86105012069E+02  0.64620878034E+03  0.12699999809E+01 0.  1.
       -4    1    3    3    0  502  0.60540967375E+03 -0.20892397830E+03 -0.30939503762E+03  0.71126436997E+03  0.12699999809E+01 0. -1.
</event>
<event>
 5   0  0.2794825E-04  0.1302889E+04  0.7818609E-02  0.9027278E-01
        2   -1    0    0  501    0  0.00000000000E+00  0.00000000000E+00  0.10007739316E+04  0.10007739316E+04  0.25500000920E-02 0.  1.
       -2   -1    0    0    0  501  0.00000000000E+00  0.00000000000E+00 -0.42405157092E+03  0.42405157093E+03  0.25500000920E-02 0. -1.
    10030    2    1    2    0    0  0.00000000000E+00  0.00000000000E+00  0.57672236068E+03  0.14248255025E+04  0.13028887256E+04 0.  0.
        1    1    3    3  502    0  0.23067083019E+03  0.29366389651E+03  0.87210883859E+03  0.94869454641E+03  0.50400001928E-02 0.  1.
       -1    1    3    3    0  502 -0.23067083019E+03 -0.29366389651E+03 -0.29538647792E+03  0.47613095612E+03  0.50400001928E-02 0. -1.
</event>
<event>
 5   0  0.1408341E-04  0.1299555E+04  0.7818609E-02  0.9029918E-01
       -1   -1    0    0    0  501  0.00000000000E+00  0.00000000000E+00  0.41414672606E+03  0.41414672609E+03  0.50400001928E-02 0. -1.
        1   -1    0    0  501    0  0.00000000000E+00  0.00000000000E+00 -0.10194708206E+04  0.10194708206E+04  0.50400001928E-02 0.  1.
    10030    2    1    2    0    0  0.00000000000E+00  0.00000000000E+00 -0.60532409450E+03  0.14336175467E+04  0.12995545432E+04 0.  0.
        5    1    3    3  502    0  0.58813966303E+03 -0.83798790764E+02 -0.59297973317E+03  0.83939118086E+03  0.46999998093E+01 0.  1.
       -5    1    3    3    0  502 -0.58813966303E+03  0.83798790764E+02 -0.12344361331E+02  0.59422636580E+03  0.46999998093E+01 0. -1.
</event>
<event>
 5   0  0.1479690E-04  0.1301141E+04  0.7818609E-02  0.9028661E-01
        1   -1    0    0  501    0  0.00000000000E+00  0.00000000000E+00  0.43975901057E+03  0.43975901060E+03  0.50400001928E-02 0. -1.
       -1   -1    0    0    0  501  0.00000000000E+00  0.00000000000E+00 -0.96244082844E+03  0.96244082845E+03  0.50400001928E-02 0.  1.
    10030    2    1    2    0    0  0.00000000000E+00  0.00000000000E+00 -0.52268181787E+03  0.14021998390E+04  0.13011410784E+04 0.  0.
        1    1    3    3  502    0 -0.16834533483E+03 -0.43897246602E+03 -0.74593880274E+03  0.88173787213E+03  0.50400001928E-02 0. -1.
       -1    1    3    3    0  502  0.16834533483E+03  0.43897246602E+03  0.22325698488E+03  0.52046196692E+03  0.50400001928E-02 0.  1.
</event>
<event>
 5   0  0.2794825E-04  0.1299064E+04  0.7818609E-02  0.9030308E-01
       -2   -1    0    0    0  501  0.00000000000E+00  0.00000000000E+00  0.19023259982E+03  0.19023259984E+03  0.25500000920E-02 0.  1.
        2   -1    0    0  501    0  0.00000000000E+00  0.00000000000E+00 -0.22177690069E+04  0.22177690069E+04  0.25500000920E-02 0. -1.
    10030    2    1    2    0    0  0.00000000000E+00  0.00000000000E+00 -0.20275364071E+04  0.24080016067E+04  0.12990642232E+04 0.  0.
        1    1    3    3  502    0 -0.38189758833E+02  0.60083713039E+03 -0.14656476805E+04  0.15844831455E+04  0.50400001928E-02 0.  1.
       -1    1    3    3    0  502  0.38189758833E+02 -0.60083713039E+03 -0.56188872652E+03  0.82351846121E+03  0.50400001928E-02 0. -1.
</event>
<event>
 5   0  0.1476511E-04  0.1298495E+04  0.7818609E-02  0.9030759E-01
        1   -1    0    0  501    0  0.00000000000E+00  0.00000000000E+00  0.12010335166E+04  0.12010335166E+04  0.50400001928E-02 0. -1.
       -1   -1    0    0    0  501  0.00000000000E+00  0.00000000000E+00 -0.35096654266E+03  0.35096654270E+03  0.50400001928E-02 0.  1.
    10030    2    1    2    0    0  0.00000000000E+00  0.00000000000E+00  0.85006697396E+03  0.15520000593E+04  0.12984954077E+04 0.  0.
        2    1    3    3  502    0  0.23032743433E+03 -0.28181655173E+03  0.10676305966E+04  0.11279655964E+04  0.25500000920E-02 0. -1.
       -2    1    3    3    0  502 -0.23032743433E+03  0.28181655173E+03 -0.21756362266E+03  0.42403446292E+03  0.25500000920E-02 0.  1.
</event>
<event>
 5   0  0.1475396E-04  0.1298672E+04  0.7818609E-02  0.9030619E-01
       -1   -1    0    0    0  501  0.00000000000E+00  0.00000000000E+00  0.36233518265E+03  0.36233518268E+03  0.50400001928E-02 0. -1.
        1   -1    0    0  501    0  0.00000000000E+00  0.00000000000E+00 -0.11636656960E+04  0.11636656961E+04  0.50400001928E-02 0.  1.
    10030    2    1    2    0    0  0.00000000000E+00  0.00000000000E+00 -0.80133051340E+03  0.15260008787E+04  0.12986716637E+04 0.  0.
        3    1    3    3  502    0 -0.53397275128E+03 -0.31475895388E+03 -0.62802074433E+03  0.88238889593E+03  0.10100000352E+00 0. -1.
       -3    1    3    3    0  502  0.53397275128E+03  0.31475895388E+03 -0.17330976907E+03  0.64361198280E+03  0.10100000352E+00 0.  1.
</event>
<event>
 5   0  0.1430636E-04  0.1300121E+04  0.7818609E-02  0.9029469E-01
       -1   -1    0    0    0  501  0.00000000000E+00  0.00000000000E+00  0.96730121131E+03  0.96730121132E+03  0.50400001928E-02 0. -1.
        1   -1    0    0  501    0  0.00000000000E+00  0.00000000000E+00 -0.43686335684E+03  0.43686335687E+03  0.50400001928E-02 0.  1.
    10030    2    1    2    0    0  0.00000000000E+00  0.00000000000E+00  0.53043785447E+03  0.14041645682E+04  0.13001206933E+04 0.  0.
        4    1    3    3  502    0 -0.11599226027E+03  0.63011963186E+03  0.14655412748E+03  0.65725541464E+03  0.12699999809E+01 0. -1.
       -4    1    3    3    0  502  0.11599226027E+03 -0.63011963186E+03  0.38388372700E+03  0.74690915355E+03  0.12699999809E+01 0.  1.
</event>
<event>
 5   0  0.2794825E-04  0.1303323E+04  0.7818609E-02  0.9026934E-01
       -2   -1    0    0    0  501  0.00000000000E+00  0.00000000000E+00  0.27923188768E+03  0.27923188769E+03  0.25500000920E-02 0. -1.
        2   -1    0    0  501    0  0.00000000000E+00  0.00000000000E+00 -0.15208235221E+04  0.15208235221E+04  0.25500000920E-02 0.  1.
    10030    2    1    2    0    0  0.00000000000E+00  0.00000000000E+00 -0.12415916344E+04  0.18000554098E+04  0.13033225586E+04 0.  0.
        1    1    3    3  502    0  0.11115923703E+03  0.59638696830E+03 -0.94945970836E+03  0.11267242474E+04  0.50400001928E-02 0.  1.
       -1    1    3    3    0  502 -0.11115923703E+03 -0.59638696830E+03 -0.29213192604E+03  0.67333116234E+03  0.50400001928E-02 0. -1.
</event>
<event>
 5   0  0.1476511E-04  0.1298621E+04  0.7818609E-02  0.9030660E-01
       -1   -1    0    0    0  501  0.00000000000E+00  0.00000000000E+00  0.28411906790E+03  0.28411906795E+03  0.50400001928E-02 0.  1.
        1   -1    0    0  501    0  0.00000000000E+00  0.00000000000E+00 -0.14838991377E+04  0.14838991377E+04  0.50400001928E-02 0. -1.
    10030    2    1    2    0    0  0.00000000000E+00  0.00000000000E+00 -0.11997800698E+04  0.17680182057E+04  0.12986208683E+04 0.  0.
        2    1    3    3  502    0  0.15154074095E+03 -0.19731526043E+02 -0.14590663726E+04  0.14670475824E+04  0.25500000920E-02 0. -1.
       -2    1    3    3    0  502 -0.15154074095E+03  0.19731526043E+02  0.25928630277E+03  0.30097062331E+03  0.25500000920E-02 0.  1.
</event>
<event>
 5   0  0.1408341E-04  0.1298156E+04  0.7818609E-02  0.9031029E-01
       -1   -1    0    0    0  501  0.00000000000E+00  0.00000000000E+00  0.19532675137E+03  0.19532675143E+03  0.50400001928E-02 0. -1.
        1   -1    0    0  501    0  0.00000000000E+00  0.00000000000E+00 -0.21569098690E+04  0.21569098690E+04  0.50400001928E-02 0.  1.
    10030    2    1    2    0    0  0.00000000000E+00  0.00000000000E+00 -0.19615831177E+04  0.23522366205E+04  0.12981559194E+04 0.  0.
        5    1    3    3  502    0 -0.11313695705E+03  0.43990563042E+03 -0.14068150712E+03  0.47553160902E+03  0.46999998093E+01 0. -1.
       -5    1    3    3    0  502  0.11313695705E+03 -0.43990563042E+03 -0.18209016105E+04  0.18767050115E+04  0.46999998093E+01 0.  1.
</event>
<event>
 5   0  0.1408341E-04  0.1297277E+04  0.7818609E-02  0.9031727E-01
       -1   -1    0    0    0  501  0.00000000000E+00  0.00000000000E+00  0.10947505622E+04  0.10947505622E+04  0.50400001928E-02 0. -1.
        1   -1    0    0  501    0  0.00000000000E+00  0.00000000000E+00 -0.38431783683E+03  0.38431783687E+03  0.50400001928E-02 0.  1.
    10030    2    1    2    0    0  0.00000000000E+00  0.00000000000E+00  0.71043272534E+03  0.14790683990E+04  0.12972774074E+04 0.  0.
        5    1    3    3  502    0  0.28163638481E+03  0.35999935503E+03  0.87991466066E+03  0.99155962449E+03  0.46999998093E+01 0. -1.
       -5    1    3    3    0  502 -0.28163638481E+03 -0.35999935503E+03 -0.16948193532E+03  0.48750877456E+03  0.46999998093E+01 0.  1.
</event>
<event>
 5   0  0.2794825E-04  0.1298909E+04  0.7818609E-02  0.9030431E-01
       -2   -1    0    0    0  501  0.00000000000E+00  0.00000000000E+00  0.39579072989E+03  0.39579072990E+03  0.25500000920E-02 0.  1.
        2   -1    0    0  501    0  0.00000000000E+00  0.00000000000E+00 -0.10656923380E+04  0.10656923380E+04  0.25500000920E-02 0. -1.
    10030    2    1    2    0    0  0.00000000000E+00  0.00000000000E+00 -0.66990160807E+03  0.14614830679E+04  0.12989090011E+04 0.  0.
        1    1    3    3  502    0 -0.26815249830E+03 -0.34190706972E+03  0.20814817705E+03  0.48180065411E+03  0.50400001928E-02 0.  1.
       -1    1    3    3    0  502  0.26815249830E+03  0.34190706972E+03 -0.87804978511E+03  0.97968241376E+03  0.50400001928E-02 0. -1.
</event>
<event>
 5   0  0.1002887E-04  0.1298355E+04  0.7818609E-02  0.9030871E-01
        3   -1    0    0  501    0  0.00000000000E+00  0.00000000000E+00  0.15762797418E+04  0.15762797450E+04  0.10100000352E+00 0.  1.
       -3   -1    0    0    0  501  0.00000000000E+00  0.00000000000E+00 -0.26735822149E+03  0.26735824057E+03  0.10100000352E+00 0. -1.
    10030    2    1    2    0    0  0.00000000000E+00  0.00000000000E+00  0.13089215203E+04  0.18436379856E+04  0.12983549113E+04 0.  0.
        3    1    3    3  502    0  0.85018210016E+02  0.61514532402E+03  0.92313167904E+03  0.11125663903E+04  0.10100000352E+00 0.  1.
       -3    1    3    3    0  502 -0.85018210016E+02 -0.61514532402E+03  0.38578984128E+03  0.73107159536E+03  0.10100000352E+00 0. -1.
</event>
<event>
 5   0  0.1408341E-04  0.1297482E+04  0.7818609E-02  0.9031564E-01
        1   -1    0    0  501    0  0.00000000000E+00  0.00000000000E+00  0.40999760929E+03  0.40999760932E+03  0.50400001928E-02 0.  1.
       -1   -1    0    0    0  501  0.00000000000E+00  0.00000000000E+00 -0.10265062847E+04  0.10265062847E+04  0.50400001928E-02 0. -1.
    10030    2    1    2    0    0  0.00000000000E+00  0.00000000000E+00 -0.61650867544E+03  0.14365038941E+04  0.12974823663E+04 0.  0.
        5    1    3    3  502    0  0.18013339485E+03 -0.47717809888E+03  0.13556676754E+03  0.52777591500E+03  0.46999998093E+01 0.  1.
       -5    1    3    3    0  502 -0.18013339485E+03  0.47717809888E+03 -0.75207544298E+03  0.90872797906E+03  0.46999998093E+01 0. -1.
</event>
<event>
 5   0  0.2723209E-04  0.1304461E+04  0.7818609E-02  0.9026035E-01
        2   -1    0    0  501    0  0.00000000000E+00  0.00000000000E+00  0.12450707294E+04  0.12450707294E+04  0.25500000920E-02 0.  1.
       -2   -1    0    0    0  501  0.00000000000E+00  0.00000000000E+00 -0.34167114158E+03  0.34167114158E+03  0.25500000920E-02 0. -1.
    10030    2    1    2    0    0  0.00000000000E+00  0.00000000000E+00  0.90339958783E+03  0.15867418710E+04  0.13044611722E+04 0.  0.
        2    1    3    3  502    0 -0.39147533913E+03 -0.31109625069E+03 -0.57694310715E+02  0.50335122115E+03  0.25500000920E-02 0. -1.
       -2    1    3    3    0  502  0.39147533913E+03  0.31109625069E+03  0.96109389854E+03  0.10833906498E+04  0.25500000920E-02 0.  1.
</event>
<event>
 5   0  0.1476511E-04  0.1300298E+04  0.7818609E-02  0.9029329E-01
        1   -1    0    0  501    0  0.00000000000E+00  0.00000000000E+00  0.33909794487E+03  0.33909794491E+03  0.50400001928E-02 0. -1.
       -1   -1    0    0    0  501  0.00000000000E+00  0.00000000000E+00 -0.12465246074E+04  0.12465246074E+04  0.50400001928E-02 0.  1.
    10030    2    1    2    0    0  0.00000000000E+00  0.00000000000E+00 -0.90742666250E+03  0.15856225523E+04  0.13002983237E+04 0.  0.
        2    1    3    3  502    0 -0.40219940735E+03  0.38443397239E+03 -0.43542217622E+02  0.55807684697E+03  0.25500000920E-02 0. -1.
       -2    1    3    3    0  502  0.40219940735E+03 -0.38443397239E+03 -0.86388444488E+03  0.10275457053E+04  0.25500000920E-02 0.  1.
</event>
<event>
 5   0  0.2661377E-04  0.1293384E+04  0.7818609E-02  0.9034829E-01
        2   -1    0    0  501    0  0.00000000000E+00  0.00000000000E+00  0.16446621147E+04  0.16446621147E+04  0.25500000920E-02 0.  1.
       -2   -1    0    0    0  501  0.00000000000E+00  0.00000000000E+00 -0.25428338163E+03  0.25428338164E+03  0.25500000920E-02 0. -1.
    10030    2    1    2    0    0  0.00000000000E+00  0.00000000000E+00  0.13903787331E+04  0.18989454963E+04  0.12933835381E+04 0.  0.
        5    1    3    3  502    0 -0.31611347465E+03 -0.23571757975E+03  0.14477010772E+04  0.15004502675E+04  0.46999998093E+01 0.  1.
       -5    1    3    3    0  502  0.31611347465E+03  0.23571757975E+03 -0.57322344156E+02  0.39849522883E+03  0.46999998093E+01 0. -1.
</event>
<event>
 5   0  0.2573071E-04  0.1299063E+04  0.7818609E-02  0.9030309E-01
       -2   -1    0    0    0  501  0.00000000000E+00  0.00000000000E+00  0.99316560276E+03  0.99316560276E+03  0.25500000920E-02 0.  1.
        2   -1    0    0  501    0  0.00000000000E+00  0.00000000000E+00 -0.42479438708E+03  0.42479438708E+03  0.25500000920E-02 0. -1.
    10030    2    1    2    0    0  0.00000000000E+00  0.00000000000E+00  0.56837121568E+03  0.14179599898E+04  0.12990630062E+04 0.  0.
        4    1    3    3  502    0 -0.93146313189E+02 -0.16039335797E+02 -0.41724657077E+03  0.42781983319E+03  0.12699999809E+01 0. -1.
       -4    1    3    3    0  502  0.93146313189E+02  0.16039335797E+02  0.98561778645E+03  0.99014015665E+03  0.12699999809E+01 0.  1.
</event>
<event>
 5   0  0.2573071E-04  0.1295137E+04  0.7818609E-02  0.9033430E-01
       -2   -1    0    0    0  501  0.00000000000E+00  0.00000000000E+00  0.26872230803E+03  0.26872230804E+03  0.25500000920E-02 0. -1.
        2   -1    0    0  501    0  0.00000000000E+00  0.00000000000E+00 -0.15605151050E+04  0.15605151050E+04  0.25500000920E-02 0.  1.
    10030    2    1    2    0    0  0.00000000000E+00  0.00000000000E+00 -0.12917927970E+04  0.18292374130E+04  0.12951373993E+04 0.  0.
        4    1    3    3  502    0  0.12370077610E+03  0.35268231075E+03 -0.13928042261E+04  0.14420790268E+04  0.12699999809E+01 0.  1.
       -4    1    3    3    0  502 -0.12370077610E+03 -0.35268231075E+03  0.10101142915E+03  0.38715838625E+03  0.12699999809E+01 0. -1.
</event>
<event>
 5   0  0.1408341E-04  0.1301034E+04  0.7818609E-02  0.9028745E-01
        1   -1    0    0  501    0  0.00000000000E+00  0.00000000000E+00  0.80125247632E+03  0.80125247633E+03  0.50400001928E-02 0. -1.
       -1   -1    0    0    0  501  0.00000000000E+00  0.00000000000E+00 -0.52813898421E+03  0.52813898423E+03  0.50400001928E-02 0.  1.
    10030    2    1    2    0    0  0.00000000000E+00  0.00000000000E+00  0.27311349211E+03  0.13293914606E+04  0.13010344637E+04 0.  0.
        5    1    3    3  502    0  0.29522089527E+03  0.24554050461E+03 -0.39996391890E+03  0.55447158883E+03  0.46999998093E+01 0.  1.
       -5    1    3    3    0  502 -0.29522089527E+03 -0.24554050461E+03  0.67307741100E+03  0.77491987173E+03  0.46999998093E+01 0. -1.
</event>
<event>
 5   0  0.1002887E-04  0.1297655E+04  0.7818609E-02  0.9031427E-01
       -3   -1    0    0    0  501  0.00000000000E+00  0.00000000000E+00  0.51252322468E+03  0.51252323463E+03  0.10100000352E+00 0.  1.
        3   -1    0    0  501    0  0.00000000000E+00  0.00000000000E+00 -0.82138103274E+03  0.82138103895E+03  0.10100000352E+00 0. -1.
    10030    2    1    2    0    0  0.00000000000E+00  0.00000000000E+00 -0.30885780806E+03  0.13339042736E+04  0.12976546018E+04 0.  0.
        2    1    3    3  502    0 -0.49356267836E+03  0.24368570247E+03  0.19866336079E+03  0.58519566812E+03  0.25500000920E-02 0.  1.
       -2    1    3    3    0  502  0.49356267836E+03 -0.24368570247E+03 -0.50752116885E+03  0.74870860546E+03  0.25500000920E-02 0. -1.
</event>
<event>
 5   0  0.1408341E-04  0.1302754E+04  0.7818609E-02  0.9027384E-01
       -1   -1    0    0    0  501  0.00000000000E+00  0.00000000000E+00  0.85845134856E+03  0.85845134857E+03  0.50400001928E-02 0.  1.
        1   -1    0    0  501    0  0.00000000000E+00  0.00000000000E+00 -0.49425284463E+03  0.49425284465E+03  0.50400001928E-02 0. -1.
    10030    2    1    2    0    0  0.00000000000E+00  0.00000000000E+00  0.36419850393E+03  0.13527041932E+04  0.13027540382E+04 0.  0.
        5    1    3    3  502    0  0.39050245214E+03  0.73565220227E+02  0.71799429637E+03  0.82063506285E+03  0.46999998093E+01 0.  1.
       -5    1    3    3    0  502 -0.39050245214E+03 -0.73565220227E+02 -0.35379579244E+03  0.53206913038E+03  0.46999998093E+01 0. -1.
</event>
<event>
 5   0  0.2573071E-04  0.1300444E+04  0.7818609E-02  0.9029213E-01
       -2   -1    0    0    0  501  0.00000000000E+00  0.00000000000E+00  0.72761636521E+03  0.72761636521E+03  0.25500000920E-02 0.  1.
        2   -1    0    0  501    0  0.00000000000E+00  0.00000000000E+00 -0.58105998697E+03  0.58105998697E+03  0.25500000920E-02 0. -1.
    10030    2    1    2    0    0  0.00000000000E+00  0.00000000000E+00  0.14655637824E+03  0.13086763522E+04  0.13004441637E+04 0.  0.
        4    1    3    3  502    0 -0.48400862093E+03  0.43265759184E+03  0.10998105506E+03  0.65844846593E+03  0.12699999809E+01 0. -1.
       -4    1    3    3    0  502  0.48400862093E+03 -0.43265759184E+03  0.36575323178E+02  0.65022788626E+03  0.12699999809E+01 0.  1.
</event>
<event>
 5   0  0.2661377E-04  0.1302692E+04  0.7818609E-02  0.9027433E-01
        2   -1    0    0  501    0  0.00000000000E+00  0.00000000000E+00  0.91689013239E+03  0.91689013239E+03  0.25500000920E-02 0.  1.
       -2   -1    0    0    0  501  0.00000000000E+00  0.00000000000E+00 -0.46270705209E+03  0.46270705210E+03  0.25500000920E-02 0. -1.
    10030    2    1    2    0    0  0.00000000000E+00  0.00000000000E+00  0.45418308029E+03  0.13795971845E+04  0.13026918749E+04 0.  0.
        5    1    3    3  502    0 -0.44872328101E+03  0.38114313022E+03  0.52211761668E+03  0.78692538673E+03  0.46999998093E+01 0.  1.
       -5    1    3    3    0  502  0.44872328101E+03 -0.38114313022E+03 -0.67934536384E+02  0.59267179776E+03  0.46999998093E+01 0. -1.
</event>
<event>
 5   0  0.1475396E-04  0.1291901E+04  0.7818609E-02  0.9036012E-01
       -1   -1    0    0    0  501  0.00000000000E+00  0.00000000000E+00  0.36949580954E+03  0.36949580957E+03  0.50400001928E-02 0.  1.
        1   -1    0    0  501    0  0.00000000000E+00  0.00000000000E+00 -0.11292475175E+04  0.11292475175E+04  0.50400001928E-02 0. -1.
    10030    2    1    2    0    0  0.00000000000E+00  0.00000000000E+00 -0.75975170798E+03  0.14987433271E+04  0.12919012744E+04 0.  0.
        3    1    3    3  502    0 -0.39076777347E+03 -0.42150675547E+03 -0.72183158225E+03  0.92271785559E+03  0.10100000352E+00 0.  1.
       -3    1    3    3    0  502  0.39076777347E+03  0.42150675547E+03 -0.37920125725E+02  0.57602547151E+03  0.10100000352E+00 0. -1.
</event>
<event>
 5   0  0.2573071E-04  0.1301159E+04  0.7818609E-02  0.9028647E-01
       -2   -1    0    0    0  501  0.00000000000E+00  0.00000000000E+00  0.26980195825E+03  0.26980195826E+03  0.25500000920E-02 0.  1.
        2   -1    0    0  501    0  0.00000000000E+00  0.00000000000E+00 -0.15687568900E+04  0.15687568900E+04  0.25500000920E-02 0. -1.
    10030    2    1    2    0    0  0.00000000000E+00  0.00000000000E+00 -0.12989549318E+04  0.18385588483E+04  0.13011589925E+04 0.  0.
        4    1    3    3  502    0 -0.57895194186E+01  0.24440235891E+03  0.20242727208E+03  0.31740265430E+03  0.12699999809E+01 0.  1.
       -4    1    3    3    0  502  0.57895194186E+01 -0.24440235891E+03 -0.15013822039E+04  0.15211561940E+04  0.12699999809E+01 0. -1.
</event>
<event>
 5   0  0.2794825E-04  0.1300571E+04  0.7818609E-02  0.9029112E-01
       -2   -1    0    0    0  501  0.00000000000E+00  0.00000000000E+00  0.32622684406E+03  0.32622684407E+03  0.25500000920E-02 0. -1.
        2   -1    0    0  501    0  0.00000000000E+00  0.00000000000E+00 -0.12962491402E+04  0.12962491402E+04  0.25500000920E-02 0.  1.
    10030    2    1    2    0    0  0.00000000000E+00  0.00000000000E+00 -0.97002229617E+03  0.16224759843E+04  0.13005710533E+04 0.  0.
        1    1    3    3  502    0  0.14718699939E+03  0.62497011275E+03 -0.35645332552E+03  0.73437771475E+03  0.50400001928E-02 0.  1.
       -1    1    3    3    0  502 -0.14718699939E+03 -0.62497011275E+03 -0.61356897065E+03  0.88809826956E+03  0.50400001928E-02 0. -1.
</event>
<event>
 5   0  0.1475396E-04  0.1300200E+04  0.7818609E-02  0.9029406E-01
       -1   -1    0    0    0  501  0.00000000000E+00  0.00000000000E+00  0.44374662701E+03  0.44374662703E+03  0.50400001928E-02 0. -1.
        1   -1    0    0  501    0  0.00000000000E+00  0.00000000000E+00 -0.95241317926E+03  0.95241317927E+03  0.50400001928E-02 0.  1.
    10030    2    1    2    0    0  0.00000000000E+00  0.00000000000E+00 -0.50866655225E+03  0.13961598063E+04  0.13002001936E+04 0.  0.
        3    1    3    3  502    0 -0.14715439101E+03 -0.58794199576E+03 -0.50684826258E+03  0.79007934833E+03  0.10100000352E+00 0.  1.
       -3    1    3    3    0  502  0.14715439101E+03  0.58794199576E+03 -0.18182896713E+01  0.60608045798E+03  0.10100000352E+00 0. -1.
</event>
<event>
 5   0  0.2756984E-04  0.1300078E+04  0.7818609E-02  0.9029503E-01
        2   -1    0    0  501    0  0.00000000000E+00  0.00000000000E+00  0.59536291303E+03  0.59536291303E+03  0.25500000920E-02 0. -1.
       -2   -1    0    0    0  501  0.00000000000E+00  0.00000000000E+00 -0.70973619437E+03  0.70973619437E+03  0.25500000920E-02 0.  1.
    10030    2    1    2    0    0  0.00000000000E+00  0.00000000000E+00 -0.11437328134E+03  0.13050991074E+04  0.13000778564E+04 0.  0.
        3    1    3    3  502    0  0.34894355577E+03 -0.32760285437E+03  0.38435914329E+03  0.61385437731E+03  0.10100000352E+00 0. -1.
       -3    1    3    3    0  502 -0.34894355577E+03  0.32760285437E+03 -0.49873242463E+03  0.69124473010E+03  0.10100000352E+00 0.  1.
</event>
<event>
 5   0  0.1475396E-04  0.1300713E+04  0.7818609E-02  0.9029000E-01
        1   -1    0    0  501    0  0.00000000000E+00  0.00000000000E+00  0.13351087732E+04  0.13351087732E+04  0.50400001928E-02 0. -1.
       -1   -1    0    0    0  501  0.00000000000E+00  0.00000000000E+00 -0.31680082411E+03  0.31680082415E+03  0.50400001928E-02 0.  1.
    10030    2    1    2    0    0  0.00000000000E+00  0.00000000000E+00  0.10183079491E+04  0.16519095974E+04  0.13007129732E+04 0.  0.
        3    1    3    3  502    0  0.52295493810E+03 -0.26654180065E+03  0.86483910441E+03  0.10452143730E+04  0.10100000352E+00 0. -1.
       -3    1    3    3    0  502 -0.52295493810E+03  0.26654180065E+03  0.15346884467E+03  0.60669522437E+03  0.10100000352E+00 0.  1.
</event>
<event>
 5   0  0.1408341E-04  0.1299783E+04  0.7818609E-02  0.9029737E-01
        1   -1    0    0  501    0  0.00000000000E+00  0.00000000000E+00  0.46543046817E+03  0.46543046819E+03  0.50400001928E-02 0.  1.
       -1   -1    0    0    0  501  0.00000000000E+00  0.00000000000E+00 -0.90745900734E+03  0.90745900735E+03  0.50400001928E-02 0. -1.
    10030    2    1    2    0    0  0.00000000000E+00  0.00000000000E+00 -0.44202853917E+03  0.13728894755E+04  0.12997831675E+04 0.  0.
        5    1    3    3  502    0  0.48534408684E+03 -0.30953451498E+03 -0.53958463018E+03  0.78901467776E+03  0.46999998093E+01 0.  1.
       -5    1    3    3    0  502 -0.48534408684E+03  0.30953451498E+03  0.97556091010E+02  0.58387479778E+03  0.46999998093E+01 0. -1.
</event>
<event>
 5   0  0.1479690E-04  0.1299932E+04  0.7818609E-02  0.9029619E-01
       -1   -1    0    0    0  501  0.00000000000E+00  0.00000000000E+00  0.61544052442E+03  0.61544052444E+03  0.50400001928E-02 0.  1.
        1   -1    0    0  501    0  0.00000000000E+00  0.00000000000E+00 -0.68642881838E+03  0.68642881840E+03  0.50400001928E-02 0. -1.
    10030    2    1    2    0    0  0.00000000000E+00  0.00000000000E+00 -0.70988293959E+02  0.13018693428E+04  0.12999324782E+04 0.  0.
        1    1    3    3  502    0 -0.64580406984E+03 -0.14222777159E+02  0.36661297488E+02  0.64700018143E+03  0.50400001928E-02 0. -1.
       -1    1    3    3    0  502  0.64580406984E+03  0.14222777159E+02 -0.10764959145E+03  0.65486916142E+03  0.50400001928E-02 0.  1.
</event>
<event>
 5   0  0.1479690E-04  0.1301340E+04  0.7818609E-02  0.9028503E-01
        1   -1    0    0  501    0  0.00000000000E+00  0.00000000000E+00  0.48375980813E+03  0.48375980816E+03  0.50400001928E-02 0.  1.
       -1   -1    0    0    0  501  0.00000000000E+00  0.00000000000E+00 -0.87516914855E+03  0.87516914857E+03  0.50400001928E-02 0. -1.
    10030    2    1    2    0    0  0.00000000000E+00  0.00000000000E+00 -0.39140934042E+03  0.13589289567E+04  0.13013403235E+04 0.  0.
        1    1    3    3  502    0  0.51331190922E+03  0.19213705625E+03  0.17047835063E+03  0.57399358236E+03  0.50400001928E-02 0.  1.
       -1    1    3    3    0  502 -0.51331190922E+03 -0.19213705625E+03 -0.56188769105E+03  0.78493537436E+03  0.50400001928E-02 0. -1.
</event>
<event>
 5   0  0.2756984E-04  0.1301752E+04  0.7818609E-02  0.9028177E-01
       -2   -1    0    0    0  501  0.00000000000E+00  0.00000000000E+00  0.38693550511E+03  0.38693550512E+03  0.25500000920E-02 0. -1.
        2   -1    0    0  501    0  0.00000000000E+00  0.00000000000E+00 -0.10948585496E+04  0.10948585496E+04  0.25500000920E-02 0.  1.
    10030    2    1    2    0    0  0.00000000000E+00  0.00000000000E+00 -0.70792304450E+03  0.14817940547E+04  0.13017521207E+04 0.  0.
        3    1    3    3  502    0  0.13081143301E+03 -0.28095967492E+03 -0.10054768696E+04  0.10521566972E+04  0.10100000352E+00 0.  1.
       -3    1    3    3    0  502 -0.13081143301E+03  0.28095967492E+03  0.29755382511E+03  0.42963735752E+03  0.10100000352E+00 0. -1.
</event>
<event>
 5   0  0.1479690E-04  0.1289163E+04  0.7818609E-02  0.9038203E-01
        1   -1    0    0  501    0  0.00000000000E+00  0.00000000000E+00  0.66838549499E+03  0.66838549501E+03  0.50400001928E-02 0. -1.
       -1   -1    0    0    0  501  0.00000000000E+00  0.00000000000E+00 -0.62162541739E+03  0.62162541741E+03  0.50400001928E-02 0.  1.
    10030    2    1    2    0    0  0.00000000000E+00  0.00000000000E+00  0.46760077595E+02  0.12900109124E+04  0.12891631585E+04 0.  0.
        1    1    3    3  502    0 -0.34143399822E+03 -0.33100868912E+03  0.45880005297E+03  0.66078848056E+03  0.50400001928E-02 0. -1.
       -1    1    3    3    0  502  0.34143399822E+03  0.33100868912E+03 -0.41203997538E+03  0.62922243185E+03  0.50400001928E-02 0.  1.
</event>
<event>
 5   0  0.1476511E-04  0.1303286E+04  0.7818609E-02  0.9026963E-01
       -1   -1    0    0    0  501  0.00000000000E+00  0.00000000000E+00  0.46682044425E+03  0.46682044428E+03  0.50400001928E-02 0.  1.
        1   -1    0    0  501    0  0.00000000000E+00  0.00000000000E+00 -0.90963991379E+03  0.90963991380E+03  0.50400001928E-02 0. -1.
    10030    2    1    2    0    0  0.00000000000E+00  0.00000000000E+00 -0.44281946953E+03  0.13764603581E+04  0.13032858607E+04 0.  0.
        2    1    3    3  502    0  0.24424266438E+03 -0.37291742887E+03 -0.72340326085E+03  0.84972593562E+03  0.25500000920E-02 0. -1.
       -2    1    3    3    0  502 -0.24424266438E+03  0.37291742887E+03  0.28058379131E+03  0.52673442247E+03  0.25500000920E-02 0.  1.
</event>
<event>
 5   0  0.1408341E-04  0.1305394E+04  0.7818609E-02  0.9025299E-01
        1   -1    0    0  501    0  0.00000000000E+00  0.00000000000E+00  0.70743167177E+03  0.70743167179E+03  0.50400001928E-02 0. -1.
       -1   -1    0    0    0  501  0.00000000000E+00  0.00000000000E+00 -0.60219692218E+03  0.60219692220E+03  0.50400001928E-02 0.  1.
    10030    2    1    2    0    0  0.00000000000E+00  0.00000000000E+00  0.10523474959E+03  0.13096285940E+04  0.13053936961E+04 0.  0.
        5    1    3    3  502    0 -0.58448569729E+03 -0.10123874844E+03 -0.22051254502E+03  0.63286703741E+03  0.46999998093E+01 0.  1.
       -5    1    3    3    0  502  0.58448569729E+03  0.10123874844E+03  0.32574729461E+03  0.67676155659E+03  0.46999998093E+01 0. -1.
</event>
<event>
 5   0  0.2794825E-04  0.1304381E+04  0.7818609E-02  0.9026098E-01
       -2   -1    0    0    0  501  0.00000000000E+00  0.00000000000E+00  0.55584987200E+03  0.55584987201E+03  0.25500000920E-02 0.  1.
        2   -1    0    0  501    0  0.00000000000E+00  0.00000000000E+00 -0.76522873951E+03  0.76522873952E+03  0.25500000920E-02 0. -1.
    10030    2    1    2    0    0  0.00000000000E+00  0.00000000000E+00 -0.20937886751E+03  0.13210786115E+04  0.13043807679E+04 0.  0.
        1    1    3    3  502    0  0.49595020417E+03 -0.39983271140E+02 -0.53173509305E+03  0.72822213382E+03  0.50400001928E-02 0. -1.
       -1    1    3    3    0  502 -0.49595020417E+03  0.39983271140E+02  0.32235622554E+03  0.59285647770E+03  0.50400001928E-02 0.  1.
</event>
<event>
 5   0  0.2756984E-04  0.1306120E+04  0.7818609E-02  0.9024726E-01
        2   -1    0    0  501    0  0.00000000000E+00  0.00000000000E+00  0.24451493860E+04  0.24451493860E+04  0.25500000920E-02 0.  1.
       -2   -1    0    0    0  501  0.00000000000E+00  0.00000000000E+00 -0.17442167768E+03  0.17442167769E+03  0.25500000920E-02 0. -1.
    10030    2    1    2    0    0  0.00000000000E+00  0.00000000000E+00  0.22707277083E+04  0.26195710637E+04  0.13061195322E+04 0.  0.
        3    1    3    3  502    0  0.34559575955E+03  0.12148291993E+03  0.51047244368E+02  0.36986532713E+03  0.10100000352E+00 0. -1.
       -3    1    3    3    0  502 -0.34559575955E+03 -0.12148291993E+03  0.22196804639E+04  0.22497057365E+04  0.10100000352E+00 0.  1.
</event>
<event>
 5   0  0.1430636E-04  0.1299294E+04  0.7818609E-02  0.9030125E-01
        1   -1    0    0  501    0  0.00000000000E+00  0.00000000000E+00  0.69238347015E+03  0.69238347017E+03  0.50400001928E-02 0. -1.
       -1   -1    0    0    0  501  0.00000000000E+00  0.00000000000E+00 -0.60954855016E+03  0.60954855018E+03  0.50400001928E-02 0.  1.
    10030    2    1    2    0    0  0.00000000000E+00  0.00000000000E+00  0.82834919985E+02  0.13019320203E+04  0.12992941783E+04 0.  0.
        4    1    3    3  502    0 -0.42664280200E+02 -0.35527053182E+03 -0.50190318349E+03  0.61639744490E+03  0.12699999809E+01 0.  1.
       -4    1    3    3    0  502  0.42664280200E+02  0.35527053182E+03  0.58473810347E+03  0.68553457545E+03  0.12699999809E+01 0. -1.
</event>
<event>
 5   0  0.1476511E-04  0.1296996E+04  0.7818609E-02  0.9031951E-01
       -1   -1    0    0    0  501  0.00000000000E+00  0.00000000000E+00  0.21251838056E+03  0.21251838062E+03  0.50400001928E-02 0. -1.
        1   -1    0    0  501    0  0.00000000000E+00  0.00000000000E+00 -0.19788859988E+04  0.19788859988E+04  0.50400001928E-02 0.  1.
    10030    2    1    2    0    0  0.00000000000E+00  0.00000000000E+00 -0.17663676182E+04  0.21914043794E+04  0.12969959874E+04 0.  0.
        2    1    3    3  502    0 -0.37679392062E+03 -0.29904446065E+03 -0.16180110174E+04  0.16880050061E+04  0.25500000920E-02 0. -1.
       -2    1    3    3    0  502  0.37679392062E+03  0.29904446065E+03 -0.14835660080E+03  0.50339937333E+03  0.25500000920E-02 0.  1.
</event>
<event>
 5   0  0.1430636E-04  0.1303428E+04  0.7818609E-02  0.9026851E-01
       -1   -1    0    0    0  501  0.00000000000E+00  0.00000000000E+00  0.51331908919E+03  0.51331908922E+03  0.50400001928E-02 0. -1.
        1   -1    0    0  501    0  0.00000000000E+00  0.00000000000E+00 -0.82742099402E+03  0.82742099404E+03  0.50400001928E-02 0.  1.
    10030    2    1    2    0    0  0.00000000000E+00  0.00000000000E+00 -0.31410190483E+03  0.13407400833E+04  0.13034277748E+04 0.  0.
        4    1    3    3  502    0  0.30985901513E+03  0.55343404339E+03 -0.30056954175E+01  0.63428108654E+03  0.12699999809E+01 0. -1.
       -4    1    3    3    0  502 -0.30985901513E+03 -0.55343404339E+03 -0.31109620941E+03  0.70645899672E+03  0.12699999809E+01 0.  1.
</event>
<event>
 5   0  0.1479690E-04  0.1296483E+04  0.7818609E-02  0.9032359E-01
        1   -1    0    0  501    0  0.00000000000E+00  0.00000000000E+00  0.75137165086E+03  0.75137165088E+03  0.50400001928E-02 0.  1.
       -1   -1    0    0    0  501  0.00000000000E+00  0.00000000000E+00 -0.55926648835E+03  0.55926648838E+03  0.50400001928E-02 0. -1.
    10030    2    1    2    0    0  0.00000000000E+00  0.00000000000E+00  0.19210516251E+03  0.13106381393E+04  0.12964829110E+04 0.  0.
        1    1    3    3  502    0  0.49840603146E+03 -0.41444480106E+03  0.89353060131E+02  0.65433709562E+03  0.50400001928E-02 0. -1.
       -1    1    3    3    0  502 -0.49840603146E+03  0.41444480106E+03  0.10275210238E+03  0.65630104364E+03  0.50400001928E-02 0.  1.
</event>
<event>
 5   0  0.1002887E-04  0.1299380E+04  0.7818609E-02  0.9030057E-01
        3   -1    0    0  501    0  0.00000000000E+00  0.00000000000E+00  0.39659635928E+03  0.39659637214E+03  0.10100000352E+00 0.  1.
       -3   -1    0    0    0  501  0.00000000000E+00  0.00000000000E+00 -0.10642987023E+04  0.10642987071E+04  0.10100000352E+00 0. -1.
    10030    2    1    2    0    0  0.00000000000E+00  0.00000000000E+00 -0.66770234299E+03  0.14608950792E+04  0.12993798573E+04 0.  0.
        1    1    3    3  502    0 -0.15563742288E+03  0.36677336264E+03  0.24311536657E+03  0.46674488581E+03  0.50400001928E-02 0.  1.
       -1    1    3    3    0  502  0.15563742288E+03 -0.36677336264E+03 -0.91081770955E+03  0.99415019338E+03  0.50400001928E-02 0. -1.
</event>
<event>
 5   0  0.1479690E-04  0.1295593E+04  0.7818609E-02  0.9033068E-01
       -1   -1    0    0    0  501  0.00000000000E+00  0.00000000000E+00  0.31404510452E+03  0.31404510456E+03  0.50400001928E-02 0. -1.
        1   -1    0    0  501    0  0.00000000000E+00  0.00000000000E+00 -0.13362411490E+04  0.13362411491E+04  0.50400001928E-02 0.  1.
    10030    2    1    2    0    0  0.00000000000E+00  0.00000000000E+00 -0.10221960445E+04  0.16502862536E+04  0.12955925152E+04 0.  0.
        1    1    3    3  502    0  0.21147130896E+03 -0.13952270848E+03  0.24832213658E+03  0.35475425894E+03  0.50400001928E-02 0. -1.
       -1    1    3    3    0  502 -0.21147130896E+03  0.13952270848E+03 -0.12705181811E+04  0.12955319947E+04  0.50400001928E-02 0.  1.
</event>
<event>
 5   0  0.2573071E-04  0.1296134E+04  0.7818609E-02  0.9032636E-01
        2   -1    0    0  501    0  0.00000000000E+00  0.00000000000E+00  0.87912052526E+03  0.87912052527E+03  0.25500000920E-02 0.  1.
       -2   -1    0    0    0  501  0.00000000000E+00  0.00000000000E+00 -0.47774005101E+03  0.47774005102E+03  0.25500000920E-02 0. -1.
    10030    2    1    2    0    0  0.00000000000E+00  0.00000000000E+00  0.40138047425E+03  0.13568605763E+04  0.12961343828E+04 0.  0.
        4    1    3    3  502    0 -0.29872464657E+03 -0.57437152054E+03  0.17016210046E+03  0.66939959023E+03  0.12699999809E+01 0.  1.
       -4    1    3    3    0  502  0.29872464657E+03  0.57437152054E+03  0.23121837380E+03  0.68746098606E+03  0.12699999809E+01 0. -1.
</event>
<event>
 5   0  0.2573071E-04  0.1299395E+04  0.7818609E-02  0.9030045E-01
        2   -1    0    0  501    0  0.00000000000E+00  0.00000000000E+00  0.10134981276E+04  0.10134981276E+04  0.25500000920E-02 0. -1.
       -2   -1    0    0    0  501  0.00000000000E+00  0.00000000000E+00 -0.41648494236E+03  0.41648494237E+03  0.25500000920E-02 0.  1.
    10030    2    1    2    0    0  0.00000000000E+00  0.00000000000E+00  0.59701318524E+03  0.14299830700E+04  0.12993947965E+04 0.  0.
        4    1    3    3  502    0 -0.23964349156E+03  0.54453745184E+03  0.11204483161E+02  0.59504385792E+03  0.12699999809E+01 0.  1.
       -4    1    3    3    0  502  0.23964349156E+03 -0.54453745184E+03  0.58580870208E+03  0.83493921206E+03  0.12699999809E+01 0. -1.
</event>
<event>
 5   0  0.1479690E-04  0.1301105E+04  0.7818609E-02  0.9028689E-01
       -1   -1    0    0    0  501  0.00000000000E+00  0.00000000000E+00  0.88028995014E+03  0.88028995016E+03  0.50400001928E-02 0.  1.
        1   -1    0    0  501    0  0.00000000000E+00  0.00000000000E+00 -0.48077179634E+03  0.48077179637E+03  0.50400001928E-02 0. -1.
    10030    2    1    2    0    0  0.00000000000E+00  0.00000000000E+00  0.39951815380E+03  0.13610617465E+04  0.13011050390E+04 0.  0.
        1    1    3    3  502    0 -0.44568713425E+03 -0.46421171100E+02 -0.29359516189E+03  0.53571453767E+03  0.50400001928E-02 0. -1.
       -1    1    3    3    0  502  0.44568713425E+03  0.46421171100E+02  0.69311331569E+03  0.82534720886E+03  0.50400001928E-02 0.  1.
</event>
<event>
 5   0  0.1430636E-04  0.1295784E+04  0.7818609E-02  0.9032915E-01
        1   -1    0    0  501    0  0.00000000000E+00  0.00000000000E+00  0.15338514109E+04  0.15338514110E+04  0.50400001928E-02 0.  1.
       -1   -1    0    0    0  501  0.00000000000E+00  0.00000000000E+00 -0.27366689337E+03  0.27366689341E+03  0.50400001928E-02 0. -1.
    10030    2    1    2    0    0  0.00000000000E+00  0.00000000000E+00  0.12601845176E+04  0.18075183044E+04  0.12957844737E+04 0.  0.
        4    1    3    3  502    0 -0.68807557989E+02  0.60108309584E+03  0.30676097902E+03  0.67833566860E+03  0.12699999809E+01 0. -1.
       -4    1    3    3    0  502  0.68807557989E+02 -0.60108309584E+03  0.95342353856E+03  0.11291826358E+04  0.12699999809E+01 0.  1.
</event>
<event>
 5   0  0.2573071E-04  0.1299658E+04  0.7818609E-02  0.9029837E-01
       -2   -1    0    0    0  501  0.00000000000E+00  0.00000000000E+00  0.49537146062E+03  0.49537146063E+03  0.25500000920E-02 0.  1.
        2   -1    0    0  501    0  0.00000000000E+00  0.00000000000E+00 -0.85244611648E+03  0.85244611648E+03  0.25500000920E-02 0. -1.
    10030    2    1    2    0    0  0.00000000000E+00  0.00000000000E+00 -0.35707465586E+03  0.13478175771E+04  0.12996576131E+04 0.  0.
        4    1    3    3  502    0 -0.22730918939E+03  0.59617254285E+03 -0.50744871380E+02  0.64005298476E+03  0.12699999809E+01 0.  1.
       -4    1    3    3    0  502  0.22730918939E+03 -0.59617254285E+03 -0.30632978448E+03  0.70776459235E+03  0.12699999809E+01 0. -1.
</event>
<event>
 5   0  0.2573071E-04  0.1306898E+04  0.7818609E-02  0.9024113E-01
        2   -1    0    0  501    0  0.00000000000E+00  0.00000000000E+00  0.27382945713E+04  0.27382945713E+04  0.25500000920E-02 0.  1.
       -2   -1    0    0    0  501  0.00000000000E+00  0.00000000000E+00 -0.15593484551E+03  0.15593484553E+03  0.25500000920E-02 0. -1.
    10030    2    1    2    0    0  0.00000000000E+00  0.00000000000E+00  0.25823597258E+04  0.28942294169E+04  0.13068979164E+04 0.  0.
        4    1    3    3  502    0  0.12583334917E+03 -0.37109856846E+03  0.24492287026E+04  0.24803771950E+04  0.12699999809E+01 0.  1.
       -4    1    3    3    0  502 -0.12583334917E+03  0.37109856846E+03  0.13313102328E+03  0.41385222185E+03  0.12699999809E+01 0. -1.
</event>
<event>
 5   0  0.2661377E-04  0.1302529E+04  0.7818609E-02  0.9027562E-01
        2   -1    0    0  501    0  0.00000000000E+00  0.00000000000E+00  0.95470649255E+03  0.95470649255E+03  0.25500000920E-02 0.  1.
       -2   -1    0    0    0  501  0.00000000000E+00  0.00000000000E+00 -0.44426798213E+03  0.44426798214E+03  0.25500000920E-02 0. -1.
    10030    2    1    2    0    0  0.00000000000E+00  0.00000000000E+00  0.51043851042E+03  0.13989744747E+04  0.13025291198E+04 0.  0.
        5    1    3    3  502    0  0.56958293462E+03  0.30611093620E+03  0.33837842486E+03  0.72982920816E+03  0.46999998093E+01 0. -1.
       -5    1    3    3    0  502 -0.56958293462E+03 -0.30611093620E+03  0.17206008556E+03  0.66914526653E+03  0.46999998093E+01 0.  1.
</event>
<event>
 5   0  0.2794825E-04  0.1300861E+04  0.7818609E-02  0.9028883E-01
        2   -1    0    0  501    0  0.00000000000E+00  0.00000000000E+00  0.12936768766E+04  0.12936768766E+04  0.25500000920E-02 0. -1.
       -2   -1    0    0    0  501  0.00000000000E+00  0.00000000000E+00 -0.32702132523E+03  0.32702132524E+03  0.25500000920E-02 0.  1.
    10030    2    1    2    0    0  0.00000000000E+00  0.00000000000E+00  0.96665555135E+03  0.16206982018E+04  0.13008611403E+04 0.  0.
        1    1    3    3  502    0 -0.18866674221E+03 -0.33116598632E+03  0.11399756517E+04  0.12020027190E+04  0.50400001928E-02 0. -1.
       -1    1    3    3    0  502  0.18866674221E+03  0.33116598632E+03 -0.17332010032E+03  0.41869548280E+03  0.50400001928E-02 0.  1.
</event>
<event>
 5   0  0.1408341E-04  0.1299343E+04  0.7818609E-02  0.9030086E-01
       -1   -1    0    0    0  501  0.00000000000E+00  0.00000000000E+00  0.63143421268E+03  0.63143421270E+03  0.50400001928E-02 0. -1.
        1   -1    0    0  501    0  0.00000000000E+00  0.00000000000E+00 -0.66843559073E+03  0.66843559075E+03  0.50400001928E-02 0.  1.
    10030    2    1    2    0    0  0.00000000000E+00  0.00000000000E+00 -0.37001378051E+02  0.12998698035E+04  0.12993430663E+04 0.  0.
        5    1    3    3  502    0  0.49035519204E+03  0.29429121522E+02  0.40680307286E+03  0.63782843903E+03  0.46999998093E+01 0.  1.
       -5    1    3    3    0  502 -0.49035519204E+03 -0.29429121522E+02 -0.44380445091E+03  0.66204136442E+03  0.46999998093E+01 0. -1.
</event>
<event>
 5   0  0.2661377E-04  0.1302802E+04  0.7818609E-02  0.9027346E-01
        2   -1    0    0  501    0  0.00000000000E+00  0.00000000000E+00  0.43312868684E+03  0.43312868685E+03  0.25500000920E-02 0.  1.
       -2   -1    0    0    0  501  0.00000000000E+00  0.00000000000E+00 -0.97967068267E+03  0.97967068267E+03  0.25500000920E-02 0. -1.
    10030    2    1    2    0    0  0.00000000000E+00  0.00000000000E+00 -0.54654199583E+03  0.14127993695E+04  0.13028023278E+04 0.  0.
        5    1    3    3  502    0 -0.39151532609E+03 -0.35093808836E+03  0.14372003999E+03  0.54508653654E+03  0.46999998093E+01 0.  1.
       -5    1    3    3    0  502  0.39151532609E+03  0.35093808836E+03 -0.69026203582E+03  0.86771283298E+03  0.46999998093E+01 0. -1.
</event>
<event>
 5   0  0.1476511E-04  0.1297322E+04  0.7818609E-02  0.9031691E-01
        1   -1    0    0  501    0  0.00000000000E+00  0.00000000000E+00  0.58807868833E+03  0.58807868835E+03  0.50400001928E-02 0. -1.
       -1   -1    0    0    0  501  0.00000000000E+00  0.00000000000E+00 -0.71548476782E+03  0.71548476784E+03  0.50400001928E-02 0.  1.
    10030    2    1    2    0    0  0.00000000000E+00  0.00000000000E+00 -0.12740607949E+03  0.13035634562E+04  0.12973223868E+04 0.  0.
        2    1    3    3  502    0  0.13545299225E+03  0.43492844211E+03  0.40030967940E+03  0.60643062447E+03  0.25500000920E-02 0. -1.
       -2    1    3    3    0  502 -0.13545299225E+03 -0.43492844211E+03 -0.52771575890E+03  0.69713283172E+03  0.25500000920E-02 0.  1.
</event>
<event>
 5   0  0.2661377E-04  0.1298382E+04  0.7818609E-02  0.9030849E-01
        2   -1    0    0  501    0  0.00000000000E+00  0.00000000000E+00  0.74192407290E+03  0.74192407290E+03  0.25500000920E-02 0. -1.
       -2   -1    0    0    0  501  0.00000000000E+00  0.00000000000E+00 -0.56804887300E+03  0.56804887301E+03  0.25500000920E-02 0.  1.
    10030    2    1    2    0    0  0.00000000000E+00  0.00000000000E+00  0.17387519990E+03  0.13099729459E+04  0.12983822757E+04 0.  0.
        5    1    3    3  502    0 -0.16758341487E+03  0.10490926039E+03  0.71079143563E+03  0.73779177876E+03  0.46999998093E+01 0. -1.
       -5    1    3    3    0  502  0.16758341487E+03 -0.10490926039E+03 -0.53691623573E+03  0.57218116715E+03  0.46999998093E+01 0.  1.
</event>
<event>
 5   0  0.1475396E-04  0.1298968E+04  0.7818609E-02  0.9030384E-01
        1   -1    0    0  501    0  0.00000000000E+00  0.00000000000E+00  0.65029427152E+03  0.65029427154E+03  0.50400001928E-02 0. -1.
       -1   -1    0    0    0  501  0.00000000000E+00  0.00000000000E+00 -0.64867473310E+03  0.64867473312E+03  0.50400001928E-02 0.  1.
    10030    2    1    2    0    0  0.00000000000E+00  0.00000000000E+00  0.16195384171E+01  0.12989690047E+04  0.12989679951E+04 0.  0.
        3    1    3    3  502    0  0.25941650021E+03  0.10095645510E+03  0.58761541140E+03  0.65021612432E+03  0.10100000352E+00 0. -1.
       -3    1    3    3    0  502 -0.25941650021E+03 -0.10095645510E+03 -0.58599587298E+03  0.64875288035E+03  0.10100000352E+00 0.  1.
</event>
<event>
 5   0  0.1430636E-04  0.1295560E+04  0.7818609E-02  0.9033094E-01
        1   -1    0    0  501    0  0.00000000000E+00  0.00000000000E+00  0.15231163840E+04  0.15231163841E+04  0.50400001928E-02 0.  1.
       -1   -1    0    0    0  501  0.00000000000E+00  0.00000000000E+00 -0.27550007162E+03  0.27550007167E+03  0.50400001928E-02 0. -1.
    10030    2    1    2    0    0  0.00000000000E+00  0.00000000000E+00  0.12476163124E+04  0.17986164557E+04  0.12955596056E+04 0.  0.
        4    1    3    3  502    0 -0.46994686300E+03 -0.44524348363E+03  0.65562540765E+03  0.92137837060E+03  0.12699999809E+01 0.  1.
       -4    1    3    3    0  502  0.46994686300E+03  0.44524348363E+03  0.59199090477E+03  0.87723808512E+03  0.12699999809E+01 0. -1.
</event>
<event>
 5   0  0.1475396E-04  0.1301844E+04  0.7818609E-02  0.9028104E-01
        1   -1    0    0  501    0  0.00000000000E+00  0.00000000000E+00  0.11059274942E+04  0.11059274942E+04  0.50400001928E-02 0.  1.
       -1   -1    0    0    0  501  0.00000000000E+00  0.00000000000E+00 -0.38311657351E+03  0.38311657355E+03  0.50400001928E-02 0. -1.
    10030    2    1    2    0    0  0.00000000000E+00  0.00000000000E+00  0.72281092070E+03  0.14890440678E+04  0.13018435423E+04 0.  0.
        3    1    3    3  502    0  0.51519563397E+03  0.29099571265E+03  0.51113698852E+02  0.59390038429E+03  0.10100000352E+00 0.  1.
       -3    1    3    3    0  502 -0.51519563397E+03 -0.29099571265E+03  0.67169722184E+03  0.89514368348E+03  0.10100000352E+00 0. -1.
</event>
<event>
 5   0  0.1475396E-04  0.1304299E+04  0.7818609E-02  0.9026163E-01
        1   -1    0    0  501    0  0.00000000000E+00  0.00000000000E+00  0.85256177358E+03  0.85256177360E+03  0.50400001928E-02 0. -1.
       -1   -1    0    0    0  501  0.00000000000E+00  0.00000000000E+00 -0.49884825263E+03  0.49884825266E+03  0.50400001928E-02 0.  1.
    10030    2    1    2    0    0  0.00000000000E+00  0.00000000000E+00  0.35371352095E+03  0.13514100263E+04  0.13042989704E+04 0.  0.
        3    1    3    3  502    0  0.12934438234E+02  0.17347037259E+03 -0.47436715427E+03  0.50525585311E+03  0.10100000352E+00 0.  1.
       -3    1    3    3    0  502 -0.12934438234E+02 -0.17347037259E+03  0.82808067522E+03  0.84615417314E+03  0.10100000352E+00 0. -1.
</event>
<event>
 5   0  0.2723209E-04  0.1300597E+04  0.7818609E-02  0.9029092E-01
        2   -1    0    0  501    0  0.00000000000E+00  0.00000000000E+00  0.22437537150E+04  0.22437537150E+04  0.25500000920E-02 0. -1.
       -2   -1    0    0    0  501  0.00000000000E+00  0.00000000000E+00 -0.18847359561E+03  0.18847359563E+03  0.25500000920E-02 0.  1.
    10030    2    1    2    0    0  0.00000000000E+00  0.00000000000E+00  0.20552801194E+04  0.24322273106E+04  0.13005972941E+04 0.  0.
        2    1    3    3  502    0 -0.91902142299E+02  0.36136005646E+03  0.31284474913E+02  0.37417350593E+03  0.25500000920E-02 0.  1.
       -2    1    3    3    0  502  0.91902142299E+02 -0.36136005646E+03  0.20239956445E+04  0.20580538047E+04  0.25500000920E-02 0. -1.
</event>
<event>
 5   0  0.1408341E-04  0.1303158E+04  0.7818609E-02  0.9027064E-01
       -1   -1    0    0    0  501  0.00000000000E+00  0.00000000000E+00  0.68908243082E+03  0.68908243084E+03  0.50400001928E-02 0. -1.
        1   -1    0    0  501    0  0.00000000000E+00  0.00000000000E+00 -0.61611706172E+03  0.61611706174E+03  0.50400001928E-02 0.  1.
    10030    2    1    2    0    0  0.00000000000E+00  0.00000000000E+00  0.72965369098E+02  0.13051994926E+04  0.13031583827E+04 0.  0.
        5    1    3    3  502    0 -0.63959825003E+03  0.58652609433E+01 -0.87860991945E+02  0.64564848535E+03  0.46999998093E+01 0.  1.
       -5    1    3    3    0  502  0.63959825003E+03 -0.58652609433E+01  0.16082636104E+03  0.65955100723E+03  0.46999998093E+01 0. -1.
</event>
<event>
 5   0  0.1476511E-04  0.1303106E+04  0.7818609E-02  0.9027106E-01
       -1   -1    0    0    0  501  0.00000000000E+00  0.00000000000E+00  0.83275755289E+03  0.83275755291E+03  0.50400001928E-02 0. -1.
        1   -1    0    0  501    0  0.00000000000E+00  0.00000000000E+00 -0.50977792850E+03  0.50977792853E+03  0.50400001928E-02 0.  1.
    10030    2    1    2    0    0  0.00000000000E+00  0.00000000000E+00  0.32297962439E+03  0.13425354814E+04  0.13031061665E+04 0.  0.
        2    1    3    3  502    0  0.45778345438E+03  0.45519866440E+03  0.70792552676E+02  0.64944830487E+03  0.25500000920E-02 0. -1.
       -2    1    3    3    0  502 -0.45778345438E+03 -0.45519866440E+03  0.25218707171E+03  0.69308717656E+03  0.25500000920E-02 0.  1.
</event>
<event>
 5   0  0.1475396E-04  0.1299417E+04  0.7818609E-02  0.9030028E-01
        1   -1    0    0  501    0  0.00000000000E+00  0.00000000000E+00  0.63960952389E+03  0.63960952391E+03  0.50400001928E-02 0. -1.
       -1   -1    0    0    0  501  0.00000000000E+00  0.00000000000E+00 -0.65996695306E+03  0.65996695308E+03  0.50400001928E-02 0.  1.
    10030    2    1    2    0    0  0.00000000000E+00  0.00000000000E+00 -0.20357429168E+02  0.12995764770E+04  0.12994170211E+04 0.  0.
        3    1    3    3  502    0 -0.45483348614E+03 -0.30524438464E+03 -0.35961177818E+03  0.65526199011E+03  0.10100000352E+00 0.  1.
       -3    1    3    3    0  502  0.45483348614E+03  0.30524438464E+03  0.33925434902E+03  0.64431448688E+03  0.10100000352E+00 0. -1.
</event>
<event>
 5   0  0.2794825E-04  0.1300454E+04  0.7818609E-02  0.9029205E-01
       -2   -1    0    0    0  501  0.00000000000E+00  0.00000000000E+00  0.36529570776E+03  0.36529570777E+03  0.25500000920E-02 0.  1.
        2   -1    0    0  501    0  0.00000000000E+00  0.00000000000E+00 -0.11574058712E+04  0.11574058712E+04  0.25500000920E-02 0. -1.
    10030    2    1    2    0    0  0.00000000000E+00  0.00000000000E+00 -0.79211016341E+03  0.15227015789E+04  0.13004543773E+04 0.  0.
        1    1    3    3  502    0 -0.31004610299E+03 -0.37088903320E+03 -0.90523912352E+03  0.10262285962E+04  0.50400001928E-02 0. -1.
       -1    1    3    3    0  502  0.31004610299E+03  0.37088903320E+03  0.11312896011E+03  0.49647298272E+03  0.50400001928E-02 0.  1.
</event>
<event>
 5   0  0.2723209E-04  0.1309698E+04  0.7818609E-02  0.9021909E-01
       -2   -1    0    0    0  501  0.00000000000E+00  0.00000000000E+00  0.37977168255E+03  0.37977168256E+03  0.25500000920E-02 0.  1.
        2   -1    0    0  501    0  0.00000000000E+00  0.00000000000E+00 -0.11291719665E+04  0.11291719665E+04  0.25500000920E-02 0. -1.
    10030    2    1    2    0    0  0.00000000000E+00  0.00000000000E+00 -0.74940028391E+03  0.15089436490E+04  0.13096984960E+04 0.  0.
        2    1    3    3  502    0 -0.55008460810E+03  0.10188755938E+03  0.17453325830E+02  0.55971311349E+03  0.25500000920E-02 0.  1.
       -2    1    3    3    0  502  0.55008460810E+03 -0.10188755938E+03 -0.76685360974E+03  0.94923053554E+03  0.25500000920E-02 0. -1.
</event>
<event>
 5   0  0.1475396E-04  0.1302329E+04  0.7818609E-02  0.9027720E-01
        1   -1    0    0  501    0  0.00000000000E+00  0.00000000000E+00  0.83985156445E+03  0.83985156446E+03  0.50400001928E-02 0.  1.
       -1   -1    0    0    0  501  0.00000000000E+00  0.00000000000E+00 -0.50486943733E+03  0.50486943735E+03  0.50400001928E-02 0. -1.
    10030    2    1    2    0    0  0.00000000000E+00  0.00000000000E+00  0.33498212712E+03  0.13447210018E+04  0.13023292776E+04 0.  0.
        3    1    3    3  502    0  0.32033459110E+03 -0.25060231256E+03  0.69257086728E+03  0.80316261474E+03  0.10100000352E+00 0.  1.
       -3    1    3    3    0  502 -0.32033459110E+03  0.25060231256E+03 -0.35758874016E+03  0.54155838707E+03  0.10100000352E+00 0. -1.
</event>
<event>
 5   0  0.2794825E-04  0.1305098E+04  0.7818609E-02  0.9025532E-01
       -2   -1    0    0    0  501  0.00000000000E+00  0.00000000000E+00  0.10547008801E+04  0.10547008801E+04  0.25500000920E-02 0.  1.
        2   -1    0    0  501    0  0.00000000000E+00  0.00000000000E+00 -0.40373578555E+03  0.40373578556E+03  0.25500000920E-02 0. -1.
    10030    2    1    2    0    0  0.00000000000E+00  0.00000000000E+00  0.65096509459E+03  0.14584366657E+04  0.13050984459E+04 0.  0.
        1    1    3    3  502    0  0.56080582722E+03 -0.33297296056E+03  0.34909099821E+03  0.73975583362E+03  0.50400001928E-02 0. -1.
       -1    1    3    3    0  502 -0.56080582722E+03  0.33297296056E+03  0.30187409638E+03  0.71868083208E+03  0.50400001928E-02 0.  1.
</event>
<event>
 5   0  0.1479690E-04  0.1302299E+04  0.7818609E-02  0.9027744E-01
       -1   -1    0    0    0  501  0.00000000000E+00  0.00000000000E+00  0.93872036994E+03  0.93872036996E+03  0.50400001928E-02 0.  1.
        1   -1    0    0  501    0  0.00000000000E+00  0.00000000000E+00 -0.45167388337E+03  0.45167388340E+03  0.50400001928E-02 0. -1.
    10030    2    1    2    0    0  0.00000000000E+00  0.00000000000E+00  0.48704648657E+03  0.13903942534E+04  0.13022986983E+04 0.  0.
        1    1    3    3  502    0 -0.22351400139E+03  0.25413186760E+03  0.83743972830E+03  0.90324238913E+03  0.50400001928E-02 0.  1.
       -1    1    3    3    0  502  0.22351400139E+03 -0.25413186760E+03 -0.35039324173E+03  0.48715186423E+03  0.50400001928E-02 0. -1.
</event>
<event>
 5   0  0.1475396E-04  0.1299355E+04  0.7818609E-02  0.9030077E-01
       -1   -1    0    0    0  501  0.00000000000E+00  0.00000000000E+00  0.19705967265E+03  0.19705967271E+03  0.50400001928E-02 0. -1.
        1   -1    0    0  501    0  0.00000000000E+00  0.00000000000E+00 -0.21418938407E+04  0.21418938407E+04  0.50400001928E-02 0.  1.
    10030    2    1    2    0    0  0.00000000000E+00  0.00000000000E+00 -0.19448341680E+04  0.23389535134E+04  0.12993550695E+04 0.  0.
        3    1    3    3  502    0  0.47883065040E+03  0.42719684866E+03 -0.11551499574E+04  0.13214186973E+04  0.10100000352E+00 0. -1.
       -3    1    3    3    0  502 -0.47883065040E+03 -0.42719684866E+03 -0.78968421060E+03  0.10175348161E+04  0.10100000352E+00 0.  1.
</event>
<event>
 5   0  0.2573071E-04  0.1297242E+04  0.7818609E-02  0.9031755E-01
       -2   -1    0    0    0  501  0.00000000000E+00  0.00000000000E+00  0.61350312728E+03  0.61350312728E+03  0.25500000920E-02 0.  1.
        2   -1    0    0  501    0  0.00000000000E+00  0.00000000000E+00 -0.68574864338E+03  0.68574864338E+03  0.25500000920E-02 0. -1.
    10030    2    1    2    0    0  0.00000000000E+00  0.00000000000E+00 -0.72245516101E+02  0.12992517707E+04  0.12972415924E+04 0.  0.
        4    1    3    3  502    0 -0.45995690911E+03 -0.11482980971E+03 -0.47948363340E+03  0.67427917885E+03  0.12699999809E+01 0. -1.
       -4    1    3    3    0  502  0.45995690911E+03  0.11482980971E+03  0.40723811730E+03  0.62497259182E+03  0.12699999809E+01 0.  1.
</event>
<event>
 5   0  0.1002887E-04  0.1299073E+04  0.7818609E-02  0.9030301E-01
        4   -1    0    0  501    0  0.00000000000E+00  0.00000000000E+00  0.61891047996E+03  0.61891178298E+03  0.12699999809E+01 0.  1.
       -4   -1    0    0    0  501  0.00000000000E+00  0.00000000000E+00 -0.68167539336E+03  0.68167657640E+03  0.12699999809E+01 0. -1.
    10030    2    1    2    0    0  0.00000000000E+00  0.00000000000E+00 -0.62764913391E+02  0.13005883594E+04  0.12990729949E+04 0.  0.
        3    1    3    3  502    0 -0.44348725735E+03  0.20088479335E+03 -0.46183981476E+03  0.67106756167E+03  0.10100000352E+00 0. -1.
       -3    1    3    3    0  502  0.44348725735E+03 -0.20088479335E+03  0.39907490137E+03  0.62952079770E+03  0.10100000352E+00 0.  1.
</event>
<event>
 5   0  0.1002887E-04  0.1299588E+04  0.7818609E-02  0.9029892E-01
        3   -1    0    0  501    0  0.00000000000E+00  0.00000000000E+00  0.45303517627E+03  0.45303518753E+03  0.10100000352E+00 0. -1.
       -3   -1    0    0    0  501  0.00000000000E+00  0.00000000000E+00 -0.93200745665E+03  0.93200746212E+03  0.10100000352E+00 0.  1.
    10030    2    1    2    0    0  0.00000000000E+00  0.00000000000E+00 -0.47897228038E+03  0.13850426497E+04  0.12995878947E+04 0.  0.
        3    1    3    3  502    0  0.17399279931E+02 -0.30921774884E+03  0.36931466519E+03  0.48198722313E+03  0.10100000352E+00 0. -1.
       -3    1    3    3    0  502 -0.17399279931E+02  0.30921774884E+03 -0.84828694557E+03  0.90305542652E+03  0.10100000352E+00 0.  1.
</event>
<event>
 5   0  0.2794825E-04  0.1299485E+04  0.7818609E-02  0.9029974E-01
        2   -1    0    0  501    0  0.00000000000E+00  0.00000000000E+00  0.10861080442E+04  0.10861080442E+04  0.25500000920E-02 0. -1.
       -2   -1    0    0    0  501  0.00000000000E+00  0.00000000000E+00 -0.38869553146E+03  0.38869553147E+03  0.25500000920E-02 0.  1.
    10030    2    1    2    0    0  0.00000000000E+00  0.00000000000E+00  0.69741251274E+03  0.14748035757E+04  0.12994850418E+04 0.  0.
        1    1    3    3  502    0  0.48724648431E+03 -0.42503093973E+03  0.27599283644E+03  0.70301670108E+03  0.50400001928E-02 0.  1.
       -1    1    3    3    0  502 -0.48724648431E+03  0.42503093973E+03  0.42141967629E+03  0.77178687459E+03  0.50400001928E-02 0. -1.
</event>
<event>
 5   0  0.2661377E-04  0.1298725E+04  0.7818609E-02  0.9030577E-01
       -2   -1    0    0    0  501  0.00000000000E+00  0.00000000000E+00  0.50329587461E+03  0.50329587461E+03  0.25500000920E-02 0.  1.
        2   -1    0    0  501    0  0.00000000000E+00  0.00000000000E+00 -0.83782043846E+03  0.83782043846E+03  0.25500000920E-02 0. -1.
    10030    2    1    2    0    0  0.00000000000E+00  0.00000000000E+00 -0.33452456385E+03  0.13411163131E+04  0.12987248675E+04 0.  0.
        5    1    3    3  502    0 -0.61814826361E+03 -0.76569534069E+02 -0.35677173926E+03  0.71782890251E+03  0.46999998093E+01 0. -1.
       -5    1    3    3    0  502  0.61814826361E+03  0.76569534069E+02  0.22247175407E+02  0.62328741056E+03  0.46999998093E+01 0.  1.
</event>
<event>
 5   0  0.2573071E-04  0.1301165E+04  0.7818609E-02  0.9028642E-01
       -2   -1    0    0    0  501  0.00000000000E+00  0.00000000000E+00  0.82362057386E+03  0.82362057386E+03  0.25500000920E-02 0.  1.
        2   -1    0    0  501    0  0.00000000000E+00  0.00000000000E+00 -0.51389889027E+03  0.51389889028E+03  0.25500000920E-02 0. -1.
    10030    2    1    2    0    0  0.00000000000E+00  0.00000000000E+00  0.30972168359E+03  0.13375194641E+04  0.13011651685E+04 0.  0.
        4    1    3    3  502    0  0.96980524139E+02  0.19082139216E+03  0.78638581289E+03  0.81499833459E+03  0.12699999809E+01 0.  1.
       -4    1    3    3    0  502 -0.96980524139E+02 -0.19082139216E+03 -0.47666412930E+03  0.52252112955E+03  0.12699999809E+01 0. -1.
</event>
<event>
 5   0  0.1475396E-04  0.1297906E+04  0.7818609E-02  0.9031228E-01
       -1   -1    0    0    0  501  0.00000000000E+00  0.00000000000E+00  0.37898525308E+03  0.37898525312E+03  0.50400001928E-02 0.  1.
        1   -1    0    0  501    0  0.00000000000E+00  0.00000000000E+00 -0.11112299184E+04  0.11112299184E+04  0.50400001928E-02 0. -1.
    10030    2    1    2    0    0  0.00000000000E+00  0.00000000000E+00 -0.73224466532E+03  0.14902151715E+04  0.12979056235E+04 0.  0.
        3    1    3    3  502    0  0.62594323484E+03 -0.84688948536E+02 -0.53705148028E+03  0.82909676994E+03  0.10100000352E+00 0. -1.
       -3    1    3    3    0  502 -0.62594323484E+03  0.84688948536E+02 -0.19519318504E+03  0.66111840160E+03  0.10100000352E+00 0.  1.
</event>
<event>
 5   0  0.1475396E-04  0.1300405E+04  0.7818609E-02  0.9029244E-01
        1   -1    0    0  501    0  0.00000000000E+00  0.00000000000E+00  0.10864068814E+04  0.10864068814E+04  0.50400001928E-02 0. -1.
       -1   -1    0    0    0  501  0.00000000000E+00  0.00000000000E+00 -0.38913903033E+03  0.38913903036E+03  0.50400001928E-02 0.  1.
    10030    2    1    2    0    0  0.00000000000E+00  0.00000000000E+00  0.69726785110E+03  0.14755459118E+04  0.13004050452E+04 0.  0.
        3    1    3    3  502    0  0.18995779366E+03 -0.57319064509E+03  0.75055980302E+02  0.60849395180E+03  0.10100000352E+00 0.  1.
       -3    1    3    3    0  502 -0.18995779366E+03  0.57319064509E+03  0.62221187079E+03  0.86705196001E+03  0.10100000352E+00 0. -1.
</event>
<event>
 5   0  0.2756984E-04  0.1299893E+04  0.7818609E-02  0.9029650E-01
        2   -1    0    0  501    0  0.00000000000E+00  0.00000000000E+00  0.13882432824E+04  0.13882432824E+04  0.25500000920E-02 0. -1.
       -2   -1    0    0    0  501  0.00000000000E+00  0.00000000000E+00 -0.30429125759E+03  0.30429125760E+03  0.25500000920E-02 0.  1.
    10030    2    1    2    0    0  0.00000000000E+00  0.00000000000E+00  0.10839520248E+04  0.16925345400E+04  0.12998927560E+04 0.  0.
        3    1    3    3  502    0 -0.24106652926E+03 -0.53205640720E+03  0.91308098729E+03  0.10839344960E+04  0.10100000352E+00 0. -1.
       -3    1    3    3    0  502  0.24106652926E+03  0.53205640720E+03  0.17087103754E+03  0.60860004407E+03  0.10100000352E+00 0.  1.
</event>
<event>
 5   0  0.2573071E-04  0.1299380E+04  0.7818609E-02  0.9030057E-01
       -2   -1    0    0    0  501  0.00000000000E+00  0.00000000000E+00  0.69397806112E+03  0.69397806112E+03  0.25500000920E-02 0. -1.
        2   -1    0    0  501    0  0.00000000000E+00  0.00000000000E+00 -0.60822794574E+03  0.60822794575E+03  0.25500000920E-02 0.  1.
    10030    2    1    2    0    0  0.00000000000E+00  0.00000000000E+00  0.85750115373E+02  0.13022060069E+04  0.12993796220E+04 0.  0.
        4    1    3    3  502    0  0.32520519898E+03  0.48921991119E+03  0.32096863864E+03  0.66941543367E+03  0.12699999809E+01 0.  1.
       -4    1    3    3    0  502 -0.32520519898E+03 -0.48921991119E+03 -0.23521852327E+03  0.63279057320E+03  0.12699999809E+01 0. -1.
</event>
<event>
 5   0  0.1476511E-04  0.1297574E+04  0.7818609E-02  0.9031491E-01
        1   -1    0    0  501    0  0.00000000000E+00  0.00000000000E+00  0.16767383455E+04  0.16767383455E+04  0.50400001928E-02 0.  1.
       -1   -1    0    0    0  501  0.00000000000E+00  0.00000000000E+00 -0.25103778565E+03  0.25103778570E+03  0.50400001928E-02 0. -1.
    10030    2    1    2    0    0  0.00000000000E+00  0.00000000000E+00  0.14257005599E+04  0.19277761312E+04  0.12975741696E+04 0.  0.
        2    1    3    3  502    0  0.12466422349E+03 -0.54231731695E+03  0.21725852977E+03  0.59736965913E+03  0.25500000920E-02 0. -1.
       -2    1    3    3    0  502 -0.12466422349E+03  0.54231731695E+03  0.12084420301E+04  0.13304064721E+04  0.25500000920E-02 0.  1.
</event>
<event>
 5   0  0.1479690E-04  0.1298730E+04  0.7818609E-02  0.9030573E-01
        1   -1    0    0  501    0  0.00000000000E+00  0.00000000000E+00  0.49044837353E+03  0.49044837355E+03  0.50400001928E-02 0.  1.
       -1   -1    0    0    0  501  0.00000000000E+00  0.00000000000E+00 -0.85977425105E+03  0.85977425107E+03  0.50400001928E-02 0. -1.
    10030    2    1    2    0    0  0.00000000000E+00  0.00000000000E+00 -0.36932587753E+03  0.13502226246E+04  0.12987299689E+04 0.  0.
        1    1    3    3  502    0 -0.88961672899E+02  0.64055535291E+03 -0.12360145681E+03  0.65840918853E+03  0.50400001928E-02 0. -1.
       -1    1    3    3    0  502  0.88961672899E+02 -0.64055535291E+03 -0.24572442072E+03  0.69181343609E+03  0.50400001928E-02 0.  1.
</event>
<event>
 5   0  0.1476511E-04  0.1292117E+04  0.7818609E-02  0.9035840E-01
        1   -1    0    0  501    0  0.00000000000E+00  0.00000000000E+00  0.25750914574E+04  0.25750914574E+04  0.50400001928E-02 0.  1.
       -1   -1    0    0    0  501  0.00000000000E+00  0.00000000000E+00 -0.16208806737E+03  0.16208806745E+03  0.50400001928E-02 0. -1.
    10030    2    1    2    0    0  0.00000000000E+00  0.00000000000E+00  0.24130033900E+04  0.27371795248E+04  0.12921170191E+04 0.  0.
        2    1    3    3  502    0 -0.61840140244E+02  0.12719777247E+03 -0.12889063186E+03  0.19135378558E+03  0.25500000920E-02 0. -1.
       -2    1    3    3    0  502  0.61840140244E+02 -0.12719777247E+03  0.25418940219E+04  0.25458257393E+04  0.25500000920E-02 0.  1.
</event>
<event>
 5   0  0.1002887E-04  0.1302644E+04  0.7818609E-02  0.9027471E-01
        3   -1    0    0  501    0  0.00000000000E+00  0.00000000000E+00  0.16320979406E+04  0.16320979438E+04  0.10100000352E+00 0.  1.
       -3   -1    0    0    0  501  0.00000000000E+00  0.00000000000E+00 -0.25992329877E+03  0.25992331839E+03  0.10100000352E+00 0. -1.
    10030    2    1    2    0    0  0.00000000000E+00  0.00000000000E+00  0.13721746419E+04  0.18920212622E+04  0.13026439301E+04 0.  0.
        5    1    3    3  502    0  0.41942104292E+02 -0.72347126462E+01 -0.25787666576E+03  0.26140762407E+03  0.46999998093E+01 0. -1.
       -5    1    3    3    0  502 -0.41942104292E+02  0.72347126462E+01  0.16300513076E+04  0.16306136381E+04  0.46999998093E+01 0.  1.
</event>
<event>
 5   0  0.2573071E-04  0.1280051E+04  0.7818609E-02  0.9045536E-01
       -2   -1    0    0    0  501  0.00000000000E+00  0.00000000000E+00  0.72042269731E+03  0.72042269731E+03  0.25500000920E-02 0. -1.
        2   -1    0    0  501    0  0.00000000000E+00  0.00000000000E+00 -0.56860053067E+03  0.56860053067E+03  0.25500000920E-02 0.  1.
    10030    2    1    2    0    0  0.00000000000E+00  0.00000000000E+00  0.15182216664E+03  0.12890232280E+04  0.12800511365E+04 0.  0.
        4    1    3    3  502    0 -0.42651096015E+02  0.57092152693E+03 -0.21220726068E+03  0.61057680949E+03  0.12699999809E+01 0.  1.
       -4    1    3    3    0  502  0.42651096015E+02 -0.57092152693E+03  0.36402942732E+03  0.67844641849E+03  0.12699999809E+01 0. -1.
</event>
<event>
 5   0  0.2573071E-04  0.1298989E+04  0.7818609E-02  0.9030368E-01
       -2   -1    0    0    0  501  0.00000000000E+00  0.00000000000E+00  0.67790140394E+03  0.67790140394E+03  0.25500000920E-02 0.  1.
        2   -1    0    0  501    0  0.00000000000E+00  0.00000000000E+00 -0.62227761352E+03  0.62227761353E+03  0.25500000920E-02 0. -1.
    10030    2    1    2    0    0  0.00000000000E+00  0.00000000000E+00  0.55623790414E+02  0.13001790175E+04  0.12989886341E+04 0.  0.
        4    1    3    3  502    0 -0.20805099983E+03 -0.20494526931E+03 -0.55285202289E+03  0.62524775414E+03  0.12699999809E+01 0. -1.
       -4    1    3    3    0  502  0.20805099983E+03  0.20494526931E+03  0.60847581330E+03  0.67493126333E+03  0.12699999809E+01 0.  1.
</event>
<event>
 5   0  0.2661377E-04  0.1281441E+04  0.7818609E-02  0.9044413E-01
       -2   -1    0    0    0  501  0.00000000000E+00  0.00000000000E+00  0.29864519655E+03  0.29864519656E+03  0.25500000920E-02 0. -1.
        2   -1    0    0  501    0  0.00000000000E+00  0.00000000000E+00 -0.13746175453E+04  0.13746175453E+04  0.25500000920E-02 0.  1.
    10030    2    1    2    0    0  0.00000000000E+00  0.00000000000E+00 -0.10759723488E+04  0.16732627419E+04  0.12814412621E+04 0.  0.
        5    1    3    3  502    0  0.25249583054E+03 -0.67943280736E+02 -0.13017538453E+04  0.13277633816E+04  0.46999998093E+01 0.  1.
       -5    1    3    3    0  502 -0.25249583054E+03  0.67943280736E+02  0.22578149647E+03  0.34549936032E+03  0.46999998093E+01 0. -1.
</event>
<event>
 5   0  0.1475396E-04  0.1299701E+04  0.7818609E-02  0.9029803E-01
        1   -1    0    0  501    0  0.00000000000E+00  0.00000000000E+00  0.60892155717E+03  0.60892155719E+03  0.50400001928E-02 0. -1.
       -1   -1    0    0    0  501  0.00000000000E+00  0.00000000000E+00 -0.69353014277E+03  0.69353014279E+03  0.50400001928E-02 0.  1.
    10030    2    1    2    0    0  0.00000000000E+00  0.00000000000E+00 -0.84608585601E+02  0.13024517000E+04  0.12997006648E+04 0.  0.
        3    1    3    3  502    0  0.44641964875E+03 -0.16511287214E+03 -0.48568025627E+03  0.68002800300E+03  0.10100000352E+00 0.  1.
       -3    1    3    3    0  502 -0.44641964875E+03  0.16511287214E+03  0.40107167067E+03  0.62242369697E+03  0.10100000352E+00 0. -1.
</event>
<event>
 5   0  0.1476511E-04  0.1297827E+04  0.7818609E-02  0.9031290E-01
        1   -1    0    0  501    0  0.00000000000E+00  0.00000000000E+00  0.25825796409E+03  0.25825796413E+03  0.50400001928E-02 0.  1.
       -1   -1    0    0    0  501  0.00000000000E+00  0.00000000000E+00 -0.16304972890E+04  0.16304972890E+04  0.50400001928E-02 0. -1.
    10030    2    1    2    0    0  0.00000000000E+00  0.00000000000E+00 -0.13722393249E+04  0.18887552531E+04  0.12978272772E+04 0.  0.
        2    1    3    3  502    0 -0.13445699742E+03  0.44831254043E+01  0.23773996963E+03  0.27316492406E+03  0.25500000920E-02 0.  1.
       -2    1    3    3    0  502  0.13445699742E+03 -0.44831254043E+01 -0.16099792945E+04  0.16155903291E+04  0.25500000920E-02 0. -1.
</event>
<event>
 5   0  0.2794825E-04  0.1307561E+04  0.7818609E-02  0.9023591E-01
       -2   -1    0    0    0  501  0.00000000000E+00  0.00000000000E+00  0.45957462858E+03  0.45957462858E+03  0.25500000920E-02 0. -1.
        2   -1    0    0  501    0  0.00000000000E+00  0.00000000000E+00 -0.93005286760E+03  0.93005286760E+03  0.25500000920E-02 0.  1.
    10030    2    1    2    0    0  0.00000000000E+00  0.00000000000E+00 -0.47047823902E+03  0.13896274962E+04  0.13075606314E+04 0.  0.
        1    1    3    3  502    0  0.32699048215E+02  0.26117533880E+02  0.45814969684E+03  0.46005705958E+03  0.50400001928E-02 0. -1.
       -1    1    3    3    0  502 -0.32699048215E+02 -0.26117533880E+02 -0.92862793586E+03  0.92957043661E+03  0.50400001928E-02 0.  1.
</event>
<event>
 5   0  0.1430636E-04  0.1300496E+04  0.7818609E-02  0.9029172E-01
        1   -1    0    0  501    0  0.00000000000E+00  0.00000000000E+00  0.13835647589E+04  0.13835647589E+04  0.50400001928E-02 0. -1.
       -1   -1    0    0    0  501  0.00000000000E+00  0.00000000000E+00 -0.30560365474E+03  0.30560365478E+03  0.50400001928E-02 0.  1.
    10030    2    1    2    0    0  0.00000000000E+00  0.00000000000E+00  0.10779611041E+04  0.16891684137E+04  0.13004959776E+04 0.  0.
        4    1    3    3  502    0 -0.11412824914E+03 -0.52762028086E+03  0.10098300790E+04  0.11450619282E+04  0.12699999809E+01 0. -1.
       -4    1    3    3    0  502  0.11412824914E+03  0.52762028086E+03  0.68131025105E+02  0.54410648545E+03  0.12699999809E+01 0.  1.
</event>
<event>
 5   0  0.2794825E-04  0.1292484E+04  0.7818609E-02  0.9035547E-01
        2   -1    0    0  501    0  0.00000000000E+00  0.00000000000E+00  0.55462908213E+03  0.55462908214E+03  0.25500000920E-02 0.  1.
       -2   -1    0    0    0  501  0.00000000000E+00  0.00000000000E+00 -0.75298701614E+03  0.75298701614E+03  0.25500000920E-02 0. -1.
    10030    2    1    2    0    0  0.00000000000E+00  0.00000000000E+00 -0.19835793401E+03  0.13076160983E+04  0.12924836519E+04 0.  0.
        1    1    3    3  502    0  0.29204586845E+02  0.44885162810E+03 -0.56862436653E+03  0.72502024949E+03  0.50400001928E-02 0. -1.
       -1    1    3    3    0  502 -0.29204586845E+02 -0.44885162810E+03  0.37026643253E+03  0.58259584878E+03  0.50400001928E-02 0.  1.
</event>
<event>
 5   0  0.1002887E-04  0.1299783E+04  0.7818609E-02  0.9029737E-01
        3   -1    0    0  501    0  0.00000000000E+00  0.00000000000E+00  0.31521691645E+03  0.31521693264E+03  0.10100000352E+00 0.  1.
       -3   -1    0    0    0  501  0.00000000000E+00  0.00000000000E+00 -0.13399001851E+04  0.13399001889E+04  0.10100000352E+00 0. -1.
    10030    2    1    2    0    0  0.00000000000E+00  0.00000000000E+00 -0.10246832687E+04  0.16551171216E+04  0.12997833993E+04 0.  0.
        1    1    3    3  502    0  0.19550378416E+03  0.53707029855E+03 -0.90625235321E+03  0.10714287484E+04  0.50400001928E-02 0. -1.
       -1    1    3    3    0  502 -0.19550378416E+03 -0.53707029855E+03 -0.11843091547E+03  0.58368837316E+03  0.50400001928E-02 0.  1.
</event>
<event>
 5   0  0.2723209E-04  0.1297737E+04  0.7818609E-02  0.9031362E-01
       -2   -1    0    0    0  501  0.00000000000E+00  0.00000000000E+00  0.51250643569E+03  0.51250643569E+03  0.25500000920E-02 0.  1.
        2   -1    0    0  501    0  0.00000000000E+00  0.00000000000E+00 -0.82151248887E+03  0.82151248887E+03  0.25500000920E-02 0. -1.
    10030    2    1    2    0    0  0.00000000000E+00  0.00000000000E+00 -0.30900605318E+03  0.13340189246E+04  0.12977371653E+04 0.  0.
        2    1    3    3  502    0  0.40441284269E+03  0.25926845929E+03 -0.60288653338E+03  0.77087097069E+03  0.25500000920E-02 0. -1.
       -2    1    3    3    0  502 -0.40441284269E+03 -0.25926845929E+03  0.29388048020E+03  0.56314795388E+03  0.25500000920E-02 0.  1.
</event>
<event>
 5   0  0.1430636E-04  0.1301110E+04  0.7818609E-02  0.9028685E-01
       -1   -1    0    0    0  501  0.00000000000E+00  0.00000000000E+00  0.78190352155E+03  0.78190352156E+03  0.50400001928E-02 0.  1.
        1   -1    0    0  501    0  0.00000000000E+00  0.00000000000E+00 -0.54127129567E+03  0.54127129570E+03  0.50400001928E-02 0. -1.
    10030    2    1    2    0    0  0.00000000000E+00  0.00000000000E+00  0.24063222587E+03  0.13231748173E+04  0.13011101909E+04 0.  0.
        4    1    3    3  502    0 -0.10981605964E+03  0.34568231293E+02  0.77145998418E+03  0.78000426259E+03  0.12699999809E+01 0.  1.
       -4    1    3    3    0  502  0.10981605964E+03 -0.34568231293E+02 -0.53082775831E+03  0.54317055467E+03  0.12699999809E+01 0. -1.
</event>
<event>
 5   0  0.2573071E-04  0.1300055E+04  0.7818609E-02  0.9029522E-01
        2   -1    0    0  501    0  0.00000000000E+00  0.00000000000E+00  0.96657717075E+03  0.96657717075E+03  0.25500000920E-02 0.  1.
       -2   -1    0    0    0  501  0.00000000000E+00  0.00000000000E+00 -0.43714609908E+03  0.43714609909E+03  0.25500000920E-02 0. -1.
    10030    2    1    2    0    0  0.00000000000E+00  0.00000000000E+00  0.52943107167E+03  0.14037232698E+04  0.13000545214E+04 0.  0.
        4    1    3    3  502    0  0.33748377889E+03  0.26211703552E+03  0.79360521630E+03  0.90133872299E+03  0.12699999809E+01 0.  1.
       -4    1    3    3    0  502 -0.33748377889E+03 -0.26211703552E+03 -0.26417414463E+03  0.50238454685E+03  0.12699999809E+01 0. -1.
</event>
<event>
 5   0  0.1475396E-04  0.1297947E+04  0.7818609E-02  0.9031195E-01
       -1   -1    0    0    0  501  0.00000000000E+00  0.00000000000E+00  0.43983295750E+03  0.43983295753E+03  0.50400001928E-02 0. -1.
        1   -1    0    0  501    0  0.00000000000E+00  0.00000000000E+00 -0.95755963187E+03  0.95755963189E+03  0.50400001928E-02 0.  1.
    10030    2    1    2    0    0  0.00000000000E+00  0.00000000000E+00 -0.51772667437E+03  0.13973925894E+04  0.12979465088E+04 0.  0.
        3    1    3    3  502    0  0.37546241867E+03 -0.22421987305E+03  0.25737437675E+03  0.50743291114E+03  0.10100000352E+00 0. -1.
       -3    1    3    3    0  502 -0.37546241867E+03  0.22421987305E+03 -0.77510105112E+03  0.88995967827E+03  0.10100000352E+00 0.  1.
</event>
<event>
 5   0  0.2661377E-04  0.1299297E+04  0.7818609E-02  0.9030123E-01
       -2   -1    0    0    0  501  0.00000000000E+00  0.00000000000E+00  0.17808246580E+03  0.17808246582E+03  0.25500000920E-02 0.  1.
        2   -1    0    0  501    0  0.00000000000E+00  0.00000000000E+00 -0.23699305668E+04  0.23699305668E+04  0.25500000920E-02 0. -1.
    10030    2    1    2    0    0  0.00000000000E+00  0.00000000000E+00 -0.21918481010E+04  0.25480130326E+04  0.12992968547E+04 0.  0.
        5    1    3    3  502    0  0.49895818492E+02  0.58104264287E+03 -0.53462996513E+03  0.79117092664E+03  0.46999998093E+01 0.  1.
       -5    1    3    3    0  502 -0.49895818492E+02 -0.58104264287E+03 -0.16572181359E+04  0.17568421060E+04  0.46999998093E+01 0. -1.
</event>
<event>
 5   0  0.2661377E-04  0.1302010E+04  0.7818609E-02  0.9027973E-01
       -2   -1    0    0    0  501  0.00000000000E+00  0.00000000000E+00  0.36547384952E+03  0.36547384953E+03  0.25500000920E-02 0. -1.
        2   -1    0    0  501    0  0.00000000000E+00  0.00000000000E+00 -0.11596104379E+04  0.11596104379E+04  0.25500000920E-02 0.  1.
    10030    2    1    2    0    0  0.00000000000E+00  0.00000000000E+00 -0.79413658843E+03  0.15250842875E+04  0.13020096631E+04 0.  0.
        5    1    3    3  502    0 -0.20727508874E+03  0.28984699240E+03  0.24107705069E+03  0.43024931817E+03  0.46999998093E+01 0. -1.
       -5    1    3    3    0  502  0.20727508874E+03 -0.28984699240E+03 -0.10352136391E+04  0.10948349693E+04  0.46999998093E+01 0.  1.
</event>
<event>
 5   0  0.2794825E-04  0.1298563E+04  0.7818609E-02  0.9030705E-01
       -2   -1    0    0    0  501  0.00000000000E+00  0.00000000000E+00  0.40698284467E+03  0.40698284467E+03  0.25500000920E-02 0. -1.
        2   -1    0    0  501    0  0.00000000000E+00  0.00000000000E+00 -0.10358340907E+04  0.10358340907E+04  0.25500000920E-02 0.  1.
    10030    2    1    2    0    0  0.00000000000E+00  0.00000000000E+00 -0.62885124599E+03  0.14428169353E+04  0.12985633675E+04 0.  0.
        1    1    3    3  502    0 -0.33520207004E+03 -0.47244700528E+02 -0.93002622095E+03  0.98971776844E+03  0.50400001928E-02 0.  1.
       -1    1    3    3    0  502  0.33520207004E+03  0.47244700528E+02  0.30117497495E+03  0.45309916690E+03  0.50400001928E-02 0. -1.
</event>
<event>
 5   0  0.1430636E-04  0.1298044E+04  0.7818609E-02  0.9031118E-01
       -1   -1    0    0    0  501  0.00000000000E+00  0.00000000000E+00  0.36522316087E+03  0.36522316091E+03  0.50400001928E-02 0. -1.
        1   -1    0    0  501    0  0.00000000000E+00  0.00000000000E+00 -0.11533477198E+04  0.11533477198E+04  0.50400001928E-02 0.  1.
    10030    2    1    2    0    0  0.00000000000E+00  0.00000000000E+00 -0.78812455895E+03  0.15185708807E+04  0.12980436046E+04 0.  0.
        4    1    3    3  502    0 -0.20876773131E+03 -0.20788977856E+02 -0.11125813033E+04  0.11321903182E+04  0.12699999809E+01 0.  1.
       -4    1    3    3    0  502  0.20876773131E+03  0.20788977856E+02  0.32445674437E+03  0.38638056254E+03  0.12699999809E+01 0. -1.
</event>
<event>
 5   0  0.1475396E-04  0.1301102E+04  0.7818609E-02  0.9028691E-01
        1   -1    0    0  501    0  0.00000000000E+00  0.00000000000E+00  0.15394293234E+04  0.15394293234E+04  0.50400001928E-02 0.  1.
       -1   -1    0    0    0  501  0.00000000000E+00  0.00000000000E+00 -0.27491805452E+03  0.27491805457E+03  0.50400001928E-02 0. -1.
    10030    2    1    2    0    0  0.00000000000E+00  0.00000000000E+00  0.12645112688E+04  0.18143473779E+04  0.13011024782E+04 0.  0.
        3    1    3    3  502    0  0.41913104452E+03  0.43478585778E+03  0.96955387565E+03  0.11422540447E+04  0.10100000352E+00 0.  1.
       -3    1    3    3    0  502 -0.41913104452E+03 -0.43478585778E+03  0.29495739318E+03  0.67209333325E+03  0.10100000352E+00 0. -1.
</event>
<event>
 5   0  0.1475396E-04  0.1300485E+04  0.7818609E-02  0.9029180E-01
        1   -1    0    0  501    0  0.00000000000E+00  0.00000000000E+00  0.59887230807E+03  0.59887230809E+03  0.50400001928E-02 0.  1.
       -1   -1    0    0    0  501  0.00000000000E+00  0.00000000000E+00 -0.70601937877E+03  0.70601937879E+03  0.50400001928E-02 0. -1.
    10030    2    1    2    0    0  0.00000000000E+00  0.00000000000E+00 -0.10714707071E+03  0.13048916869E+04  0.13004852247E+04 0.  0.
        3    1    3    3  502    0 -0.56925583957E+03  0.30381996908E+03 -0.13419914443E+03  0.65906616137E+03  0.10100000352E+00 0. -1.
       -3    1    3    3    0  502  0.56925583957E+03 -0.30381996908E+03  0.27052073725E+02  0.64582552550E+03  0.10100000352E+00 0.  1.
</event>
<event>
 5   0  0.2573071E-04  0.1302208E+04  0.7818609E-02  0.9027816E-01
       -2   -1    0    0    0  501  0.00000000000E+00  0.00000000000E+00  0.32335404280E+03  0.32335404281E+03  0.25500000920E-02 0.  1.
        2   -1    0    0  501    0  0.00000000000E+00  0.00000000000E+00 -0.13110586228E+04  0.13110586228E+04  0.25500000920E-02 0. -1.
    10030    2    1    2    0    0  0.00000000000E+00  0.00000000000E+00 -0.98770458001E+03  0.16344126656E+04  0.13022075196E+04 0.  0.
        4    1    3    3  502    0 -0.11053674859E+03  0.30124118631E+03 -0.12049244118E+04  0.12469198355E+04  0.12699999809E+01 0. -1.
       -4    1    3    3    0  502  0.11053674859E+03 -0.30124118631E+03  0.21721983184E+03  0.38749283008E+03  0.12699999809E+01 0.  1.
</event>
<event>
 5   0  0.1408341E-04  0.1287142E+04  0.7818609E-02  0.9039824E-01
       -1   -1    0    0    0  501  0.00000000000E+00  0.00000000000E+00  0.21290975989E+03  0.21290975995E+03  0.50400001928E-02 0. -1.
        1   -1    0    0  501    0  0.00000000000E+00  0.00000000000E+00 -0.19453496864E+04  0.19453496864E+04  0.50400001928E-02 0.  1.
    10030    2    1    2    0    0  0.00000000000E+00  0.00000000000E+00 -0.17324399266E+04  0.21582594464E+04  0.12871424703E+04 0.  0.
        5    1    3    3  502    0  0.56081729210E+03 -0.26760763969E+03 -0.11469596225E+04  0.13044801070E+04  0.46999998093E+01 0.  1.
       -5    1    3    3    0  502 -0.56081729210E+03  0.26760763969E+03 -0.58548030406E+03  0.85377933940E+03  0.46999998093E+01 0. -1.
</event>
<event>
 5   0  0.1430636E-04  0.1307796E+04  0.7818609E-02  0.9023405E-01
        1   -1    0    0  501    0  0.00000000000E+00  0.00000000000E+00  0.52248816019E+03  0.52248816021E+03  0.50400001928E-02 0.  1.
       -1   -1    0    0    0  501  0.00000000000E+00  0.00000000000E+00 -0.81835880537E+03  0.81835880538E+03  0.50400001928E-02 0. -1.
    10030    2    1    2    0    0  0.00000000000E+00  0.00000000000E+00 -0.29587064518E+03  0.13408469656E+04  0.13077962940E+04 0.  0.
        4    1    3    3  502    0  0.50507067786E+03 -0.26826990393E+03  0.17711964117E+03  0.59869701116E+03  0.12699999809E+01 0.  1.
       -4    1    3    3    0  502 -0.50507067786E+03  0.26826990393E+03 -0.47299028634E+03  0.74214995443E+03  0.12699999809E+01 0. -1.
</event>
<event>
 5   0  0.1476511E-04  0.1301295E+04  0.7818609E-02  0.9028539E-01
        1   -1    0    0  501    0  0.00000000000E+00  0.00000000000E+00  0.13475803138E+04  0.13475803138E+04  0.50400001928E-02 0. -1.
       -1   -1    0    0    0  501  0.00000000000E+00  0.00000000000E+00 -0.31415003940E+03  0.31415003944E+03  0.50400001928E-02 0.  1.
    10030    2    1    2    0    0  0.00000000000E+00  0.00000000000E+00  0.10334302744E+04  0.16617303532E+04  0.13012953680E+04 0.  0.
        2    1    3    3  502    0  0.12835517151E+03 -0.33320142444E+03 -0.17785511046E+03  0.39891186950E+03  0.25500000920E-02 0.  1.
       -2    1    3    3    0  502 -0.12835517151E+03  0.33320142444E+03  0.12112853848E+04  0.12628184837E+04  0.25500000920E-02 0. -1.
</event>
<event>
 5   0  0.2756984E-04  0.1313222E+04  0.7818609E-02  0.9019145E-01
       -2   -1    0    0    0  501  0.00000000000E+00  0.00000000000E+00  0.22848497248E+03  0.22848497250E+03  0.25500000920E-02 0. -1.
        2   -1    0    0  501    0  0.00000000000E+00  0.00000000000E+00 -0.18869439364E+04  0.18869439364E+04  0.25500000920E-02 0.  1.
    10030    2    1    2    0    0  0.00000000000E+00  0.00000000000E+00 -0.16584589639E+04  0.21154289089E+04  0.13132224997E+04 0.  0.
        3    1    3    3  502    0 -0.50166779370E+03 -0.21841953813E+02 -0.15107443351E+04  0.15920100824E+04  0.10100000352E+00 0. -1.
       -3    1    3    3    0  502  0.50166779370E+03  0.21841953813E+02 -0.14771462883E+03  0.52341882652E+03  0.10100000352E+00 0.  1.
</event>
<event>
 5   0  0.2573071E-04  0.1304045E+04  0.7818609E-02  0.9026363E-01
       -2   -1    0    0    0  501  0.00000000000E+00  0.00000000000E+00  0.84460302894E+03  0.84460302894E+03  0.25500000920E-02 0.  1.
        2   -1    0    0  501    0  0.00000000000E+00  0.00000000000E+00 -0.50335309572E+03  0.50335309573E+03  0.25500000920E-02 0. -1.
    10030    2    1    2    0    0  0.00000000000E+00  0.00000000000E+00  0.34124993322E+03  0.13479561247E+04  0.13040453202E+04 0.  0.
        4    1    3    3  502    0  0.53835321116E+03  0.36121007430E+03  0.24250082529E+03  0.69217422727E+03  0.12699999809E+01 0.  1.
       -4    1    3    3    0  502 -0.53835321116E+03 -0.36121007430E+03  0.98749107923E+02  0.65578189740E+03  0.12699999809E+01 0. -1.
</event>
<event>
 5   0  0.2756984E-04  0.1300521E+04  0.7818609E-02  0.9029152E-01
        2   -1    0    0  501    0  0.00000000000E+00  0.00000000000E+00  0.23321217479E+04  0.23321217479E+04  0.25500000920E-02 0. -1.
       -2   -1    0    0    0  501  0.00000000000E+00  0.00000000000E+00 -0.18131065521E+03  0.18131065522E+03  0.25500000920E-02 0.  1.
    10030    2    1    2    0    0  0.00000000000E+00  0.00000000000E+00  0.21508110927E+04  0.25134324031E+04  0.13005206990E+04 0.  0.
        3    1    3    3  502    0  0.53063948569E+03 -0.85892232472E+02  0.36825433493E+03  0.65158806371E+03  0.10100000352E+00 0.  1.
       -3    1    3    3    0  502 -0.53063948569E+03  0.85892232472E+02  0.17825567578E+04  0.18618443394E+04  0.10100000352E+00 0. -1.
</event>
<event>
 5   0  0.2756984E-04  0.1299244E+04  0.7818609E-02  0.9030165E-01
       -2   -1    0    0    0  501  0.00000000000E+00  0.00000000000E+00  0.34961641304E+03  0.34961641305E+03  0.25500000920E-02 0.  1.
        2   -1    0    0  501    0  0.00000000000E+00  0.00000000000E+00 -0.12070629433E+04  0.12070629433E+04  0.25500000920E-02 0. -1.
    10030    2    1    2    0    0  0.00000000000E+00  0.00000000000E+00 -0.85744653027E+03  0.15566793564E+04  0.12992444213E+04 0.  0.
        3    1    3    3  502    0 -0.18750587939E+03 -0.21929672153E+03  0.26863193968E+03  0.39422409375E+03  0.10100000352E+00 0.  1.
       -3    1    3    3    0  502  0.18750587939E+03  0.21929672153E+03 -0.11260784700E+04  0.11624552626E+04  0.10100000352E+00 0. -1.
</event>
<event>
 5   0  0.1408341E-04  0.1301617E+04  0.7818609E-02  0.9028284E-01
        1   -1    0    0  501    0  0.00000000000E+00  0.00000000000E+00  0.35340649758E+03  0.35340649762E+03  0.50400001928E-02 0. -1.
       -1   -1    0    0    0  501  0.00000000000E+00  0.00000000000E+00 -0.11984828797E+04  0.11984828798E+04  0.50400001928E-02 0.  1.
    10030    2    1    2    0    0  0.00000000000E+00  0.00000000000E+00 -0.84507638216E+03  0.15518893774E+04  0.13016168975E+04 0.  0.
        5    1    3    3  502    0  0.49858540574E+03  0.41254471099E+03 -0.50470165504E+03  0.82068653942E+03  0.46999998093E+01 0. -1.
       -5    1    3    3    0  502 -0.49858540574E+03 -0.41254471099E+03 -0.34037472712E+03  0.73120283796E+03  0.46999998093E+01 0.  1.
</event>
<event>
 5   0  0.1430636E-04  0.1297457E+04  0.7818609E-02  0.9031584E-01
       -1   -1    0    0    0  501  0.00000000000E+00  0.00000000000E+00  0.12513290531E+04  0.12513290531E+04  0.50400001928E-02 0. -1.
        1   -1    0    0  501    0  0.00000000000E+00  0.00000000000E+00 -0.33632152296E+03  0.33632152300E+03  0.50400001928E-02 0.  1.
    10030    2    1    2    0    0  0.00000000000E+00  0.00000000000E+00  0.91500753014E+03  0.15876505761E+04  0.12974573487E+04 0.  0.
        4    1    3    3  502    0  0.53820622167E+03 -0.15996539548E+03  0.59874631459E+02  0.56466047249E+03  0.12699999809E+01 0. -1.
       -4    1    3    3    0  502 -0.53820622167E+03  0.15996539548E+03  0.85513289868E+03  0.10229901036E+04  0.12699999809E+01 0.  1.
</event>
<event>
 5   0  0.1408341E-04  0.1299489E+04  0.7818609E-02  0.9029970E-01
       -1   -1    0    0    0  501  0.00000000000E+00  0.00000000000E+00  0.11363338439E+04  0.11363338440E+04  0.50400001928E-02 0. -1.
        1   -1    0    0  501    0  0.00000000000E+00  0.00000000000E+00 -0.37151761333E+03  0.37151761337E+03  0.50400001928E-02 0.  1.
    10030    2    1    2    0    0  0.00000000000E+00  0.00000000000E+00  0.76481623060E+03  0.15078514573E+04  0.12994891884E+04 0.  0.
        5    1    3    3  502    0 -0.10525448065E+03 -0.80460582555E+02 -0.35565815730E+03  0.37956188678E+03  0.46999998093E+01 0.  1.
       -5    1    3    3    0  502  0.10525448065E+03  0.80460582555E+02  0.11204743879E+04  0.11282895705E+04  0.46999998093E+01 0. -1.
</event>
<event>
 5   0  0.1479690E-04  0.1300358E+04  0.7818609E-02  0.9029281E-01
       -1   -1    0    0    0  501  0.00000000000E+00  0.00000000000E+00  0.57430796914E+03  0.57430796916E+03  0.50400001928E-02 0. -1.
        1   -1    0    0  501    0  0.00000000000E+00  0.00000000000E+00 -0.73607323394E+03  0.73607323396E+03  0.50400001928E-02 0.  1.
    10030    2    1    2    0    0  0.00000000000E+00  0.00000000000E+00 -0.16176526480E+03  0.13103812031E+04  0.13003579879E+04 0.  0.
        1    1    3    3  502    0 -0.56278052836E+03  0.59886282127E+02  0.24162241182E+03  0.61537767250E+03  0.50400001928E-02 0. -1.
       -1    1    3    3    0  502  0.56278052836E+03 -0.59886282127E+02 -0.40338767662E+03  0.69500353062E+03  0.50400001928E-02 0.  1.
</event>
<event>
 5   0  0.2573071E-04  0.1299855E+04  0.7818609E-02  0.9029680E-01
        2   -1    0    0  501    0  0.00000000000E+00  0.00000000000E+00  0.13259342942E+04  0.13259342942E+04  0.25500000920E-02 0. -1.
       -2   -1    0    0    0  501  0.00000000000E+00  0.00000000000E+00 -0.31857233021E+03  0.31857233022E+03  0.25500000920E-02 0.  1.
    10030    2    1    2    0    0  0.00000000000E+00  0.00000000000E+00  0.10073619640E+04  0.16445066244E+04  0.12998553424E+04 0.  0.
        4    1    3    3  502    0  0.40712507040E+03  0.47482734928E+02 -0.13443297763E+03  0.43136906639E+03  0.12699999809E+01 0.  1.
       -4    1    3    3    0  502 -0.40712507040E+03 -0.47482734928E+02  0.11417949416E+04  0.12131375580E+04  0.12699999809E+01 0. -1.
</event>
<event>
 5   0  0.2794825E-04  0.1300749E+04  0.7818609E-02  0.9028971E-01
        2   -1    0    0  501    0  0.00000000000E+00  0.00000000000E+00  0.18170835603E+04  0.18170835603E+04  0.25500000920E-02 0.  1.
       -2   -1    0    0    0  501  0.00000000000E+00  0.00000000000E+00 -0.23278353892E+03  0.23278353893E+03  0.25500000920E-02 0. -1.
    10030    2    1    2    0    0  0.00000000000E+00  0.00000000000E+00  0.15843000214E+04  0.20498670993E+04  0.13007492329E+04 0.  0.
        1    1    3    3  502    0 -0.54126854052E+03  0.24371398636E+03  0.37336327950E+03  0.70126191869E+03  0.50400001928E-02 0. -1.
       -1    1    3    3    0  502  0.54126854052E+03 -0.24371398636E+03  0.12109367419E+04  0.13486051806E+04  0.50400001928E-02 0.  1.
</event>
<event>
 5   0  0.2723209E-04  0.1299109E+04  0.7818609E-02  0.9030272E-01
        2   -1    0    0  501    0  0.00000000000E+00  0.00000000000E+00  0.89700008276E+03  0.89700008276E+03  0.25500000920E-02 0.  1.
       -2   -1    0    0    0  501  0.00000000000E+00  0.00000000000E+00 -0.47036936906E+03  0.47036936907E+03  0.25500000920E-02 0. -1.
    10030    2    1    2    0    0  0.00000000000E+00  0.00000000000E+00  0.42663071370E+03  0.13673694518E+04  0.12991094842E+04 0.  0.
        2    1    3    3  502    0  0.18735537222E+03 -0.58732518681E+03  0.42868454651E+03  0.75088171570E+03  0.25500000920E-02 0. -1.
       -2    1    3    3    0  502 -0.18735537222E+03  0.58732518681E+03 -0.20538328082E+01  0.61648773613E+03  0.25500000920E-02 0.  1.
</event>
<event>
 5   0  0.1475396E-04  0.1300128E+04  0.7818609E-02  0.9029464E-01
        1   -1    0    0  501    0  0.00000000000E+00  0.00000000000E+00  0.91003636803E+03  0.91003636804E+03  0.50400001928E-02 0. -1.
       -1   -1    0    0    0  501  0.00000000000E+00  0.00000000000E+00 -0.46435837993E+03  0.46435837995E+03  0.50400001928E-02 0.  1.
    10030    2    1    2    0    0  0.00000000000E+00  0.00000000000E+00  0.44567798810E+03  0.13743947480E+04  0.13001277069E+04 0.  0.
        3    1    3    3  502    0  0.30569582398E+03  0.54608585536E+03  0.36943686954E+02  0.62691669657E+03  0.10100000352E+00 0. -1.
       -3    1    3    3    0  502 -0.30569582398E+03 -0.54608585536E+03  0.40873430115E+03  0.74747805143E+03  0.10100000352E+00 0.  1.
</event>
<event>
 5   0  0.2756984E-04  0.1295837E+04  0.7818609E-02  0.9032873E-01
        2   -1    0    0  501    0  0.00000000000E+00  0.00000000000E+00  0.50817741432E+03  0.50817741433E+03  0.25500000920E-02 0. -1.
       -2   -1    0    0    0  501  0.00000000000E+00  0.00000000000E+00 -0.82608601296E+03  0.82608601297E+03  0.25500000920E-02 0.  1.
    10030    2    1    2    0    0  0.00000000000E+00  0.00000000000E+00 -0.31790859864E+03  0.13342634273E+04  0.12958368016E+04 0.  0.
        3    1    3    3  502    0 -0.12521661295E+03 -0.62392126117E+03 -0.33516826228E+02  0.63724432374E+03  0.10100000352E+00 0. -1.
       -3    1    3    3    0  502  0.12521661295E+03  0.62392126117E+03 -0.28439177241E+03  0.69701910355E+03  0.10100000352E+00 0.  1.
</event>
<event>
 5   0  0.2661377E-04  0.1300494E+04  0.7818609E-02  0.9029173E-01
       -2   -1    0    0    0  501  0.00000000000E+00  0.00000000000E+00  0.54827844498E+03  0.54827844499E+03  0.25500000920E-02 0. -1.
        2   -1    0    0  501    0  0.00000000000E+00  0.00000000000E+00 -0.77117979363E+03  0.77117979364E+03  0.25500000920E-02 0.  1.
    10030    2    1    2    0    0  0.00000000000E+00  0.00000000000E+00 -0.22290134865E+03  0.13194582386E+04  0.13004941493E+04 0.  0.
        5    1    3    3  502    0 -0.63486391825E+03  0.49476274557E+02  0.21993200716E+02  0.63718591268E+03  0.46999998093E+01 0. -1.
       -5    1    3    3    0  502  0.63486391825E+03 -0.49476274557E+02 -0.24489454937E+03  0.68227232594E+03  0.46999998093E+01 0.  1.
</event>
<event>
 5   0  0.2794825E-04  0.1300445E+04  0.7818609E-02  0.9029212E-01
        2   -1    0    0  501    0  0.00000000000E+00  0.00000000000E+00  0.14792089926E+04  0.14792089926E+04  0.25500000920E-02 0.  1.
       -2   -1    0    0    0  501  0.00000000000E+00  0.00000000000E+00 -0.28582121167E+03  0.28582121168E+03  0.25500000920E-02 0. -1.
    10030    2    1    2    0    0  0.00000000000E+00  0.00000000000E+00  0.11933877809E+04  0.17650302042E+04  0.13004450109E+04 0.  0.
        1    1    3    3  502    0 -0.15910251294E+03 -0.56151076481E+02 -0.25559350909E+03  0.30625903241E+03  0.50400001928E-02 0. -1.
       -1    1    3    3    0  502  0.15910251294E+03  0.56151076481E+02  0.14489812900E+04  0.14587711718E+04  0.50400001928E-02 0.  1.
</event>
<event>
 5   0  0.1475396E-04  0.1300671E+04  0.7818609E-02  0.9029033E-01
        1   -1    0    0  501    0  0.00000000000E+00  0.00000000000E+00  0.84542198509E+03  0.84542198510E+03  0.50400001928E-02 0. -1.
       -1   -1    0    0    0  501  0.00000000000E+00  0.00000000000E+00 -0.50026636604E+03  0.50026636606E+03  0.50400001928E-02 0.  1.
    10030    2    1    2    0    0  0.00000000000E+00  0.00000000000E+00  0.34515561905E+03  0.13456883512E+04  0.13006708796E+04 0.  0.
        3    1    3    3  502    0  0.14929584519E+03 -0.46747055972E+03  0.61410123567E+03  0.78609052370E+03  0.10100000352E+00 0. -1.
       -3    1    3    3    0  502 -0.14929584519E+03  0.46747055972E+03 -0.26894561662E+03  0.55959782746E+03  0.10100000352E+00 0.  1.
</event>
<event>
 5   0  0.1430636E-04  0.1301185E+04  0.7818609E-02  0.9028626E-01
        1   -1    0    0  501    0  0.00000000000E+00  0.00000000000E+00  0.46828227495E+03  0.46828227498E+03  0.50400001928E-02 0. -1.
       -1   -1    0    0    0  501  0.00000000000E+00  0.00000000000E+00 -0.90387979993E+03  0.90387979995E+03  0.50400001928E-02 0.  1.
    10030    2    1    2    0    0  0.00000000000E+00  0.00000000000E+00 -0.43559752498E+03  0.13721620749E+04  0.13011854426E+04 0.  0.
        4    1    3    3  502    0  0.40861778133E+03  0.50592686274E+03 -0.23720915697E+03  0.69224293331E+03  0.12699999809E+01 0.  1.
       -4    1    3    3    0  502 -0.40861778133E+03 -0.50592686274E+03 -0.19838836802E+03  0.67991914161E+03  0.12699999809E+01 0. -1.
</event>
<event>
 5   0  0.1475396E-04  0.1298667E+04  0.7818609E-02  0.9030623E-01
       -1   -1    0    0    0  501  0.00000000000E+00  0.00000000000E+00  0.52355836971E+03  0.52355836973E+03  0.50400001928E-02 0. -1.
        1   -1    0    0  501    0  0.00000000000E+00  0.00000000000E+00 -0.80532402002E+03  0.80532402004E+03  0.50400001928E-02 0.  1.
    10030    2    1    2    0    0  0.00000000000E+00  0.00000000000E+00 -0.28176565031E+03  0.13288823898E+04  0.12986672107E+04 0.  0.
        3    1    3    3  502    0 -0.55329972331E+03  0.27173736479E+03  0.67954624797E+02  0.62016096335E+03  0.10100000352E+00 0. -1.
       -3    1    3    3    0  502  0.55329972331E+03 -0.27173736479E+03 -0.34972027511E+03  0.70872142642E+03  0.10100000352E+00 0.  1.
</event>
<event>
 5   0  0.2573071E-04  0.1300032E+04  0.7818609E-02  0.9029539E-01
       -2   -1    0    0    0  501  0.00000000000E+00  0.00000000000E+00  0.14486517585E+03  0.14486517587E+03  0.25500000920E-02 0.  1.
        2   -1    0    0  501    0  0.00000000000E+00  0.00000000000E+00 -0.29166506031E+04  0.29166506032E+04  0.25500000920E-02 0. -1.
    10030    2    1    2    0    0  0.00000000000E+00  0.00000000000E+00 -0.27717854273E+04  0.30615157790E+04  0.13000324650E+04 0.  0.
        4    1    3    3  502    0  0.13717034156E+02  0.64972423064E+03 -0.14183327183E+04  0.15601278940E+04  0.12699999809E+01 0. -1.
       -4    1    3    3    0  502 -0.13717034156E+02 -0.64972423064E+03 -0.13534527090E+04  0.15013878850E+04  0.12699999809E+01 0.  1.
</event>
<event>
 5   0  0.2661377E-04  0.1300625E+04  0.7818609E-02  0.9029069E-01
       -2   -1    0    0    0  501  0.00000000000E+00  0.00000000000E+00  0.50982497408E+03  0.50982497409E+03  0.25500000920E-02 0. -1.
        2   -1    0    0  501    0  0.00000000000E+00  0.00000000000E+00 -0.82951332131E+03  0.82951332132E+03  0.25500000920E-02 0.  1.
    10030    2    1    2    0    0  0.00000000000E+00  0.00000000000E+00 -0.31968834723E+03  0.13393382954E+04  0.13006253996E+04 0.  0.
        5    1    3    3  502    0 -0.79158657047E+02 -0.56639789192E+03  0.15890397763E+03  0.59358674940E+03  0.46999998093E+01 0. -1.
       -5    1    3    3    0  502  0.79158657047E+02  0.56639789192E+03 -0.47859232486E+03  0.74575154601E+03  0.46999998093E+01 0.  1.
</event>
<event>
 5   0  0.2723209E-04  0.1300176E+04  0.7818609E-02  0.9029426E-01
       -2   -1    0    0    0  501  0.00000000000E+00  0.00000000000E+00  0.16421102579E+03  0.16421102581E+03  0.25500000920E-02 0.  1.
        2   -1    0    0  501    0  0.00000000000E+00  0.00000000000E+00 -0.25736047919E+04  0.25736047919E+04  0.25500000920E-02 0. -1.
    10030    2    1    2    0    0  0.00000000000E+00  0.00000000000E+00 -0.24093937661E+04  0.27378158177E+04  0.13001758079E+04 0.  0.
        2    1    3    3  502    0  0.33929815640E+03  0.55273084789E+03 -0.11110061228E+04  0.12864560755E+04  0.25500000920E-02 0. -1.
       -2    1    3    3    0  502 -0.33929815640E+03 -0.55273084789E+03 -0.12983876433E+04  0.14513597422E+04  0.25500000920E-02 0.  1.
</event>
<event>
 5   0  0.2756984E-04  0.1300540E+04  0.7818609E-02  0.9029137E-01
        2   -1    0    0  501    0  0.00000000000E+00  0.00000000000E+00  0.16663081311E+04  0.16663081311E+04  0.25500000920E-02 0. -1.
       -2   -1    0    0    0  501  0.00000000000E+00  0.00000000000E+00 -0.25376522840E+03  0.25376522842E+03  0.25500000920E-02 0.  1.
    10030    2    1    2    0    0  0.00000000000E+00  0.00000000000E+00  0.14125429027E+04  0.19200733595E+04  0.13005399855E+04 0.  0.
        3    1    3    3  502    0 -0.29222221858E+03 -0.30866828072E+03  0.14328193566E+04  0.14945371362E+04  0.10100000352E+00 0. -1.
       -3    1    3    3    0  502  0.29222221858E+03  0.30866828072E+03 -0.20276453945E+02  0.42553622330E+03  0.10100000352E+00 0.  1.
</event>
<event>
 5   0  0.2723209E-04  0.1301907E+04  0.7818609E-02  0.9028054E-01
       -2   -1    0    0    0  501  0.00000000000E+00  0.00000000000E+00  0.32759401090E+03  0.32759401091E+03  0.25500000920E-02 0. -1.
        2   -1    0    0  501    0  0.00000000000E+00  0.00000000000E+00 -0.12934934506E+04  0.12934934506E+04  0.25500000920E-02 0.  1.
    10030    2    1    2    0    0  0.00000000000E+00  0.00000000000E+00 -0.96589943967E+03  0.16210874615E+04  0.13019073816E+04 0.  0.
        2    1    3    3  502    0  0.58592447169E+03  0.72826592104E+02 -0.14165337973E+03  0.60718768024E+03  0.25500000920E-02 0. -1.
       -2    1    3    3    0  502 -0.58592447169E+03 -0.72826592104E+02 -0.82424605994E+03  0.10138997812E+04  0.25500000920E-02 0.  1.
</event>
<event>
 5   0  0.2756984E-04  0.1296889E+04  0.7818609E-02  0.9032036E-01
        2   -1    0    0  501    0  0.00000000000E+00  0.00000000000E+00  0.76173319386E+03  0.76173319387E+03  0.25500000920E-02 0.  1.
       -2   -1    0    0    0  501  0.00000000000E+00  0.00000000000E+00 -0.55200500479E+03  0.55200500480E+03  0.25500000920E-02 0. -1.
    10030    2    1    2    0    0  0.00000000000E+00  0.00000000000E+00  0.20972818907E+03  0.13137381987E+04  0.12968894098E+04 0.  0.
        3    1    3    3  502    0 -0.70286105826E+02  0.26989167311E+03  0.69787437467E+03  0.75153862502E+03  0.10100000352E+00 0.  1.
       -3    1    3    3    0  502  0.70286105826E+02 -0.26989167311E+03 -0.48814618560E+03  0.56219957364E+03  0.10100000352E+00 0. -1.
</event>
<event>
 5   0  0.2756984E-04  0.1279061E+04  0.7818609E-02  0.9046337E-01
       -2   -1    0    0    0  501  0.00000000000E+00  0.00000000000E+00  0.18329392541E+03  0.18329392542E+03  0.25500000920E-02 0.  1.
        2   -1    0    0  501    0  0.00000000000E+00  0.00000000000E+00 -0.22313842082E+04  0.22313842082E+04  0.25500000920E-02 0. -1.
    10030    2    1    2    0    0  0.00000000000E+00  0.00000000000E+00 -0.20480902828E+04  0.24146781336E+04  0.12790608596E+04 0.  0.
        3    1    3    3  502    0 -0.42622049741E+03 -0.44195359641E+03 -0.68627111350E+03  0.92084469115E+03  0.10100000352E+00 0. -1.
       -3    1    3    3    0  502  0.42622049741E+03  0.44195359641E+03 -0.13618191693E+04  0.14938334424E+04  0.10100000352E+00 0.  1.
</event>
<event>
 5   0  0.2573071E-04  0.1299688E+04  0.7818609E-02  0.9029813E-01
       -2   -1    0    0    0  501  0.00000000000E+00  0.00000000000E+00  0.18707778244E+03  0.18707778246E+03  0.25500000920E-02 0.  1.
        2   -1    0    0  501    0  0.00000000000E+00  0.00000000000E+00 -0.22573338719E+04  0.22573338719E+04  0.25500000920E-02 0. -1.
    10030    2    1    2    0    0  0.00000000000E+00  0.00000000000E+00 -0.20702560894E+04  0.24444116543E+04  0.12996876779E+04 0.  0.
        4    1    3    3  502    0 -0.14314660316E+03  0.10062959987E+03  0.14193576963E+03  0.22531010179E+03  0.12699999809E+01 0.  1.
       -4    1    3    3    0  502  0.14314660316E+03 -0.10062959987E+03 -0.22121918591E+04  0.22191015526E+04  0.12699999809E+01 0. -1.
</event>
<event>
 5   0  0.1408341E-04  0.1302777E+04  0.7818609E-02  0.9027366E-01
       -1   -1    0    0    0  501  0.00000000000E+00  0.00000000000E+00  0.40940718313E+03  0.40940718316E+03  0.50400001928E-02 0.  1.
        1   -1    0    0  501    0  0.00000000000E+00  0.00000000000E+00 -0.10363942733E+04  0.10363942733E+04  0.50400001928E-02 0. -1.
    10030    2    1    2    0    0  0.00000000000E+00  0.00000000000E+00 -0.62698709012E+03  0.14458014564E+04  0.13027774331E+04 0.  0.
        5    1    3    3  502    0  0.29321838201E+03  0.58161128615E+03 -0.32019486979E+03  0.72580682854E+03  0.46999998093E+01 0. -1.
       -5    1    3    3    0  502 -0.29321838201E+03 -0.58161128615E+03 -0.30679222034E+03  0.71999462788E+03  0.46999998093E+01 0.  1.
</event>
<event>
 5   0  0.1476511E-04  0.1294981E+04  0.7818609E-02  0.9033555E-01
       -1   -1    0    0    0  501  0.00000000000E+00  0.00000000000E+00  0.25257638547E+03  0.25257638552E+03  0.50400001928E-02 0. -1.
        1   -1    0    0  501    0  0.00000000000E+00  0.00000000000E+00 -0.16598696892E+04  0.16598696892E+04  0.50400001928E-02 0.  1.
    10030    2    1    2    0    0  0.00000000000E+00  0.00000000000E+00 -0.14072933038E+04  0.19124460747E+04  0.12949809057E+04 0.  0.
        2    1    3    3  502    0  0.55508569041E+03  0.10749364583E+03 -0.11696485031E+04  0.12991353388E+04  0.25500000920E-02 0.  1.
       -2    1    3    3    0  502 -0.55508569041E+03 -0.10749364583E+03 -0.23764480065E+03  0.61331073599E+03  0.25500000920E-02 0. -1.
</event>
<event>
 5   0  0.1476511E-04  0.1298179E+04  0.7818609E-02  0.9031010E-01
        1   -1    0    0  501    0  0.00000000000E+00  0.00000000000E+00  0.50839487020E+03  0.50839487023E+03  0.50400001928E-02 0.  1.
       -1   -1    0    0    0  501  0.00000000000E+00  0.00000000000E+00 -0.82872088000E+03  0.82872088002E+03  0.50400001928E-02 0. -1.
    10030    2    1    2    0    0  0.00000000000E+00  0.00000000000E+00 -0.32032600980E+03  0.13371157502E+04  0.12981794086E+04 0.  0.
        2    1    3    3  502    0 -0.44773451404E+03  0.21822780457E+03  0.26852682112E+03  0.56585883700E+03  0.25500000920E-02 0.  1.
       -2    1    3    3    0  502  0.44773451404E+03 -0.21822780457E+03 -0.58885283092E+03  0.77125691325E+03  0.25500000920E-02 0. -1.
</event>
<event>
 5   0  0.1475396E-04  0.1300370E+04  0.7818609E-02  0.9029272E-01
        1   -1    0    0  501    0  0.00000000000E+00  0.00000000000E+00  0.10472984951E+04  0.10472984951E+04  0.50400001928E-02 0. -1.
       -1   -1    0    0    0  501  0.00000000000E+00  0.00000000000E+00 -0.40364837216E+03  0.40364837219E+03  0.50400001928E-02 0.  1.
    10030    2    1    2    0    0  0.00000000000E+00  0.00000000000E+00  0.64365012294E+03  0.14509468673E+04  0.13003696901E+04 0.  0.
        3    1    3    3  502    0  0.29169320833E+03 -0.30399082478E+03  0.87439178601E+03  0.97059587625E+03  0.10100000352E+00 0. -1.
       -3    1    3    3    0  502 -0.29169320833E+03  0.30399082478E+03 -0.23074166307E+03  0.48035099107E+03  0.10100000352E+00 0.  1.
</event>
<event>
 5   0  0.2794825E-04  0.1290343E+04  0.7818609E-02  0.9037258E-01
        2   -1    0    0  501    0  0.00000000000E+00  0.00000000000E+00  0.35339891982E+03  0.35339891983E+03  0.25500000920E-02 0.  1.
       -2   -1    0    0    0  501  0.00000000000E+00  0.00000000000E+00 -0.11778371553E+04  0.11778371553E+04  0.25500000920E-02 0. -1.
    10030    2    1    2    0    0  0.00000000000E+00  0.00000000000E+00 -0.82443823544E+03  0.15312360751E+04  0.12903431767E+04 0.  0.
        1    1    3    3  502    0  0.30201164952E+03 -0.37671634279E+03 -0.92003347729E+03  0.10390321644E+04  0.50400001928E-02 0. -1.
       -1    1    3    3    0  502 -0.30201164952E+03  0.37671634279E+03  0.95595241852E+02  0.49220391065E+03  0.50400001928E-02 0.  1.
</event>
<event>
 5   0  0.1475396E-04  0.1299696E+04  0.7818609E-02  0.9029807E-01
       -1   -1    0    0    0  501  0.00000000000E+00  0.00000000000E+00  0.10189719302E+04  0.10189719302E+04  0.50400001928E-02 0. -1.
        1   -1    0    0  501    0  0.00000000000E+00  0.00000000000E+00 -0.41443944042E+03  0.41443944045E+03  0.50400001928E-02 0.  1.
    10030    2    1    2    0    0  0.00000000000E+00  0.00000000000E+00  0.60453248975E+03  0.14334113706E+04  0.12996955898E+04 0.  0.
        3    1    3    3  502    0 -0.70385101101E+01  0.44335543263E+03 -0.22167667806E+03  0.49573595800E+03  0.10100000352E+00 0. -1.
       -3    1    3    3    0  502  0.70385101101E+01 -0.44335543263E+03  0.82620916780E+03  0.93767541262E+03  0.10100000352E+00 0.  1.
</event>
<event>
 5   0  0.2756984E-04  0.1304925E+04  0.7818609E-02  0.9025669E-01
        2   -1    0    0  501    0  0.00000000000E+00  0.00000000000E+00  0.70365924930E+03  0.70365924931E+03  0.25500000920E-02 0. -1.
       -2   -1    0    0    0  501  0.00000000000E+00  0.00000000000E+00 -0.60499071700E+03  0.60499071700E+03  0.25500000920E-02 0.  1.
    10030    2    1    2    0    0  0.00000000000E+00  0.00000000000E+00  0.98668532308E+02  0.13086499663E+04  0.13049249998E+04 0.  0.
        3    1    3    3  502    0 -0.23432712743E+02 -0.11521812275E+03 -0.59427883862E+03  0.60579836255E+03  0.10100000352E+00 0.  1.
       -3    1    3    3    0  502  0.23432712743E+02  0.11521812275E+03  0.69294737092E+03  0.70285160376E+03  0.10100000352E+00 0. -1.
</event>
<event>
 5   0  0.1479690E-04  0.1298279E+04  0.7818609E-02  0.9030931E-01
       -1   -1    0    0    0  501  0.00000000000E+00  0.00000000000E+00  0.41341581180E+03  0.41341581183E+03  0.50400001928E-02 0.  1.
        1   -1    0    0  501    0  0.00000000000E+00  0.00000000000E+00 -0.10192690714E+04  0.10192690714E+04  0.50400001928E-02 0. -1.
    10030    2    1    2    0    0  0.00000000000E+00  0.00000000000E+00 -0.60585325961E+03  0.14326848833E+04  0.12982787846E+04 0.  0.
        1    1    3    3  502    0 -0.27609137591E+01 -0.53370569030E+03  0.10482982199E+03  0.54391054238E+03  0.50400001928E-02 0.  1.
       -1    1    3    3    0  502  0.27609137591E+01  0.53370569030E+03 -0.71068308160E+03  0.88877434088E+03  0.50400001928E-02 0. -1.
</event>
<event>
 5   0  0.2573071E-04  0.1299243E+04  0.7818609E-02  0.9030165E-01
       -2   -1    0    0    0  501  0.00000000000E+00  0.00000000000E+00  0.28206148394E+03  0.28206148395E+03  0.25500000920E-02 0. -1.
        2   -1    0    0  501    0  0.00000000000E+00  0.00000000000E+00 -0.14961571149E+04  0.14961571149E+04  0.25500000920E-02 0.  1.
    10030    2    1    2    0    0  0.00000000000E+00  0.00000000000E+00 -0.12140956309E+04  0.17782185988E+04  0.12992433121E+04 0.  0.
        4    1    3    3  502    0 -0.52325671409E+03 -0.55101431722E+02 -0.11285275962E+04  0.12451545707E+04  0.12699999809E+01 0.  1.
       -4    1    3    3    0  502  0.52325671409E+03  0.55101431722E+02 -0.85568034733E+02  0.53306402813E+03  0.12699999809E+01 0. -1.
</event>
<event>
 5   0  0.2573071E-04  0.1299061E+04  0.7818609E-02  0.9030310E-01
        2   -1    0    0  501    0  0.00000000000E+00  0.00000000000E+00  0.70540725240E+03  0.70540725240E+03  0.25500000920E-02 0.  1.
       -2   -1    0    0    0  501  0.00000000000E+00  0.00000000000E+00 -0.59807970153E+03  0.59807970153E+03  0.25500000920E-02 0. -1.
    10030    2    1    2    0    0  0.00000000000E+00  0.00000000000E+00  0.10732755087E+03  0.13034869539E+04  0.12990608284E+04 0.  0.
        4    1    3    3  502    0 -0.57094705619E+03  0.12442623678E+03  0.33822431220E+03  0.67517384993E+03  0.12699999809E+01 0.  1.
       -4    1    3    3    0  502  0.57094705619E+03 -0.12442623678E+03 -0.23089676132E+03  0.62831310400E+03  0.12699999809E+01 0. -1.
</event>
<event>
 5   0  0.1408341E-04  0.1299968E+04  0.7818609E-02  0.9029591E-01
        1   -1    0    0  501    0  0.00000000000E+00  0.00000000000E+00  0.11120086764E+04  0.11120086764E+04  0.50400001928E-02 0.  1.
       -1   -1    0    0    0  501  0.00000000000E+00  0.00000000000E+00 -0.37992413250E+03  0.37992413253E+03  0.50400001928E-02 0. -1.
    10030    2    1    2    0    0  0.00000000000E+00  0.00000000000E+00  0.73208454394E+03  0.14919328090E+04  0.12999675869E+04 0.  0.
        5    1    3    3  502    0 -0.94514394482E+02 -0.53879810611E+03  0.76890600668E+03  0.94364977985E+03  0.46999998093E+01 0.  1.
       -5    1    3    3    0  502  0.94514394482E+02  0.53879810611E+03 -0.36821462741E+02  0.54828302913E+03  0.46999998093E+01 0. -1.
</event>
<event>
 5   0  0.1475396E-04  0.1296172E+04  0.7818609E-02  0.9032606E-01
        1   -1    0    0  501    0  0.00000000000E+00  0.00000000000E+00  0.89967428519E+03  0.89967428521E+03  0.50400001928E-02 0.  1.
       -1   -1    0    0    0  501  0.00000000000E+00  0.00000000000E+00 -0.46685308571E+03  0.46685308574E+03  0.50400001928E-02 0. -1.
    10030    2    1    2    0    0  0.00000000000E+00  0.00000000000E+00  0.43282119948E+03  0.13665273709E+04  0.12961723901E+04 0.  0.
        3    1    3    3  502    0 -0.27788199636E+03 -0.33778915683E+03 -0.28776828270E+03  0.52357474452E+03  0.10100000352E+00 0. -1.
       -3    1    3    3    0  502  0.27788199636E+03  0.33778915683E+03  0.72058948218E+03  0.84295262642E+03  0.10100000352E+00 0.  1.
</event>
<event>
 5   0  0.1476511E-04  0.1310691E+04  0.7818609E-02  0.9021130E-01
       -1   -1    0    0    0  501  0.00000000000E+00  0.00000000000E+00  0.57821321418E+03  0.57821321420E+03  0.50400001928E-02 0. -1.
        1   -1    0    0  501    0  0.00000000000E+00  0.00000000000E+00 -0.74276658560E+03  0.74276658562E+03  0.50400001928E-02 0.  1.
    10030    2    1    2    0    0  0.00000000000E+00  0.00000000000E+00 -0.16455337142E+03  0.13209797998E+04  0.13106905888E+04 0.  0.
        2    1    3    3  502    0 -0.29557094685E+03  0.29901917076E+03  0.42436512530E+03  0.59737794459E+03  0.25500000920E-02 0. -1.
       -2    1    3    3    0  502  0.29557094685E+03 -0.29901917076E+03 -0.58891849672E+03  0.72360185523E+03  0.25500000920E-02 0.  1.
</event>
<event>
 5   0  0.2573071E-04  0.1328600E+04  0.7818609E-02  0.9007188E-01
       -2   -1    0    0    0  501  0.00000000000E+00  0.00000000000E+00  0.22213072757E+03  0.22213072759E+03  0.25500000920E-02 0. -1.
        2   -1    0    0  501    0  0.00000000000E+00  0.00000000000E+00 -0.19866422551E+04  0.19866422551E+04  0.25500000920E-02 0.  1.
    10030    2    1    2    0    0  0.00000000000E+00  0.00000000000E+00 -0.17645115275E+04  0.22087729827E+04  0.13285996983E+04 0.  0.
        4    1    3    3  502    0  0.43370521816E+02  0.63470074911E+03 -0.56434925334E+03  0.85042209269E+03  0.12699999809E+01 0. -1.
       -4    1    3    3    0  502 -0.43370521816E+02 -0.63470074911E+03 -0.12001622742E+04  0.13583508900E+04  0.12699999809E+01 0.  1.
</event>
<event>
 5   0  0.1475396E-04  0.1303894E+04  0.7818609E-02  0.9026483E-01
       -1   -1    0    0    0  501  0.00000000000E+00  0.00000000000E+00  0.70902255193E+03  0.70902255195E+03  0.50400001928E-02 0.  1.
        1   -1    0    0  501    0  0.00000000000E+00  0.00000000000E+00 -0.59946618192E+03  0.59946618195E+03  0.50400001928E-02 0. -1.
    10030    2    1    2    0    0  0.00000000000E+00  0.00000000000E+00  0.10955637001E+03  0.13084887339E+04  0.13038942321E+04 0.  0.
        3    1    3    3  502    0  0.74762217841E+02 -0.30452061154E+03  0.62838027469E+03  0.70227058311E+03  0.10100000352E+00 0.  1.
       -3    1    3    3    0  502 -0.74762217841E+02  0.30452061154E+03 -0.51882390469E+03  0.60621815079E+03  0.10100000352E+00 0. -1.
</event>
<event>
 5   0  0.2723209E-04  0.1300722E+04  0.7818609E-02  0.9028993E-01
        2   -1    0    0  501    0  0.00000000000E+00  0.00000000000E+00  0.99190206115E+03  0.99190206116E+03  0.25500000920E-02 0.  1.
       -2   -1    0    0    0  501  0.00000000000E+00  0.00000000000E+00 -0.42642232722E+03  0.42642232723E+03  0.25500000920E-02 0. -1.
    10030    2    1    2    0    0  0.00000000000E+00  0.00000000000E+00  0.56547973393E+03  0.14183243884E+04  0.13007216233E+04 0.  0.
        2    1    3    3  502    0 -0.42244044793E+03 -0.28680793482E+03  0.72196737843E+03  0.88428028308E+03  0.25500000920E-02 0.  1.
       -2    1    3    3    0  502  0.42244044793E+03  0.28680793482E+03 -0.15648764450E+03  0.53404410530E+03  0.25500000920E-02 0. -1.
</event>
<event>
 5   0  0.2573071E-04  0.1302522E+04  0.7818609E-02  0.9027568E-01
        2   -1    0    0  501    0  0.00000000000E+00  0.00000000000E+00  0.15090393257E+04  0.15090393257E+04  0.25500000920E-02 0.  1.
       -2   -1    0    0    0  501  0.00000000000E+00  0.00000000000E+00 -0.28106669622E+03  0.28106669623E+03  0.25500000920E-02 0. -1.
    10030    2    1    2    0    0  0.00000000000E+00  0.00000000000E+00  0.12279726295E+04  0.17901060219E+04  0.13025217046E+04 0.  0.
        4    1    3    3  502    0  0.30661910563E+03  0.47536950679E+03  0.10575117218E+04  0.11993015045E+04  0.12699999809E+01 0.  1.
       -4    1    3    3    0  502 -0.30661910563E+03 -0.47536950679E+03  0.17046090767E+03  0.59080451747E+03  0.12699999809E+01 0. -1.
</event>
<event>
 5   0  0.1408341E-04  0.1300453E+04  0.7818609E-02  0.9029206E-01
        1   -1    0    0  501    0  0.00000000000E+00  0.00000000000E+00  0.33815186555E+03  0.33815186559E+03  0.50400001928E-02 0. -1.
       -1   -1    0    0    0  501  0.00000000000E+00  0.00000000000E+00 -0.12503099779E+04  0.12503099779E+04  0.50400001928E-02 0.  1.
    10030    2    1    2    0    0  0.00000000000E+00  0.00000000000E+00 -0.91215811231E+03  0.15884618435E+04  0.13004532311E+04 0.  0.
        5    1    3    3  502    0 -0.22357117013E+03  0.51026967288E+03 -0.86561403633E+03  0.10294022329E+04  0.46999998093E+01 0.  1.
       -5    1    3    3    0  502  0.22357117013E+03 -0.51026967288E+03 -0.46544075978E+02  0.55905961058E+03  0.46999998093E+01 0. -1.
</event>
<event>
 5   0  0.1476511E-04  0.1295779E+04  0.7818609E-02  0.9032919E-01
       -1   -1    0    0    0  501  0.00000000000E+00  0.00000000000E+00  0.49326180843E+03  0.49326180845E+03  0.50400001928E-02 0. -1.
        1   -1    0    0  501    0  0.00000000000E+00  0.00000000000E+00 -0.85098965912E+03  0.85098965913E+03  0.50400001928E-02 0.  1.
    10030    2    1    2    0    0  0.00000000000E+00  0.00000000000E+00 -0.35772785069E+03  0.13442514676E+04  0.12957788364E+04 0.  0.
        2    1    3    3  502    0 -0.54398690050E+03 -0.20278592642E+03 -0.47722801231E+03  0.75152541914E+03  0.25500000920E-02 0.  1.
       -2    1    3    3    0  502  0.54398690050E+03  0.20278592642E+03  0.11950016161E+03  0.59272604845E+03  0.25500000920E-02 0. -1.
</event>
<event>
 5   0  0.2723209E-04  0.1299839E+04  0.7818609E-02  0.9029692E-01
       -2   -1    0    0    0  501  0.00000000000E+00  0.00000000000E+00  0.31134837108E+03  0.31134837109E+03  0.25500000920E-02 0.  1.
        2   -1    0    0  501    0  0.00000000000E+00  0.00000000000E+00 -0.13566657550E+04  0.13566657550E+04  0.25500000920E-02 0. -1.
    10030    2    1    2    0    0  0.00000000000E+00  0.00000000000E+00 -0.10453173839E+04  0.16680141261E+04  0.12998394869E+04 0.  0.
        2    1    3    3  502    0 -0.45619776272E+03  0.14697275296E+03  0.40623969538E+02  0.48100696017E+03  0.25500000920E-02 0.  1.
       -2    1    3    3    0  502  0.45619776272E+03 -0.14697275296E+03 -0.10859413535E+04  0.11870071660E+04  0.25500000920E-02 0. -1.
</event>
<event>
 5   0  0.2756984E-04  0.1299612E+04  0.7818609E-02  0.9029873E-01
       -2   -1    0    0    0  501  0.00000000000E+00  0.00000000000E+00  0.23608149042E+03  0.23608149043E+03  0.25500000920E-02 0. -1.
        2   -1    0    0  501    0  0.00000000000E+00  0.00000000000E+00 -0.17885670652E+04  0.17885670652E+04  0.25500000920E-02 0.  1.
    10030    2    1    2    0    0  0.00000000000E+00  0.00000000000E+00 -0.15524855747E+04  0.20246485556E+04  0.12996116012E+04 0.  0.
        3    1    3    3  502    0 -0.52495278375E+03  0.33760419246E+03 -0.10579386107E+04  0.12283265568E+04  0.10100000352E+00 0.  1.
       -3    1    3    3    0  502  0.52495278375E+03 -0.33760419246E+03 -0.49454696408E+03  0.79632199882E+03  0.10100000352E+00 0. -1.
</event>
<event>
 5   0  0.2661377E-04  0.1301284E+04  0.7818609E-02  0.9028548E-01
       -2   -1    0    0    0  501  0.00000000000E+00  0.00000000000E+00  0.42783950459E+03  0.42783950459E+03  0.25500000920E-02 0. -1.
        2   -1    0    0  501    0  0.00000000000E+00  0.00000000000E+00 -0.98947095613E+03  0.98947095614E+03  0.25500000920E-02 0.  1.
    10030    2    1    2    0    0  0.00000000000E+00  0.00000000000E+00 -0.56163145155E+03  0.14173104607E+04  0.13012836181E+04 0.  0.
        5    1    3    3  502    0  0.63731645829E+03  0.13074624306E+03 -0.28818877498E+03  0.71157691650E+03  0.46999998093E+01 0.  1.
       -5    1    3    3    0  502 -0.63731645829E+03 -0.13074624306E+03 -0.27344267657E+03  0.70573354422E+03  0.46999998093E+01 0. -1.
</event>
<event>
 5   0  0.1476511E-04  0.1304301E+04  0.7818609E-02  0.9026161E-01
        1   -1    0    0  501    0  0.00000000000E+00  0.00000000000E+00  0.13727227132E+04  0.13727227132E+04  0.50400001928E-02 0. -1.
       -1   -1    0    0    0  501  0.00000000000E+00  0.00000000000E+00 -0.30982261037E+03  0.30982261041E+03  0.50400001928E-02 0.  1.
    10030    2    1    2    0    0  0.00000000000E+00  0.00000000000E+00  0.10629001028E+04  0.16825453236E+04  0.13043013982E+04 0.  0.
        2    1    3    3  502    0  0.44280358747E+03 -0.20966926506E+03  0.10866951089E+04  0.11920329180E+04  0.25500000920E-02 0. -1.
       -2    1    3    3    0  502 -0.44280358747E+03  0.20966926506E+03 -0.23795006075E+02  0.49051240566E+03  0.25500000920E-02 0.  1.
</event>
<event>
 5   0  0.2723209E-04  0.1277175E+04  0.7818609E-02  0.9047864E-01
        2   -1    0    0  501    0  0.00000000000E+00  0.00000000000E+00  0.74953926663E+03  0.74953926663E+03  0.25500000920E-02 0.  1.
       -2   -1    0    0    0  501  0.00000000000E+00  0.00000000000E+00 -0.54405990666E+03  0.54405990667E+03  0.25500000920E-02 0. -1.
    10030    2    1    2    0    0  0.00000000000E+00  0.00000000000E+00  0.20547935997E+03  0.12935991733E+04  0.12771754201E+04 0.  0.
        2    1    3    3  502    0 -0.30893213382E+03  0.28433006277E+03 -0.38460426037E+03  0.56938834288E+03  0.25500000920E-02 0. -1.
       -2    1    3    3    0  502  0.30893213382E+03 -0.28433006277E+03  0.59008362034E+03  0.72421083042E+03  0.25500000920E-02 0.  1.
</event>
<event>
 5   0  0.1476511E-04  0.1299936E+04  0.7818609E-02  0.9029616E-01
       -1   -1    0    0    0  501  0.00000000000E+00  0.00000000000E+00  0.38881543841E+03  0.38881543844E+03  0.50400001928E-02 0. -1.
        1   -1    0    0  501    0  0.00000000000E+00  0.00000000000E+00 -0.10865272855E+04  0.10865272855E+04  0.50400001928E-02 0.  1.
    10030    2    1    2    0    0  0.00000000000E+00  0.00000000000E+00 -0.69771184712E+03  0.14753427240E+04  0.12999362798E+04 0.  0.
        2    1    3    3  502    0 -0.19495461388E+03  0.83522546350E+02 -0.10461486007E+04  0.10674315959E+04  0.25500000920E-02 0.  1.
       -2    1    3    3    0  502  0.19495461388E+03 -0.83522546350E+02  0.34843675353E+03  0.40791112811E+03  0.25500000920E-02 0. -1.
</event>
<event>
 5   0  0.2661377E-04  0.1302134E+04  0.7818609E-02  0.9027874E-01
        2   -1    0    0  501    0  0.00000000000E+00  0.00000000000E+00  0.79502310639E+03  0.79502310639E+03  0.25500000920E-02 0.  1.
       -2   -1    0    0    0  501  0.00000000000E+00  0.00000000000E+00 -0.53317739658E+03  0.53317739659E+03  0.25500000920E-02 0. -1.
    10030    2    1    2    0    0  0.00000000000E+00  0.00000000000E+00  0.26184570981E+03  0.13282005030E+04  0.13021341714E+04 0.  0.
        5    1    3    3  502    0 -0.46245133257E+03 -0.21536671991E+03  0.54352266101E+03  0.74544150144E+03  0.46999998093E+01 0.  1.
       -5    1    3    3    0  502  0.46245133257E+03  0.21536671991E+03 -0.28167695120E+03  0.58275900154E+03  0.46999998093E+01 0. -1.
</event>
<event>
 5   0  0.1479690E-04  0.1293968E+04  0.7818609E-02  0.9034362E-01
        1   -1    0    0  501    0  0.00000000000E+00  0.00000000000E+00  0.64709109785E+03  0.64709109787E+03  0.50400001928E-02 0.  1.
       -1   -1    0    0    0  501  0.00000000000E+00  0.00000000000E+00 -0.64687716825E+03  0.64687716827E+03  0.50400001928E-02 0. -1.
    10030    2    1    2    0    0  0.00000000000E+00  0.00000000000E+00  0.21392960183E+00  0.12939682661E+04  0.12939682485E+04 0.  0.
        1    1    3    3  502    0  0.20093479473E+03 -0.21128724396E+03  0.57766334725E+03  0.64707961950E+03  0.50400001928E-02 0.  1.
       -1    1    3    3    0  502 -0.20093479473E+03  0.21128724396E+03 -0.57744941764E+03  0.64688864664E+03  0.50400001928E-02 0. -1.
</event>
<event>
 5   0  0.1476511E-04  0.1291711E+04  0.7818609E-02  0.9036164E-01
        1   -1    0    0  501    0  0.00000000000E+00  0.00000000000E+00  0.66633169737E+03  0.66633169739E+03  0.50400001928E-02 0.  1.
       -1   -1    0    0    0  501  0.00000000000E+00  0.00000000000E+00 -0.62600900129E+03  0.62600900131E+03  0.50400001928E-02 0. -1.
    10030    2    1    2    0    0  0.00000000000E+00  0.00000000000E+00  0.40322696081E+02  0.12923406987E+04  0.12917114855E+04 0.  0.
        2    1    3    3  502    0  0.20233081294E+03 -0.57147040015E+03  0.24301064936E+03  0.65312353489E+03  0.25500000920E-02 0.  1.
       -2    1    3    3    0  502 -0.20233081294E+03  0.57147040015E+03 -0.20268795328E+03  0.63921716382E+03  0.25500000920E-02 0. -1.
</event>
<event>
 5   0  0.1479690E-04  0.1296668E+04  0.7818609E-02  0.9032211E-01
        1   -1    0    0  501    0  0.00000000000E+00  0.00000000000E+00  0.69676656319E+03  0.69676656321E+03  0.50400001928E-02 0. -1.
       -1   -1    0    0    0  501  0.00000000000E+00  0.00000000000E+00 -0.60326821195E+03  0.60326821197E+03  0.50400001928E-02 0.  1.
    10030    2    1    2    0    0  0.00000000000E+00  0.00000000000E+00  0.93498351244E+02  0.13000347752E+04  0.12966682209E+04 0.  0.
        1    1    3    3  502    0  0.13171033959E+03 -0.20859275069E+03  0.64787115097E+03  0.69325001080E+03  0.50400001928E-02 0. -1.
       -1    1    3    3    0  502 -0.13171033959E+03  0.20859275069E+03 -0.55437279972E+03  0.60678476439E+03  0.50400001928E-02 0.  1.
</event>
<event>
 5   0  0.2661377E-04  0.1293287E+04  0.7818609E-02  0.9034906E-01
        2   -1    0    0  501    0  0.00000000000E+00  0.00000000000E+00  0.14712544026E+04  0.14712544026E+04  0.25500000920E-02 0.  1.
       -2   -1    0    0    0  501  0.00000000000E+00  0.00000000000E+00 -0.28421176118E+03  0.28421176119E+03  0.25500000920E-02 0. -1.
    10030    2    1    2    0    0  0.00000000000E+00  0.00000000000E+00  0.11870426414E+04  0.17554661637E+04  0.12932869827E+04 0.  0.
        5    1    3    3  502    0  0.32700673908E+03  0.53103778244E+03  0.82543341104E+03  0.10345515646E+04  0.46999998093E+01 0.  1.
       -5    1    3    3    0  502 -0.32700673908E+03 -0.53103778244E+03  0.36160923034E+03  0.72091459913E+03  0.46999998093E+01 0. -1.
</event>
<event>
 5   0  0.1408341E-04  0.1299061E+04  0.7818609E-02  0.9030310E-01
        1   -1    0    0  501    0  0.00000000000E+00  0.00000000000E+00  0.94876173489E+03  0.94876173490E+03  0.50400001928E-02 0. -1.
       -1   -1    0    0    0  501  0.00000000000E+00  0.00000000000E+00 -0.44467444998E+03  0.44467445001E+03  0.50400001928E-02 0.  1.
    10030    2    1    2    0    0  0.00000000000E+00  0.00000000000E+00  0.50408728491E+03  0.13934361849E+04  0.12990613575E+04 0.  0.
        5    1    3    3  502    0  0.24030226354E+03 -0.12679184451E+03 -0.38077047166E+03  0.46779225280E+03  0.46999998093E+01 0.  1.
       -5    1    3    3    0  502 -0.24030226354E+03  0.12679184451E+03  0.88485775657E+03  0.92564393211E+03  0.46999998093E+01 0. -1.
</event>
<event>
 5   0  0.1475396E-04  0.1299547E+04  0.7818609E-02  0.9029924E-01
        1   -1    0    0  501    0  0.00000000000E+00  0.00000000000E+00  0.97625515929E+03  0.97625515930E+03  0.50400001928E-02 0.  1.
       -1   -1    0    0    0  501  0.00000000000E+00  0.00000000000E+00 -0.43247482760E+03  0.43247482763E+03  0.50400001928E-02 0. -1.
    10030    2    1    2    0    0  0.00000000000E+00  0.00000000000E+00  0.54378033169E+03  0.14087299869E+04  0.12995472777E+04 0.  0.
        3    1    3    3  502    0  0.57994174680E+03  0.97629502729E+02 -0.27623702326E+02  0.58875039585E+03  0.10100000352E+00 0. -1.
       -3    1    3    3    0  502 -0.57994174680E+03 -0.97629502729E+02  0.57140403402E+03  0.81997959107E+03  0.10100000352E+00 0.  1.
</event>
<event>
 5   0  0.2794825E-04  0.1297899E+04  0.7818609E-02  0.9031233E-01
        2   -1    0    0  501    0  0.00000000000E+00  0.00000000000E+00  0.19891158641E+04  0.19891158641E+04  0.25500000920E-02 0. -1.
       -2   -1    0    0    0  501  0.00000000000E+00  0.00000000000E+00 -0.21171990350E+03  0.21171990351E+03  0.25500000920E-02 0.  1.
    10030    2    1    2    0    0  0.00000000000E+00  0.00000000000E+00  0.17773959606E+04  0.22008357676E+04  0.12978989465E+04 0.  0.
        1    1    3    3  502    0 -0.57174177940E+03  0.56286650615E+02  0.37695150997E+03  0.68713120308E+03  0.50400001928E-02 0.  1.
       -1    1    3    3    0  502  0.57174177940E+03 -0.56286650615E+02  0.14004444506E+04  0.15137045645E+04  0.50400001928E-02 0. -1.
</event>
<event>
 5   0  0.1475396E-04  0.1302634E+04  0.7818609E-02  0.9027479E-01
       -1   -1    0    0    0  501  0.00000000000E+00  0.00000000000E+00  0.24713865475E+03  0.24713865481E+03  0.50400001928E-02 0. -1.
        1   -1    0    0  501    0  0.00000000000E+00  0.00000000000E+00 -0.17165014963E+04  0.17165014963E+04  0.50400001928E-02 0.  1.
    10030    2    1    2    0    0  0.00000000000E+00  0.00000000000E+00 -0.14693628416E+04  0.19636401511E+04  0.13026340557E+04 0.  0.
        3    1    3    3  502    0 -0.26360427573E+03 -0.59551480983E+03 -0.72047965637E+03  0.97119310560E+03  0.10100000352E+00 0.  1.
       -3    1    3    3    0  502  0.26360427573E+03  0.59551480983E+03 -0.74888318519E+03  0.99244704553E+03  0.10100000352E+00 0. -1.
</event>
<event>
 5   0  0.2756984E-04  0.1296501E+04  0.7818609E-02  0.9032344E-01
       -2   -1    0    0    0  501  0.00000000000E+00  0.00000000000E+00  0.21543857159E+03  0.21543857160E+03  0.25500000920E-02 0.  1.
        2   -1    0    0  501    0  0.00000000000E+00  0.00000000000E+00 -0.19505739271E+04  0.19505739271E+04  0.25500000920E-02 0. -1.
    10030    2    1    2    0    0  0.00000000000E+00  0.00000000000E+00 -0.17351353555E+04  0.21660124987E+04  0.12965012312E+04 0.  0.
        3    1    3    3  502    0 -0.42685494379E+03 -0.19783378337E+03 -0.16126248285E+04  0.16798518377E+04  0.10100000352E+00 0. -1.
       -3    1    3    3    0  502  0.42685494379E+03  0.19783378337E+03 -0.12251052700E+03  0.48616066100E+03  0.10100000352E+00 0.  1.
</event>
<event>
 5   0  0.1479690E-04  0.1301731E+04  0.7818609E-02  0.9028194E-01
       -1   -1    0    0    0  501  0.00000000000E+00  0.00000000000E+00  0.23398266472E+03  0.23398266477E+03  0.50400001928E-02 0.  1.
        1   -1    0    0  501    0  0.00000000000E+00  0.00000000000E+00 -0.18105013186E+04  0.18105013186E+04  0.50400001928E-02 0. -1.
    10030    2    1    2    0    0  0.00000000000E+00  0.00000000000E+00 -0.15765186539E+04  0.20444839834E+04  0.13017310369E+04 0.  0.
        1    1    3    3  502    0 -0.33531401380E+03 -0.34811348597E+03 -0.10364221242E+03  0.49432802387E+03  0.50400001928E-02 0.  1.
       -1    1    3    3    0  502  0.33531401380E+03  0.34811348597E+03 -0.14728764415E+04  0.15501559595E+04  0.50400001928E-02 0. -1.
</event>
<event>
 5   0  0.1479690E-04  0.1304944E+04  0.7818609E-02  0.9025654E-01
       -1   -1    0    0    0  501  0.00000000000E+00  0.00000000000E+00  0.39162333913E+03  0.39162333917E+03  0.50400001928E-02 0.  1.
        1   -1    0    0  501    0  0.00000000000E+00  0.00000000000E+00 -0.10870641858E+04  0.10870641858E+04  0.50400001928E-02 0. -1.
    10030    2    1    2    0    0  0.00000000000E+00  0.00000000000E+00 -0.69544084665E+03  0.14786875250E+04  0.13049439932E+04 0.  0.
        1    1    3    3  502    0  0.25427085285E+03  0.57521523210E+03 -0.54461832886E+03  0.83194672546E+03  0.50400001928E-02 0. -1.
       -1    1    3    3    0  502 -0.25427085285E+03 -0.57521523210E+03 -0.15082251779E+03  0.64674079950E+03  0.50400001928E-02 0.  1.
</event>
<event>
 5   0  0.2794825E-04  0.1298925E+04  0.7818609E-02  0.9030418E-01
       -2   -1    0    0    0  501  0.00000000000E+00  0.00000000000E+00  0.21146405104E+03  0.21146405105E+03  0.25500000920E-02 0.  1.
        2   -1    0    0  501    0  0.00000000000E+00  0.00000000000E+00 -0.19946729251E+04  0.19946729251E+04  0.25500000920E-02 0. -1.
    10030    2    1    2    0    0  0.00000000000E+00  0.00000000000E+00 -0.17832088741E+04  0.22061369762E+04  0.12989251206E+04 0.  0.
        1    1    3    3  502    0  0.18734016979E+03  0.20027163091E+03  0.10830456128E+03  0.29484732216E+03  0.50400001928E-02 0.  1.
       -1    1    3    3    0  502 -0.18734016979E+03 -0.20027163091E+03 -0.18915134354E+04  0.19112896540E+04  0.50400001928E-02 0. -1.
</event>
<event>
 5   0  0.1479690E-04  0.1304673E+04  0.7818609E-02  0.9025867E-01
        1   -1    0    0  501    0  0.00000000000E+00  0.00000000000E+00  0.68497143370E+03  0.68497143372E+03  0.50400001928E-02 0. -1.
       -1   -1    0    0    0  501  0.00000000000E+00  0.00000000000E+00 -0.62125678163E+03  0.62125678165E+03  0.50400001928E-02 0.  1.
    10030    2    1    2    0    0  0.00000000000E+00  0.00000000000E+00  0.63714652069E+02  0.13062282154E+04  0.13046733667E+04 0.  0.
        1    1    3    3  502    0 -0.50956206724E+03 -0.87455856449E+02 -0.36641207360E+03  0.63368748994E+03  0.50400001928E-02 0.  1.
       -1    1    3    3    0  502  0.50956206724E+03  0.87455856449E+02  0.43012672567E+03  0.67254072543E+03  0.50400001928E-02 0. -1.
</event>
<event>
 5   0  0.1479690E-04  0.1297576E+04  0.7818609E-02  0.9031489E-01
        1   -1    0    0  501    0  0.00000000000E+00  0.00000000000E+00  0.11593008066E+04  0.11593008066E+04  0.50400001928E-02 0.  1.
       -1   -1    0    0    0  501  0.00000000000E+00  0.00000000000E+00 -0.36308613135E+03  0.36308613138E+03  0.50400001928E-02 0. -1.
    10030    2    1    2    0    0  0.00000000000E+00  0.00000000000E+00  0.79621467523E+03  0.15223869380E+04  0.12975762713E+04 0.  0.
        1    1    3    3  502    0 -0.31033243605E+03  0.39390766114E+03 -0.84864014323E+02  0.50859745115E+03  0.50400001928E-02 0. -1.
       -1    1    3    3    0  502  0.31033243605E+03 -0.39390766114E+03  0.88107868955E+03  0.10137894868E+04  0.50400001928E-02 0.  1.
</event>
<event>
 5   0  0.2756984E-04  0.1298205E+04  0.7818609E-02  0.9030990E-01
       -2   -1    0    0    0  501  0.00000000000E+00  0.00000000000E+00  0.61725299527E+03  0.61725299528E+03  0.25500000920E-02 0.  1.
        2   -1    0    0  501    0  0.00000000000E+00  0.00000000000E+00 -0.68259515290E+03  0.68259515290E+03  0.25500000920E-02 0. -1.
    10030    2    1    2    0    0  0.00000000000E+00  0.00000000000E+00 -0.65342157622E+02  0.12998481482E+04  0.12982047646E+04 0.  0.
        3    1    3    3  502    0  0.15209215985E+03 -0.62893260492E+03  0.18829875633E+02  0.64733516900E+03  0.10100000352E+00 0.  1.
       -3    1    3    3    0  502 -0.15209215985E+03  0.62893260492E+03 -0.84172033255E+02  0.65251297918E+03  0.10100000352E+00 0. -1.
</event>
<event>
 5   0  0.2661377E-04  0.1294516E+04  0.7818609E-02  0.9033926E-01
       -2   -1    0    0    0  501  0.00000000000E+00  0.00000000000E+00  0.23831191470E+03  0.23831191472E+03  0.25500000920E-02 0.  1.
        2   -1    0    0  501    0  0.00000000000E+00  0.00000000000E+00 -0.17579595356E+04  0.17579595356E+04  0.25500000920E-02 0. -1.
    10030    2    1    2    0    0  0.00000000000E+00  0.00000000000E+00 -0.15196476209E+04  0.19962714504E+04  0.12945156668E+04 0.  0.
        5    1    3    3  502    0 -0.37970310012E+03  0.40109807129E+03 -0.12801914512E+04  0.13942619369E+04  0.46999998093E+01 0. -1.
       -5    1    3    3    0  502  0.37970310012E+03 -0.40109807129E+03 -0.23945616972E+03  0.60200951342E+03  0.46999998093E+01 0.  1.
</event>
<event>
 5   0  0.2723209E-04  0.1298940E+04  0.7818609E-02  0.9030406E-01
       -2   -1    0    0    0  501  0.00000000000E+00  0.00000000000E+00  0.15826159240E+03  0.15826159243E+03  0.25500000920E-02 0. -1.
        2   -1    0    0  501    0  0.00000000000E+00  0.00000000000E+00 -0.26652792076E+04  0.26652792076E+04  0.25500000920E-02 0.  1.
    10030    2    1    2    0    0  0.00000000000E+00  0.00000000000E+00 -0.25070176152E+04  0.28235408000E+04  0.12989400781E+04 0.  0.
        2    1    3    3  502    0 -0.56122069699E+03  0.24470300418E+03 -0.17245765134E+04  0.18300307050E+04  0.25500000920E-02 0.  1.
       -2    1    3    3    0  502  0.56122069699E+03 -0.24470300418E+03 -0.78244110184E+03  0.99351009498E+03  0.25500000920E-02 0. -1.
</event>
<event>
 5   0  0.2723209E-04  0.1297708E+04  0.7818609E-02  0.9031385E-01
       -2   -1    0    0    0  501  0.00000000000E+00  0.00000000000E+00  0.12675881657E+04  0.12675881657E+04  0.25500000920E-02 0.  1.
        2   -1    0    0  501    0  0.00000000000E+00  0.00000000000E+00 -0.33213579543E+03  0.33213579544E+03  0.25500000920E-02 0. -1.
    10030    2    1    2    0    0  0.00000000000E+00  0.00000000000E+00  0.93545237031E+03  0.15997239612E+04  0.12977078311E+04 0.  0.
        2    1    3    3  502    0  0.54333875227E+03  0.40367324653E+02  0.90210388015E+03  0.10538680806E+04  0.25500000920E-02 0.  1.
       -2    1    3    3    0  502 -0.54333875227E+03 -0.40367324653E+02  0.33348490157E+02  0.54585588063E+03  0.25500000920E-02 0. -1.
</event>
<event>
 5   0  0.2756984E-04  0.1301747E+04  0.7818609E-02  0.9028181E-01
        2   -1    0    0  501    0  0.00000000000E+00  0.00000000000E+00  0.65978651783E+03  0.65978651784E+03  0.25500000920E-02 0. -1.
       -2   -1    0    0    0  501  0.00000000000E+00  0.00000000000E+00 -0.64208044025E+03  0.64208044025E+03  0.25500000920E-02 0.  1.
    10030    2    1    2    0    0  0.00000000000E+00  0.00000000000E+00  0.17706077585E+02  0.13018669581E+04  0.13017465465E+04 0.  0.
        3    1    3    3  502    0  0.21596318144E+02 -0.31197969516E+03 -0.56202221848E+03  0.64316927431E+03  0.10100000352E+00 0.  1.
       -3    1    3    3    0  502 -0.21596318144E+02  0.31197969516E+03  0.57972829607E+03  0.65869768378E+03  0.10100000352E+00 0. -1.
</event>
<event>
 5   0  0.1476511E-04  0.1288557E+04  0.7818609E-02  0.9038689E-01
       -1   -1    0    0    0  501  0.00000000000E+00  0.00000000000E+00  0.79027255138E+03  0.79027255139E+03  0.50400001928E-02 0.  1.
        1   -1    0    0  501    0  0.00000000000E+00  0.00000000000E+00 -0.52525537157E+03  0.52525537159E+03  0.50400001928E-02 0. -1.
    10030    2    1    2    0    0  0.00000000000E+00  0.00000000000E+00  0.26501717981E+03  0.13155279230E+04  0.12885571817E+04 0.  0.
        2    1    3    3  502    0  0.50455603094E+02 -0.43680257635E+02  0.78673431793E+03  0.78955976329E+03  0.25500000920E-02 0.  1.
       -2    1    3    3    0  502 -0.50455603094E+02  0.43680257635E+02 -0.52171713813E+03  0.52596815969E+03  0.25500000920E-02 0. -1.
</event>
<event>
 5   0  0.2794825E-04  0.1300736E+04  0.7818609E-02  0.9028982E-01
       -2   -1    0    0    0  501  0.00000000000E+00  0.00000000000E+00  0.31881941882E+03  0.31881941883E+03  0.25500000920E-02 0.  1.
        2   -1    0    0  501    0  0.00000000000E+00  0.00000000000E+00 -0.13267023162E+04  0.13267023162E+04  0.25500000920E-02 0. -1.
    10030    2    1    2    0    0  0.00000000000E+00  0.00000000000E+00 -0.10078828973E+04  0.16455217350E+04  0.13007358862E+04 0.  0.
        1    1    3    3  502    0  0.44131561694E+03  0.44509990795E+03 -0.72344130798E+03  0.95720464266E+03  0.50400001928E-02 0. -1.
       -1    1    3    3    0  502 -0.44131561694E+03 -0.44509990795E+03 -0.28444158935E+03  0.68831709233E+03  0.50400001928E-02 0.  1.
</event>
<event>
 5   0  0.1475396E-04  0.1292057E+04  0.7818609E-02  0.9035888E-01
        1   -1    0    0  501    0  0.00000000000E+00  0.00000000000E+00  0.38179318859E+03  0.38179318862E+03  0.50400001928E-02 0. -1.
       -1   -1    0    0    0  501  0.00000000000E+00  0.00000000000E+00 -0.10931389071E+04  0.10931389071E+04  0.50400001928E-02 0.  1.
    10030    2    1    2    0    0  0.00000000000E+00  0.00000000000E+00 -0.71134571852E+03  0.14749320957E+04  0.12920572572E+04 0.  0.
        3    1    3    3  502    0 -0.50459590549E+03  0.46549200480E+01  0.10479901076E+03  0.51538484550E+03  0.10100000352E+00 0. -1.
       -3    1    3    3    0  502  0.50459590549E+03 -0.46549200480E+01 -0.81614472927E+03  0.95954725024E+03  0.10100000352E+00 0.  1.
</event>
<event>
 5   0  0.1475396E-04  0.1301699E+04  0.7818609E-02  0.9028219E-01
        1   -1    0    0  501    0  0.00000000000E+00  0.00000000000E+00  0.13685120343E+04  0.13685120343E+04  0.50400001928E-02 0.  1.
       -1   -1    0    0    0  501  0.00000000000E+00  0.00000000000E+00 -0.30953687021E+03  0.30953687025E+03  0.50400001928E-02 0. -1.
    10030    2    1    2    0    0  0.00000000000E+00  0.00000000000E+00  0.10589751641E+04  0.16780489045E+04  0.13016987854E+04 0.  0.
        3    1    3    3  502    0 -0.11967624961E+03 -0.39574177863E+02 -0.29365146795E+03  0.31956175476E+03  0.10100000352E+00 0. -1.
       -3    1    3    3    0  502  0.11967624961E+03  0.39574177863E+02  0.13526266320E+04  0.13584871498E+04  0.10100000352E+00 0.  1.
</event>
<event>
 5   0  0.1430636E-04  0.1302029E+04  0.7818609E-02  0.9027957E-01
        1   -1    0    0  501    0  0.00000000000E+00  0.00000000000E+00  0.13657605331E+04  0.13657605331E+04  0.50400001928E-02 0.  1.
       -1   -1    0    0    0  501  0.00000000000E+00  0.00000000000E+00 -0.31031805599E+03  0.31031805603E+03  0.50400001928E-02 0. -1.
    10030    2    1    2    0    0  0.00000000000E+00  0.00000000000E+00  0.10554424771E+04  0.16760785891E+04  0.13020294215E+04 0.  0.
        4    1    3    3  502    0 -0.91276872838E+02  0.38832701083E+03 -0.13455884638E+03  0.42099528607E+03  0.12699999809E+01 0. -1.
       -4    1    3    3    0  502  0.91276872838E+02 -0.38832701083E+03  0.11900013234E+04  0.12550833030E+04  0.12699999809E+01 0.  1.
</event>
<event>
 5   0  0.2573071E-04  0.1301988E+04  0.7818609E-02  0.9027990E-01
        2   -1    0    0  501    0  0.00000000000E+00  0.00000000000E+00  0.15091456431E+04  0.15091456431E+04  0.25500000920E-02 0. -1.
       -2   -1    0    0    0  501  0.00000000000E+00  0.00000000000E+00 -0.28081659539E+03  0.28081659540E+03  0.25500000920E-02 0.  1.
    10030    2    1    2    0    0  0.00000000000E+00  0.00000000000E+00  0.12283290477E+04  0.17899622385E+04  0.13019879284E+04 0.  0.
        4    1    3    3  502    0  0.11668678330E+03  0.28680842677E+03 -0.17309630916E+03  0.35473768366E+03  0.12699999809E+01 0. -1.
       -4    1    3    3    0  502 -0.11668678330E+03 -0.28680842677E+03  0.14014253568E+04  0.14352245548E+04  0.12699999809E+01 0.  1.
</event>
<event>
 5   0  0.1475396E-04  0.1265138E+04  0.7818609E-02  0.9057677E-01
       -1   -1    0    0    0  501  0.00000000000E+00  0.00000000000E+00  0.34374966349E+03  0.34374966353E+03  0.50400001928E-02 0. -1.
        1   -1    0    0  501    0  0.00000000000E+00  0.00000000000E+00 -0.11640554765E+04  0.11640554765E+04  0.50400001928E-02 0.  1.
    10030    2    1    2    0    0  0.00000000000E+00  0.00000000000E+00 -0.82030581302E+03  0.15078051401E+04  0.12651382191E+04 0.  0.
        3    1    3    3  502    0  0.61187190034E+03 -0.73901945037E+02 -0.24036716405E+03  0.66153239048E+03  0.10100000352E+00 0.  1.
       -3    1    3    3    0  502 -0.61187190034E+03  0.73901945037E+02 -0.57993864897E+03  0.84627274957E+03  0.10100000352E+00 0. -1.
</event>
<event>
 5   0  0.2661377E-04  0.1298901E+04  0.7818609E-02  0.9030437E-01
       -2   -1    0    0    0  501  0.00000000000E+00  0.00000000000E+00  0.38203164204E+03  0.38203164205E+03  0.25500000920E-02 0.  1.
        2   -1    0    0  501    0  0.00000000000E+00  0.00000000000E+00 -0.11040607111E+04  0.11040607111E+04  0.25500000920E-02 0. -1.
    10030    2    1    2    0    0  0.00000000000E+00  0.00000000000E+00 -0.72202906903E+03  0.14860923531E+04  0.12989012686E+04 0.  0.
        5    1    3    3  502    0 -0.20790333876E+03 -0.25489231752E+03  0.27965933557E+03  0.43176999174E+03  0.46999998093E+01 0.  1.
       -5    1    3    3    0  502  0.20790333876E+03  0.25489231752E+03 -0.10016884046E+04  0.10543223614E+04  0.46999998093E+01 0. -1.
</event>
<event>
 5   0  0.1475396E-04  0.1298895E+04  0.7818609E-02  0.9030442E-01
       -1   -1    0    0    0  501  0.00000000000E+00  0.00000000000E+00  0.42805732784E+03  0.42805732787E+03  0.50400001928E-02 0. -1.
        1   -1    0    0  501    0  0.00000000000E+00  0.00000000000E+00 -0.98533937558E+03  0.98533937559E+03  0.50400001928E-02 0.  1.
    10030    2    1    2    0    0  0.00000000000E+00  0.00000000000E+00 -0.55728204774E+03  0.14133967035E+04  0.12988945148E+04 0.  0.
        3    1    3    3  502    0  0.14904953338E+03 -0.52891947203E+03  0.98008144527E+02  0.55819098693E+03  0.10100000352E+00 0. -1.
       -3    1    3    3    0  502 -0.14904953338E+03  0.52891947203E+03 -0.65529019227E+03  0.85520571653E+03  0.10100000352E+00 0.  1.
</event>
<event>
 5   0  0.2794825E-04  0.1302694E+04  0.7818609E-02  0.9027431E-01
       -2   -1    0    0    0  501  0.00000000000E+00  0.00000000000E+00  0.44632651344E+03  0.44632651345E+03  0.25500000920E-02 0. -1.
        2   -1    0    0  501    0  0.00000000000E+00  0.00000000000E+00 -0.95054422424E+03  0.95054422425E+03  0.25500000920E-02 0.  1.
    10030    2    1    2    0    0  0.00000000000E+00  0.00000000000E+00 -0.50421771080E+03  0.13968707377E+04  0.13026942688E+04 0.  0.
        1    1    3    3  502    0 -0.35576517432E+03 -0.80762889382E+02  0.32649424345E+03  0.48958144837E+03  0.50400001928E-02 0. -1.
       -1    1    3    3    0  502  0.35576517432E+03  0.80762889382E+02 -0.83071195425E+03  0.90728928932E+03  0.50400001928E-02 0.  1.
</event>
<event>
 5   0  0.1475396E-04  0.1284743E+04  0.7818609E-02  0.9041752E-01
       -1   -1    0    0    0  501  0.00000000000E+00  0.00000000000E+00  0.22236378231E+03  0.22236378237E+03  0.50400001928E-02 0.  1.
        1   -1    0    0  501    0  0.00000000000E+00  0.00000000000E+00 -0.18557029205E+04  0.18557029205E+04  0.50400001928E-02 0. -1.
    10030    2    1    2    0    0  0.00000000000E+00  0.00000000000E+00 -0.16333391382E+04  0.20780667029E+04  0.12847429631E+04 0.  0.
        3    1    3    3  502    0 -0.58854565058E+03  0.43843527102E+02 -0.12269300715E+04  0.13614939031E+04  0.10100000352E+00 0.  1.
       -3    1    3    3    0  502  0.58854565058E+03 -0.43843527102E+02 -0.40640906672E+03  0.71657279979E+03  0.10100000352E+00 0. -1.
</event>
<event>
 5   0  0.2661377E-04  0.1299562E+04  0.7818609E-02  0.9029913E-01
        2   -1    0    0  501    0  0.00000000000E+00  0.00000000000E+00  0.17608502626E+04  0.17608502626E+04  0.25500000920E-02 0.  1.
       -2   -1    0    0    0  501  0.00000000000E+00  0.00000000000E+00 -0.23977922534E+03  0.23977922536E+03  0.25500000920E-02 0. -1.
    10030    2    1    2    0    0  0.00000000000E+00  0.00000000000E+00  0.15210710373E+04  0.20006294880E+04  0.12995619446E+04 0.  0.
        5    1    3    3  502    0 -0.39132010009E+03  0.18955923097E+03  0.15038420060E+04  0.15654478566E+04  0.46999998093E+01 0.  1.
       -5    1    3    3    0  502  0.39132010009E+03 -0.18955923097E+03  0.17229031300E+02  0.43518163139E+03  0.46999998093E+01 0. -1.
</event>
<event>
 5   0  0.2756984E-04  0.1298453E+04  0.7818609E-02  0.9030793E-01
        2   -1    0    0  501    0  0.00000000000E+00  0.00000000000E+00  0.12819596520E+04  0.12819596520E+04  0.25500000920E-02 0.  1.
       -2   -1    0    0    0  501  0.00000000000E+00  0.00000000000E+00 -0.32878941144E+03  0.32878941145E+03  0.25500000920E-02 0. -1.
    10030    2    1    2    0    0  0.00000000000E+00  0.00000000000E+00  0.95317024057E+03  0.16107490635E+04  0.12984525551E+04 0.  0.
        3    1    3    3  502    0  0.65132966281E+02 -0.64313134691E+03  0.55137195128E+03  0.84963007924E+03  0.10100000352E+00 0.  1.
       -3    1    3    3    0  502 -0.65132966281E+02  0.64313134691E+03  0.40179828928E+03  0.76111898423E+03  0.10100000352E+00 0. -1.
</event>
<event>
 5   0  0.2756984E-04  0.1296256E+04  0.7818609E-02  0.9032540E-01
        2   -1    0    0  501    0  0.00000000000E+00  0.00000000000E+00  0.28337879733E+03  0.28337879734E+03  0.25500000920E-02 0. -1.
       -2   -1    0    0    0  501  0.00000000000E+00  0.00000000000E+00 -0.14823608192E+04  0.14823608192E+04  0.25500000920E-02 0.  1.
    10030    2    1    2    0    0  0.00000000000E+00  0.00000000000E+00 -0.11989820219E+04  0.17657396165E+04  0.12962555707E+04 0.  0.
        3    1    3    3  502    0 -0.55682064175E+03  0.32144774249E+03 -0.71092187054E+03  0.95853419055E+03  0.10100000352E+00 0. -1.
       -3    1    3    3    0  502  0.55682064175E+03 -0.32144774249E+03 -0.48806015132E+03  0.80720542599E+03  0.10100000352E+00 0.  1.
</event>
<event>
 5   0  0.1479690E-04  0.1298191E+04  0.7818609E-02  0.9031001E-01
        1   -1    0    0  501    0  0.00000000000E+00  0.00000000000E+00  0.47026680234E+03  0.47026680237E+03  0.50400001928E-02 0.  1.
       -1   -1    0    0    0  501  0.00000000000E+00  0.00000000000E+00 -0.89592817937E+03  0.89592817939E+03  0.50400001928E-02 0. -1.
    10030    2    1    2    0    0  0.00000000000E+00  0.00000000000E+00 -0.42566137703E+03  0.13661949818E+04  0.12981914806E+04 0.  0.
        1    1    3    3  502    0 -0.30390110815E+02 -0.51445739963E+03  0.20247460831E+03  0.55370203350E+03  0.50400001928E-02 0.  1.
       -1    1    3    3    0  502  0.30390110815E+02  0.51445739963E+03 -0.62813598534E+03  0.81249294826E+03  0.50400001928E-02 0. -1.
</event>
<event>
 5   0  0.1430636E-04  0.1298604E+04  0.7818609E-02  0.9030673E-01
       -1   -1    0    0    0  501  0.00000000000E+00  0.00000000000E+00  0.47664616863E+03  0.47664616866E+03  0.50400001928E-02 0.  1.
        1   -1    0    0  501    0  0.00000000000E+00  0.00000000000E+00 -0.88449941193E+03  0.88449941195E+03  0.50400001928E-02 0. -1.
    10030    2    1    2    0    0  0.00000000000E+00  0.00000000000E+00 -0.40785324330E+03  0.13611455806E+04  0.12986042598E+04 0.  0.
        4    1    3    3  502    0 -0.94330145480E+02 -0.38752085097E+03 -0.74097056878E+03  0.84149247351E+03  0.12699999809E+01 0. -1.
       -4    1    3    3    0  502  0.94330145480E+02  0.38752085097E+03  0.33311732548E+03  0.51965310710E+03  0.12699999809E+01 0.  1.
</event>
<event>
 5   0  0.1479690E-04  0.1297122E+04  0.7818609E-02  0.9031851E-01
       -1   -1    0    0    0  501  0.00000000000E+00  0.00000000000E+00  0.13004656229E+04  0.13004656229E+04  0.50400001928E-02 0. -1.
        1   -1    0    0  501    0  0.00000000000E+00  0.00000000000E+00 -0.32344651224E+03  0.32344651228E+03  0.50400001928E-02 0.  1.
    10030    2    1    2    0    0  0.00000000000E+00  0.00000000000E+00  0.97701911066E+03  0.16239121352E+04  0.12971215364E+04 0.  0.
        1    1    3    3  502    0 -0.32162052547E+03 -0.43534031830E+03  0.41181144844E+02  0.54282302996E+03  0.50400001928E-02 0.  1.
       -1    1    3    3    0  502  0.32162052547E+03  0.43534031830E+03  0.93583796582E+03  0.10810891052E+04  0.50400001928E-02 0. -1.
</event>
<event>
 5   0  0.1002887E-04  0.1293665E+04  0.7818609E-02  0.9034604E-01
        3   -1    0    0  501    0  0.00000000000E+00  0.00000000000E+00  0.25556197125E+03  0.25556199121E+03  0.10100000352E+00 0.  1.
       -3   -1    0    0    0  501  0.00000000000E+00  0.00000000000E+00 -0.16371463027E+04  0.16371463058E+04  0.10100000352E+00 0. -1.
    10030    2    1    2    0    0  0.00000000000E+00  0.00000000000E+00 -0.13815843315E+04  0.18927082970E+04  0.12936651161E+04 0.  0.
        2    1    3    3  502    0 -0.20248480408E+03  0.58307703581E+03 -0.97378510260E+03  0.11529251284E+04  0.25500000920E-02 0. -1.
       -2    1    3    3    0  502  0.20248480408E+03 -0.58307703581E+03 -0.40779922886E+03  0.73978316866E+03  0.25500000920E-02 0.  1.
</event>
<event>
 5   0  0.1475396E-04  0.1298532E+04  0.7818609E-02  0.9030730E-01
       -1   -1    0    0    0  501  0.00000000000E+00  0.00000000000E+00  0.11229090143E+04  0.11229090143E+04  0.50400001928E-02 0. -1.
        1   -1    0    0  501    0  0.00000000000E+00  0.00000000000E+00 -0.37540553992E+03  0.37540553995E+03  0.50400001928E-02 0.  1.
    10030    2    1    2    0    0  0.00000000000E+00  0.00000000000E+00  0.74750347434E+03  0.14983145542E+04  0.12985318861E+04 0.  0.
        3    1    3    3  502    0  0.10984052800E+03  0.62082535616E+03  0.55271868453E+03  0.83844321148E+03  0.10100000352E+00 0.  1.
       -3    1    3    3    0  502 -0.10984052800E+03 -0.62082535616E+03  0.19478478981E+03  0.65987134275E+03  0.10100000352E+00 0. -1.
</event>
<event>
 5   0  0.1430636E-04  0.1295318E+04  0.7818609E-02  0.9033286E-01
       -1   -1    0    0    0  501  0.00000000000E+00  0.00000000000E+00  0.72039941286E+03  0.72039941288E+03  0.50400001928E-02 0. -1.
        1   -1    0    0  501    0  0.00000000000E+00  0.00000000000E+00 -0.58226352521E+03  0.58226352523E+03  0.50400001928E-02 0.  1.
    10030    2    1    2    0    0  0.00000000000E+00  0.00000000000E+00  0.13813588765E+03  0.13026629381E+04  0.12953181875E+04 0.  0.
        4    1    3    3  502    0 -0.47912982307E+03  0.31722815108E+03  0.36952882138E+03  0.68319268873E+03  0.12699999809E+01 0. -1.
       -4    1    3    3    0  502  0.47912982307E+03 -0.31722815108E+03 -0.23139293373E+03  0.61947024939E+03  0.12699999809E+01 0.  1.
</event>
<event>
 5   0  0.1476511E-04  0.1300594E+04  0.7818609E-02  0.9029095E-01
        1   -1    0    0  501    0  0.00000000000E+00  0.00000000000E+00  0.12561497346E+04  0.12561497346E+04  0.50400001928E-02 0.  1.
       -1   -1    0    0    0  501  0.00000000000E+00  0.00000000000E+00 -0.33665250561E+03  0.33665250565E+03  0.50400001928E-02 0. -1.
    10030    2    1    2    0    0  0.00000000000E+00  0.00000000000E+00  0.91949722900E+03  0.15928022403E+04  0.13005936423E+04 0.  0.
        2    1    3    3  502    0  0.21354280847E+03  0.60986142878E+03  0.54936308879E+03  0.84813400869E+03  0.25500000920E-02 0. -1.
       -2    1    3    3    0  502 -0.21354280847E+03 -0.60986142878E+03  0.37013414021E+03  0.74466823158E+03  0.25500000920E-02 0.  1.
</event>
<event>
 5   0  0.2723209E-04  0.1322948E+04  0.7818609E-02  0.9011562E-01
        2   -1    0    0  501    0  0.00000000000E+00  0.00000000000E+00  0.14937195489E+04  0.14937195489E+04  0.25500000920E-02 0.  1.
       -2   -1    0    0    0  501  0.00000000000E+00  0.00000000000E+00 -0.29292513731E+03  0.29292513732E+03  0.25500000920E-02 0. -1.
    10030    2    1    2    0    0  0.00000000000E+00  0.00000000000E+00  0.12007944116E+04  0.17866446863E+04  0.13229482287E+04 0.  0.
        2    1    3    3  502    0  0.42809438864E+03 -0.42259955899E+03  0.97195182103E+03  0.11430422281E+04  0.25500000920E-02 0.  1.
       -2    1    3    3    0  502 -0.42809438864E+03  0.42259955899E+03  0.22884259059E+03  0.64360245814E+03  0.25500000920E-02 0. -1.
</event>
<event>
 5   0  0.1408341E-04  0.1298635E+04  0.7818609E-02  0.9030649E-01
        1   -1    0    0  501    0  0.00000000000E+00  0.00000000000E+00  0.16788707590E+04  0.16788707590E+04  0.50400001928E-02 0.  1.
       -1   -1    0    0    0  501  0.00000000000E+00  0.00000000000E+00 -0.25112887009E+03  0.25112887014E+03  0.50400001928E-02 0. -1.
    10030    2    1    2    0    0  0.00000000000E+00  0.00000000000E+00  0.14277418889E+04  0.19299996291E+04  0.12986345395E+04 0.  0.
        5    1    3    3  502    0 -0.27925176866E+03  0.51880723399E+03  0.11193773860E+04  0.12649783866E+04  0.46999998093E+01 0.  1.
       -5    1    3    3    0  502  0.27925176866E+03 -0.51880723399E+03  0.30836450288E+03  0.66502124250E+03  0.46999998093E+01 0. -1.
</event>
<event>
 5   0  0.1475396E-04  0.1301622E+04  0.7818609E-02  0.9028280E-01
       -1   -1    0    0    0  501  0.00000000000E+00  0.00000000000E+00  0.22567278284E+03  0.22567278289E+03  0.50400001928E-02 0.  1.
        1   -1    0    0  501    0  0.00000000000E+00  0.00000000000E+00 -0.18768546170E+04  0.18768546170E+04  0.50400001928E-02 0. -1.
    10030    2    1    2    0    0  0.00000000000E+00  0.00000000000E+00 -0.16511818342E+04  0.21025273999E+04  0.13016220718E+04 0.  0.
        3    1    3    3  502    0 -0.21150896377E+03  0.51920920075E+02 -0.18162444758E+04  0.18292555397E+04  0.10100000352E+00 0. -1.
       -3    1    3    3    0  502  0.21150896377E+03 -0.51920920075E+02  0.16506264161E+03  0.27327186016E+03  0.10100000352E+00 0.  1.
</event>
<event>
 5   0  0.2723209E-04  0.1300260E+04  0.7818609E-02  0.9029359E-01
       -2   -1    0    0    0  501  0.00000000000E+00  0.00000000000E+00  0.28953359999E+03  0.28953360000E+03  0.25500000920E-02 0. -1.
        2   -1    0    0  501    0  0.00000000000E+00  0.00000000000E+00 -0.14598260767E+04  0.14598260767E+04  0.25500000920E-02 0.  1.
    10030    2    1    2    0    0  0.00000000000E+00  0.00000000000E+00 -0.11702924767E+04  0.17493596767E+04  0.13002595116E+04 0.  0.
        2    1    3    3  502    0  0.87825567913E+02 -0.63224591225E+03 -0.41916340218E+03  0.76364008647E+03  0.25500000920E-02 0. -1.
       -2    1    3    3    0  502 -0.87825567913E+02  0.63224591225E+03 -0.75112907454E+03  0.98571959023E+03  0.25500000920E-02 0.  1.
</event>
<event>
 5   0  0.1476511E-04  0.1299709E+04  0.7818609E-02  0.9029796E-01
        1   -1    0    0  501    0  0.00000000000E+00  0.00000000000E+00  0.81092594334E+03  0.81092594335E+03  0.50400001928E-02 0.  1.
       -1   -1    0    0    0  501  0.00000000000E+00  0.00000000000E+00 -0.52077625637E+03  0.52077625639E+03  0.50400001928E-02 0. -1.
    10030    2    1    2    0    0  0.00000000000E+00  0.00000000000E+00  0.29014968697E+03  0.13317021997E+04  0.12997091628E+04 0.  0.
        2    1    3    3  502    0  0.71519799425E+02 -0.31315198126E+03 -0.43374835798E+03  0.53973779110E+03  0.25500000920E-02 0. -1.
       -2    1    3    3    0  502 -0.71519799425E+02  0.31315198126E+03  0.72389804495E+03  0.79196440865E+03  0.25500000920E-02 0.  1.
</event>
<event>
 5   0  0.1408341E-04  0.1297935E+04  0.7818609E-02  0.9031205E-01
       -1   -1    0    0    0  501  0.00000000000E+00  0.00000000000E+00  0.66285628676E+03  0.66285628678E+03  0.50400001928E-02 0. -1.
        1   -1    0    0  501    0  0.00000000000E+00  0.00000000000E+00 -0.63536923888E+03  0.63536923890E+03  0.50400001928E-02 0.  1.
    10030    2    1    2    0    0  0.00000000000E+00  0.00000000000E+00  0.27487047881E+02  0.12982255257E+04  0.12979345044E+04 0.  0.
        5    1    3    3  502    0  0.24670609167E+03 -0.24983893234E+03  0.55962501300E+03  0.66067059338E+03  0.46999998093E+01 0. -1.
       -5    1    3    3    0  502 -0.24670609167E+03  0.24983893234E+03 -0.53213796512E+03  0.63755493230E+03  0.46999998093E+01 0.  1.
</event>
<event>
 5   0  0.2794825E-04  0.1302261E+04  0.7818609E-02  0.9027774E-01
       -2   -1    0    0    0  501  0.00000000000E+00  0.00000000000E+00  0.63662990499E+03  0.63662990500E+03  0.25500000920E-02 0.  1.
        2   -1    0    0  501    0  0.00000000000E+00  0.00000000000E+00 -0.66596153071E+03  0.66596153071E+03  0.25500000920E-02 0. -1.
    10030    2    1    2    0    0  0.00000000000E+00  0.00000000000E+00 -0.29331625718E+02  0.13025914357E+04  0.13022611505E+04 0.  0.
        1    1    3    3  502    0 -0.27857483502E+03  0.19540404426E+03 -0.56995014791E+03  0.66379955585E+03  0.50400001928E-02 0. -1.
       -1    1    3    3    0  502  0.27857483502E+03 -0.19540404426E+03  0.54061852219E+03  0.63879187986E+03  0.50400001928E-02 0.  1.
</event>
<event>
 5   0  0.2723209E-04  0.1290632E+04  0.7818609E-02  0.9037027E-01
        2   -1    0    0  501    0  0.00000000000E+00  0.00000000000E+00  0.48508955723E+03  0.48508955723E+03  0.25500000920E-02 0.  1.
       -2   -1    0    0    0  501  0.00000000000E+00  0.00000000000E+00 -0.85846522984E+03  0.85846522984E+03  0.25500000920E-02 0. -1.
    10030    2    1    2    0    0  0.00000000000E+00  0.00000000000E+00 -0.37337567261E+03  0.13435547871E+04  0.12906316566E+04 0.  0.
        2    1    3    3  502    0  0.25924040127E+03 -0.11738946228E+03  0.41623924996E+03  0.50422314972E+03  0.25500000920E-02 0.  1.
       -2    1    3    3    0  502 -0.25924040127E+03  0.11738946228E+03 -0.78961492257E+03  0.83933163735E+03  0.25500000920E-02 0. -1.
</event>
<event>
 5   0  0.2573071E-04  0.1299487E+04  0.7818609E-02  0.9029972E-01
        2   -1    0    0  501    0  0.00000000000E+00  0.00000000000E+00  0.12416669633E+04  0.12416669633E+04  0.25500000920E-02 0.  1.
       -2   -1    0    0    0  501  0.00000000000E+00  0.00000000000E+00 -0.33999973202E+03  0.33999973203E+03  0.25500000920E-02 0. -1.
    10030    2    1    2    0    0  0.00000000000E+00  0.00000000000E+00  0.90166723133E+03  0.15816666954E+04  0.12994867214E+04 0.  0.
        4    1    3    3  502    0  0.24670819608E+03  0.55598874965E+03  0.17281097010E+03  0.63233983587E+03  0.12699999809E+01 0. -1.
       -4    1    3    3    0  502 -0.24670819608E+03 -0.55598874965E+03  0.72885626123E+03  0.94932685950E+03  0.12699999809E+01 0.  1.
</event>
<event>
 5   0  0.2661377E-04  0.1298090E+04  0.7818609E-02  0.9031081E-01
       -2   -1    0    0    0  501  0.00000000000E+00  0.00000000000E+00  0.29552081978E+03  0.29552081979E+03  0.25500000920E-02 0.  1.
        2   -1    0    0  501    0  0.00000000000E+00  0.00000000000E+00 -0.14254816257E+04  0.14254816257E+04  0.25500000920E-02 0. -1.
    10030    2    1    2    0    0  0.00000000000E+00  0.00000000000E+00 -0.11299608059E+04  0.17210024455E+04  0.12980901334E+04 0.  0.
        5    1    3    3  502    0 -0.21742890958E+03 -0.17741400857E+03  0.21090623107E+03  0.35107632996E+03  0.46999998093E+01 0.  1.
       -5    1    3    3    0  502  0.21742890958E+03  0.17741400857E+03 -0.13408670370E+04  0.13699261156E+04  0.46999998093E+01 0. -1.
</event>
<event>
 5   0  0.2573071E-04  0.1302426E+04  0.7818609E-02  0.9027644E-01
       -2   -1    0    0    0  501  0.00000000000E+00  0.00000000000E+00  0.34799925745E+03  0.34799925746E+03  0.25500000920E-02 0.  1.
        2   -1    0    0  501    0  0.00000000000E+00  0.00000000000E+00 -0.12186185471E+04  0.12186185471E+04  0.25500000920E-02 0. -1.
    10030    2    1    2    0    0  0.00000000000E+00  0.00000000000E+00 -0.87061928960E+03  0.15666178045E+04  0.13024259664E+04 0.  0.
        4    1    3    3  502    0  0.42215843007E+03  0.15420064535E+03 -0.10021566650E+04  0.10983238016E+04  0.12699999809E+01 0. -1.
       -4    1    3    3    0  502 -0.42215843007E+03 -0.15420064535E+03  0.13153737542E+03  0.46829400288E+03  0.12699999809E+01 0.  1.
</event>
<event>
 5   0  0.2794825E-04  0.1301127E+04  0.7818609E-02  0.9028672E-01
        2   -1    0    0  501    0  0.00000000000E+00  0.00000000000E+00  0.94819542365E+03  0.94819542365E+03  0.25500000920E-02 0. -1.
       -2   -1    0    0    0  501  0.00000000000E+00  0.00000000000E+00 -0.44635588484E+03  0.44635588485E+03  0.25500000920E-02 0.  1.
    10030    2    1    2    0    0  0.00000000000E+00  0.00000000000E+00  0.50183953881E+03  0.13945513085E+04  0.13011266000E+04 0.  0.
        1    1    3    3  502    0  0.41436817272E+03  0.44768584948E+03  0.49322548278E+03  0.78447114624E+03  0.50400001928E-02 0. -1.
       -1    1    3    3    0  502 -0.41436817272E+03 -0.44768584948E+03  0.86140560306E+01  0.61008016226E+03  0.50400001928E-02 0.  1.
</event>
<event>
 5   0  0.1430636E-04  0.1299535E+04  0.7818609E-02  0.9029934E-01
        1   -1    0    0  501    0  0.00000000000E+00  0.00000000000E+00  0.54082649373E+03  0.54082649375E+03  0.50400001928E-02 0.  1.
       -1   -1    0    0    0  501  0.00000000000E+00  0.00000000000E+00 -0.78065271297E+03  0.78065271299E+03  0.50400001928E-02 0. -1.
    10030    2    1    2    0    0  0.00000000000E+00  0.00000000000E+00 -0.23982621925E+03  0.13214792067E+04  0.12995347931E+04 0.  0.
        4    1    3    3  502    0  0.49103060841E+02 -0.63432188856E+03 -0.25412935066E+03  0.68509759061E+03  0.12699999809E+01 0.  1.
       -4    1    3    3    0  502 -0.49103060841E+02  0.63432188856E+03  0.14303131415E+02  0.63638161614E+03  0.12699999809E+01 0. -1.
</event>
<event>
 5   0  0.2723209E-04  0.1301958E+04  0.7818609E-02  0.9028014E-01
       -2   -1    0    0    0  501  0.00000000000E+00  0.00000000000E+00  0.16776966885E+04  0.16776966885E+04  0.25500000920E-02 0.  1.
        2   -1    0    0  501    0  0.00000000000E+00  0.00000000000E+00 -0.25259241147E+03  0.25259241149E+03  0.25500000920E-02 0. -1.
    10030    2    1    2    0    0  0.00000000000E+00  0.00000000000E+00  0.14251042770E+04  0.19302891000E+04  0.13019576833E+04 0.  0.
        2    1    3    3  502    0  0.41786813648E+03 -0.47042859910E+03  0.46510092399E+03  0.78245492896E+03  0.25500000920E-02 0. -1.
       -2    1    3    3    0  502 -0.41786813648E+03  0.47042859910E+03  0.96000335300E+03  0.11478341710E+04  0.25500000920E-02 0.  1.
</event>
<event>
 5   0  0.2756984E-04  0.1296839E+04  0.7818609E-02  0.9032075E-01
        2   -1    0    0  501    0  0.00000000000E+00  0.00000000000E+00  0.11212031073E+04  0.11212031073E+04  0.25500000920E-02 0. -1.
       -2   -1    0    0    0  501  0.00000000000E+00  0.00000000000E+00 -0.37499719339E+03  0.37499719340E+03  0.25500000920E-02 0.  1.
    10030    2    1    2    0    0  0.00000000000E+00  0.00000000000E+00  0.74620591389E+03  0.14962003007E+04  0.12968392629E+04 0.  0.
        3    1    3    3  502    0 -0.31209095449E+03 -0.44299939854E+03 -0.37726069008E+02  0.54320575979E+03  0.10100000352E+00 0.  1.
       -3    1    3    3    0  502  0.31209095449E+03  0.44299939854E+03  0.78393198290E+03  0.95299454091E+03  0.10100000352E+00 0. -1.
</event>
<event>
 5   0  0.1002887E-04  0.1299216E+04  0.7818609E-02  0.9030187E-01
        4   -1    0    0  501    0  0.00000000000E+00  0.00000000000E+00  0.63515090033E+03  0.63515217003E+03  0.12699999809E+01 0. -1.
       -4   -1    0    0    0  501  0.00000000000E+00  0.00000000000E+00 -0.66439126648E+03  0.66439248030E+03  0.12699999809E+01 0.  1.
    10030    2    1    2    0    0  0.00000000000E+00  0.00000000000E+00 -0.29240366153E+02  0.12995446503E+04  0.12992156477E+04 0.  0.
        3    1    3    3  502    0  0.64105054899E+03 -0.84851577887E+02  0.47401308553E+02  0.64837681242E+03  0.10100000352E+00 0. -1.
       -3    1    3    3    0  502 -0.64105054899E+03  0.84851577887E+02 -0.76641674706E+02  0.65116783791E+03  0.10100000352E+00 0.  1.
</event>
<event>
 5   0  0.2794825E-04  0.1299831E+04  0.7818609E-02  0.9029699E-01
        2   -1    0    0  501    0  0.00000000000E+00  0.00000000000E+00  0.57289715336E+03  0.57289715336E+03  0.25500000920E-02 0.  1.
       -2   -1    0    0    0  501  0.00000000000E+00  0.00000000000E+00 -0.73728758621E+03  0.73728758621E+03  0.25500000920E-02 0. -1.
    10030    2    1    2    0    0  0.00000000000E+00  0.00000000000E+00 -0.16439043285E+03  0.13101847396E+04  0.12998306957E+04 0.  0.
        1    1    3    3  502    0 -0.50714749887E+03 -0.30020709362E+03  0.19397096435E+03  0.62044147162E+03  0.50400001928E-02 0.  1.
       -1    1    3    3    0  502  0.50714749887E+03  0.30020709362E+03 -0.35836139720E+03  0.68974326796E+03  0.50400001928E-02 0. -1.
</event>
<event>
 5   0  0.1479690E-04  0.1296957E+04  0.7818609E-02  0.9031982E-01
        1   -1    0    0  501    0  0.00000000000E+00  0.00000000000E+00  0.82724604060E+03  0.82724604061E+03  0.50400001928E-02 0.  1.
       -1   -1    0    0    0  501  0.00000000000E+00  0.00000000000E+00 -0.50834271901E+03  0.50834271904E+03  0.50400001928E-02 0. -1.
    10030    2    1    2    0    0  0.00000000000E+00  0.00000000000E+00  0.31890332158E+03  0.13355887597E+04  0.12969572107E+04 0.  0.
        1    1    3    3  502    0  0.57066231662E+03 -0.86149297305E+02 -0.14507152234E+03  0.59508228645E+03  0.50400001928E-02 0. -1.
       -1    1    3    3    0  502 -0.57066231662E+03  0.86149297305E+02  0.46397484392E+03  0.74050647320E+03  0.50400001928E-02 0.  1.
</event>
<event>
 5   0  0.2723209E-04  0.1307292E+04  0.7818609E-02  0.9023802E-01
       -2   -1    0    0    0  501  0.00000000000E+00  0.00000000000E+00  0.32676170852E+03  0.32676170853E+03  0.25500000920E-02 0. -1.
        2   -1    0    0  501    0  0.00000000000E+00  0.00000000000E+00 -0.13075374316E+04  0.13075374316E+04  0.25500000920E-02 0.  1.
    10030    2    1    2    0    0  0.00000000000E+00  0.00000000000E+00 -0.98077572313E+03  0.16342991402E+04  0.13072921099E+04 0.  0.
        2    1    3    3  502    0 -0.47651949366E+03 -0.19450714647E+03 -0.99410198974E+03  0.11194385306E+04  0.25500000920E-02 0.  1.
       -2    1    3    3    0  502  0.47651949366E+03  0.19450714647E+03  0.13326266613E+02  0.51486060954E+03  0.25500000920E-02 0. -1.
</event>
<event>
 5   0  0.1408341E-04  0.1299603E+04  0.7818609E-02  0.9029880E-01
       -1   -1    0    0    0  501  0.00000000000E+00  0.00000000000E+00  0.65569299269E+03  0.65569299271E+03  0.50400001928E-02 0. -1.
        1   -1    0    0  501    0  0.00000000000E+00  0.00000000000E+00 -0.64396301712E+03  0.64396301714E+03  0.50400001928E-02 0.  1.
    10030    2    1    2    0    0  0.00000000000E+00  0.00000000000E+00  0.11729975567E+02  0.12996560099E+04  0.12996030746E+04 0.  0.
        5    1    3    3  502    0 -0.98935936282E+02  0.36462138064E+03 -0.52281794684E+03  0.64505640547E+03  0.46999998093E+01 0.  1.
       -5    1    3    3    0  502  0.98935936282E+02 -0.36462138064E+03  0.53454792241E+03  0.65459960438E+03  0.46999998093E+01 0. -1.
</event>
<event>
 5   0  0.2661377E-04  0.1297091E+04  0.7818609E-02  0.9031875E-01
        2   -1    0    0  501    0  0.00000000000E+00  0.00000000000E+00  0.83222850955E+03  0.83222850955E+03  0.25500000920E-02 0. -1.
       -2   -1    0    0    0  501  0.00000000000E+00  0.00000000000E+00 -0.50540359457E+03  0.50540359458E+03  0.25500000920E-02 0.  1.
    10030    2    1    2    0    0  0.00000000000E+00  0.00000000000E+00  0.32682491498E+03  0.13376321041E+04  0.12970910226E+04 0.  0.
        5    1    3    3  502    0 -0.41650503866E+03  0.27738880281E+03  0.58882023568E+03  0.77275633618E+03  0.46999998093E+01 0. -1.
       -5    1    3    3    0  502  0.41650503866E+03 -0.27738880281E+03 -0.26199532071E+03  0.56487576796E+03  0.46999998093E+01 0.  1.
</event>
<event>
 5   0  0.1430636E-04  0.1300107E+04  0.7818609E-02  0.9029480E-01
       -1   -1    0    0    0  501  0.00000000000E+00  0.00000000000E+00  0.84819073026E+03  0.84819073027E+03  0.50400001928E-02 0. -1.
        1   -1    0    0  501    0  0.00000000000E+00  0.00000000000E+00 -0.49820135487E+03  0.49820135489E+03  0.50400001928E-02 0.  1.
    10030    2    1    2    0    0  0.00000000000E+00  0.00000000000E+00  0.34998937539E+03  0.13463920852E+04  0.13001073356E+04 0.  0.
        4    1    3    3  502    0  0.20143677117E+03 -0.61066126236E+03  0.76290432432E+02  0.64753825610E+03  0.12699999809E+01 0.  1.
       -4    1    3    3    0  502 -0.20143677117E+03  0.61066126236E+03  0.27369894296E+03  0.69885382907E+03  0.12699999809E+01 0. -1.
</event>
<event>
 5   0  0.2573071E-04  0.1297242E+04  0.7818609E-02  0.9031755E-01
        2   -1    0    0  501    0  0.00000000000E+00  0.00000000000E+00  0.11150099998E+04  0.11150099998E+04  0.25500000920E-02 0. -1.
       -2   -1    0    0    0  501  0.00000000000E+00  0.00000000000E+00 -0.37731445459E+03  0.37731445460E+03  0.25500000920E-02 0.  1.
    10030    2    1    2    0    0  0.00000000000E+00  0.00000000000E+00  0.73769554519E+03  0.14923244544E+04  0.12972422903E+04 0.  0.
        4    1    3    3  502    0 -0.38435069805E+03  0.20764158969E+03  0.92039250808E+03  0.10188054136E+04  0.12699999809E+01 0. -1.
       -4    1    3    3    0  502  0.38435069805E+03 -0.20764158969E+03 -0.18269696289E+03  0.47351904082E+03  0.12699999809E+01 0.  1.
</event>
<event>
 5   0  0.1479690E-04  0.1290962E+04  0.7818609E-02  0.9036763E-01
       -1   -1    0    0    0  501  0.00000000000E+00  0.00000000000E+00  0.55377744741E+03  0.55377744743E+03  0.50400001928E-02 0.  1.
        1   -1    0    0  501    0  0.00000000000E+00  0.00000000000E+00 -0.75237024906E+03  0.75237024908E+03  0.50400001928E-02 0. -1.
    10030    2    1    2    0    0  0.00000000000E+00  0.00000000000E+00 -0.19859280166E+03  0.13061476965E+04  0.12909619298E+04 0.  0.
        1    1    3    3  502    0 -0.91476149916E+02  0.60699890426E+03  0.10262607494E+03  0.62237261111E+03  0.50400001928E-02 0.  1.
       -1    1    3    3    0  502  0.91476149916E+02 -0.60699890426E+03 -0.30121887660E+03  0.68377508540E+03  0.50400001928E-02 0. -1.
</event>
<event>
 5   0  0.2794825E-04  0.1300899E+04  0.7818609E-02  0.9028853E-01
       -2   -1    0    0    0  501  0.00000000000E+00  0.00000000000E+00  0.25864119345E+03  0.25864119346E+03  0.25500000920E-02 0. -1.
        2   -1    0    0  501    0  0.00000000000E+00  0.00000000000E+00 -0.16357972813E+04  0.16357972813E+04  0.25500000920E-02 0.  1.
    10030    2    1    2    0    0  0.00000000000E+00  0.00000000000E+00 -0.13771560879E+04  0.18944384748E+04  0.13008990139E+04 0.  0.
        1    1    3    3  502    0 -0.41935897144E+03  0.49300759393E+03 -0.59458339154E+03  0.87889012062E+03  0.50400001928E-02 0. -1.
       -1    1    3    3    0  502  0.41935897144E+03 -0.49300759393E+03 -0.78257269635E+03  0.10155483542E+04  0.50400001928E-02 0.  1.
</event>
<event>
 5   0  0.1430636E-04  0.1300257E+04  0.7818609E-02  0.9029361E-01
        1   -1    0    0  501    0  0.00000000000E+00  0.00000000000E+00  0.40738690090E+03  0.40738690093E+03  0.50400001928E-02 0. -1.
       -1   -1    0    0    0  501  0.00000000000E+00  0.00000000000E+00 -0.10375084693E+04  0.10375084693E+04  0.50400001928E-02 0.  1.
    10030    2    1    2    0    0  0.00000000000E+00  0.00000000000E+00 -0.63012156839E+03  0.14448953702E+04  0.13002574514E+04 0.  0.
        4    1    3    3  502    0 -0.60800430423E+03  0.17866940570E+03 -0.15374456750E+03  0.65209738186E+03  0.12699999809E+01 0. -1.
       -4    1    3    3    0  502  0.60800430423E+03 -0.17866940570E+03 -0.47637700089E+03  0.79279798837E+03  0.12699999809E+01 0.  1.
</event>
<event>
 5   0  0.1002887E-04  0.1298358E+04  0.7818609E-02  0.9030868E-01
        3   -1    0    0  501    0  0.00000000000E+00  0.00000000000E+00  0.87822774947E+03  0.87822775527E+03  0.10100000352E+00 0.  1.
       -3   -1    0    0    0  501  0.00000000000E+00  0.00000000000E+00 -0.47986810480E+03  0.47986811543E+03  0.10100000352E+00 0. -1.
    10030    2    1    2    0    0  0.00000000000E+00  0.00000000000E+00  0.39835964466E+03  0.13580958707E+04  0.12983581892E+04 0.  0.
        3    1    3    3  502    0  0.17842910591E+03  0.34140194445E+03  0.74575517223E+03  0.83937060982E+03  0.10100000352E+00 0.  1.
       -3    1    3    3    0  502 -0.17842910591E+03 -0.34140194445E+03 -0.34739552757E+03  0.51872526089E+03  0.10100000352E+00 0. -1.
</event>
<event>
 5   0  0.2756984E-04  0.1299736E+04  0.7818609E-02  0.9029774E-01
        2   -1    0    0  501    0  0.00000000000E+00  0.00000000000E+00  0.12077002263E+04  0.12077002263E+04  0.25500000920E-02 0. -1.
       -2   -1    0    0    0  501  0.00000000000E+00  0.00000000000E+00 -0.34969657094E+03  0.34969657095E+03  0.25500000920E-02 0.  1.
    10030    2    1    2    0    0  0.00000000000E+00  0.00000000000E+00  0.85800365534E+03  0.15573967972E+04  0.12997363238E+04 0.  0.
        3    1    3    3  502    0  0.21176811697E+03  0.61322440712E+03  0.38355218525E+03  0.75365920539E+03  0.10100000352E+00 0. -1.
       -3    1    3    3    0  502 -0.21176811697E+03 -0.61322440712E+03  0.47445147009E+03  0.80373759184E+03  0.10100000352E+00 0.  1.
</event>
<event>
 5   0  0.1475396E-04  0.1300207E+04  0.7818609E-02  0.9029401E-01
       -1   -1    0    0    0  501  0.00000000000E+00  0.00000000000E+00  0.35734860939E+03  0.35734860942E+03  0.50400001928E-02 0. -1.
        1   -1    0    0  501    0  0.00000000000E+00  0.00000000000E+00 -0.11826947554E+04  0.11826947554E+04  0.50400001928E-02 0.  1.
    10030    2    1    2    0    0  0.00000000000E+00  0.00000000000E+00 -0.82534614604E+03  0.15400433649E+04  0.13002066393E+04 0.  0.
        3    1    3    3  502    0  0.12948328139E+03  0.16650631408E+03  0.31569215138E+03  0.37967330356E+03  0.10100000352E+00 0. -1.
       -3    1    3    3    0  502 -0.12948328139E+03 -0.16650631408E+03 -0.11410382974E+04  0.11603700613E+04  0.10100000352E+00 0.  1.
</event>
<event>
 5   0  0.2794825E-04  0.1268917E+04  0.7818609E-02  0.9054584E-01
       -2   -1    0    0    0  501  0.00000000000E+00  0.00000000000E+00  0.39101216693E+03  0.39101216693E+03  0.25500000920E-02 0.  1.
        2   -1    0    0  501    0  0.00000000000E+00  0.00000000000E+00 -0.10294755519E+04  0.10294755519E+04  0.25500000920E-02 0. -1.
    10030    2    1    2    0    0  0.00000000000E+00  0.00000000000E+00 -0.63846338497E+03  0.14204877188E+04  0.12689168079E+04 0.  0.
        1    1    3    3  502    0  0.21969010692E+03 -0.34473806189E+03 -0.86240031476E+03  0.95438062497E+03  0.50400001928E-02 0. -1.
       -1    1    3    3    0  502 -0.21969010692E+03  0.34473806189E+03  0.22393692979E+03  0.46610709386E+03  0.50400001928E-02 0.  1.
</event>
<event>
 5   0  0.1430636E-04  0.1299590E+04  0.7818609E-02  0.9029890E-01
       -1   -1    0    0    0  501  0.00000000000E+00  0.00000000000E+00  0.31941172160E+03  0.31941172164E+03  0.50400001928E-02 0. -1.
        1   -1    0    0  501    0  0.00000000000E+00  0.00000000000E+00 -0.13219108248E+04  0.13219108248E+04  0.50400001928E-02 0.  1.
    10030    2    1    2    0    0  0.00000000000E+00  0.00000000000E+00 -0.10024991032E+04  0.16413225464E+04  0.12995904161E+04 0.  0.
        4    1    3    3  502    0  0.10531468318E+03 -0.49757203504E+03  0.95259801709E+01  0.50868602275E+03  0.12699999809E+01 0. -1.
       -4    1    3    3    0  502 -0.10531468318E+03  0.49757203504E+03 -0.10120250833E+04  0.11326365237E+04  0.12699999809E+01 0.  1.
</event>
<event>
 5   0  0.2756984E-04  0.1300403E+04  0.7818609E-02  0.9029246E-01
        2   -1    0    0  501    0  0.00000000000E+00  0.00000000000E+00  0.37853807029E+03  0.37853807030E+03  0.25500000920E-02 0. -1.
       -2   -1    0    0    0  501  0.00000000000E+00  0.00000000000E+00 -0.11168284814E+04  0.11168284814E+04  0.25500000920E-02 0.  1.
    10030    2    1    2    0    0  0.00000000000E+00  0.00000000000E+00 -0.73829041109E+03  0.14953665517E+04  0.13004031655E+04 0.  0.
        3    1    3    3  502    0 -0.24756352184E+03 -0.22390941922E+03 -0.10107777460E+04  0.10644692515E+04  0.10100000352E+00 0.  1.
       -3    1    3    3    0  502  0.24756352184E+03  0.22390941922E+03  0.27248733496E+03  0.43089730015E+03  0.10100000352E+00 0. -1.
</event>
<event>
 5   0  0.1430636E-04  0.1300624E+04  0.7818609E-02  0.9029071E-01
        1   -1    0    0  501    0  0.00000000000E+00  0.00000000000E+00  0.43627715967E+03  0.43627715970E+03  0.50400001928E-02 0. -1.
       -1   -1    0    0    0  501  0.00000000000E+00  0.00000000000E+00 -0.96935078380E+03  0.96935078381E+03  0.50400001928E-02 0.  1.
    10030    2    1    2    0    0  0.00000000000E+00  0.00000000000E+00 -0.53307362413E+03  0.14056279435E+04  0.13006238606E+04 0.  0.
        4    1    3    3  502    0 -0.40496457014E+03  0.50418622566E+03 -0.19241439392E+03  0.67470361278E+03  0.12699999809E+01 0.  1.
       -4    1    3    3    0  502  0.40496457014E+03 -0.50418622566E+03 -0.34065923021E+03  0.73092433073E+03  0.12699999809E+01 0. -1.
</event>
<event>
 5   0  0.1002887E-04  0.1300230E+04  0.7818609E-02  0.9029383E-01
        3   -1    0    0  501    0  0.00000000000E+00  0.00000000000E+00  0.18640347350E+03  0.18640350087E+03  0.10100000352E+00 0. -1.
       -3   -1    0    0    0  501  0.00000000000E+00  0.00000000000E+00 -0.22673907955E+04  0.22673907977E+04  0.10100000352E+00 0.  1.
    10030    2    1    2    0    0  0.00000000000E+00  0.00000000000E+00 -0.20809873220E+04  0.24537942986E+04  0.13002300664E+04 0.  0.
        2    1    3    3  502    0 -0.16754600165E+03 -0.48847193819E+02 -0.22223569106E+04  0.22291989478E+04  0.25500000920E-02 0.  1.
       -2    1    3    3    0  502  0.16754600165E+03  0.48847193819E+02  0.14136958858E+03  0.22459535078E+03  0.25500000920E-02 0. -1.
</event>
<event>
 5   0  0.1430636E-04  0.1304254E+04  0.7818609E-02  0.9026198E-01
       -1   -1    0    0    0  501  0.00000000000E+00  0.00000000000E+00  0.27693404116E+03  0.27693404120E+03  0.50400001928E-02 0.  1.
        1   -1    0    0  501    0  0.00000000000E+00  0.00000000000E+00 -0.15356358576E+04  0.15356358576E+04  0.50400001928E-02 0. -1.
    10030    2    1    2    0    0  0.00000000000E+00  0.00000000000E+00 -0.12587018164E+04  0.18125698988E+04  0.13042543369E+04 0.  0.
        4    1    3    3  502    0  0.61575887456E+03 -0.21339466029E+03 -0.59611445667E+03  0.88320458049E+03  0.12699999809E+01 0.  1.
       -4    1    3    3    0  502 -0.61575887456E+03  0.21339466029E+03 -0.66258735972E+03  0.92936531828E+03  0.12699999809E+01 0. -1.
</event>
<event>
 5   0  0.1408341E-04  0.1301518E+04  0.7818609E-02  0.9028362E-01
       -1   -1    0    0    0  501  0.00000000000E+00  0.00000000000E+00  0.27068361690E+03  0.27068361695E+03  0.50400001928E-02 0. -1.
        1   -1    0    0  501    0  0.00000000000E+00  0.00000000000E+00 -0.15645096870E+04  0.15645096870E+04  0.50400001928E-02 0.  1.
    10030    2    1    2    0    0  0.00000000000E+00  0.00000000000E+00 -0.12938260701E+04  0.18351933040E+04  0.13015177921E+04 0.  0.
        5    1    3    3  502    0  0.10300706294E+03  0.13118336340E+03 -0.15338338213E+04  0.15428829544E+04  0.46999998093E+01 0.  1.
       -5    1    3    3    0  502 -0.10300706294E+03 -0.13118336340E+03  0.24000775114E+03  0.29231034955E+03  0.46999998093E+01 0. -1.
</event>
<event>
 5   0  0.2723209E-04  0.1301649E+04  0.7818609E-02  0.9028258E-01
        2   -1    0    0  501    0  0.00000000000E+00  0.00000000000E+00  0.21099992304E+03  0.21099992306E+03  0.25500000920E-02 0.  1.
       -2   -1    0    0    0  501  0.00000000000E+00  0.00000000000E+00 -0.20074541354E+04  0.20074541354E+04  0.25500000920E-02 0. -1.
    10030    2    1    2    0    0  0.00000000000E+00  0.00000000000E+00 -0.17964542123E+04  0.22184540584E+04  0.13016492125E+04 0.  0.
        2    1    3    3  502    0  0.16420045596E+03 -0.38999311197E+03 -0.55454630069E+02  0.42676882867E+03  0.25500000920E-02 0.  1.
       -2    1    3    3    0  502 -0.16420045596E+03  0.38999311197E+03 -0.17409995823E+04  0.17916852298E+04  0.25500000920E-02 0. -1.
</event>
<event>
 5   0  0.2573071E-04  0.1301682E+04  0.7818609E-02  0.9028232E-01
        2   -1    0    0  501    0  0.00000000000E+00  0.00000000000E+00  0.75136937097E+03  0.75136937097E+03  0.25500000920E-02 0. -1.
       -2   -1    0    0    0  501  0.00000000000E+00  0.00000000000E+00 -0.56376301872E+03  0.56376301872E+03  0.25500000920E-02 0.  1.
    10030    2    1    2    0    0  0.00000000000E+00  0.00000000000E+00  0.18760635225E+03  0.13151323897E+04  0.13016823956E+04 0.  0.
        4    1    3    3  502    0  0.70223773387E+02  0.28169382837E+03 -0.49471879777E+03  0.57361231948E+03  0.12699999809E+01 0.  1.
       -4    1    3    3    0  502 -0.70223773387E+02 -0.28169382837E+03  0.68232515002E+03  0.74152007022E+03  0.12699999809E+01 0. -1.
</event>
<event>
 5   0  0.2661377E-04  0.1298231E+04  0.7818609E-02  0.9030969E-01
        2   -1    0    0  501    0  0.00000000000E+00  0.00000000000E+00  0.89771860932E+03  0.89771860932E+03  0.25500000920E-02 0. -1.
       -2   -1    0    0    0  501  0.00000000000E+00  0.00000000000E+00 -0.46935737933E+03  0.46935737933E+03  0.25500000920E-02 0.  1.
    10030    2    1    2    0    0  0.00000000000E+00  0.00000000000E+00  0.42836122999E+03  0.13670759887E+04  0.12982308791E+04 0.  0.
        5    1    3    3  502    0 -0.55700913666E+03  0.23791145876E+03 -0.31578894698E+02  0.60653141479E+03  0.46999998093E+01 0.  1.
       -5    1    3    3    0  502  0.55700913666E+03 -0.23791145876E+03  0.45994012469E+03  0.76054457386E+03  0.46999998093E+01 0. -1.
</event>
<event>
 5   0  0.1002887E-04  0.1297561E+04  0.7818609E-02  0.9031501E-01
       -4   -1    0    0    0  501  0.00000000000E+00  0.00000000000E+00  0.39250697847E+03  0.39250903308E+03  0.12699999809E+01 0.  1.
        4   -1    0    0  501    0  0.00000000000E+00  0.00000000000E+00 -0.10723741435E+04  0.10723748955E+04  0.12699999809E+01 0. -1.
    10030    2    1    2    0    0  0.00000000000E+00  0.00000000000E+00 -0.67986716504E+03  0.14648839286E+04  0.12975613905E+04 0.  0.
        4    1    3    3  502    0  0.38554288959E+03  0.44029893719E+03 -0.65605675339E+03  0.87915786431E+03  0.12699999809E+01 0. -1.
       -4    1    3    3    0  502 -0.38554288959E+03 -0.44029893719E+03 -0.23810411646E+02  0.58572606431E+03  0.12699999809E+01 0.  1.
</event>
<event>
 5   0  0.1430636E-04  0.1298830E+04  0.7818609E-02  0.9030494E-01
       -1   -1    0    0    0  501  0.00000000000E+00  0.00000000000E+00  0.27532136921E+03  0.27532136926E+03  0.50400001928E-02 0.  1.
        1   -1    0    0  501    0  0.00000000000E+00  0.00000000000E+00 -0.15318091606E+04  0.15318091606E+04  0.50400001928E-02 0. -1.
    10030    2    1    2    0    0  0.00000000000E+00  0.00000000000E+00 -0.12564877914E+04  0.18071305299E+04  0.12988299281E+04 0.  0.
        4    1    3    3  502    0  0.10349490887E+03 -0.15851805442E+03  0.23607512330E+03  0.30260906543E+03  0.12699999809E+01 0.  1.
       -4    1    3    3    0  502 -0.10349490887E+03  0.15851805442E+03 -0.14925629147E+04  0.15045214644E+04  0.12699999809E+01 0. -1.
</event>
<event>
 5   0  0.1479690E-04  0.1296816E+04  0.7818609E-02  0.9032094E-01
       -1   -1    0    0    0  501  0.00000000000E+00  0.00000000000E+00  0.24479366971E+03  0.24479366976E+03  0.50400001928E-02 0.  1.
        1   -1    0    0  501    0  0.00000000000E+00  0.00000000000E+00 -0.17175004987E+04  0.17175004987E+04  0.50400001928E-02 0. -1.
    10030    2    1    2    0    0  0.00000000000E+00  0.00000000000E+00 -0.14727068290E+04  0.19622941685E+04  0.12968164864E+04 0.  0.
        1    1    3    3  502    0  0.42411075993E+03 -0.45400642474E+03 -0.45553441388E+03  0.77039170079E+03  0.50400001928E-02 0.  1.
       -1    1    3    3    0  502 -0.42411075993E+03  0.45400642474E+03 -0.10171724151E+04  0.11919024677E+04  0.50400001928E-02 0. -1.
</event>
<event>
 5   0  0.2756984E-04  0.1296854E+04  0.7818609E-02  0.9032063E-01
        2   -1    0    0  501    0  0.00000000000E+00  0.00000000000E+00  0.12399531551E+04  0.12399531551E+04  0.25500000920E-02 0.  1.
       -2   -1    0    0    0  501  0.00000000000E+00  0.00000000000E+00 -0.33909169357E+03  0.33909169358E+03  0.25500000920E-02 0. -1.
    10030    2    1    2    0    0  0.00000000000E+00  0.00000000000E+00  0.90086146149E+03  0.15790448486E+04  0.12968543716E+04 0.  0.
        3    1    3    3  502    0 -0.50066878119E+03 -0.35508714264E+03  0.19589285843E+03  0.64430592851E+03  0.10100000352E+00 0. -1.
       -3    1    3    3    0  502  0.50066878119E+03  0.35508714264E+03  0.70496860306E+03  0.93473892014E+03  0.10100000352E+00 0.  1.
</event>
<event>
 5   0  0.2794825E-04  0.1298502E+04  0.7818609E-02  0.9030754E-01
       -2   -1    0    0    0  501  0.00000000000E+00  0.00000000000E+00  0.23214056506E+03  0.23214056508E+03  0.25500000920E-02 0. -1.
        2   -1    0    0  501    0  0.00000000000E+00  0.00000000000E+00 -0.18158260083E+04  0.18158260083E+04  0.25500000920E-02 0.  1.
    10030    2    1    2    0    0  0.00000000000E+00  0.00000000000E+00 -0.15836854432E+04  0.20479665734E+04  0.12985020225E+04 0.  0.
        1    1    3    3  502    0 -0.39748657104E+03  0.87988907652E+02 -0.15895092723E+04  0.16408160618E+04  0.50400001928E-02 0.  1.
       -1    1    3    3    0  502  0.39748657104E+03 -0.87988907652E+02  0.58238290784E+01  0.40715051153E+03  0.50400001928E-02 0. -1.
</event>
<event>
 5   0  0.1002887E-04  0.1298523E+04  0.7818609E-02  0.9030737E-01
       -3   -1    0    0    0  501  0.00000000000E+00  0.00000000000E+00  0.16398239785E+04  0.16398239816E+04  0.10100000352E+00 0.  1.
        3   -1    0    0  501    0  0.00000000000E+00  0.00000000000E+00 -0.25706465294E+03  0.25706467278E+03  0.10100000352E+00 0. -1.
    10030    2    1    2    0    0  0.00000000000E+00  0.00000000000E+00  0.13827593256E+04  0.18968886544E+04  0.12985234749E+04 0.  0.
        3    1    3    3  502    0  0.28292772249E+03  0.23209312766E+03 -0.92060280346E+02  0.37734655356E+03  0.10100000352E+00 0. -1.
       -3    1    3    3    0  502 -0.28292772249E+03 -0.23209312766E+03  0.14748196059E+04  0.15195421009E+04  0.10100000352E+00 0.  1.
</event>
<event>
 5   0  0.2661377E-04  0.1301831E+04  0.7818609E-02  0.9028115E-01
       -2   -1    0    0    0  501  0.00000000000E+00  0.00000000000E+00  0.51474420331E+03  0.51474420332E+03  0.25500000920E-02 0. -1.
        2   -1    0    0  501    0  0.00000000000E+00  0.00000000000E+00 -0.82310956130E+03  0.82310956130E+03  0.25500000920E-02 0.  1.
    10030    2    1    2    0    0  0.00000000000E+00  0.00000000000E+00 -0.30836535798E+03  0.13378537646E+04  0.13018308268E+04 0.  0.
        5    1    3    3  502    0  0.14174822530E+03 -0.34927782889E+03  0.39114298927E+03  0.54323336531E+03  0.46999998093E+01 0. -1.
       -5    1    3    3    0  502 -0.14174822530E+03  0.34927782889E+03 -0.69950834726E+03  0.79462039931E+03  0.46999998093E+01 0.  1.
</event>
<event>
 5   0  0.1475396E-04  0.1301283E+04  0.7818609E-02  0.9028549E-01
        1   -1    0    0  501    0  0.00000000000E+00  0.00000000000E+00  0.68527032806E+03  0.68527032808E+03  0.50400001928E-02 0.  1.
       -1   -1    0    0    0  501  0.00000000000E+00  0.00000000000E+00 -0.61776235077E+03  0.61776235079E+03  0.50400001928E-02 0. -1.
    10030    2    1    2    0    0  0.00000000000E+00  0.00000000000E+00  0.67507977288E+02  0.13030326789E+04  0.13012827653E+04 0.  0.
        3    1    3    3  502    0  0.36472126063E+03  0.34037184470E+02  0.57220758881E+03  0.67941273375E+03  0.10100000352E+00 0.  1.
       -3    1    3    3    0  502 -0.36472126063E+03 -0.34037184470E+02 -0.50469961152E+03  0.62361994512E+03  0.10100000352E+00 0. -1.
</event>
<event>
 5   0  0.1002887E-04  0.1299434E+04  0.7818609E-02  0.9030014E-01
        3   -1    0    0  501    0  0.00000000000E+00  0.00000000000E+00  0.31537076322E+03  0.31537077939E+03  0.10100000352E+00 0.  1.
       -3   -1    0    0    0  501  0.00000000000E+00  0.00000000000E+00 -0.13385273945E+04  0.13385273984E+04  0.10100000352E+00 0. -1.
    10030    2    1    2    0    0  0.00000000000E+00  0.00000000000E+00 -0.10231566313E+04  0.16538981778E+04  0.12994343732E+04 0.  0.
        5    1    3    3  502    0  0.41274661170E+03  0.30440991501E+03 -0.10192340160E+04  0.11410018542E+04  0.46999998093E+01 0. -1.
       -5    1    3    3    0  502 -0.41274661170E+03 -0.30440991501E+03 -0.39226153117E+01  0.51289632358E+03  0.46999998093E+01 0.  1.
</event>
<event>
 5   0  0.2723209E-04  0.1299068E+04  0.7818609E-02  0.9030305E-01
       -2   -1    0    0    0  501  0.00000000000E+00  0.00000000000E+00  0.80786361132E+03  0.80786361133E+03  0.25500000920E-02 0. -1.
        2   -1    0    0  501    0  0.00000000000E+00  0.00000000000E+00 -0.52223447412E+03  0.52223447413E+03  0.25500000920E-02 0.  1.
    10030    2    1    2    0    0  0.00000000000E+00  0.00000000000E+00  0.28562913720E+03  0.13300980855E+04  0.12990677091E+04 0.  0.
        2    1    3    3  502    0 -0.36200035791E+03  0.20452103810E+03  0.65375464257E+03  0.77476980249E+03  0.25500000920E-02 0. -1.
       -2    1    3    3    0  502  0.36200035791E+03 -0.20452103810E+03 -0.36812550537E+03  0.55532828297E+03  0.25500000920E-02 0.  1.
</event>
<event>
 5   0  0.1479690E-04  0.1298827E+04  0.7818609E-02  0.9030496E-01
        1   -1    0    0  501    0  0.00000000000E+00  0.00000000000E+00  0.96307860924E+03  0.96307860925E+03  0.50400001928E-02 0.  1.
       -1   -1    0    0    0  501  0.00000000000E+00  0.00000000000E+00 -0.43790601627E+03  0.43790601630E+03  0.50400001928E-02 0. -1.
    10030    2    1    2    0    0  0.00000000000E+00  0.00000000000E+00  0.52517259296E+03  0.14009846256E+04  0.12988270357E+04 0.  0.
        1    1    3    3  502    0 -0.14808388808E+03 -0.57197097709E+03  0.55333956626E+03  0.80948397893E+03  0.50400001928E-02 0.  1.
       -1    1    3    3    0  502  0.14808388808E+03  0.57197097709E+03 -0.28166973293E+02  0.59150064662E+03  0.50400001928E-02 0. -1.
</event>
<event>
 5   0  0.2756984E-04  0.1294727E+04  0.7818609E-02  0.9033757E-01
       -2   -1    0    0    0  501  0.00000000000E+00  0.00000000000E+00  0.34622574257E+03  0.34622574258E+03  0.25500000920E-02 0.  1.
        2   -1    0    0  501    0  0.00000000000E+00  0.00000000000E+00 -0.12104236053E+04  0.12104236053E+04  0.25500000920E-02 0. -1.
    10030    2    1    2    0    0  0.00000000000E+00  0.00000000000E+00 -0.86419786276E+03  0.15566493479E+04  0.12947274796E+04 0.  0.
        3    1    3    3  502    0 -0.19457251099E+03 -0.40222536375E+01 -0.11744200466E+04  0.11904356751E+04  0.10100000352E+00 0. -1.
       -3    1    3    3    0  502  0.19457251099E+03  0.40222536375E+01  0.31022218386E+03  0.36621367276E+03  0.10100000352E+00 0.  1.
</event>
<event>
 5   0  0.2723209E-04  0.1307626E+04  0.7818609E-02  0.9023539E-01
       -2   -1    0    0    0  501  0.00000000000E+00  0.00000000000E+00  0.22157920206E+03  0.22157920207E+03  0.25500000920E-02 0. -1.
        2   -1    0    0  501    0  0.00000000000E+00  0.00000000000E+00 -0.19292038254E+04  0.19292038254E+04  0.25500000920E-02 0.  1.
    10030    2    1    2    0    0  0.00000000000E+00  0.00000000000E+00 -0.17076246234E+04  0.21507830275E+04  0.13076260081E+04 0.  0.
        2    1    3    3  502    0 -0.86992079705E+02 -0.22834838148E+03  0.14364838382E+03  0.28345275345E+03  0.25500000920E-02 0. -1.
       -2    1    3    3    0  502  0.86992079705E+02  0.22834838148E+03 -0.18512730072E+04  0.18673302741E+04  0.25500000920E-02 0.  1.
</event>
<event>
 5   0  0.1479690E-04  0.1300401E+04  0.7818609E-02  0.9029247E-01
       -1   -1    0    0    0  501  0.00000000000E+00  0.00000000000E+00  0.33065274570E+03  0.33065274574E+03  0.50400001928E-02 0.  1.
        1   -1    0    0  501    0  0.00000000000E+00  0.00000000000E+00 -0.12785637468E+04  0.12785637469E+04  0.50400001928E-02 0. -1.
    10030    2    1    2    0    0  0.00000000000E+00  0.00000000000E+00 -0.94791100115E+03  0.16092164926E+04  0.13004008820E+04 0.  0.
        1    1    3    3  502    0  0.79918647525E+02  0.28977221519E+02 -0.12716571178E+04  0.12744953883E+04  0.50400001928E-02 0. -1.
       -1    1    3    3    0  502 -0.79918647525E+02 -0.28977221519E+02  0.32374611664E+03  0.33472110428E+03  0.50400001928E-02 0.  1.
</event>
<event>
 5   0  0.2661377E-04  0.1300227E+04  0.7818609E-02  0.9029385E-01
        2   -1    0    0  501    0  0.00000000000E+00  0.00000000000E+00  0.51911189667E+03  0.51911189668E+03  0.25500000920E-02 0. -1.
       -2   -1    0    0    0  501  0.00000000000E+00  0.00000000000E+00 -0.81417465802E+03  0.81417465802E+03  0.25500000920E-02 0.  1.
    10030    2    1    2    0    0  0.00000000000E+00  0.00000000000E+00 -0.29506276134E+03  0.13332865547E+04  0.13002272893E+04 0.  0.
        5    1    3    3  502    0 -0.45898400585E+03  0.25617048322E+03 -0.53979664504E+03  0.75345347706E+03  0.46999998093E+01 0.  1.
       -5    1    3    3    0  502  0.45898400585E+03 -0.25617048322E+03  0.24473388370E+03  0.57983307764E+03  0.46999998093E+01 0. -1.
</event>
<event>
 5   0  0.2723209E-04  0.1298934E+04  0.7818609E-02  0.9030411E-01
       -2   -1    0    0    0  501  0.00000000000E+00  0.00000000000E+00  0.36049253037E+03  0.36049253038E+03  0.25500000920E-02 0.  1.
        2   -1    0    0  501    0  0.00000000000E+00  0.00000000000E+00 -0.11700862439E+04  0.11700862439E+04  0.25500000920E-02 0. -1.
    10030    2    1    2    0    0  0.00000000000E+00  0.00000000000E+00 -0.80959371352E+03  0.15305787743E+04  0.12989339488E+04 0.  0.
        2    1    3    3  502    0 -0.13036478913E+03 -0.22584265151E+03  0.29609678026E+03  0.39455441294E+03  0.25500000920E-02 0.  1.
       -2    1    3    3    0  502  0.13036478913E+03  0.22584265151E+03 -0.11056904938E+04  0.11360243613E+04  0.25500000920E-02 0. -1.
</event>
<event>
 5   0  0.1002887E-04  0.1301979E+04  0.7818609E-02  0.9027998E-01
        4   -1    0    0  501    0  0.00000000000E+00  0.00000000000E+00  0.11114104032E+04  0.11114111288E+04  0.12699999809E+01 0.  1.
       -4   -1    0    0    0  501  0.00000000000E+00  0.00000000000E+00 -0.38130373142E+03  0.38130584639E+03  0.12699999809E+01 0. -1.
    10030    2    1    2    0    0  0.00000000000E+00  0.00000000000E+00  0.73010667174E+03  0.14927169752E+04  0.13019785773E+04 0.  0.
        4    1    3    3  502    0 -0.64900353759E+03 -0.50574226453E+02  0.37044271879E+03  0.74899450264E+03  0.12699999809E+01 0. -1.
       -4    1    3    3    0  502  0.64900353759E+03  0.50574226453E+02  0.35966395296E+03  0.74372247252E+03  0.12699999809E+01 0.  1.
</event>
<event>
 5   0  0.1479690E-04  0.1314091E+04  0.7818609E-02  0.9018465E-01
        1   -1    0    0  501    0  0.00000000000E+00  0.00000000000E+00  0.55656372443E+03  0.55656372445E+03  0.50400001928E-02 0.  1.
       -1   -1    0    0    0  501  0.00000000000E+00  0.00000000000E+00 -0.77566822124E+03  0.77566822126E+03  0.50400001928E-02 0. -1.
    10030    2    1    2    0    0  0.00000000000E+00  0.00000000000E+00 -0.21910449681E+03  0.13322319457E+04  0.13140910077E+04 0.  0.
        1    1    3    3  502    0 -0.42952819668E+03 -0.28503712683E+03  0.30346366755E+03  0.59818962960E+03  0.50400001928E-02 0.  1.
       -1    1    3    3    0  502  0.42952819668E+03  0.28503712683E+03 -0.52256816436E+03  0.73404231611E+03  0.50400001928E-02 0. -1.
</event>
<event>
 5   0  0.2573071E-04  0.1299881E+04  0.7818609E-02  0.9029659E-01
       -2   -1    0    0    0  501  0.00000000000E+00  0.00000000000E+00  0.50741116513E+03  0.50741116514E+03  0.25500000920E-02 0.  1.
        2   -1    0    0  501    0  0.00000000000E+00  0.00000000000E+00 -0.83250575576E+03  0.83250575577E+03  0.25500000920E-02 0. -1.
    10030    2    1    2    0    0  0.00000000000E+00  0.00000000000E+00 -0.32509459063E+03  0.13399169209E+04  0.12998810954E+04 0.  0.
        4    1    3    3  502    0  0.35769529088E+03  0.48180104890E+03  0.94828588692E+02  0.60751316527E+03  0.12699999809E+01 0.  1.
       -4    1    3    3    0  502 -0.35769529088E+03 -0.48180104890E+03 -0.41992317932E+03  0.73240375564E+03  0.12699999809E+01 0. -1.
</event>
<event>
 5   0  0.2756984E-04  0.1296380E+04  0.7818609E-02  0.9032441E-01
        2   -1    0    0  501    0  0.00000000000E+00  0.00000000000E+00  0.12784918049E+04  0.12784918049E+04  0.25500000920E-02 0.  1.
       -2   -1    0    0    0  501  0.00000000000E+00  0.00000000000E+00 -0.32862943991E+03  0.32862943992E+03  0.25500000920E-02 0. -1.
    10030    2    1    2    0    0  0.00000000000E+00  0.00000000000E+00  0.94986236495E+03  0.16071212448E+04  0.12963796447E+04 0.  0.
        3    1    3    3  502    0  0.34201423383E+03 -0.47287083846E+03  0.12523598312E+03  0.59687907291E+03  0.10100000352E+00 0. -1.
       -3    1    3    3    0  502 -0.34201423383E+03  0.47287083846E+03  0.82462638183E+03  0.10102421719E+04  0.10100000352E+00 0.  1.
</event>
<event>
 5   0  0.1002887E-04  0.1299024E+04  0.7818609E-02  0.9030340E-01
        4   -1    0    0  501    0  0.00000000000E+00  0.00000000000E+00  0.70249938871E+03  0.70250053669E+03  0.12699999809E+01 0. -1.
       -4   -1    0    0    0  501  0.00000000000E+00  0.00000000000E+00 -0.60051871662E+03  0.60052005954E+03  0.12699999809E+01 0.  1.
    10030    2    1    2    0    0  0.00000000000E+00  0.00000000000E+00  0.10198067209E+03  0.13030205962E+04  0.12990237168E+04 0.  0.
        4    1    3    3  502    0  0.22380363530E+03  0.60347157387E+03 -0.36444561667E+02  0.64466722161E+03  0.12699999809E+01 0. -1.
       -4    1    3    3    0  502 -0.22380363530E+03 -0.60347157387E+03  0.13842523376E+03  0.65835337462E+03  0.12699999809E+01 0.  1.
</event>
<event>
 5   0  0.2756984E-04  0.1306884E+04  0.7818609E-02  0.9024124E-01
       -2   -1    0    0    0  501  0.00000000000E+00  0.00000000000E+00  0.20315530581E+03  0.20315530583E+03  0.25500000920E-02 0. -1.
        2   -1    0    0  501    0  0.00000000000E+00  0.00000000000E+00 -0.21017720374E+04  0.21017720374E+04  0.25500000920E-02 0.  1.
    10030    2    1    2    0    0  0.00000000000E+00  0.00000000000E+00 -0.18986167316E+04  0.23049273433E+04  0.13068835312E+04 0.  0.
        3    1    3    3  502    0 -0.42989917537E+03 -0.46870735238E+03 -0.12137798483E+04  0.13703143485E+04  0.10100000352E+00 0.  1.
       -3    1    3    3    0  502  0.42989917537E+03  0.46870735238E+03 -0.68483688329E+03  0.93461299482E+03  0.10100000352E+00 0. -1.
</event>
<event>
 5   0  0.1475396E-04  0.1300452E+04  0.7818609E-02  0.9029207E-01
        1   -1    0    0  501    0  0.00000000000E+00  0.00000000000E+00  0.11278939432E+04  0.11278939432E+04  0.50400001928E-02 0.  1.
       -1   -1    0    0    0  501  0.00000000000E+00  0.00000000000E+00 -0.37485259168E+03  0.37485259172E+03  0.50400001928E-02 0. -1.
    10030    2    1    2    0    0  0.00000000000E+00  0.00000000000E+00  0.75304135155E+03  0.15027465350E+04  0.13004521795E+04 0.  0.
        3    1    3    3  502    0  0.63553821406E+03  0.11238266992E+03  0.28512736024E+03  0.70557516098E+03  0.10100000352E+00 0.  1.
       -3    1    3    3    0  502 -0.63553821406E+03 -0.11238266992E+03  0.46791399131E+03  0.79717137398E+03  0.10100000352E+00 0. -1.
</event>
<event>
 5   0  0.1475396E-04  0.1303183E+04  0.7818609E-02  0.9027045E-01
        1   -1    0    0  501    0  0.00000000000E+00  0.00000000000E+00  0.44597004994E+03  0.44597004997E+03  0.50400001928E-02 0. -1.
       -1   -1    0    0    0  501  0.00000000000E+00  0.00000000000E+00 -0.95201774158E+03  0.95201774159E+03  0.50400001928E-02 0.  1.
    10030    2    1    2    0    0  0.00000000000E+00  0.00000000000E+00 -0.50604769164E+03  0.13979877916E+04  0.13031828725E+04 0.  0.
        3    1    3    3  502    0  0.21559940808E+03 -0.30280733483E+03  0.32106814949E+03  0.49118240360E+03  0.10100000352E+00 0. -1.
       -3    1    3    3    0  502 -0.21559940808E+03  0.30280733483E+03 -0.82711584113E+03  0.90680538796E+03  0.10100000352E+00 0.  1.
</event>
<event>
 5   0  0.2573071E-04  0.1300083E+04  0.7818609E-02  0.9029499E-01
        2   -1    0    0  501    0  0.00000000000E+00  0.00000000000E+00  0.28446543573E+03  0.28446543574E+03  0.25500000920E-02 0.  1.
       -2   -1    0    0    0  501  0.00000000000E+00  0.00000000000E+00 -0.14854312726E+04  0.14854312726E+04  0.25500000920E-02 0. -1.
    10030    2    1    2    0    0  0.00000000000E+00  0.00000000000E+00 -0.12009658369E+04  0.17698967084E+04  0.13000828500E+04 0.  0.
        4    1    3    3  502    0 -0.10802362298E+02 -0.38485196964E+03 -0.13135152120E+04  0.13687773941E+04  0.12699999809E+01 0. -1.
       -4    1    3    3    0  502  0.10802362298E+02  0.38485196964E+03  0.11254937508E+03  0.40111931429E+03  0.12699999809E+01 0.  1.
</event>
<event>
 5   0  0.1408341E-04  0.1299651E+04  0.7818609E-02  0.9029842E-01
        1   -1    0    0  501    0  0.00000000000E+00  0.00000000000E+00  0.52896834582E+03  0.52896834585E+03  0.50400001928E-02 0. -1.
       -1   -1    0    0    0  501  0.00000000000E+00  0.00000000000E+00 -0.79829566639E+03  0.79829566641E+03  0.50400001928E-02 0.  1.
    10030    2    1    2    0    0  0.00000000000E+00  0.00000000000E+00 -0.26932732057E+03  0.13272640123E+04  0.12996509349E+04 0.  0.
        5    1    3    3  502    0  0.60320844471E+03 -0.22403422385E+03 -0.22713744613E+03  0.68239671061E+03  0.46999998093E+01 0. -1.
       -5    1    3    3    0  502 -0.60320844471E+03  0.22403422385E+03 -0.42189874446E+02  0.64486730164E+03  0.46999998093E+01 0.  1.
</event>
<event>
 5   0  0.1002887E-04  0.1301131E+04  0.7818609E-02  0.9028669E-01
       -3   -1    0    0    0  501  0.00000000000E+00  0.00000000000E+00  0.10010642842E+04  0.10010642893E+04  0.10100000352E+00 0.  1.
        3   -1    0    0  501    0  0.00000000000E+00  0.00000000000E+00 -0.42278551351E+03  0.42278552557E+03  0.10100000352E+00 0. -1.
    10030    2    1    2    0    0  0.00000000000E+00  0.00000000000E+00  0.57827877071E+03  0.14238498149E+04  0.13011310306E+04 0.  0.
        1    1    3    3  502    0 -0.39354398553E+03 -0.51783788300E+03  0.27356513470E+03  0.70559962058E+03  0.50400001928E-02 0.  1.
       -1    1    3    3    0  502  0.39354398553E+03  0.51783788300E+03  0.30471363601E+03  0.71825019431E+03  0.50400001928E-02 0. -1.
</event>
<event>
 5   0  0.1475396E-04  0.1301761E+04  0.7818609E-02  0.9028170E-01
       -1   -1    0    0    0  501  0.00000000000E+00  0.00000000000E+00  0.40577885878E+03  0.40577885881E+03  0.50400001928E-02 0. -1.
        1   -1    0    0  501    0  0.00000000000E+00  0.00000000000E+00 -0.10440296823E+04  0.10440296823E+04  0.50400001928E-02 0.  1.
    10030    2    1    2    0    0  0.00000000000E+00  0.00000000000E+00 -0.63825082356E+03  0.14498085412E+04  0.13017606125E+04 0.  0.
        3    1    3    3  502    0  0.19773668441E+02  0.48239193206E+03  0.16704273158E+03  0.51087792911E+03  0.10100000352E+00 0. -1.
       -3    1    3    3    0  502 -0.19773668441E+02 -0.48239193206E+03 -0.80529355514E+03  0.93893061204E+03  0.10100000352E+00 0.  1.
</event>
<event>
 5   0  0.1002887E-04  0.1298974E+04  0.7818609E-02  0.9030379E-01
        3   -1    0    0  501    0  0.00000000000E+00  0.00000000000E+00  0.96917954955E+03  0.96917955482E+03  0.10100000352E+00 0. -1.
       -3   -1    0    0    0  501  0.00000000000E+00  0.00000000000E+00 -0.43524804412E+03  0.43524805583E+03  0.10100000352E+00 0.  1.
    10030    2    1    2    0    0  0.00000000000E+00  0.00000000000E+00  0.53393150544E+03  0.14044276107E+04  0.12989742342E+04 0.  0.
        2    1    3    3  502    0  0.30490987429E+03  0.19417727216E+03 -0.31643056862E+03  0.48041976357E+03  0.25500000920E-02 0.  1.
       -2    1    3    3    0  502 -0.30490987429E+03 -0.19417727216E+03  0.85036207406E+03  0.92400784708E+03  0.25500000920E-02 0. -1.
</event>
<event>
 5   0  0.1475396E-04  0.1300011E+04  0.7818609E-02  0.9029556E-01
       -1   -1    0    0    0  501  0.00000000000E+00  0.00000000000E+00  0.27639437036E+03  0.27639437041E+03  0.50400001928E-02 0.  1.
        1   -1    0    0  501    0  0.00000000000E+00  0.00000000000E+00 -0.15286393266E+04  0.15286393266E+04  0.50400001928E-02 0. -1.
    10030    2    1    2    0    0  0.00000000000E+00  0.00000000000E+00 -0.12522449562E+04  0.18050336970E+04  0.13000112372E+04 0.  0.
        3    1    3    3  502    0 -0.56126970633E+03 -0.30448427652E+03 -0.45736166174E+03  0.78543876765E+03  0.10100000352E+00 0.  1.
       -3    1    3    3    0  502  0.56126970633E+03  0.30448427652E+03 -0.79488329448E+03  0.10195949293E+04  0.10100000352E+00 0. -1.
</event>
<event>
 5   0  0.2794825E-04  0.1300770E+04  0.7818609E-02  0.9028955E-01
       -2   -1    0    0    0  501  0.00000000000E+00  0.00000000000E+00  0.26002628247E+03  0.26002628248E+03  0.25500000920E-02 0. -1.
        2   -1    0    0  501    0  0.00000000000E+00  0.00000000000E+00 -0.16267607374E+04  0.16267607374E+04  0.25500000920E-02 0.  1.
    10030    2    1    2    0    0  0.00000000000E+00  0.00000000000E+00 -0.13667344549E+04  0.18867870199E+04  0.13007698444E+04 0.  0.
        1    1    3    3  502    0  0.17861608697E+03  0.49435427879E+03 -0.12389557889E+04  0.13458459445E+04  0.50400001928E-02 0.  1.
       -1    1    3    3    0  502 -0.17861608697E+03 -0.49435427879E+03 -0.12777866599E+03  0.54094107534E+03  0.50400001928E-02 0. -1.
</event>
<event>
 5   0  0.1476511E-04  0.1301585E+04  0.7818609E-02  0.9028309E-01
       -1   -1    0    0    0  501  0.00000000000E+00  0.00000000000E+00  0.39468271253E+03  0.39468271257E+03  0.50400001928E-02 0.  1.
        1   -1    0    0  501    0  0.00000000000E+00  0.00000000000E+00 -0.10730926553E+04  0.10730926553E+04  0.50400001928E-02 0. -1.
    10030    2    1    2    0    0  0.00000000000E+00  0.00000000000E+00 -0.67840994277E+03  0.14677753679E+04  0.13015853718E+04 0.  0.
        2    1    3    3  502    0 -0.59005851678E+03  0.19360653936E+03 -0.55867931085E+03  0.83532934684E+03  0.25500000920E-02 0. -1.
       -2    1    3    3    0  502  0.59005851678E+03 -0.19360653936E+03 -0.11973063191E+03  0.63244602104E+03  0.25500000920E-02 0.  1.
</event>
<event>
 5   0  0.1475396E-04  0.1296429E+04  0.7818609E-02  0.9032402E-01
       -1   -1    0    0    0  501  0.00000000000E+00  0.00000000000E+00  0.53158604360E+03  0.53158604362E+03  0.50400001928E-02 0.  1.
        1   -1    0    0  501    0  0.00000000000E+00  0.00000000000E+00 -0.79043099689E+03  0.79043099691E+03  0.50400001928E-02 0. -1.
    10030    2    1    2    0    0  0.00000000000E+00  0.00000000000E+00 -0.25884495329E+03  0.13220170405E+04  0.12964290747E+04 0.  0.
        3    1    3    3  502    0 -0.62530761099E+03  0.14654236797E+03 -0.21889128755E+03  0.67852610852E+03  0.10100000352E+00 0.  1.
       -3    1    3    3    0  502  0.62530761099E+03 -0.14654236797E+03 -0.39953665738E+02  0.64349093201E+03  0.10100000352E+00 0. -1.
</event>
<event>
 5   0  0.1476511E-04  0.1300866E+04  0.7818609E-02  0.9028878E-01
        1   -1    0    0  501    0  0.00000000000E+00  0.00000000000E+00  0.68212398107E+03  0.68212398109E+03  0.50400001928E-02 0. -1.
       -1   -1    0    0    0  501  0.00000000000E+00  0.00000000000E+00 -0.62021476213E+03  0.62021476215E+03  0.50400001928E-02 0.  1.
    10030    2    1    2    0    0  0.00000000000E+00  0.00000000000E+00  0.61909218943E+02  0.13023387432E+04  0.13008664231E+04 0.  0.
        2    1    3    3  502    0  0.49332806629E+03  0.42387758043E+03  0.26639451649E+02  0.65096424215E+03  0.25500000920E-02 0. -1.
       -2    1    3    3    0  502 -0.49332806629E+03 -0.42387758043E+03  0.35269767294E+02  0.65137450109E+03  0.25500000920E-02 0.  1.
</event>
<event>
 5   0  0.1475396E-04  0.1302610E+04  0.7818609E-02  0.9027498E-01
       -1   -1    0    0    0  501  0.00000000000E+00  0.00000000000E+00  0.40737498256E+03  0.40737498259E+03  0.50400001928E-02 0.  1.
        1   -1    0    0  501    0  0.00000000000E+00  0.00000000000E+00 -0.10412962745E+04  0.10412962745E+04  0.50400001928E-02 0. -1.
    10030    2    1    2    0    0  0.00000000000E+00  0.00000000000E+00 -0.63392129191E+03  0.14486712571E+04  0.13026097676E+04 0.  0.
        3    1    3    3  502    0  0.28800548312E+03  0.38953969689E+03 -0.80110095593E+03  0.93618966323E+03  0.10100000352E+00 0. -1.
       -3    1    3    3    0  502 -0.28800548312E+03 -0.38953969689E+03  0.16717966402E+03  0.51248159383E+03  0.10100000352E+00 0.  1.
</event>
<event>
 5   0  0.2661377E-04  0.1299385E+04  0.7818609E-02  0.9030053E-01
        2   -1    0    0  501    0  0.00000000000E+00  0.00000000000E+00  0.65743175727E+03  0.65743175727E+03  0.25500000920E-02 0.  1.
       -2   -1    0    0    0  501  0.00000000000E+00  0.00000000000E+00 -0.64204461723E+03  0.64204461723E+03  0.25500000920E-02 0. -1.
    10030    2    1    2    0    0  0.00000000000E+00  0.00000000000E+00  0.15387140041E+02  0.12994763745E+04  0.12993852715E+04 0.  0.
        5    1    3    3  502    0 -0.47020133603E+03 -0.43047342330E+03  0.13292920967E+03  0.65122110635E+03  0.46999998093E+01 0.  1.
       -5    1    3    3    0  502  0.47020133603E+03  0.43047342330E+03 -0.11754206963E+03  0.64825526816E+03  0.46999998093E+01 0. -1.
</event>
<event>
 5   0  0.2794825E-04  0.1302413E+04  0.7818609E-02  0.9027654E-01
        2   -1    0    0  501    0  0.00000000000E+00  0.00000000000E+00  0.60704773578E+03  0.60704773579E+03  0.25500000920E-02 0. -1.
       -2   -1    0    0    0  501  0.00000000000E+00  0.00000000000E+00 -0.69857702480E+03  0.69857702481E+03  0.25500000920E-02 0.  1.
    10030    2    1    2    0    0  0.00000000000E+00  0.00000000000E+00 -0.91529289018E+02  0.13056247606E+04  0.13024125325E+04 0.  0.
        1    1    3    3  502    0 -0.16215277462E+03 -0.29492053246E+03  0.51310290063E+03  0.61363362802E+03  0.50400001928E-02 0. -1.
       -1    1    3    3    0  502  0.16215277462E+03  0.29492053246E+03 -0.60463218964E+03  0.69199113257E+03  0.50400001928E-02 0.  1.
</event>
<event>
 5   0  0.1479690E-04  0.1300483E+04  0.7818609E-02  0.9029182E-01
       -1   -1    0    0    0  501  0.00000000000E+00  0.00000000000E+00  0.56683461072E+03  0.56683461074E+03  0.50400001928E-02 0.  1.
        1   -1    0    0  501    0  0.00000000000E+00  0.00000000000E+00 -0.74592115207E+03  0.74592115208E+03  0.50400001928E-02 0. -1.
    10030    2    1    2    0    0  0.00000000000E+00  0.00000000000E+00 -0.17908654135E+03  0.13127557628E+04  0.13004828732E+04 0.  0.
        1    1    3    3  502    0  0.52869360070E+03 -0.33855049657E+03 -0.26049485809E+03  0.67969914908E+03  0.50400001928E-02 0. -1.
       -1    1    3    3    0  502 -0.52869360070E+03  0.33855049657E+03  0.81408316744E+02  0.63305661375E+03  0.50400001928E-02 0.  1.
</event>
<event>
 5   0  0.2723209E-04  0.1300636E+04  0.7818609E-02  0.9029061E-01
       -2   -1    0    0    0  501  0.00000000000E+00  0.00000000000E+00  0.32874027911E+03  0.32874027912E+03  0.25500000920E-02 0.  1.
        2   -1    0    0  501    0  0.00000000000E+00  0.00000000000E+00 -0.12864662403E+04  0.12864662403E+04  0.25500000920E-02 0. -1.
    10030    2    1    2    0    0  0.00000000000E+00  0.00000000000E+00 -0.95772596118E+03  0.16152065194E+04  0.13006356460E+04 0.  0.
        2    1    3    3  502    0 -0.38425005225E+02  0.35276927180E+02 -0.12838640661E+04  0.12849232984E+04  0.25500000920E-02 0. -1.
       -2    1    3    3    0  502  0.38425005225E+02 -0.35276927180E+02  0.32613810489E+03  0.33028322102E+03  0.25500000920E-02 0.  1.
</event>
<event>
 5   0  0.2661377E-04  0.1298221E+04  0.7818609E-02  0.9030977E-01
        2   -1    0    0  501    0  0.00000000000E+00  0.00000000000E+00  0.95919330373E+03  0.95919330374E+03  0.25500000920E-02 0.  1.
       -2   -1    0    0    0  501  0.00000000000E+00  0.00000000000E+00 -0.43926990935E+03  0.43926990936E+03  0.25500000920E-02 0. -1.
    10030    2    1    2    0    0  0.00000000000E+00  0.00000000000E+00  0.51992339438E+03  0.13984632131E+04  0.12982214843E+04 0.  0.
        5    1    3    3  502    0 -0.14662256557E+03  0.85362141582E+02 -0.41494384294E+03  0.44831390201E+03  0.46999998093E+01 0. -1.
       -5    1    3    3    0  502  0.14662256557E+03 -0.85362141582E+02  0.93486723732E+03  0.95014931109E+03  0.46999998093E+01 0.  1.
</event>
<event>
 5   0  0.1476511E-04  0.1298988E+04  0.7818609E-02  0.9030368E-01
       -1   -1    0    0    0  501  0.00000000000E+00  0.00000000000E+00  0.25380863167E+03  0.25380863172E+03  0.50400001928E-02 0.  1.
        1   -1    0    0  501    0  0.00000000000E+00  0.00000000000E+00 -0.16620502946E+04  0.16620502946E+04  0.50400001928E-02 0. -1.
    10030    2    1    2    0    0  0.00000000000E+00  0.00000000000E+00 -0.14082416629E+04  0.19158589263E+04  0.12989883927E+04 0.  0.
        2    1    3    3  502    0  0.29578900166E+03 -0.24218397774E+03 -0.14785388635E+04  0.15271612173E+04  0.25500000920E-02 0. -1.
       -2    1    3    3    0  502 -0.29578900166E+03  0.24218397774E+03  0.70297200626E+02  0.38869770903E+03  0.25500000920E-02 0.  1.
</event>
<event>
 5   0  0.2723209E-04  0.1301956E+04  0.7818609E-02  0.9028016E-01
        2   -1    0    0  501    0  0.00000000000E+00  0.00000000000E+00  0.11509039432E+04  0.11509039433E+04  0.25500000920E-02 0. -1.
       -2   -1    0    0    0  501  0.00000000000E+00  0.00000000000E+00 -0.36820800498E+03  0.36820800499E+03  0.25500000920E-02 0.  1.
    10030    2    1    2    0    0  0.00000000000E+00  0.00000000000E+00  0.78269593826E+03  0.15191119482E+04  0.13019555213E+04 0.  0.
        2    1    3    3  502    0 -0.57640108610E+02 -0.56332310220E+03  0.76602600099E+03  0.95260229571E+03  0.25500000920E-02 0. -1.
       -2    1    3    3    0  502  0.57640108610E+02  0.56332310220E+03  0.16669937277E+02  0.56650965253E+03  0.25500000920E-02 0.  1.
</event>
<event>
 5   0  0.2756984E-04  0.1300690E+04  0.7818609E-02  0.9029018E-01
       -2   -1    0    0    0  501  0.00000000000E+00  0.00000000000E+00  0.15954927064E+03  0.15954927066E+03  0.25500000920E-02 0.  1.
        2   -1    0    0  501    0  0.00000000000E+00  0.00000000000E+00 -0.26508972583E+04  0.26508972583E+04  0.25500000920E-02 0. -1.
    10030    2    1    2    0    0  0.00000000000E+00  0.00000000000E+00 -0.24913479877E+04  0.28104465290E+04  0.13006901616E+04 0.  0.
        3    1    3    3  502    0 -0.32124993839E+03 -0.12843985700E+03 -0.24355512372E+04  0.24600016584E+04  0.10100000352E+00 0. -1.
       -3    1    3    3    0  502  0.32124993839E+03  0.12843985700E+03 -0.55796750455E+02  0.35044487062E+03  0.10100000352E+00 0.  1.
</event>
<event>
 5   0  0.1408341E-04  0.1292061E+04  0.7818609E-02  0.9035885E-01
        1   -1    0    0  501    0  0.00000000000E+00  0.00000000000E+00  0.42039377680E+03  0.42039377683E+03  0.50400001928E-02 0.  1.
       -1   -1    0    0    0  501  0.00000000000E+00  0.00000000000E+00 -0.99277189441E+03  0.99277189442E+03  0.50400001928E-02 0. -1.
    10030    2    1    2    0    0  0.00000000000E+00  0.00000000000E+00 -0.57237811761E+03  0.14131656713E+04  0.12920605655E+04 0.  0.
        5    1    3    3  502    0  0.44039342553E+03 -0.46859906273E+03 -0.35362517980E+03  0.73389666073E+03  0.46999998093E+01 0.  1.
       -5    1    3    3    0  502 -0.44039342553E+03  0.46859906273E+03 -0.21875293781E+03  0.67926901052E+03  0.46999998093E+01 0. -1.
</event>
<event>
 5   0  0.1408341E-04  0.1294707E+04  0.7818609E-02  0.9033773E-01
       -1   -1    0    0    0  501  0.00000000000E+00  0.00000000000E+00  0.35534495125E+03  0.35534495129E+03  0.50400001928E-02 0.  1.
        1   -1    0    0  501    0  0.00000000000E+00  0.00000000000E+00 -0.11793238892E+04  0.11793238892E+04  0.50400001928E-02 0. -1.
    10030    2    1    2    0    0  0.00000000000E+00  0.00000000000E+00 -0.82397893799E+03  0.15346688405E+04  0.12947073646E+04 0.  0.
        5    1    3    3  502    0  0.13761580770E+03 -0.36295584857E+03 -0.10260479727E+04  0.10970285278E+04  0.46999998093E+01 0. -1.
       -5    1    3    3    0  502 -0.13761580770E+03  0.36295584857E+03  0.20206903471E+03  0.43764031273E+03  0.46999998093E+01 0.  1.
</event>
<event>
 5   0  0.2794825E-04  0.1298009E+04  0.7818609E-02  0.9031145E-01
       -2   -1    0    0    0  501  0.00000000000E+00  0.00000000000E+00  0.28467830063E+03  0.28467830064E+03  0.25500000920E-02 0. -1.
        2   -1    0    0  501    0  0.00000000000E+00  0.00000000000E+00 -0.14795893473E+04  0.14795893473E+04  0.25500000920E-02 0.  1.
    10030    2    1    2    0    0  0.00000000000E+00  0.00000000000E+00 -0.11949110467E+04  0.17642676480E+04  0.12980092157E+04 0.  0.
        1    1    3    3  502    0  0.25304061946E+03  0.42912985522E+03 -0.11628364001E+04  0.12650575011E+04  0.50400001928E-02 0.  1.
       -1    1    3    3    0  502 -0.25304061946E+03 -0.42912985522E+03 -0.32074646608E+02  0.49921014685E+03  0.50400001928E-02 0. -1.
</event>
<event>
 5   0  0.1430636E-04  0.1299681E+04  0.7818609E-02  0.9029818E-01
       -1   -1    0    0    0  501  0.00000000000E+00  0.00000000000E+00  0.79363541456E+03  0.79363541458E+03  0.50400001928E-02 0. -1.
        1   -1    0    0  501    0  0.00000000000E+00  0.00000000000E+00 -0.53209912790E+03  0.53209912792E+03  0.50400001928E-02 0.  1.
    10030    2    1    2    0    0  0.00000000000E+00  0.00000000000E+00  0.26153628667E+03  0.13257345425E+04  0.12996810562E+04 0.  0.
        4    1    3    3  502    0 -0.56216434876E+03  0.19052788548E+03 -0.13903639029E+03  0.60964117388E+03  0.12699999809E+01 0.  1.
       -4    1    3    3    0  502  0.56216434876E+03 -0.19052788548E+03  0.40057267695E+03  0.71609336862E+03  0.12699999809E+01 0. -1.
</event>
<event>
 5   0  0.1476511E-04  0.1299159E+04  0.7818609E-02  0.9030232E-01
       -1   -1    0    0    0  501  0.00000000000E+00  0.00000000000E+00  0.39574774600E+03  0.39574774603E+03  0.50400001928E-02 0. -1.
        1   -1    0    0  501    0  0.00000000000E+00  0.00000000000E+00 -0.10662190631E+04  0.10662190631E+04  0.50400001928E-02 0.  1.
    10030    2    1    2    0    0  0.00000000000E+00  0.00000000000E+00 -0.67047131712E+03  0.14619668092E+04  0.12991594067E+04 0.  0.
        2    1    3    3  502    0 -0.83029872871E+02 -0.46334547416E+03  0.16848793143E+03  0.49997117042E+03  0.25500000920E-02 0. -1.
       -2    1    3    3    0  502  0.83029872871E+02  0.46334547416E+03 -0.83895924855E+03  0.96199563873E+03  0.25500000920E-02 0.  1.
</event>
<event>
 5   0  0.2573071E-04  0.1296438E+04  0.7818609E-02  0.9032395E-01
        2   -1    0    0  501    0  0.00000000000E+00  0.00000000000E+00  0.40339130657E+03  0.40339130658E+03  0.25500000920E-02 0. -1.
       -2   -1    0    0    0  501  0.00000000000E+00  0.00000000000E+00 -0.10416376242E+04  0.10416376242E+04  0.25500000920E-02 0.  1.
    10030    2    1    2    0    0  0.00000000000E+00  0.00000000000E+00 -0.63824631767E+03  0.14450289308E+04  0.12964375222E+04 0.  0.
        4    1    3    3  502    0 -0.54690297604E+03 -0.33553816029E+03 -0.42186883702E+03  0.76789559887E+03  0.12699999809E+01 0.  1.
       -4    1    3    3    0  502  0.54690297604E+03  0.33553816029E+03 -0.21637748065E+03  0.67713333196E+03  0.12699999809E+01 0. -1.
</event>
<event>
 5   0  0.2723209E-04  0.1294523E+04  0.7818609E-02  0.9033920E-01
        2   -1    0    0  501    0  0.00000000000E+00  0.00000000000E+00  0.21240164880E+04  0.21240164880E+04  0.25500000920E-02 0. -1.
       -2   -1    0    0    0  501  0.00000000000E+00  0.00000000000E+00 -0.19724298229E+03  0.19724298230E+03  0.25500000920E-02 0.  1.
    10030    2    1    2    0    0  0.00000000000E+00  0.00000000000E+00  0.19267735057E+04  0.23212594703E+04  0.12945228411E+04 0.  0.
        2    1    3    3  502    0  0.33939234127E+03 -0.42941261169E+03  0.15829026590E+04  0.16748621377E+04  0.25500000920E-02 0. -1.
       -2    1    3    3    0  502 -0.33939234127E+03  0.42941261169E+03  0.34387084670E+03  0.64639733261E+03  0.25500000920E-02 0.  1.
</event>
<event>
 5   0  0.2661377E-04  0.1290624E+04  0.7818609E-02  0.9037033E-01
        2   -1    0    0  501    0  0.00000000000E+00  0.00000000000E+00  0.38390694645E+03  0.38390694646E+03  0.25500000920E-02 0. -1.
       -2   -1    0    0    0  501  0.00000000000E+00  0.00000000000E+00 -0.10847101295E+04  0.10847101295E+04  0.25500000920E-02 0.  1.
    10030    2    1    2    0    0  0.00000000000E+00  0.00000000000E+00 -0.70080318301E+03  0.14686170759E+04  0.12906242731E+04 0.  0.
        5    1    3    3  502    0 -0.63040018867E+03 -0.13450823746E+03 -0.31609774260E+03  0.71793922911E+03  0.46999998093E+01 0. -1.
       -5    1    3    3    0  502  0.63040018867E+03  0.13450823746E+03 -0.38470544041E+03  0.75067784681E+03  0.46999998093E+01 0.  1.
</event>
<event>
 5   0  0.1476511E-04  0.1301611E+04  0.7818609E-02  0.9028288E-01
        1   -1    0    0  501    0  0.00000000000E+00  0.00000000000E+00  0.98046168413E+03  0.98046168414E+03  0.50400001928E-02 0.  1.
       -1   -1    0    0    0  501  0.00000000000E+00  0.00000000000E+00 -0.43198831884E+03  0.43198831887E+03  0.50400001928E-02 0. -1.
    10030    2    1    2    0    0  0.00000000000E+00  0.00000000000E+00  0.54847336529E+03  0.14124500030E+04  0.13016113009E+04 0.  0.
        2    1    3    3  502    0  0.32088210691E+03  0.32911888249E+02  0.88761278037E+03  0.94440720391E+03  0.25500000920E-02 0.  1.
       -2    1    3    3    0  502 -0.32088210691E+03 -0.32911888249E+02 -0.33913941508E+03  0.46804279910E+03  0.25500000920E-02 0. -1.
</event>
<event>
 5   0  0.2573071E-04  0.1298353E+04  0.7818609E-02  0.9030872E-01
       -2   -1    0    0    0  501  0.00000000000E+00  0.00000000000E+00  0.15605409117E+04  0.15605409117E+04  0.25500000920E-02 0. -1.
        2   -1    0    0  501    0  0.00000000000E+00  0.00000000000E+00 -0.27005393348E+03  0.27005393349E+03  0.25500000920E-02 0.  1.
    10030    2    1    2    0    0  0.00000000000E+00  0.00000000000E+00  0.12904869782E+04  0.18305948452E+04  0.12983531285E+04 0.  0.
        4    1    3    3  502    0  0.53671007153E+03 -0.32134487723E+03  0.40059473315E+03  0.74283106029E+03  0.12699999809E+01 0.  1.
       -4    1    3    3    0  502 -0.53671007153E+03  0.32134487723E+03  0.88989224508E+03  0.10877637849E+04  0.12699999809E+01 0. -1.
</event>
<event>
 5   0  0.2756984E-04  0.1303844E+04  0.7818609E-02  0.9026522E-01
        2   -1    0    0  501    0  0.00000000000E+00  0.00000000000E+00  0.18486293521E+04  0.18486293521E+04  0.25500000920E-02 0.  1.
       -2   -1    0    0    0  501  0.00000000000E+00  0.00000000000E+00 -0.22990128826E+03  0.22990128827E+03  0.25500000920E-02 0. -1.
    10030    2    1    2    0    0  0.00000000000E+00  0.00000000000E+00  0.16187280639E+04  0.20785306404E+04  0.13038439624E+04 0.  0.
        3    1    3    3  502    0 -0.57672761205E+03  0.19729899927E+03  0.44077039841E+03  0.75221020196E+03  0.10100000352E+00 0. -1.
       -3    1    3    3    0  502  0.57672761205E+03 -0.19729899927E+03  0.11779576654E+04  0.13263204384E+04  0.10100000352E+00 0.  1.
</event>
<event>
 5   0  0.1475396E-04  0.1301176E+04  0.7818609E-02  0.9028633E-01
        1   -1    0    0  501    0  0.00000000000E+00  0.00000000000E+00  0.89218644409E+03  0.89218644410E+03  0.50400001928E-02 0.  1.
       -1   -1    0    0    0  501  0.00000000000E+00  0.00000000000E+00 -0.47441321010E+03  0.47441321012E+03  0.50400001928E-02 0. -1.
    10030    2    1    2    0    0  0.00000000000E+00  0.00000000000E+00  0.41777323399E+03  0.13665996542E+04  0.13011764446E+04 0.  0.
        3    1    3    3  502    0 -0.36690355164E+03  0.26532892033E+03  0.69954545500E+03  0.83329556940E+03  0.10100000352E+00 0.  1.
       -3    1    3    3    0  502  0.36690355164E+03 -0.26532892033E+03 -0.28177222100E+03  0.53330408483E+03  0.10100000352E+00 0. -1.
</event>
<event>
 5   0  0.2756984E-04  0.1300444E+04  0.7818609E-02  0.9029213E-01
        2   -1    0    0  501    0  0.00000000000E+00  0.00000000000E+00  0.17795244971E+04  0.17795244971E+04  0.25500000920E-02 0. -1.
       -2   -1    0    0    0  501  0.00000000000E+00  0.00000000000E+00 -0.23758515239E+03  0.23758515240E+03  0.25500000920E-02 0.  1.
    10030    2    1    2    0    0  0.00000000000E+00  0.00000000000E+00  0.15419393447E+04  0.20171096495E+04  0.13004439224E+04 0.  0.
        3    1    3    3  502    0  0.25681396701E+03 -0.58766114113E+02  0.16930312324E+04  0.17134064415E+04  0.10100000352E+00 0. -1.
       -3    1    3    3    0  502 -0.25681396701E+03  0.58766114113E+02 -0.15109188767E+03  0.30370320799E+03  0.10100000352E+00 0.  1.
</event>
<event>
 5   0  0.1476511E-04  0.1292470E+04  0.7818609E-02  0.9035558E-01
        1   -1    0    0  501    0  0.00000000000E+00  0.00000000000E+00  0.35001475537E+03  0.35001475541E+03  0.50400001928E-02 0.  1.
       -1   -1    0    0    0  501  0.00000000000E+00  0.00000000000E+00 -0.11931496763E+04  0.11931496763E+04  0.50400001928E-02 0. -1.
    10030    2    1    2    0    0  0.00000000000E+00  0.00000000000E+00 -0.84313492089E+03  0.15431644317E+04  0.12924704903E+04 0.  0.
        2    1    3    3  502    0 -0.29134416429E+03 -0.57223816454E+03 -0.33479279477E+03  0.72417135711E+03  0.25500000920E-02 0.  1.
       -2    1    3    3    0  502  0.29134416429E+03  0.57223816454E+03 -0.50834212611E+03  0.81899307458E+03  0.25500000920E-02 0. -1.
</event>
<event>
 5   0  0.1479690E-04  0.1306035E+04  0.7818609E-02  0.9024793E-01
       -1   -1    0    0    0  501  0.00000000000E+00  0.00000000000E+00  0.55244572975E+03  0.55244572978E+03  0.50400001928E-02 0.  1.
        1   -1    0    0  501    0  0.00000000000E+00  0.00000000000E+00 -0.77189847604E+03  0.77189847605E+03  0.50400001928E-02 0. -1.
    10030    2    1    2    0    0  0.00000000000E+00  0.00000000000E+00 -0.21945274628E+03  0.13243442058E+04  0.13060352475E+04 0.  0.
        1    1    3    3  502    0  0.26670968028E+03 -0.29880038428E+03 -0.63272445617E+03  0.74883640447E+03  0.50400001928E-02 0. -1.
       -1    1    3    3    0  502 -0.26670968028E+03  0.29880038428E+03  0.41327170989E+03  0.57550780136E+03  0.50400001928E-02 0.  1.
</event>
<event>
 5   0  0.2573071E-04  0.1300850E+04  0.7818609E-02  0.9028892E-01
       -2   -1    0    0    0  501  0.00000000000E+00  0.00000000000E+00  0.35943921712E+03  0.35943921713E+03  0.25500000920E-02 0.  1.
        2   -1    0    0  501    0  0.00000000000E+00  0.00000000000E+00 -0.11769791179E+04  0.11769791179E+04  0.25500000920E-02 0. -1.
    10030    2    1    2    0    0  0.00000000000E+00  0.00000000000E+00 -0.81753990076E+03  0.15364183350E+04  0.13008496496E+04 0.  0.
        4    1    3    3  502    0 -0.63101048025E+03  0.14523443512E+03 -0.48141958016E+03  0.80686658897E+03  0.12699999809E+01 0.  1.
       -4    1    3    3    0  502  0.63101048025E+03 -0.14523443512E+03 -0.33612032060E+03  0.72955174604E+03  0.12699999809E+01 0. -1.
</event>
<event>
 5   0  0.2573071E-04  0.1299442E+04  0.7818609E-02  0.9030008E-01
        2   -1    0    0  501    0  0.00000000000E+00  0.00000000000E+00  0.10293129417E+04  0.10293129417E+04  0.25500000920E-02 0. -1.
       -2   -1    0    0    0  501  0.00000000000E+00  0.00000000000E+00 -0.41011557894E+03  0.41011557895E+03  0.25500000920E-02 0.  1.
    10030    2    1    2    0    0  0.00000000000E+00  0.00000000000E+00  0.61919736274E+03  0.14394285206E+04  0.12994418386E+04 0.  0.
        4    1    3    3  502    0  0.88633148272E+02 -0.41592172322E+03 -0.23453044072E+03  0.48564684220E+03  0.12699999809E+01 0.  1.
       -4    1    3    3    0  502 -0.88633148272E+02  0.41592172322E+03  0.85372780346E+03  0.95378167843E+03  0.12699999809E+01 0. -1.
</event>
<event>
 5   0  0.2573071E-04  0.1300409E+04  0.7818609E-02  0.9029241E-01
       -2   -1    0    0    0  501  0.00000000000E+00  0.00000000000E+00  0.52798746570E+03  0.52798746571E+03  0.25500000920E-02 0.  1.
        2   -1    0    0  501    0  0.00000000000E+00  0.00000000000E+00 -0.80071246916E+03  0.80071246917E+03  0.25500000920E-02 0. -1.
    10030    2    1    2    0    0  0.00000000000E+00  0.00000000000E+00 -0.27272500346E+03  0.13286999349E+04  0.13004093930E+04 0.  0.
        4    1    3    3  502    0 -0.61631214354E+02 -0.60337452448E+03  0.10305395227E+03  0.61520805697E+03  0.12699999809E+01 0.  1.
       -4    1    3    3    0  502  0.61631214354E+02  0.60337452448E+03 -0.37577895573E+03  0.71349187791E+03  0.12699999809E+01 0. -1.
</event>
<event>
 5   0  0.1002887E-04  0.1300051E+04  0.7818609E-02  0.9029525E-01
        3   -1    0    0  501    0  0.00000000000E+00  0.00000000000E+00  0.67111423766E+03  0.67111424526E+03  0.10100000352E+00 0. -1.
       -3   -1    0    0    0  501  0.00000000000E+00  0.00000000000E+00 -0.62959968899E+03  0.62959969709E+03  0.10100000352E+00 0.  1.
    10030    2    1    2    0    0  0.00000000000E+00  0.00000000000E+00  0.41514548672E+02  0.13007139424E+04  0.13000512690E+04 0.  0.
        3    1    3    3  502    0 -0.64803429287E+03 -0.12144285185E+02 -0.28637789899E+02  0.64878044176E+03  0.10100000352E+00 0. -1.
       -3    1    3    3    0  502  0.64803429287E+03  0.12144285185E+02  0.70152338571E+02  0.65193350060E+03  0.10100000352E+00 0.  1.
</event>
<event>
 5   0  0.1479690E-04  0.1302249E+04  0.7818609E-02  0.9027783E-01
       -1   -1    0    0    0  501  0.00000000000E+00  0.00000000000E+00  0.42014636194E+03  0.42014636197E+03  0.50400001928E-02 0. -1.
        1   -1    0    0  501    0  0.00000000000E+00  0.00000000000E+00 -0.10090846033E+04  0.10090846033E+04  0.50400001928E-02 0.  1.
    10030    2    1    2    0    0  0.00000000000E+00  0.00000000000E+00 -0.58893824133E+03  0.14292309652E+04  0.13022491697E+04 0.  0.
        1    1    3    3  502    0  0.16604203466E+03 -0.19307250605E+03  0.36322789553E+03  0.44360055679E+03  0.50400001928E-02 0. -1.
       -1    1    3    3    0  502 -0.16604203466E+03  0.19307250605E+03 -0.95216613686E+03  0.98563040846E+03  0.50400001928E-02 0.  1.
</event>
<event>
 5   0  0.1002887E-04  0.1299025E+04  0.7818609E-02  0.9030339E-01
        3   -1    0    0  501    0  0.00000000000E+00  0.00000000000E+00  0.64024961734E+03  0.64024962530E+03  0.10100000352E+00 0. -1.
       -3   -1    0    0    0  501  0.00000000000E+00  0.00000000000E+00 -0.65890918570E+03  0.65890919344E+03  0.10100000352E+00 0.  1.
    10030    2    1    2    0    0  0.00000000000E+00  0.00000000000E+00 -0.18659568362E+02  0.12991588187E+04  0.12990248099E+04 0.  0.
        3    1    3    3  502    0  0.50745347590E+03 -0.70577193260E+02 -0.40859043605E+03  0.65531391336E+03  0.10100000352E+00 0.  1.
       -3    1    3    3    0  502 -0.50745347590E+03  0.70577193260E+02  0.38993086769E+03  0.64384490538E+03  0.10100000352E+00 0. -1.
</event>
<event>
 5   0  0.2661377E-04  0.1307693E+04  0.7818609E-02  0.9023487E-01
       -2   -1    0    0    0  501  0.00000000000E+00  0.00000000000E+00  0.26385087231E+03  0.26385087232E+03  0.25500000920E-02 0. -1.
        2   -1    0    0  501    0  0.00000000000E+00  0.00000000000E+00 -0.16202905039E+04  0.16202905039E+04  0.25500000920E-02 0.  1.
    10030    2    1    2    0    0  0.00000000000E+00  0.00000000000E+00 -0.13564396316E+04  0.18841413762E+04  0.13076927206E+04 0.  0.
        5    1    3    3  502    0 -0.54383678370E+03  0.28355894954E+03 -0.35179096350E+03  0.70706654366E+03  0.46999998093E+01 0. -1.
       -5    1    3    3    0  502  0.54383678370E+03 -0.28355894954E+03 -0.10046486681E+04  0.11770748325E+04  0.46999998093E+01 0.  1.
</event>
<event>
 5   0  0.2756984E-04  0.1299810E+04  0.7818609E-02  0.9029716E-01
       -2   -1    0    0    0  501  0.00000000000E+00  0.00000000000E+00  0.43902068786E+03  0.43902068786E+03  0.25500000920E-02 0.  1.
        2   -1    0    0  501    0  0.00000000000E+00  0.00000000000E+00 -0.96208809848E+03  0.96208809848E+03  0.25500000920E-02 0. -1.
    10030    2    1    2    0    0  0.00000000000E+00  0.00000000000E+00 -0.52306741062E+03  0.14011087863E+04  0.12998101073E+04 0.  0.
        3    1    3    3  502    0  0.45754308748E+03 -0.44592957059E+03 -0.38988344357E+03  0.74847041932E+03  0.10100000352E+00 0. -1.
       -3    1    3    3    0  502 -0.45754308748E+03  0.44592957059E+03 -0.13318396705E+03  0.65263836702E+03  0.10100000352E+00 0.  1.
</event>
<event>
 5   0  0.1476511E-04  0.1299237E+04  0.7818609E-02  0.9030170E-01
        1   -1    0    0  501    0  0.00000000000E+00  0.00000000000E+00  0.12561662874E+04  0.12561662874E+04  0.50400001928E-02 0. -1.
       -1   -1    0    0    0  501  0.00000000000E+00  0.00000000000E+00 -0.33594637957E+03  0.33594637961E+03  0.50400001928E-02 0.  1.
    10030    2    1    2    0    0  0.00000000000E+00  0.00000000000E+00  0.92021990781E+03  0.15921126670E+04  0.12992374939E+04 0.  0.
        2    1    3    3  502    0 -0.53601586529E+02 -0.20083274505E+03 -0.29409409389E+03  0.36013644308E+03  0.25500000920E-02 0.  1.
       -2    1    3    3    0  502  0.53601586529E+02  0.20083274505E+03  0.12143140017E+04  0.12319762239E+04  0.25500000920E-02 0. -1.
</event>
<event>
 5   0  0.1479690E-04  0.1299058E+04  0.7818609E-02  0.9030313E-01
       -1   -1    0    0    0  501  0.00000000000E+00  0.00000000000E+00  0.23526325766E+03  0.23526325771E+03  0.50400001928E-02 0. -1.
        1   -1    0    0  501    0  0.00000000000E+00  0.00000000000E+00 -0.17932575728E+04  0.17932575728E+04  0.50400001928E-02 0.  1.
    10030    2    1    2    0    0  0.00000000000E+00  0.00000000000E+00 -0.15579943152E+04  0.20285208305E+04  0.12990575329E+04 0.  0.
        1    1    3    3  502    0  0.42306247159E+03  0.47866166802E+03 -0.96236107044E+03  0.11550920644E+04  0.50400001928E-02 0.  1.
       -1    1    3    3    0  502 -0.42306247159E+03 -0.47866166802E+03 -0.59563324473E+03  0.87342876615E+03  0.50400001928E-02 0. -1.
</event>
<event>
 5   0  0.1476511E-04  0.1299607E+04  0.7818609E-02  0.9029877E-01
       -1   -1    0    0    0  501  0.00000000000E+00  0.00000000000E+00  0.15656394779E+04  0.15656394779E+04  0.50400001928E-02 0. -1.
        1   -1    0    0  501    0  0.00000000000E+00  0.00000000000E+00 -0.26969477178E+03  0.26969477183E+03  0.50400001928E-02 0.  1.
    10030    2    1    2    0    0  0.00000000000E+00  0.00000000000E+00  0.12959447061E+04  0.18353342497E+04  0.12996072972E+04 0.  0.
        2    1    3    3  502    0 -0.43795496493E+03 -0.95376547002E+02  0.13123828088E+04  0.13868128475E+04  0.25500000920E-02 0. -1.
       -2    1    3    3    0  502  0.43795496493E+03  0.95376547002E+02 -0.16438102739E+02  0.44852140223E+03  0.25500000920E-02 0.  1.
</event>
<event>
 5   0  0.2756984E-04  0.1292842E+04  0.7818609E-02  0.9035261E-01
        2   -1    0    0  501    0  0.00000000000E+00  0.00000000000E+00  0.21408639264E+04  0.21408639264E+04  0.25500000920E-02 0. -1.
       -2   -1    0    0    0  501  0.00000000000E+00  0.00000000000E+00 -0.19518305174E+03  0.19518305175E+03  0.25500000920E-02 0.  1.
    10030    2    1    2    0    0  0.00000000000E+00  0.00000000000E+00  0.19456808747E+04  0.23360469782E+04  0.12928423795E+04 0.  0.
        3    1    3    3  502    0 -0.15078647808E+03 -0.49042785101E+03  0.16833121385E+04  0.17597715207E+04  0.10100000352E+00 0. -1.
       -3    1    3    3    0  502  0.15078647808E+03  0.49042785101E+03  0.26236873615E+03  0.57627545750E+03  0.10100000352E+00 0.  1.
</event>
<event>
 5   0  0.1476511E-04  0.1299441E+04  0.7818609E-02  0.9030009E-01
        1   -1    0    0  501    0  0.00000000000E+00  0.00000000000E+00  0.40148163005E+03  0.40148163009E+03  0.50400001928E-02 0.  1.
       -1   -1    0    0    0  501  0.00000000000E+00  0.00000000000E+00 -0.10514466544E+04  0.10514466544E+04  0.50400001928E-02 0. -1.
    10030    2    1    2    0    0  0.00000000000E+00  0.00000000000E+00 -0.64996502433E+03  0.14529282845E+04  0.12994406747E+04 0.  0.
        2    1    3    3  502    0  0.18119629291E+02 -0.21438717779E+03 -0.10104595016E+04  0.10331111206E+04  0.25500000920E-02 0. -1.
       -2    1    3    3    0  502 -0.18119629291E+02  0.21438717779E+03  0.36049447730E+03  0.41981716394E+03  0.25500000920E-02 0.  1.
</event>
<event>
 5   0  0.2573071E-04  0.1299354E+04  0.7818609E-02  0.9030077E-01
        2   -1    0    0  501    0  0.00000000000E+00  0.00000000000E+00  0.98003712691E+03  0.98003712692E+03  0.25500000920E-02 0.  1.
       -2   -1    0    0    0  501  0.00000000000E+00  0.00000000000E+00 -0.43067788135E+03  0.43067788136E+03  0.25500000920E-02 0. -1.
    10030    2    1    2    0    0  0.00000000000E+00  0.00000000000E+00  0.54935924556E+03  0.14107150083E+04  0.12993541680E+04 0.  0.
        4    1    3    3  502    0 -0.17156998172E+03 -0.53627777278E+03 -0.77210325593E+02  0.56832486790E+03  0.12699999809E+01 0. -1.
       -4    1    3    3    0  502  0.17156998172E+03  0.53627777278E+03  0.62656957116E+03  0.84239014037E+03  0.12699999809E+01 0.  1.
</event>
<event>
 5   0  0.1475396E-04  0.1300027E+04  0.7818609E-02  0.9029544E-01
        1   -1    0    0  501    0  0.00000000000E+00  0.00000000000E+00  0.90162718928E+03  0.90162718929E+03  0.50400001928E-02 0. -1.
       -1   -1    0    0    0  501  0.00000000000E+00  0.00000000000E+00 -0.46861671314E+03  0.46861671316E+03  0.50400001928E-02 0.  1.
    10030    2    1    2    0    0  0.00000000000E+00  0.00000000000E+00  0.43301047614E+03  0.13702439025E+04  0.13000270304E+04 0.  0.
        3    1    3    3  502    0  0.35441533287E+03 -0.38919925297E+03  0.61845742761E+03  0.81214277479E+03  0.10100000352E+00 0. -1.
       -3    1    3    3    0  502 -0.35441533287E+03  0.38919925297E+03 -0.18544695147E+03  0.55810112766E+03  0.10100000352E+00 0.  1.
</event>
<event>
 5   0  0.1479690E-04  0.1309239E+04  0.7818609E-02  0.9022270E-01
        1   -1    0    0  501    0  0.00000000000E+00  0.00000000000E+00  0.19818237472E+04  0.19818237472E+04  0.50400001928E-02 0. -1.
       -1   -1    0    0    0  501  0.00000000000E+00  0.00000000000E+00 -0.21622847625E+03  0.21622847631E+03  0.50400001928E-02 0.  1.
    10030    2    1    2    0    0  0.00000000000E+00  0.00000000000E+00  0.17655952710E+04  0.21980522235E+04  0.13092390601E+04 0.  0.
        1    1    3    3  502    0  0.39005039844E+02 -0.62149489422E+01 -0.21422619213E+03  0.21783681999E+03  0.50400001928E-02 0.  1.
       -1    1    3    3    0  502 -0.39005039844E+02  0.62149489422E+01  0.19798214631E+04  0.19802154035E+04  0.50400001928E-02 0. -1.
</event>
<event>
 5   0  0.2573071E-04  0.1300282E+04  0.7818609E-02  0.9029342E-01
        2   -1    0    0  501    0  0.00000000000E+00  0.00000000000E+00  0.14479267936E+04  0.14479267936E+04  0.25500000920E-02 0.  1.
       -2   -1    0    0    0  501  0.00000000000E+00  0.00000000000E+00 -0.29192296313E+03  0.29192296314E+03  0.25500000920E-02 0. -1.
    10030    2    1    2    0    0  0.00000000000E+00  0.00000000000E+00  0.11560038304E+04  0.17398497567E+04  0.13002816310E+04 0.  0.
        4    1    3    3  502    0 -0.68853487949E+02  0.33810835437E+03 -0.15929419485E+03  0.38004514930E+03  0.12699999809E+01 0. -1.
       -4    1    3    3    0  502  0.68853487949E+02 -0.33810835437E+03  0.13152980253E+04  0.13598046074E+04  0.12699999809E+01 0.  1.
</event>
<event>
 5   0  0.2661377E-04  0.1299668E+04  0.7818609E-02  0.9029828E-01
       -2   -1    0    0    0  501  0.00000000000E+00  0.00000000000E+00  0.27272369990E+03  0.27272369991E+03  0.25500000920E-02 0. -1.
        2   -1    0    0  501    0  0.00000000000E+00  0.00000000000E+00 -0.15483967806E+04  0.15483967806E+04  0.25500000920E-02 0.  1.
    10030    2    1    2    0    0  0.00000000000E+00  0.00000000000E+00 -0.12756730807E+04  0.18211204805E+04  0.12996684176E+04 0.  0.
        5    1    3    3  502    0 -0.26497435075E+03 -0.59043227193E+03 -0.72002894832E+03  0.96813503743E+03  0.46999998093E+01 0.  1.
       -5    1    3    3    0  502  0.26497435075E+03  0.59043227193E+03 -0.55564413241E+03  0.85298544312E+03  0.46999998093E+01 0. -1.
</event>
<event>
 5   0  0.1476511E-04  0.1300886E+04  0.7818609E-02  0.9028863E-01
        1   -1    0    0  501    0  0.00000000000E+00  0.00000000000E+00  0.87772803163E+03  0.87772803165E+03  0.50400001928E-02 0.  1.
       -1   -1    0    0    0  501  0.00000000000E+00  0.00000000000E+00 -0.48201254204E+03  0.48201254207E+03  0.50400001928E-02 0. -1.
    10030    2    1    2    0    0  0.00000000000E+00  0.00000000000E+00  0.39571548960E+03  0.13597405737E+04  0.13008857287E+04 0.  0.
        2    1    3    3  502    0  0.48783399061E+03 -0.20393753688E+03 -0.19809923278E+03  0.56463778422E+03  0.25500000920E-02 0. -1.
       -2    1    3    3    0  502 -0.48783399061E+03  0.20393753688E+03  0.59381472237E+03  0.79510278949E+03  0.25500000920E-02 0.  1.
</event>
<event>
 5   0  0.1476511E-04  0.1297235E+04  0.7818609E-02  0.9031760E-01
        1   -1    0    0  501    0  0.00000000000E+00  0.00000000000E+00  0.72160561370E+03  0.72160561371E+03  0.50400001928E-02 0.  1.
       -1   -1    0    0    0  501  0.00000000000E+00  0.00000000000E+00 -0.58301233088E+03  0.58301233090E+03  0.50400001928E-02 0. -1.
    10030    2    1    2    0    0  0.00000000000E+00  0.00000000000E+00  0.13859328282E+03  0.13046179446E+04  0.12972354772E+04 0.  0.
        2    1    3    3  502    0 -0.13737761880E+03  0.26254270184E+03 -0.51096496394E+03  0.59066612804E+03  0.25500000920E-02 0. -1.
       -2    1    3    3    0  502  0.13737761880E+03 -0.26254270184E+03  0.64955824677E+03  0.71395181657E+03  0.25500000920E-02 0.  1.
</event>
<event>
 5   0  0.1479690E-04  0.1300383E+04  0.7818609E-02  0.9029262E-01
       -1   -1    0    0    0  501  0.00000000000E+00  0.00000000000E+00  0.48390047153E+03  0.48390047155E+03  0.50400001928E-02 0.  1.
        1   -1    0    0  501    0  0.00000000000E+00  0.00000000000E+00 -0.87362754709E+03  0.87362754711E+03  0.50400001928E-02 0. -1.
    10030    2    1    2    0    0  0.00000000000E+00  0.00000000000E+00 -0.38972707556E+03  0.13575280187E+04  0.13003826852E+04 0.  0.
        1    1    3    3  502    0  0.22892928065E+03  0.19316233068E+03  0.40758272092E+03  0.50581021732E+03  0.50400001928E-02 0.  1.
       -1    1    3    3    0  502 -0.22892928065E+03 -0.19316233068E+03 -0.79730979648E+03  0.85171780134E+03  0.50400001928E-02 0. -1.
</event>
<event>
 5   0  0.1408341E-04  0.1299367E+04  0.7818609E-02  0.9030067E-01
        1   -1    0    0  501    0  0.00000000000E+00  0.00000000000E+00  0.12839830343E+04  0.12839830344E+04  0.50400001928E-02 0.  1.
       -1   -1    0    0    0  501  0.00000000000E+00  0.00000000000E+00 -0.32873374010E+03  0.32873374014E+03  0.50400001928E-02 0. -1.
    10030    2    1    2    0    0  0.00000000000E+00  0.00000000000E+00  0.95524929424E+03  0.16127167745E+04  0.12993668383E+04 0.  0.
        5    1    3    3  502    0 -0.42116425159E+03  0.45385776529E+03  0.72178955739E+03  0.95098288791E+03  0.46999998093E+01 0.  1.
       -5    1    3    3    0  502  0.42116425159E+03 -0.45385776529E+03  0.23345973685E+03  0.66173388659E+03  0.46999998093E+01 0. -1.
</event>
<event>
 5   0  0.1475396E-04  0.1302897E+04  0.7818609E-02  0.9027271E-01
        1   -1    0    0  501    0  0.00000000000E+00  0.00000000000E+00  0.47777085266E+03  0.47777085269E+03  0.50400001928E-02 0.  1.
       -1   -1    0    0    0  501  0.00000000000E+00  0.00000000000E+00 -0.88826136833E+03  0.88826136834E+03  0.50400001928E-02 0. -1.
    10030    2    1    2    0    0  0.00000000000E+00  0.00000000000E+00 -0.41049051566E+03  0.13660322210E+04  0.13028973733E+04 0.  0.
        3    1    3    3  502    0 -0.22796796673E+03 -0.56362557081E+03  0.40062832214E+02  0.60930141855E+03  0.10100000352E+00 0.  1.
       -3    1    3    3    0  502  0.22796796673E+03  0.56362557081E+03 -0.45055334788E+03  0.75673080247E+03  0.10100000352E+00 0. -1.
</event>
<event>
 5   0  0.2794825E-04  0.1300039E+04  0.7818609E-02  0.9029534E-01
       -2   -1    0    0    0  501  0.00000000000E+00  0.00000000000E+00  0.65568533709E+03  0.65568533709E+03  0.25500000920E-02 0. -1.
        2   -1    0    0  501    0  0.00000000000E+00  0.00000000000E+00 -0.64440260484E+03  0.64440260485E+03  0.25500000920E-02 0.  1.
    10030    2    1    2    0    0  0.00000000000E+00  0.00000000000E+00  0.11282732242E+02  0.13000879419E+04  0.13000389828E+04 0.  0.
        1    1    3    3  502    0 -0.19035537148E+03  0.23268064625E+03 -0.57070480278E+03  0.64504218663E+03  0.50400001928E-02 0.  1.
       -1    1    3    3    0  502  0.19035537148E+03 -0.23268064625E+03  0.58198753502E+03  0.65504575530E+03  0.50400001928E-02 0. -1.
</event>
<event>
 5   0  0.1408341E-04  0.1298890E+04  0.7818609E-02  0.9030446E-01
        1   -1    0    0  501    0  0.00000000000E+00  0.00000000000E+00  0.98708920313E+03  0.98708920315E+03  0.50400001928E-02 0.  1.
       -1   -1    0    0    0  501  0.00000000000E+00  0.00000000000E+00 -0.42729532331E+03  0.42729532334E+03  0.50400001928E-02 0. -1.
    10030    2    1    2    0    0  0.00000000000E+00  0.00000000000E+00  0.55979387983E+03  0.14143845265E+04  0.12988896800E+04 0.  0.
        5    1    3    3  502    0 -0.63250833695E+03 -0.11774220658E+03  0.37623073196E+03  0.74531984892E+03  0.46999998093E+01 0. -1.
       -5    1    3    3    0  502  0.63250833695E+03  0.11774220658E+03  0.18356314786E+03  0.66906467757E+03  0.46999998093E+01 0.  1.
</event>
<event>
 5   0  0.1479690E-04  0.1299580E+04  0.7818609E-02  0.9029898E-01
        1   -1    0    0  501    0  0.00000000000E+00  0.00000000000E+00  0.19324323968E+04  0.19324323968E+04  0.50400001928E-02 0. -1.
       -1   -1    0    0    0  501  0.00000000000E+00  0.00000000000E+00 -0.21849511566E+03  0.21849511572E+03  0.50400001928E-02 0.  1.
    10030    2    1    2    0    0  0.00000000000E+00  0.00000000000E+00  0.17139372811E+04  0.21509275125E+04  0.12995799939E+04 0.  0.
        1    1    3    3  502    0 -0.22248779779E+03  0.34950188744E+03  0.28470907709E+02  0.41528662644E+03  0.50400001928E-02 0.  1.
       -1    1    3    3    0  502  0.22248779779E+03 -0.34950188744E+03  0.16854663734E+04  0.17356408861E+04  0.50400001928E-02 0. -1.
</event>
<event>
 5   0  0.1479690E-04  0.1301637E+04  0.7818609E-02  0.9028268E-01
       -1   -1    0    0    0  501  0.00000000000E+00  0.00000000000E+00  0.61826434681E+03  0.61826434683E+03  0.50400001928E-02 0.  1.
        1   -1    0    0  501    0  0.00000000000E+00  0.00000000000E+00 -0.68508663458E+03  0.68508663460E+03  0.50400001928E-02 0. -1.
    10030    2    1    2    0    0  0.00000000000E+00  0.00000000000E+00 -0.66822287771E+02  0.13033509814E+04  0.13016368782E+04 0.  0.
        1    1    3    3  502    0 -0.40638030436E+03  0.50707475818E+03 -0.69442951164E+02  0.65352282718E+03  0.50400001928E-02 0.  1.
       -1    1    3    3    0  502  0.40638030436E+03 -0.50707475818E+03  0.26206633934E+01  0.64982815425E+03  0.50400001928E-02 0. -1.
</event>
<event>
 5   0  0.1430636E-04  0.1299586E+04  0.7818609E-02  0.9029893E-01
       -1   -1    0    0    0  501  0.00000000000E+00  0.00000000000E+00  0.33973765482E+03  0.33973765486E+03  0.50400001928E-02 0. -1.
        1   -1    0    0  501    0  0.00000000000E+00  0.00000000000E+00 -0.12428149172E+04  0.12428149172E+04  0.50400001928E-02 0.  1.
    10030    2    1    2    0    0  0.00000000000E+00  0.00000000000E+00 -0.90307726238E+03  0.15825525721E+04  0.12995861270E+04 0.  0.
        4    1    3    3  502    0  0.26035966905E+03  0.31836210879E+03 -0.10641551519E+04  0.11408634405E+04  0.12699999809E+01 0.  1.
       -4    1    3    3    0  502 -0.26035966905E+03 -0.31836210879E+03  0.16107788952E+03  0.44168913160E+03  0.12699999809E+01 0. -1.
</event>
<event>
 5   0  0.1475396E-04  0.1301425E+04  0.7818609E-02  0.9028436E-01
       -1   -1    0    0    0  501  0.00000000000E+00  0.00000000000E+00  0.26207471723E+03  0.26207471728E+03  0.50400001928E-02 0.  1.
        1   -1    0    0  501    0  0.00000000000E+00  0.00000000000E+00 -0.16156728428E+04  0.16156728428E+04  0.50400001928E-02 0. -1.
    10030    2    1    2    0    0  0.00000000000E+00  0.00000000000E+00 -0.13535981256E+04  0.18777475601E+04  0.13014253778E+04 0.  0.
        3    1    3    3  502    0  0.14548515496E+02 -0.41087090402E+03 -0.14045400896E+04  0.14634751220E+04  0.10100000352E+00 0. -1.
       -3    1    3    3    0  502 -0.14548515496E+02  0.41087090402E+03  0.50941964062E+02  0.41427243811E+03  0.10100000352E+00 0.  1.
</event>
<event>
 5   0  0.2794825E-04  0.1299775E+04  0.7818609E-02  0.9029743E-01
       -2   -1    0    0    0  501  0.00000000000E+00  0.00000000000E+00  0.73147589970E+03  0.73147589971E+03  0.25500000920E-02 0. -1.
        2   -1    0    0  501    0  0.00000000000E+00  0.00000000000E+00 -0.57739960936E+03  0.57739960937E+03  0.25500000920E-02 0.  1.
    10030    2    1    2    0    0  0.00000000000E+00  0.00000000000E+00  0.15407629034E+03  0.13088755091E+04  0.12997752094E+04 0.  0.
        1    1    3    3  502    0  0.54692109953E+03 -0.31745503472E+03 -0.73855940470E+02  0.63667502555E+03  0.50400001928E-02 0. -1.
       -1    1    3    3    0  502 -0.54692109953E+03  0.31745503472E+03  0.22793223081E+03  0.67220048353E+03  0.50400001928E-02 0.  1.
</event>
<event>
 5   0  0.2661377E-04  0.1297457E+04  0.7818609E-02  0.9031584E-01
       -2   -1    0    0    0  501  0.00000000000E+00  0.00000000000E+00  0.42011784341E+03  0.42011784342E+03  0.25500000920E-02 0. -1.
        2   -1    0    0  501    0  0.00000000000E+00  0.00000000000E+00 -0.10017391671E+04  0.10017391671E+04  0.25500000920E-02 0.  1.
    10030    2    1    2    0    0  0.00000000000E+00  0.00000000000E+00 -0.58162132368E+03  0.14218570105E+04  0.12974567408E+04 0.  0.
        5    1    3    3  502    0 -0.19851642040E+03 -0.61700624615E+03 -0.32023522778E+03  0.72296484566E+03  0.46999998093E+01 0. -1.
       -5    1    3    3    0  502  0.19851642040E+03  0.61700624615E+03 -0.26138609589E+03  0.69889216484E+03  0.46999998093E+01 0.  1.
</event>
<event>
 5   0  0.1475396E-04  0.1294689E+04  0.7818609E-02  0.9033788E-01
       -1   -1    0    0    0  501  0.00000000000E+00  0.00000000000E+00  0.10183777455E+04  0.10183777456E+04  0.50400001928E-02 0. -1.
        1   -1    0    0  501    0  0.00000000000E+00  0.00000000000E+00 -0.41149255998E+03  0.41149256001E+03  0.50400001928E-02 0.  1.
    10030    2    1    2    0    0  0.00000000000E+00  0.00000000000E+00  0.60688518557E+03  0.14298703056E+04  0.12946889442E+04 0.  0.
        3    1    3    3  502    0 -0.20504484352E+03 -0.11351532040E+02 -0.37456453144E+03  0.42716606086E+03  0.10100000352E+00 0.  1.
       -3    1    3    3    0  502  0.20504484352E+03  0.11351532040E+02  0.98144971701E+03  0.10027042447E+04  0.10100000352E+00 0. -1.
</event>
<event>
 5   0  0.1002887E-04  0.1300032E+04  0.7818609E-02  0.9029540E-01
        4   -1    0    0  501    0  0.00000000000E+00  0.00000000000E+00  0.31883655806E+03  0.31883908740E+03  0.12699999809E+01 0.  1.
       -4   -1    0    0    0  501  0.00000000000E+00  0.00000000000E+00 -0.13251869365E+04  0.13251875450E+04  0.12699999809E+01 0. -1.
    10030    2    1    2    0    0  0.00000000000E+00  0.00000000000E+00 -0.10063503784E+04  0.16440266324E+04  0.13000317242E+04 0.  0.
        3    1    3    3  502    0 -0.63176254379E+02 -0.48051598441E+03 -0.10509605092E+04  0.11573265971E+04  0.10100000352E+00 0. -1.
       -3    1    3    3    0  502  0.63176254379E+02  0.48051598441E+03  0.44610130757E+02  0.48670003530E+03  0.10100000352E+00 0.  1.
</event>
<event>
 5   0  0.1430636E-04  0.1300283E+04  0.7818609E-02  0.9029341E-01
       -1   -1    0    0    0  501  0.00000000000E+00  0.00000000000E+00  0.46363521081E+03  0.46363521084E+03  0.50400001928E-02 0.  1.
        1   -1    0    0  501    0  0.00000000000E+00  0.00000000000E+00 -0.91167349086E+03  0.91167349087E+03  0.50400001928E-02 0. -1.
    10030    2    1    2    0    0  0.00000000000E+00  0.00000000000E+00 -0.44803828004E+03  0.13753087017E+04  0.13002829402E+04 0.  0.
        4    1    3    3  502    0 -0.20247539277E+03 -0.44320246738E+03 -0.67926955522E+03  0.83596259086E+03  0.12699999809E+01 0. -1.
       -4    1    3    3    0  502  0.20247539277E+03  0.44320246738E+03  0.23123127518E+03  0.53934611085E+03  0.12699999809E+01 0.  1.
</event>
<event>
 5   0  0.1476511E-04  0.1300364E+04  0.7818609E-02  0.9029277E-01
        1   -1    0    0  501    0  0.00000000000E+00  0.00000000000E+00  0.19112510937E+04  0.19112510938E+04  0.50400001928E-02 0.  1.
       -1   -1    0    0    0  501  0.00000000000E+00  0.00000000000E+00 -0.22118305438E+03  0.22118305444E+03  0.50400001928E-02 0. -1.
    10030    2    1    2    0    0  0.00000000000E+00  0.00000000000E+00  0.16900680394E+04  0.21324341482E+04  0.13003635717E+04 0.  0.
        2    1    3    3  502    0  0.53836019980E+03 -0.35763881704E+03  0.96098058719E+03  0.11581109261E+04  0.25500000920E-02 0. -1.
       -2    1    3    3    0  502 -0.53836019980E+03  0.35763881704E+03  0.72908745217E+03  0.97432322209E+03  0.25500000920E-02 0.  1.
</event>
<event>
 5   0  0.1479690E-04  0.1301309E+04  0.7818609E-02  0.9028528E-01
        1   -1    0    0  501    0  0.00000000000E+00  0.00000000000E+00  0.11426208244E+04  0.11426208244E+04  0.50400001928E-02 0. -1.
       -1   -1    0    0    0  501  0.00000000000E+00  0.00000000000E+00 -0.37050914320E+03  0.37050914323E+03  0.50400001928E-02 0.  1.
    10030    2    1    2    0    0  0.00000000000E+00  0.00000000000E+00  0.77211168116E+03  0.15131299676E+04  0.13013092832E+04 0.  0.
        1    1    3    3  502    0 -0.18522838532E+03 -0.20867820226E+03  0.10695216385E+04  0.11053201718E+04  0.50400001928E-02 0. -1.
       -1    1    3    3    0  502  0.18522838532E+03  0.20867820226E+03 -0.29740995735E+03  0.40780979584E+03  0.50400001928E-02 0.  1.
</event>
<event>
 5   0  0.1408341E-04  0.1309356E+04  0.7818609E-02  0.9022179E-01
       -1   -1    0    0    0  501  0.00000000000E+00  0.00000000000E+00  0.32055161402E+03  0.32055161406E+03  0.50400001928E-02 0. -1.
        1   -1    0    0  501    0  0.00000000000E+00  0.00000000000E+00 -0.13370798775E+04  0.13370798775E+04  0.50400001928E-02 0.  1.
    10030    2    1    2    0    0  0.00000000000E+00  0.00000000000E+00 -0.10165282635E+04  0.16576314916E+04  0.13093557391E+04 0.  0.
        5    1    3    3  502    0 -0.83030082081E+02  0.64300650216E+03 -0.62311160668E+03  0.89924497259E+03  0.46999998093E+01 0.  1.
       -5    1    3    3    0  502  0.83030082081E+02 -0.64300650216E+03 -0.39341665682E+03  0.75838651901E+03  0.46999998093E+01 0. -1.
</event>
<event>
 5   0  0.2661377E-04  0.1295559E+04  0.7818609E-02  0.9033095E-01
        2   -1    0    0  501    0  0.00000000000E+00  0.00000000000E+00  0.12803149060E+04  0.12803149060E+04  0.25500000920E-02 0. -1.
       -2   -1    0    0    0  501  0.00000000000E+00  0.00000000000E+00 -0.32774600885E+03  0.32774600886E+03  0.25500000920E-02 0.  1.
    10030    2    1    2    0    0  0.00000000000E+00  0.00000000000E+00  0.95256889716E+03  0.16080609149E+04  0.12955587220E+04 0.  0.
        5    1    3    3  502    0 -0.15219195836E+02  0.17577199931E+03 -0.29732782066E+03  0.34576486605E+03  0.46999998093E+01 0.  1.
       -5    1    3    3    0  502  0.15219195836E+02 -0.17577199931E+03  0.12498967178E+04  0.12622960488E+04  0.46999998093E+01 0. -1.
</event>
<event>
 5   0  0.2573071E-04  0.1298043E+04  0.7818609E-02  0.9031119E-01
       -2   -1    0    0    0  501  0.00000000000E+00  0.00000000000E+00  0.45451429542E+03  0.45451429543E+03  0.25500000920E-02 0.  1.
        2   -1    0    0  501    0  0.00000000000E+00  0.00000000000E+00 -0.92676696990E+03  0.92676696990E+03  0.25500000920E-02 0. -1.
    10030    2    1    2    0    0  0.00000000000E+00  0.00000000000E+00 -0.47225267448E+03  0.13812812653E+04  0.12980428904E+04 0.  0.
        4    1    3    3  502    0 -0.21790960170E+03  0.54798554372E+03  0.52278275117E+02  0.59203663872E+03  0.12699999809E+01 0.  1.
       -4    1    3    3    0  502  0.21790960170E+03 -0.54798554372E+03 -0.52453094960E+03  0.78924462660E+03  0.12699999809E+01 0. -1.
</event>
<event>
 5   0  0.1408341E-04  0.1311732E+04  0.7818609E-02  0.9020313E-01
        1   -1    0    0  501    0  0.00000000000E+00  0.00000000000E+00  0.13165882392E+04  0.13165882392E+04  0.50400001928E-02 0. -1.
       -1   -1    0    0    0  501  0.00000000000E+00  0.00000000000E+00 -0.32672352381E+03  0.32672352384E+03  0.50400001928E-02 0.  1.
    10030    2    1    2    0    0  0.00000000000E+00  0.00000000000E+00  0.98986471543E+03  0.16433117631E+04  0.13117322119E+04 0.  0.
        5    1    3    3  502    0 -0.55808353252E+03 -0.22866320077E+03  0.17212772822E+03  0.62721139457E+03  0.46999998093E+01 0.  1.
       -5    1    3    3    0  502  0.55808353252E+03  0.22866320077E+03  0.81773698721E+03  0.10161003685E+04  0.46999998093E+01 0. -1.
</event>
<event>
 5   0  0.1002887E-04  0.1298883E+04  0.7818609E-02  0.9030451E-01
        3   -1    0    0  501    0  0.00000000000E+00  0.00000000000E+00  0.53904615968E+03  0.53904616914E+03  0.10100000352E+00 0.  1.
       -3   -1    0    0    0  501  0.00000000000E+00  0.00000000000E+00 -0.78244598689E+03  0.78244599341E+03  0.10100000352E+00 0. -1.
    10030    2    1    2    0    0  0.00000000000E+00  0.00000000000E+00 -0.24339982721E+03  0.13214921626E+04  0.12988833896E+04 0.  0.
        2    1    3    3  502    0 -0.12286961424E+02  0.18546537508E+03 -0.75480639906E+03  0.77735517933E+03  0.25500000920E-02 0. -1.
       -2    1    3    3    0  502  0.12286961424E+02 -0.18546537508E+03  0.51140657185E+03  0.54413698322E+03  0.25500000920E-02 0.  1.
</event>
<event>
 5   0  0.2756984E-04  0.1300454E+04  0.7818609E-02  0.9029205E-01
       -2   -1    0    0    0  501  0.00000000000E+00  0.00000000000E+00  0.54729186110E+03  0.54729186110E+03  0.25500000920E-02 0.  1.
        2   -1    0    0  501    0  0.00000000000E+00  0.00000000000E+00 -0.77252226982E+03  0.77252226982E+03  0.25500000920E-02 0. -1.
    10030    2    1    2    0    0  0.00000000000E+00  0.00000000000E+00 -0.22523040872E+03  0.13198141309E+04  0.13004539989E+04 0.  0.
        3    1    3    3  502    0 -0.10957392497E+03 -0.13066526398E+03  0.52419339129E+03  0.55123368721E+03  0.10100000352E+00 0.  1.
       -3    1    3    3    0  502  0.10957392497E+03  0.13066526398E+03 -0.74942380000E+03  0.76858044371E+03  0.10100000352E+00 0. -1.
</event>
<event>
 5   0  0.2573071E-04  0.1294852E+04  0.7818609E-02  0.9033657E-01
        2   -1    0    0  501    0  0.00000000000E+00  0.00000000000E+00  0.96967523326E+03  0.96967523327E+03  0.25500000920E-02 0. -1.
       -2   -1    0    0    0  501  0.00000000000E+00  0.00000000000E+00 -0.43226895110E+03  0.43226895110E+03  0.25500000920E-02 0.  1.
    10030    2    1    2    0    0  0.00000000000E+00  0.00000000000E+00  0.53740628217E+03  0.14019441844E+04  0.12948521089E+04 0.  0.
        4    1    3    3  502    0 -0.99175327139E+02 -0.60651523464E+03  0.48916720769E+03  0.78548242841E+03  0.12699999809E+01 0.  1.
       -4    1    3    3    0  502  0.99175327139E+02  0.60651523464E+03  0.48239074479E+02  0.61646175596E+03  0.12699999809E+01 0. -1.
</event>
<event>
 5   0  0.2573071E-04  0.1298188E+04  0.7818609E-02  0.9031003E-01
        2   -1    0    0  501    0  0.00000000000E+00  0.00000000000E+00  0.22762749884E+04  0.22762749884E+04  0.25500000920E-02 0. -1.
       -2   -1    0    0    0  501  0.00000000000E+00  0.00000000000E+00 -0.18509333749E+03  0.18509333751E+03  0.25500000920E-02 0.  1.
    10030    2    1    2    0    0  0.00000000000E+00  0.00000000000E+00  0.20911816509E+04  0.24613683259E+04  0.12981884835E+04 0.  0.
        4    1    3    3  502    0 -0.47255094503E+03  0.35406898477E+03  0.53454001926E+03  0.79649474996E+03  0.12699999809E+01 0.  1.
       -4    1    3    3    0  502  0.47255094503E+03 -0.35406898477E+03  0.15566416317E+04  0.16648735760E+04  0.12699999809E+01 0. -1.
</event>
<event>
 5   0  0.1430636E-04  0.1299914E+04  0.7818609E-02  0.9029633E-01
       -1   -1    0    0    0  501  0.00000000000E+00  0.00000000000E+00  0.33104606938E+03  0.33104606942E+03  0.50400001928E-02 0.  1.
        1   -1    0    0  501    0  0.00000000000E+00  0.00000000000E+00 -0.12760893871E+04  0.12760893871E+04  0.50400001928E-02 0. -1.
    10030    2    1    2    0    0  0.00000000000E+00  0.00000000000E+00 -0.94504331768E+03  0.16071354565E+04  0.12999144215E+04 0.  0.
        4    1    3    3  502    0 -0.28792578832E+03  0.36438380742E+03  0.89660715181E+02  0.47298781743E+03  0.12699999809E+01 0.  1.
       -4    1    3    3    0  502  0.28792578832E+03 -0.36438380742E+03 -0.10347040329E+04  0.11341476391E+04  0.12699999809E+01 0. -1.
</event>
<event>
 5   0  0.1475396E-04  0.1300363E+04  0.7818609E-02  0.9029277E-01
        1   -1    0    0  501    0  0.00000000000E+00  0.00000000000E+00  0.42835627359E+03  0.42835627362E+03  0.50400001928E-02 0.  1.
       -1   -1    0    0    0  501  0.00000000000E+00  0.00000000000E+00 -0.98687915235E+03  0.98687915236E+03  0.50400001928E-02 0. -1.
    10030    2    1    2    0    0  0.00000000000E+00  0.00000000000E+00 -0.55852287876E+03  0.14152354260E+04  0.13003628359E+04 0.  0.
        3    1    3    3  502    0  0.29964172709E+03 -0.21507621305E+03  0.30347560823E+03  0.47764044743E+03  0.10100000352E+00 0.  1.
       -3    1    3    3    0  502 -0.29964172709E+03  0.21507621305E+03 -0.86199848699E+03  0.93759497855E+03  0.10100000352E+00 0. -1.
</event>
<event>
 5   0  0.1475396E-04  0.1294929E+04  0.7818609E-02  0.9033596E-01
        1   -1    0    0  501    0  0.00000000000E+00  0.00000000000E+00  0.69331179302E+03  0.69331179304E+03  0.50400001928E-02 0.  1.
       -1   -1    0    0    0  501  0.00000000000E+00  0.00000000000E+00 -0.60464870761E+03  0.60464870763E+03  0.50400001928E-02 0. -1.
    10030    2    1    2    0    0  0.00000000000E+00  0.00000000000E+00  0.88663085416E+02  0.12979605007E+04  0.12949286925E+04 0.  0.
        3    1    3    3  502    0  0.12262592880E+03 -0.29423489900E+03  0.60921002534E+03  0.68756683993E+03  0.10100000352E+00 0.  1.
       -3    1    3    3    0  502 -0.12262592880E+03  0.29423489900E+03 -0.52054693992E+03  0.61039366074E+03  0.10100000352E+00 0. -1.
</event>
<event>
 5   0  0.2573071E-04  0.1300312E+04  0.7818609E-02  0.9029318E-01
        2   -1    0    0  501    0  0.00000000000E+00  0.00000000000E+00  0.53987411428E+03  0.53987411429E+03  0.25500000920E-02 0. -1.
       -2   -1    0    0    0  501  0.00000000000E+00  0.00000000000E+00 -0.78296577384E+03  0.78296577384E+03  0.25500000920E-02 0.  1.
    10030    2    1    2    0    0  0.00000000000E+00  0.00000000000E+00 -0.24309165956E+03  0.13228398881E+04  0.13003121989E+04 0.  0.
        4    1    3    3  502    0 -0.45398026346E+03 -0.18649206770E+03  0.31224984031E+03  0.58170348684E+03  0.12699999809E+01 0. -1.
       -4    1    3    3    0  502  0.45398026346E+03  0.18649206770E+03 -0.55534149987E+03  0.74113640129E+03  0.12699999809E+01 0.  1.
</event>
<event>
 5   0  0.1430636E-04  0.1301094E+04  0.7818609E-02  0.9028698E-01
       -1   -1    0    0    0  501  0.00000000000E+00  0.00000000000E+00  0.37901511016E+03  0.37901511019E+03  0.50400001928E-02 0.  1.
        1   -1    0    0  501    0  0.00000000000E+00  0.00000000000E+00 -0.11166086295E+04  0.11166086295E+04  0.50400001928E-02 0. -1.
    10030    2    1    2    0    0  0.00000000000E+00  0.00000000000E+00 -0.73759351930E+03  0.14956237397E+04  0.13010942206E+04 0.  0.
        4    1    3    3  502    0  0.10784934848E+03  0.27095289506E+03 -0.10372586165E+04  0.10774757555E+04  0.12699999809E+01 0. -1.
       -4    1    3    3    0  502 -0.10784934848E+03 -0.27095289506E+03  0.29966509717E+03  0.41814798418E+03  0.12699999809E+01 0.  1.
</event>
<event>
 5   0  0.2756984E-04  0.1302622E+04  0.7818609E-02  0.9027489E-01
       -2   -1    0    0    0  501  0.00000000000E+00  0.00000000000E+00  0.36358989648E+03  0.36358989649E+03  0.25500000920E-02 0.  1.
        2   -1    0    0  501    0  0.00000000000E+00  0.00000000000E+00 -0.11667150826E+04  0.11667150826E+04  0.25500000920E-02 0. -1.
    10030    2    1    2    0    0  0.00000000000E+00  0.00000000000E+00 -0.80312518612E+03  0.15303049791E+04  0.13026216889E+04 0.  0.
        3    1    3    3  502    0  0.49295237234E+02  0.79793986203E+02 -0.11587397144E+04  0.11625294992E+04  0.10100000352E+00 0. -1.
       -3    1    3    3    0  502 -0.49295237234E+02 -0.79793986203E+02  0.35561452829E+03  0.36777547985E+03  0.10100000352E+00 0.  1.
</event>
<event>
 5   0  0.1408341E-04  0.1313983E+04  0.7818609E-02  0.9018549E-01
        1   -1    0    0  501    0  0.00000000000E+00  0.00000000000E+00  0.10666944381E+04  0.10666944382E+04  0.50400001928E-02 0. -1.
       -1   -1    0    0    0  501  0.00000000000E+00  0.00000000000E+00 -0.40465007891E+03  0.40465007894E+03  0.50400001928E-02 0.  1.
    10030    2    1    2    0    0  0.00000000000E+00  0.00000000000E+00  0.66204435923E+03  0.14713445171E+04  0.13139832398E+04 0.  0.
        5    1    3    3  502    0 -0.17839139704E+02 -0.38755203385E+02  0.10651227838E+04  0.10659872585E+04  0.46999998093E+01 0. -1.
       -5    1    3    3    0  502  0.17839139704E+02  0.38755203385E+02 -0.40307842461E+03  0.40535725857E+03  0.46999998093E+01 0.  1.
</event>
<event>
 5   0  0.2756984E-04  0.1300680E+04  0.7818609E-02  0.9029026E-01
        2   -1    0    0  501    0  0.00000000000E+00  0.00000000000E+00  0.74011465226E+03  0.74011465226E+03  0.25500000920E-02 0. -1.
       -2   -1    0    0    0  501  0.00000000000E+00  0.00000000000E+00 -0.57145476029E+03  0.57145476029E+03  0.25500000920E-02 0.  1.
    10030    2    1    2    0    0  0.00000000000E+00  0.00000000000E+00  0.16865989197E+03  0.13115694126E+04  0.13006798856E+04 0.  0.
        3    1    3    3  502    0  0.27193473412E+03  0.58308319255E+03 -0.11372606286E+02  0.64347793702E+03  0.10100000352E+00 0. -1.
       -3    1    3    3    0  502 -0.27193473412E+03 -0.58308319255E+03  0.18003249825E+03  0.66809147554E+03  0.10100000352E+00 0.  1.
</event>
<event>
 5   0  0.2794825E-04  0.1300410E+04  0.7818609E-02  0.9029240E-01
       -2   -1    0    0    0  501  0.00000000000E+00  0.00000000000E+00  0.86889973602E+03  0.86889973603E+03  0.25500000920E-02 0. -1.
        2   -1    0    0  501    0  0.00000000000E+00  0.00000000000E+00 -0.48655376437E+03  0.48655376438E+03  0.25500000920E-02 0.  1.
    10030    2    1    2    0    0  0.00000000000E+00  0.00000000000E+00  0.38234597165E+03  0.13554535004E+04  0.13004098391E+04 0.  0.
        1    1    3    3  502    0  0.64216094649E+03 -0.22404249017E+02  0.29485085631E+03  0.70697217700E+03  0.50400001928E-02 0. -1.
       -1    1    3    3    0  502 -0.64216094649E+03  0.22404249017E+02  0.87495115343E+02  0.64848132340E+03  0.50400001928E-02 0.  1.
</event>
<event>
 5   0  0.1408341E-04  0.1300742E+04  0.7818609E-02  0.9028977E-01
       -1   -1    0    0    0  501  0.00000000000E+00  0.00000000000E+00  0.38309973186E+03  0.38309973189E+03  0.50400001928E-02 0.  1.
        1   -1    0    0  501    0  0.00000000000E+00  0.00000000000E+00 -0.11041061128E+04  0.11041061128E+04  0.50400001928E-02 0. -1.
    10030    2    1    2    0    0  0.00000000000E+00  0.00000000000E+00 -0.72100638094E+03  0.14872058447E+04  0.13007424892E+04 0.  0.
        5    1    3    3  502    0 -0.77608889866E+02 -0.13611974685E+03 -0.10821825669E+04  0.10934774453E+04  0.46999998093E+01 0. -1.
       -5    1    3    3    0  502  0.77608889866E+02  0.13611974685E+03  0.36117618591E+03  0.39372839945E+03  0.46999998093E+01 0.  1.
</event>
<event>
 5   0  0.1476511E-04  0.1303456E+04  0.7818609E-02  0.9026829E-01
       -1   -1    0    0    0  501  0.00000000000E+00  0.00000000000E+00  0.40665980223E+03  0.40665980226E+03  0.50400001928E-02 0.  1.
        1   -1    0    0  501    0  0.00000000000E+00  0.00000000000E+00 -0.10444828445E+04  0.10444828445E+04  0.50400001928E-02 0. -1.
    10030    2    1    2    0    0  0.00000000000E+00  0.00000000000E+00 -0.63782304224E+03  0.14511426467E+04  0.13034556947E+04 0.  0.
        2    1    3    3  502    0 -0.23671933583E+02  0.64841239757E+03 -0.38708891915E+03  0.75553744388E+03  0.25500000920E-02 0. -1.
       -2    1    3    3    0  502  0.23671933583E+02 -0.64841239757E+03 -0.25073412308E+03  0.69560520286E+03  0.25500000920E-02 0.  1.
</event>
<event>
 5   0  0.2723209E-04  0.1297681E+04  0.7818609E-02  0.9031406E-01
       -2   -1    0    0    0  501  0.00000000000E+00  0.00000000000E+00  0.34210648794E+03  0.34210648795E+03  0.25500000920E-02 0.  1.
        2   -1    0    0  501    0  0.00000000000E+00  0.00000000000E+00 -0.12305931700E+04  0.12305931700E+04  0.25500000920E-02 0. -1.
    10030    2    1    2    0    0  0.00000000000E+00  0.00000000000E+00 -0.88848668210E+03  0.15726996580E+04  0.12976808660E+04 0.  0.
        2    1    3    3  502    0  0.16947917353E+03 -0.31485544489E+03  0.21192162283E+03  0.41565360057E+03  0.25500000920E-02 0.  1.
       -2    1    3    3    0  502 -0.16947917353E+03  0.31485544489E+03 -0.11004083049E+04  0.11570460574E+04  0.25500000920E-02 0. -1.
</event>
<event>
 5   0  0.2723209E-04  0.1272296E+04  0.7818609E-02  0.9051828E-01
        2   -1    0    0  501    0  0.00000000000E+00  0.00000000000E+00  0.59380221331E+03  0.59380221332E+03  0.25500000920E-02 0.  1.
       -2   -1    0    0    0  501  0.00000000000E+00  0.00000000000E+00 -0.68151400743E+03  0.68151400744E+03  0.25500000920E-02 0. -1.
    10030    2    1    2    0    0  0.00000000000E+00  0.00000000000E+00 -0.87711794120E+02  0.12753162208E+04  0.12722963900E+04 0.  0.
        2    1    3    3  502    0 -0.56327408008E+03 -0.87033162958E+01  0.25236386346E+03  0.61728515014E+03  0.25500000920E-02 0.  1.
       -2    1    3    3    0  502  0.56327408008E+03  0.87033162958E+01 -0.34007565758E+03  0.65803107061E+03  0.25500000920E-02 0. -1.
</event>
<event>
 5   0  0.1475396E-04  0.1300348E+04  0.7818609E-02  0.9029289E-01
       -1   -1    0    0    0  501  0.00000000000E+00  0.00000000000E+00  0.11407662443E+04  0.11407662443E+04  0.50400001928E-02 0. -1.
        1   -1    0    0  501    0  0.00000000000E+00  0.00000000000E+00 -0.37056353032E+03  0.37056353036E+03  0.50400001928E-02 0.  1.
    10030    2    1    2    0    0  0.00000000000E+00  0.00000000000E+00  0.77020271399E+03  0.15113297747E+04  0.13003482100E+04 0.  0.
        3    1    3    3  502    0 -0.39348898519E+03  0.30219237621E+03 -0.10328234220E+03  0.50677516328E+03  0.10100000352E+00 0.  1.
       -3    1    3    3    0  502  0.39348898519E+03 -0.30219237621E+03  0.87348505619E+03  0.10045546114E+04  0.10100000352E+00 0. -1.
</event>
<event>
 5   0  0.1476511E-04  0.1298726E+04  0.7818609E-02  0.9030576E-01
       -1   -1    0    0    0  501  0.00000000000E+00  0.00000000000E+00  0.87682006802E+03  0.87682006804E+03  0.50400001928E-02 0.  1.
        1   -1    0    0  501    0  0.00000000000E+00  0.00000000000E+00 -0.48091057167E+03  0.48091057170E+03  0.50400001928E-02 0. -1.
    10030    2    1    2    0    0  0.00000000000E+00  0.00000000000E+00  0.39590949635E+03  0.13577306397E+04  0.12987255910E+04 0.  0.
        2    1    3    3  502    0  0.33400171376E+03 -0.55523678988E+03  0.24264016349E+03  0.69189543037E+03  0.25500000920E-02 0.  1.
       -2    1    3    3    0  502 -0.33400171376E+03  0.55523678988E+03  0.15326933286E+03  0.66583520937E+03  0.25500000920E-02 0. -1.
</event>
<event>
 5   0  0.2794825E-04  0.1300891E+04  0.7818609E-02  0.9028859E-01
        2   -1    0    0  501    0  0.00000000000E+00  0.00000000000E+00  0.92154687040E+03  0.92154687040E+03  0.25500000920E-02 0. -1.
       -2   -1    0    0    0  501  0.00000000000E+00  0.00000000000E+00 -0.45909673292E+03  0.45909673293E+03  0.25500000920E-02 0.  1.
    10030    2    1    2    0    0  0.00000000000E+00  0.00000000000E+00  0.46245013748E+03  0.13806436033E+04  0.13008907063E+04 0.  0.
        1    1    3    3  502    0  0.37923923171E+03 -0.34928837112E+03  0.65208945002E+03  0.83129141215E+03  0.50400001928E-02 0. -1.
       -1    1    3    3    0  502 -0.37923923171E+03  0.34928837112E+03 -0.18963931254E+03  0.54935219118E+03  0.50400001928E-02 0.  1.
</event>
<event>
 5   0  0.1430636E-04  0.1297785E+04  0.7818609E-02  0.9031323E-01
       -1   -1    0    0    0  501  0.00000000000E+00  0.00000000000E+00  0.80837509383E+03  0.80837509385E+03  0.50400001928E-02 0.  1.
        1   -1    0    0  501    0  0.00000000000E+00  0.00000000000E+00 -0.52087427773E+03  0.52087427776E+03  0.50400001928E-02 0. -1.
    10030    2    1    2    0    0  0.00000000000E+00  0.00000000000E+00  0.28750081610E+03  0.13292493716E+04  0.12977854879E+04 0.  0.
        4    1    3    3  502    0  0.50585037067E+03  0.98936574676E+02  0.54749905746E+03  0.75195071257E+03  0.12699999809E+01 0.  1.
       -4    1    3    3    0  502 -0.50585037067E+03 -0.98936574676E+02 -0.25999824136E+03  0.57729865904E+03  0.12699999809E+01 0. -1.
</event>
<event>
 5   0  0.2794825E-04  0.1305239E+04  0.7818609E-02  0.9025421E-01
        2   -1    0    0  501    0  0.00000000000E+00  0.00000000000E+00  0.13779147548E+04  0.13779147548E+04  0.25500000920E-02 0.  1.
       -2   -1    0    0    0  501  0.00000000000E+00  0.00000000000E+00 -0.30909908993E+03  0.30909908994E+03  0.25500000920E-02 0. -1.
    10030    2    1    2    0    0  0.00000000000E+00  0.00000000000E+00  0.10688156649E+04  0.16870138448E+04  0.13052389769E+04 0.  0.
        1    1    3    3  502    0 -0.59206894329E+03  0.15111649540E+03  0.23817456161E+03  0.65582692123E+03  0.50400001928E-02 0. -1.
       -1    1    3    3    0  502  0.59206894329E+03 -0.15111649540E+03  0.83064110328E+03  0.10311869235E+04  0.50400001928E-02 0.  1.
</event>
<event>
 5   0  0.1479690E-04  0.1298711E+04  0.7818609E-02  0.9030588E-01
       -1   -1    0    0    0  501  0.00000000000E+00  0.00000000000E+00  0.82638499043E+03  0.82638499045E+03  0.50400001928E-02 0.  1.
        1   -1    0    0  501    0  0.00000000000E+00  0.00000000000E+00 -0.51024916593E+03  0.51024916596E+03  0.50400001928E-02 0. -1.
    10030    2    1    2    0    0  0.00000000000E+00  0.00000000000E+00  0.31613582450E+03  0.13366341564E+04  0.12987105176E+04 0.  0.
        1    1    3    3  502    0 -0.50470672643E+03  0.32321768439E+03 -0.99157607407E+02  0.60747903860E+03  0.50400001928E-02 0. -1.
       -1    1    3    3    0  502  0.50470672643E+03 -0.32321768439E+03  0.41529343191E+03  0.72915511780E+03  0.50400001928E-02 0.  1.
</event>
<event>
 5   0  0.2573071E-04  0.1300913E+04  0.7818609E-02  0.9028842E-01
        2   -1    0    0  501    0  0.00000000000E+00  0.00000000000E+00  0.77670960253E+03  0.77670960254E+03  0.25500000920E-02 0. -1.
       -2   -1    0    0    0  501  0.00000000000E+00  0.00000000000E+00 -0.54472555983E+03  0.54472555983E+03  0.25500000920E-02 0.  1.
    10030    2    1    2    0    0  0.00000000000E+00  0.00000000000E+00  0.23198404271E+03  0.13214351624E+04  0.13009128688E+04 0.  0.
        4    1    3    3  502    0  0.16683523879E+03  0.60675992265E+03  0.28321084941E+03  0.69007361836E+03  0.12699999809E+01 0.  1.
       -4    1    3    3    0  502 -0.16683523879E+03 -0.60675992265E+03 -0.51226806701E+02  0.63136154401E+03  0.12699999809E+01 0. -1.
</event>
<event>
 5   0  0.1002887E-04  0.1300798E+04  0.7818609E-02  0.9028933E-01
        3   -1    0    0  501    0  0.00000000000E+00  0.00000000000E+00  0.92776704478E+03  0.92776705028E+03  0.10100000352E+00 0. -1.
       -3   -1    0    0    0  501  0.00000000000E+00  0.00000000000E+00 -0.45595353982E+03  0.45595355101E+03  0.10100000352E+00 0.  1.
    10030    2    1    2    0    0  0.00000000000E+00  0.00000000000E+00  0.47181350496E+03  0.13837206013E+04  0.13007977241E+04 0.  0.
        2    1    3    3  502    0 -0.59477325003E+03  0.68737026067E+02 -0.34332657880E+02  0.59971554016E+03  0.25500000920E-02 0.  1.
       -2    1    3    3    0  502  0.59477325003E+03 -0.68737026067E+02  0.50614616284E+03  0.78400506112E+03  0.25500000920E-02 0. -1.
</event>
<event>
 5   0  0.2756984E-04  0.1300912E+04  0.7818609E-02  0.9028842E-01
       -2   -1    0    0    0  501  0.00000000000E+00  0.00000000000E+00  0.39104902911E+03  0.39104902912E+03  0.25500000920E-02 0.  1.
        2   -1    0    0  501    0  0.00000000000E+00  0.00000000000E+00 -0.10819442190E+04  0.10819442190E+04  0.25500000920E-02 0. -1.
    10030    2    1    2    0    0  0.00000000000E+00  0.00000000000E+00 -0.69089518985E+03  0.14729932481E+04  0.13009123512E+04 0.  0.
        3    1    3    3  502    0 -0.16521439132E+02  0.28720141952E+03 -0.10059986905E+04  0.10463226027E+04  0.10100000352E+00 0. -1.
       -3    1    3    3    0  502  0.16521439132E+02 -0.28720141952E+03  0.31510350067E+03  0.42667064541E+03  0.10100000352E+00 0.  1.
</event>
<event>
 5   0  0.2723209E-04  0.1299432E+04  0.7818609E-02  0.9030016E-01
       -2   -1    0    0    0  501  0.00000000000E+00  0.00000000000E+00  0.42634277253E+03  0.42634277254E+03  0.25500000920E-02 0.  1.
        2   -1    0    0  501    0  0.00000000000E+00  0.00000000000E+00 -0.99012017498E+03  0.99012017499E+03  0.25500000920E-02 0. -1.
    10030    2    1    2    0    0  0.00000000000E+00  0.00000000000E+00 -0.56377740245E+03  0.14164629475E+04  0.12994315381E+04 0.  0.
        2    1    3    3  502    0  0.48965495329E+03  0.35600431661E+02  0.18199861621E+03  0.52359608509E+03  0.25500000920E-02 0.  1.
       -2    1    3    3    0  502 -0.48965495329E+03 -0.35600431661E+02 -0.74577601867E+03  0.89286686244E+03  0.25500000920E-02 0. -1.
</event>
<event>
 5   0  0.2794825E-04  0.1303081E+04  0.7818609E-02  0.9027125E-01
        2   -1    0    0  501    0  0.00000000000E+00  0.00000000000E+00  0.14798962282E+04  0.14798962282E+04  0.25500000920E-02 0. -1.
       -2   -1    0    0    0  501  0.00000000000E+00  0.00000000000E+00 -0.28684783184E+03  0.28684783186E+03  0.25500000920E-02 0.  1.
    10030    2    1    2    0    0  0.00000000000E+00  0.00000000000E+00  0.11930483964E+04  0.17667440601E+04  0.13030810020E+04 0.  0.
        1    1    3    3  502    0  0.38189135715E+03  0.17268315941E+03  0.12728660881E+04  0.13400927433E+04  0.50400001928E-02 0. -1.
       -1    1    3    3    0  502 -0.38189135715E+03 -0.17268315941E+03 -0.79817691745E+02  0.42665131682E+03  0.50400001928E-02 0.  1.
</event>
<event>
 5   0  0.1430636E-04  0.1280131E+04  0.7818609E-02  0.9045471E-01
        1   -1    0    0  501    0  0.00000000000E+00  0.00000000000E+00  0.68433190247E+03  0.68433190249E+03  0.50400001928E-02 0.  1.
       -1   -1    0    0    0  501  0.00000000000E+00  0.00000000000E+00 -0.59866262082E+03  0.59866262084E+03  0.50400001928E-02 0. -1.
    10030    2    1    2    0    0  0.00000000000E+00  0.00000000000E+00  0.85669281649E+02  0.12829945233E+04  0.12801311343E+04 0.  0.
        4    1    3    3  502    0 -0.55272263022E+03 -0.31571652438E+03 -0.24420508604E+02  0.63700643942E+03  0.12699999809E+01 0. -1.
       -4    1    3    3    0  502  0.55272263022E+03  0.31571652438E+03  0.11008979025E+03  0.64598808390E+03  0.12699999809E+01 0.  1.
</event>
<event>
 5   0  0.2723209E-04  0.1301577E+04  0.7818609E-02  0.9028315E-01
       -2   -1    0    0    0  501  0.00000000000E+00  0.00000000000E+00  0.62103178287E+03  0.62103178287E+03  0.25500000920E-02 0. -1.
        2   -1    0    0  501    0  0.00000000000E+00  0.00000000000E+00 -0.68197135125E+03  0.68197135126E+03  0.25500000920E-02 0.  1.
    10030    2    1    2    0    0  0.00000000000E+00  0.00000000000E+00 -0.60939568385E+02  0.13030031341E+04  0.13015773264E+04 0.  0.
        2    1    3    3  502    0 -0.10172086125E+03  0.63531918387E+03 -0.12829215301E+03  0.65607657750E+03  0.25500000920E-02 0.  1.
       -2    1    3    3    0  502  0.10172086125E+03 -0.63531918387E+03  0.67352584621E+02  0.64692655663E+03  0.25500000920E-02 0. -1.
</event>
<event>
 5   0  0.1475396E-04  0.1302821E+04  0.7818609E-02  0.9027331E-01
        1   -1    0    0  501    0  0.00000000000E+00  0.00000000000E+00  0.37220324553E+03  0.37220324556E+03  0.50400001928E-02 0.  1.
       -1   -1    0    0    0  501  0.00000000000E+00  0.00000000000E+00 -0.11400651272E+04  0.11400651272E+04  0.50400001928E-02 0. -1.
    10030    2    1    2    0    0  0.00000000000E+00  0.00000000000E+00 -0.76786188167E+03  0.15122683728E+04  0.13028214620E+04 0.  0.
        3    1    3    3  502    0 -0.66108315839E+02 -0.58051712497E+03 -0.71827430075E+03  0.92589871105E+03  0.10100000352E+00 0. -1.
       -3    1    3    3    0  502  0.66108315839E+02  0.58051712497E+03 -0.49587580918E+02  0.58636966172E+03  0.10100000352E+00 0.  1.
</event>
<event>
 5   0  0.1430636E-04  0.1300352E+04  0.7818609E-02  0.9029286E-01
        1   -1    0    0  501    0  0.00000000000E+00  0.00000000000E+00  0.41347406279E+03  0.41347406282E+03  0.50400001928E-02 0.  1.
       -1   -1    0    0    0  501  0.00000000000E+00  0.00000000000E+00 -0.10223822179E+04  0.10223822179E+04  0.50400001928E-02 0. -1.
    10030    2    1    2    0    0  0.00000000000E+00  0.00000000000E+00 -0.60890815507E+03  0.14358562807E+04  0.13003515361E+04 0.  0.
        4    1    3    3  502    0 -0.14670818756E+03  0.40328308230E+03  0.23487621902E+03  0.48921262037E+03  0.12699999809E+01 0.  1.
       -4    1    3    3    0  502  0.14670818756E+03 -0.40328308230E+03 -0.84378437409E+03  0.94664366032E+03  0.12699999809E+01 0. -1.
</event>
<event>
 5   0  0.1476511E-04  0.1296285E+04  0.7818609E-02  0.9032517E-01
       -1   -1    0    0    0  501  0.00000000000E+00  0.00000000000E+00  0.31769652599E+03  0.31769652603E+03  0.50400001928E-02 0. -1.
        1   -1    0    0  501    0  0.00000000000E+00  0.00000000000E+00 -0.13222950789E+04  0.13222950789E+04  0.50400001928E-02 0.  1.
    10030    2    1    2    0    0  0.00000000000E+00  0.00000000000E+00 -0.10045985529E+04  0.16399916049E+04  0.12962847726E+04 0.  0.
        2    1    3    3  502    0 -0.17531280427E+03 -0.83322570458E+02 -0.12846591664E+04  0.12992407028E+04  0.25500000920E-02 0.  1.
       -2    1    3    3    0  502  0.17531280427E+03  0.83322570458E+02  0.28006061346E+03  0.34075090213E+03  0.25500000920E-02 0. -1.
</event>
<event>
 5   0  0.1408341E-04  0.1312322E+04  0.7818609E-02  0.9019850E-01
       -1   -1    0    0    0  501  0.00000000000E+00  0.00000000000E+00  0.32944125068E+03  0.32944125072E+03  0.50400001928E-02 0.  1.
        1   -1    0    0  501    0  0.00000000000E+00  0.00000000000E+00 -0.13069022639E+04  0.13069022639E+04  0.50400001928E-02 0. -1.
    10030    2    1    2    0    0  0.00000000000E+00  0.00000000000E+00 -0.97746101320E+03  0.16363435146E+04  0.13123223939E+04 0.  0.
        5    1    3    3  502    0 -0.14959368696E+03  0.60283305225E+03 -0.75247253337E+03  0.97571664101E+03  0.46999998093E+01 0. -1.
       -5    1    3    3    0  502  0.14959368696E+03 -0.60283305225E+03 -0.22498847983E+03  0.66062687360E+03  0.46999998093E+01 0.  1.
</event>
<event>
 5   0  0.2756984E-04  0.1295992E+04  0.7818609E-02  0.9032749E-01
       -2   -1    0    0    0  501  0.00000000000E+00  0.00000000000E+00  0.50265640591E+03  0.50265640592E+03  0.25500000920E-02 0. -1.
        2   -1    0    0  501    0  0.00000000000E+00  0.00000000000E+00 -0.83535998694E+03  0.83535998694E+03  0.25500000920E-02 0.  1.
    10030    2    1    2    0    0  0.00000000000E+00  0.00000000000E+00 -0.33270358103E+03  0.13380163929E+04  0.12959923591E+04 0.  0.
        3    1    3    3  502    0  0.14798439430E+03  0.47371465837E+03 -0.59650824958E+03  0.77596846620E+03  0.10100000352E+00 0.  1.
       -3    1    3    3    0  502 -0.14798439430E+03 -0.47371465837E+03  0.26380466856E+03  0.56204792666E+03  0.10100000352E+00 0. -1.
</event>
<event>
 5   0  0.2573071E-04  0.1299561E+04  0.7818609E-02  0.9029913E-01
       -2   -1    0    0    0  501  0.00000000000E+00  0.00000000000E+00  0.23690772465E+03  0.23690772467E+03  0.25500000920E-02 0. -1.
        2   -1    0    0  501    0  0.00000000000E+00  0.00000000000E+00 -0.17821906005E+04  0.17821906005E+04  0.25500000920E-02 0.  1.
    10030    2    1    2    0    0  0.00000000000E+00  0.00000000000E+00 -0.15452828759E+04  0.20190983252E+04  0.12995610337E+04 0.  0.
        4    1    3    3  502    0  0.12005247623E+03 -0.36893288270E+03  0.37194127726E+02  0.38975516035E+03  0.12699999809E+01 0. -1.
       -4    1    3    3    0  502 -0.12005247623E+03  0.36893288270E+03 -0.15824770036E+04  0.16293431648E+04  0.12699999809E+01 0.  1.
</event>
<event>
 5   0  0.2661377E-04  0.1294400E+04  0.7818609E-02  0.9034018E-01
        2   -1    0    0  501    0  0.00000000000E+00  0.00000000000E+00  0.10378236866E+04  0.10378236866E+04  0.25500000920E-02 0. -1.
       -2   -1    0    0    0  501  0.00000000000E+00  0.00000000000E+00 -0.40360228215E+03  0.40360228216E+03  0.25500000920E-02 0.  1.
    10030    2    1    2    0    0  0.00000000000E+00  0.00000000000E+00  0.63422140445E+03  0.14414259688E+04  0.12944002602E+04 0.  0.
        5    1    3    3  502    0 -0.18778622054E+03  0.28281163850E+03 -0.29647398562E+03  0.45073828508E+03  0.46999998093E+01 0.  1.
       -5    1    3    3    0  502  0.18778622054E+03 -0.28281163850E+03  0.93069539006E+03  0.99068768367E+03  0.46999998093E+01 0. -1.
</event>
<event>
 5   0  0.1476511E-04  0.1292774E+04  0.7818609E-02  0.9035315E-01
       -1   -1    0    0    0  501  0.00000000000E+00  0.00000000000E+00  0.46853175525E+03  0.46853175528E+03  0.50400001928E-02 0.  1.
        1   -1    0    0  501    0  0.00000000000E+00  0.00000000000E+00 -0.89175680660E+03  0.89175680662E+03  0.50400001928E-02 0. -1.
    10030    2    1    2    0    0  0.00000000000E+00  0.00000000000E+00 -0.42322505135E+03  0.13602885619E+04  0.12927743529E+04 0.  0.
        2    1    3    3  502    0 -0.10710915181E+03  0.26829072200E+00 -0.88235407857E+03  0.88883134641E+03  0.25500000920E-02 0. -1.
       -2    1    3    3    0  502  0.10710915181E+03 -0.26829072200E+00  0.45912902722E+03  0.47145721548E+03  0.25500000920E-02 0.  1.
</event>
<event>
 5   0  0.1476511E-04  0.1306564E+04  0.7818609E-02  0.9024376E-01
       -1   -1    0    0    0  501  0.00000000000E+00  0.00000000000E+00  0.29605517852E+03  0.29605517856E+03  0.50400001928E-02 0.  1.
        1   -1    0    0  501    0  0.00000000000E+00  0.00000000000E+00 -0.14415456308E+04  0.14415456308E+04  0.50400001928E-02 0. -1.
    10030    2    1    2    0    0  0.00000000000E+00  0.00000000000E+00 -0.11454904523E+04  0.17376008094E+04  0.13065635065E+04 0.  0.
        2    1    3    3  502    0  0.61785923233E+03 -0.14670936413E+02 -0.85426933514E+03  0.10543914664E+04  0.25500000920E-02 0. -1.
       -2    1    3    3    0  502 -0.61785923233E+03  0.14670936413E+02 -0.29122111718E+03  0.68320934306E+03  0.25500000920E-02 0.  1.
</event>
<event>
 5   0  0.1002887E-04  0.1299460E+04  0.7818609E-02  0.9029993E-01
        3   -1    0    0  501    0  0.00000000000E+00  0.00000000000E+00  0.21253270826E+03  0.21253273226E+03  0.10100000352E+00 0. -1.
       -3   -1    0    0    0  501  0.00000000000E+00  0.00000000000E+00 -0.19862790701E+04  0.19862790727E+04  0.10100000352E+00 0.  1.
    10030    2    1    2    0    0  0.00000000000E+00  0.00000000000E+00 -0.17737463619E+04  0.21988118050E+04  0.12994603485E+04 0.  0.
        4    1    3    3  502    0 -0.11893961641E+03 -0.15951137571E+02 -0.19673618335E+04  0.19710188400E+04  0.12699999809E+01 0.  1.
       -4    1    3    3    0  502  0.11893961641E+03  0.15951137571E+02  0.19361547157E+03  0.22779296493E+03  0.12699999809E+01 0. -1.
</event>
<event>
 5   0  0.1002887E-04  0.1299472E+04  0.7818609E-02  0.9029984E-01
        3   -1    0    0  501    0  0.00000000000E+00  0.00000000000E+00  0.11717837693E+04  0.11717837736E+04  0.10100000352E+00 0.  1.
       -3   -1    0    0    0  501  0.00000000000E+00  0.00000000000E+00 -0.36026836278E+03  0.36026837694E+03  0.10100000352E+00 0. -1.
    10030    2    1    2    0    0  0.00000000000E+00  0.00000000000E+00  0.81151540649E+03  0.15320521506E+04  0.12994716377E+04 0.  0.
        2    1    3    3  502    0 -0.63497928619E+03 -0.71213899531E+02  0.54469008138E+03  0.83961741177E+03  0.25500000920E-02 0. -1.
       -2    1    3    3    0  502  0.63497928619E+03  0.71213899531E+02  0.26682532511E+03  0.69243473880E+03  0.25500000920E-02 0.  1.
</event>
<event>
 5   0  0.1430636E-04  0.1308632E+04  0.7818609E-02  0.9022748E-01
       -1   -1    0    0    0  501  0.00000000000E+00  0.00000000000E+00  0.26667792631E+03  0.26667792636E+03  0.50400001928E-02 0.  1.
        1   -1    0    0  501    0  0.00000000000E+00  0.00000000000E+00 -0.16054170246E+04  0.16054170246E+04  0.50400001928E-02 0. -1.
    10030    2    1    2    0    0  0.00000000000E+00  0.00000000000E+00 -0.13387390983E+04  0.18720949510E+04  0.13086317787E+04 0.  0.
        4    1    3    3  502    0  0.58351720410E+03  0.10167456099E+03 -0.10671042547E+04  0.12204684130E+04  0.12699999809E+01 0. -1.
       -4    1    3    3    0  502 -0.58351720410E+03 -0.10167456099E+03 -0.27163484362E+03  0.65162653798E+03  0.12699999809E+01 0.  1.
</event>
<event>
 5   0  0.1479690E-04  0.1299857E+04  0.7818609E-02  0.9029679E-01
        1   -1    0    0  501    0  0.00000000000E+00  0.00000000000E+00  0.57166037412E+03  0.57166037414E+03  0.50400001928E-02 0.  1.
       -1   -1    0    0    0  501  0.00000000000E+00  0.00000000000E+00 -0.73891256860E+03  0.73891256862E+03  0.50400001928E-02 0. -1.
    10030    2    1    2    0    0  0.00000000000E+00  0.00000000000E+00 -0.16725219448E+03  0.13105729428E+04  0.12998569697E+04 0.  0.
        1    1    3    3  502    0  0.29088963875E+03 -0.39546665902E+03  0.34579159381E+03  0.60048520940E+03  0.50400001928E-02 0.  1.
       -1    1    3    3    0  502 -0.29088963875E+03  0.39546665902E+03 -0.51304378829E+03  0.71008773336E+03  0.50400001928E-02 0. -1.
</event>
<event>
 5   0  0.2573071E-04  0.1303900E+04  0.7818609E-02  0.9026478E-01
        2   -1    0    0  501    0  0.00000000000E+00  0.00000000000E+00  0.11460428381E+04  0.11460428382E+04  0.25500000920E-02 0.  1.
       -2   -1    0    0    0  501  0.00000000000E+00  0.00000000000E+00 -0.37087540968E+03  0.37087540968E+03  0.25500000920E-02 0. -1.
    10030    2    1    2    0    0  0.00000000000E+00  0.00000000000E+00  0.77516742847E+03  0.15169182478E+04  0.13039004672E+04 0.  0.
        4    1    3    3  502    0 -0.61679120087E+03  0.91727679469E+02  0.60890586183E+03  0.87155798093E+03  0.12699999809E+01 0.  1.
       -4    1    3    3    0  502  0.61679120087E+03 -0.91727679469E+02  0.16626156664E+03  0.64536026690E+03  0.12699999809E+01 0. -1.
</event>
<event>
 5   0  0.2661377E-04  0.1299846E+04  0.7818609E-02  0.9029687E-01
       -2   -1    0    0    0  501  0.00000000000E+00  0.00000000000E+00  0.72514830032E+03  0.72514830032E+03  0.25500000920E-02 0. -1.
        2   -1    0    0  501    0  0.00000000000E+00  0.00000000000E+00 -0.58250170090E+03  0.58250170090E+03  0.25500000920E-02 0.  1.
    10030    2    1    2    0    0  0.00000000000E+00  0.00000000000E+00  0.14264659942E+03  0.13076500012E+04  0.12998463268E+04 0.  0.
        5    1    3    3  502    0  0.39920198948E+03  0.46803914302E+03 -0.13959023136E+03  0.63081724017E+03  0.46999998093E+01 0.  1.
       -5    1    3    3    0  502 -0.39920198948E+03 -0.46803914302E+03  0.28223683078E+03  0.67683276106E+03  0.46999998093E+01 0. -1.
</event>
<event>
 5   0  0.1408341E-04  0.1299049E+04  0.7818609E-02  0.9030320E-01
        1   -1    0    0  501    0  0.00000000000E+00  0.00000000000E+00  0.76715431425E+03  0.76715431427E+03  0.50400001928E-02 0. -1.
       -1   -1    0    0    0  501  0.00000000000E+00  0.00000000000E+00 -0.54993118375E+03  0.54993118377E+03  0.50400001928E-02 0.  1.
    10030    2    1    2    0    0  0.00000000000E+00  0.00000000000E+00  0.21722313051E+03  0.13170854980E+04  0.12990490063E+04 0.  0.
        5    1    3    3  502    0  0.41975809623E+03 -0.23789182287E+03 -0.33224818191E+03  0.58583301641E+03  0.46999998093E+01 0.  1.
       -5    1    3    3    0  502 -0.41975809623E+03  0.23789182287E+03  0.54947131241E+03  0.73125248164E+03  0.46999998093E+01 0. -1.
</event>
<event>
 5   0  0.2794825E-04  0.1299997E+04  0.7818609E-02  0.9029568E-01
        2   -1    0    0  501    0  0.00000000000E+00  0.00000000000E+00  0.71865294912E+03  0.71865294912E+03  0.25500000920E-02 0.  1.
       -2   -1    0    0    0  501  0.00000000000E+00  0.00000000000E+00 -0.58790269461E+03  0.58790269462E+03  0.25500000920E-02 0. -1.
    10030    2    1    2    0    0  0.00000000000E+00  0.00000000000E+00  0.13075025451E+03  0.13065556437E+04  0.12999969312E+04 0.  0.
        1    1    3    3  502    0 -0.40555590496E+03 -0.16663865294E+03  0.54764390786E+03  0.70153965144E+03  0.50400001928E-02 0.  1.
       -1    1    3    3    0  502  0.40555590496E+03  0.16663865294E+03 -0.41689365335E+03  0.60501599230E+03  0.50400001928E-02 0. -1.
</event>
<event>
 5   0  0.2723209E-04  0.1301076E+04  0.7818609E-02  0.9028713E-01
       -2   -1    0    0    0  501  0.00000000000E+00  0.00000000000E+00  0.47271393111E+03  0.47271393112E+03  0.25500000920E-02 0. -1.
        2   -1    0    0  501    0  0.00000000000E+00  0.00000000000E+00 -0.89525473700E+03  0.89525473701E+03  0.25500000920E-02 0.  1.
    10030    2    1    2    0    0  0.00000000000E+00  0.00000000000E+00 -0.42254080589E+03  0.13679686681E+04  0.13010755337E+04 0.  0.
        2    1    3    3  502    0  0.47689070174E+03 -0.31820863314E+02  0.25273799342E+03  0.54066052387E+03  0.25500000920E-02 0. -1.
       -2    1    3    3    0  502 -0.47689070174E+03  0.31820863314E+02 -0.67527879931E+03  0.82730814426E+03  0.25500000920E-02 0.  1.
</event>
<event>
 5   0  0.2723209E-04  0.1300637E+04  0.7818609E-02  0.9029060E-01
       -2   -1    0    0    0  501  0.00000000000E+00  0.00000000000E+00  0.47655852847E+03  0.47655852847E+03  0.25500000920E-02 0. -1.
        2   -1    0    0  501    0  0.00000000000E+00  0.00000000000E+00 -0.88743347827E+03  0.88743347827E+03  0.25500000920E-02 0.  1.
    10030    2    1    2    0    0  0.00000000000E+00  0.00000000000E+00 -0.41087494980E+03  0.13639920067E+04  0.13006367556E+04 0.  0.
        2    1    3    3  502    0 -0.34639433698E+03  0.63471871253E+02 -0.77878250920E+03  0.85470457573E+03  0.25500000920E-02 0.  1.
       -2    1    3    3    0  502  0.34639433698E+03 -0.63471871253E+02  0.36790755939E+03  0.50928743102E+03  0.25500000920E-02 0. -1.
</event>
<event>
 5   0  0.1430636E-04  0.1315001E+04  0.7818609E-02  0.9017753E-01
        1   -1    0    0  501    0  0.00000000000E+00  0.00000000000E+00  0.55300602549E+03  0.55300602551E+03  0.50400001928E-02 0. -1.
       -1   -1    0    0    0  501  0.00000000000E+00  0.00000000000E+00 -0.78174024091E+03  0.78174024093E+03  0.50400001928E-02 0.  1.
    10030    2    1    2    0    0  0.00000000000E+00  0.00000000000E+00 -0.22873421542E+03  0.13347462664E+04  0.13150012374E+04 0.  0.
        4    1    3    3  502    0 -0.11332574338E+03  0.27269097811E+03  0.48190777546E+03  0.56519006592E+03  0.12699999809E+01 0. -1.
       -4    1    3    3    0  502  0.11332574338E+03 -0.27269097811E+03 -0.71064199088E+03  0.76955620052E+03  0.12699999809E+01 0.  1.
</event>
<event>
 5   0  0.1479690E-04  0.1299639E+04  0.7818609E-02  0.9029851E-01
       -1   -1    0    0    0  501  0.00000000000E+00  0.00000000000E+00  0.53708184342E+03  0.53708184345E+03  0.50400001928E-02 0.  1.
        1   -1    0    0  501    0  0.00000000000E+00  0.00000000000E+00 -0.78622209416E+03  0.78622209417E+03  0.50400001928E-02 0. -1.
    10030    2    1    2    0    0  0.00000000000E+00  0.00000000000E+00 -0.24914025073E+03  0.13233039376E+04  0.12996393526E+04 0.  0.
        1    1    3    3  502    0 -0.59251720453E+03  0.48417927205E+02 -0.39173043565E+03  0.71195060754E+03  0.50400001928E-02 0. -1.
       -1    1    3    3    0  502  0.59251720453E+03 -0.48417927205E+02  0.14259018491E+03  0.61135333008E+03  0.50400001928E-02 0.  1.
</event>
<event>
 5   0  0.2661377E-04  0.1302803E+04  0.7818609E-02  0.9027345E-01
       -2   -1    0    0    0  501  0.00000000000E+00  0.00000000000E+00  0.45191952710E+03  0.45191952710E+03  0.25500000920E-02 0. -1.
        2   -1    0    0  501    0  0.00000000000E+00  0.00000000000E+00 -0.93893728020E+03  0.93893728020E+03  0.25500000920E-02 0.  1.
    10030    2    1    2    0    0  0.00000000000E+00  0.00000000000E+00 -0.48701775310E+03  0.13908568073E+04  0.13028032724E+04 0.  0.
        5    1    3    3  502    0  0.13390062034E+03 -0.15587113431E+03 -0.90341008261E+03  0.92649719589E+03  0.46999998093E+01 0.  1.
       -5    1    3    3    0  502 -0.13390062034E+03  0.15587113431E+03  0.41639232951E+03  0.46435961141E+03  0.46999998093E+01 0. -1.
</event>
<event>
 5   0  0.1408341E-04  0.1306933E+04  0.7818609E-02  0.9024085E-01
        1   -1    0    0  501    0  0.00000000000E+00  0.00000000000E+00  0.52163589050E+03  0.52163589053E+03  0.50400001928E-02 0.  1.
       -1   -1    0    0    0  501  0.00000000000E+00  0.00000000000E+00 -0.81861414729E+03  0.81861414731E+03  0.50400001928E-02 0. -1.
    10030    2    1    2    0    0  0.00000000000E+00  0.00000000000E+00 -0.29697825679E+03  0.13402500378E+04  0.13069330813E+04 0.  0.
        5    1    3    3  502    0  0.61729005910E+03  0.10197355242E+03  0.44866674572E+02  0.62728042449E+03  0.46999998093E+01 0. -1.
       -5    1    3    3    0  502 -0.61729005910E+03 -0.10197355242E+03 -0.34184493136E+03  0.71296961335E+03  0.46999998093E+01 0.  1.
</event>
<event>
 5   0  0.2723209E-04  0.1299436E+04  0.7818609E-02  0.9030013E-01
        2   -1    0    0  501    0  0.00000000000E+00  0.00000000000E+00  0.25064412496E+04  0.25064412497E+04  0.25500000920E-02 0.  1.
       -2   -1    0    0    0  501  0.00000000000E+00  0.00000000000E+00 -0.16841934813E+03  0.16841934815E+03  0.25500000920E-02 0. -1.
    10030    2    1    2    0    0  0.00000000000E+00  0.00000000000E+00  0.23380219015E+04  0.26748605978E+04  0.12994355720E+04 0.  0.
        2    1    3    3  502    0 -0.26264601047E+03  0.32912040441E+03  0.21875524968E+04  0.22277093827E+04  0.25500000920E-02 0.  1.
       -2    1    3    3    0  502  0.26264601047E+03 -0.32912040441E+03  0.15046940472E+03  0.44715121511E+03  0.25500000920E-02 0. -1.
</event>
<event>
 5   0  0.2573071E-04  0.1302503E+04  0.7818609E-02  0.9027582E-01
       -2   -1    0    0    0  501  0.00000000000E+00  0.00000000000E+00  0.38271277275E+03  0.38271277276E+03  0.25500000920E-02 0. -1.
        2   -1    0    0  501    0  0.00000000000E+00  0.00000000000E+00 -0.11082169222E+04  0.11082169222E+04  0.25500000920E-02 0.  1.
    10030    2    1    2    0    0  0.00000000000E+00  0.00000000000E+00 -0.72550414944E+03  0.14909296949E+04  0.13025033913E+04 0.  0.
        4    1    3    3  502    0  0.12282589586E+03  0.25787092179E+03 -0.10326925177E+04  0.10714658473E+04  0.12699999809E+01 0.  1.
       -4    1    3    3    0  502 -0.12282589586E+03 -0.25787092179E+03  0.30718836824E+03  0.41946384764E+03  0.12699999809E+01 0. -1.
</event>
<event>
 5   0  0.1430636E-04  0.1301823E+04  0.7818609E-02  0.9028121E-01
        1   -1    0    0  501    0  0.00000000000E+00  0.00000000000E+00  0.70882825624E+03  0.70882825626E+03  0.50400001928E-02 0. -1.
       -1   -1    0    0    0  501  0.00000000000E+00  0.00000000000E+00 -0.59772693705E+03  0.59772693707E+03  0.50400001928E-02 0.  1.
    10030    2    1    2    0    0  0.00000000000E+00  0.00000000000E+00  0.11110131919E+03  0.13065551933E+04  0.13018229411E+04 0.  0.
        4    1    3    3  502    0  0.24813169502E+03  0.35077901099E+03 -0.43517341051E+03  0.61154947693E+03  0.12699999809E+01 0.  1.
       -4    1    3    3    0  502 -0.24813169502E+03 -0.35077901099E+03  0.54627472970E+03  0.69500571640E+03  0.12699999809E+01 0. -1.
</event>
<event>
 5   0  0.2661377E-04  0.1299777E+04  0.7818609E-02  0.9029742E-01
       -2   -1    0    0    0  501  0.00000000000E+00  0.00000000000E+00  0.39385543184E+03  0.39385543185E+03  0.25500000920E-02 0.  1.
        2   -1    0    0  501    0  0.00000000000E+00  0.00000000000E+00 -0.10723607489E+04  0.10723607489E+04  0.25500000920E-02 0. -1.
    10030    2    1    2    0    0  0.00000000000E+00  0.00000000000E+00 -0.67850531705E+03  0.14662161807E+04  0.12997770668E+04 0.  0.
        5    1    3    3  502    0  0.48330573660E+02 -0.53897964209E+03 -0.74519173984E+03  0.92096021524E+03  0.46999998093E+01 0. -1.
       -5    1    3    3    0  502 -0.48330573660E+02  0.53897964209E+03  0.66686422789E+02  0.54525596551E+03  0.46999998093E+01 0.  1.
</event>
<event>
 5   0  0.2756984E-04  0.1301834E+04  0.7818609E-02  0.9028112E-01
        2   -1    0    0  501    0  0.00000000000E+00  0.00000000000E+00  0.63225277329E+03  0.63225277330E+03  0.25500000920E-02 0.  1.
       -2   -1    0    0    0  501  0.00000000000E+00  0.00000000000E+00 -0.67013219277E+03  0.67013219277E+03  0.25500000920E-02 0. -1.
    10030    2    1    2    0    0  0.00000000000E+00  0.00000000000E+00 -0.37879419475E+02  0.13023849661E+04  0.13018339946E+04 0.  0.
        3    1    3    3  502    0  0.18014567887E+03  0.58524618092E+03 -0.23977590123E+03  0.65761542782E+03  0.10100000352E+00 0.  1.
       -3    1    3    3    0  502 -0.18014567887E+03 -0.58524618092E+03  0.20189648175E+03  0.64476953824E+03  0.10100000352E+00 0. -1.
</event>
<event>
 5   0  0.2573071E-04  0.1300121E+04  0.7818609E-02  0.9029469E-01
        2   -1    0    0  501    0  0.00000000000E+00  0.00000000000E+00  0.93163810628E+03  0.93163810628E+03  0.25500000920E-02 0.  1.
       -2   -1    0    0    0  501  0.00000000000E+00  0.00000000000E+00 -0.45358667127E+03  0.45358667127E+03  0.25500000920E-02 0. -1.
    10030    2    1    2    0    0  0.00000000000E+00  0.00000000000E+00  0.47805143501E+03  0.13852247776E+04  0.13001209597E+04 0.  0.
        4    1    3    3  502    0 -0.21696742286E+03 -0.11871159739E+03  0.87955118025E+03  0.91366251840E+03  0.12699999809E+01 0.  1.
       -4    1    3    3    0  502  0.21696742286E+03  0.11871159739E+03 -0.40149974524E+03  0.47156225916E+03  0.12699999809E+01 0. -1.
</event>
<event>
 5   0  0.1476511E-04  0.1302989E+04  0.7818609E-02  0.9027198E-01
       -1   -1    0    0    0  501  0.00000000000E+00  0.00000000000E+00  0.14494416391E+04  0.14494416391E+04  0.50400001928E-02 0.  1.
        1   -1    0    0  501    0  0.00000000000E+00  0.00000000000E+00 -0.29283360195E+03  0.29283360200E+03  0.50400001928E-02 0. -1.
    10030    2    1    2    0    0  0.00000000000E+00  0.00000000000E+00  0.11566080371E+04  0.17422752411E+04  0.13029892034E+04 0.  0.
        2    1    3    3  502    0 -0.20596233626E+03  0.51392381934E+03  0.10374447442E+04  0.11759378272E+04  0.25500000920E-02 0.  1.
       -2    1    3    3    0  502  0.20596233626E+03 -0.51392381934E+03  0.11916329293E+03  0.56633741394E+03  0.25500000920E-02 0. -1.
</event>
<event>
 5   0  0.2661377E-04  0.1301919E+04  0.7818609E-02  0.9028045E-01
        2   -1    0    0  501    0  0.00000000000E+00  0.00000000000E+00  0.93303942966E+03  0.93303942966E+03  0.25500000920E-02 0. -1.
       -2   -1    0    0    0  501  0.00000000000E+00  0.00000000000E+00 -0.45415874300E+03  0.45415874301E+03  0.25500000920E-02 0.  1.
    10030    2    1    2    0    0  0.00000000000E+00  0.00000000000E+00  0.47888068665E+03  0.13871981727E+04  0.13019186066E+04 0.  0.
        5    1    3    3  502    0  0.18723644899E+02  0.11576413510E+03  0.92167352704E+03  0.92911575721E+03  0.46999998093E+01 0. -1.
       -5    1    3    3    0  502 -0.18723644899E+02 -0.11576413510E+03 -0.44279284039E+03  0.45808241546E+03  0.46999998093E+01 0.  1.
</event>
<event>
 5   0  0.1408341E-04  0.1300903E+04  0.7818609E-02  0.9028850E-01
        1   -1    0    0  501    0  0.00000000000E+00  0.00000000000E+00  0.86962518265E+03  0.86962518267E+03  0.50400001928E-02 0. -1.
       -1   -1    0    0    0  501  0.00000000000E+00  0.00000000000E+00 -0.48651639717E+03  0.48651639720E+03  0.50400001928E-02 0.  1.
    10030    2    1    2    0    0  0.00000000000E+00  0.00000000000E+00  0.38310878548E+03  0.13561415799E+04  0.13009026263E+04 0.  0.
        5    1    3    3  502    0 -0.34137604670E+03  0.53522962074E+03  0.43920022662E+02  0.63636421220E+03  0.46999998093E+01 0.  1.
       -5    1    3    3    0  502  0.34137604670E+03 -0.53522962074E+03  0.33918876282E+03  0.71977736767E+03  0.46999998093E+01 0. -1.
</event>
<event>
 5   0  0.2573071E-04  0.1299735E+04  0.7818609E-02  0.9029775E-01
        2   -1    0    0  501    0  0.00000000000E+00  0.00000000000E+00  0.10017438389E+04  0.10017438389E+04  0.25500000920E-02 0.  1.
       -2   -1    0    0    0  501  0.00000000000E+00  0.00000000000E+00 -0.42159289233E+03  0.42159289234E+03  0.25500000920E-02 0. -1.
    10030    2    1    2    0    0  0.00000000000E+00  0.00000000000E+00  0.58015094654E+03  0.14233367312E+04  0.12997354845E+04 0.  0.
        4    1    3    3  502    0 -0.31458549528E+03  0.90080533933E+02 -0.32478815725E+03  0.46105042720E+03  0.12699999809E+01 0. -1.
       -4    1    3    3    0  502  0.31458549528E+03 -0.90080533933E+02  0.90493910379E+03  0.96228630402E+03  0.12699999809E+01 0.  1.
</event>
<event>
 5   0  0.1479690E-04  0.1299725E+04  0.7818609E-02  0.9029783E-01
        1   -1    0    0  501    0  0.00000000000E+00  0.00000000000E+00  0.55275289804E+03  0.55275289806E+03  0.50400001928E-02 0.  1.
       -1   -1    0    0    0  501  0.00000000000E+00  0.00000000000E+00 -0.76403263227E+03  0.76403263229E+03  0.50400001928E-02 0. -1.
    10030    2    1    2    0    0  0.00000000000E+00  0.00000000000E+00 -0.21127973423E+03  0.13167855303E+04  0.12997249735E+04 0.  0.
        1    1    3    3  502    0  0.61709523494E+03 -0.20282760557E+03 -0.86002847200E+02  0.65524198302E+03  0.50400001928E-02 0. -1.
       -1    1    3    3    0  502 -0.61709523494E+03  0.20282760557E+03 -0.12527688703E+03  0.66154354733E+03  0.50400001928E-02 0.  1.
</event>
<event>
 5   0  0.2661377E-04  0.1302065E+04  0.7818609E-02  0.9027929E-01
       -2   -1    0    0    0  501  0.00000000000E+00  0.00000000000E+00  0.61595803360E+03  0.61595803360E+03  0.25500000920E-02 0.  1.
        2   -1    0    0  501    0  0.00000000000E+00  0.00000000000E+00 -0.68810406275E+03  0.68810406275E+03  0.25500000920E-02 0. -1.
    10030    2    1    2    0    0  0.00000000000E+00  0.00000000000E+00 -0.72146029151E+02  0.13040620964E+04  0.13020648608E+04 0.  0.
        5    1    3    3  502    0  0.65482144306E+01 -0.48633340285E+03 -0.46947004733E+03  0.67600833810E+03  0.46999998093E+01 0. -1.
       -5    1    3    3    0  502 -0.65482144306E+01  0.48633340285E+03  0.39732401818E+03  0.62805375826E+03  0.46999998093E+01 0.  1.
</event>
<event>
 5   0  0.1408341E-04  0.1299496E+04  0.7818609E-02  0.9029965E-01
       -1   -1    0    0    0  501  0.00000000000E+00  0.00000000000E+00  0.38712535477E+03  0.38712535481E+03  0.50400001928E-02 0. -1.
        1   -1    0    0  501    0  0.00000000000E+00  0.00000000000E+00 -0.10905309076E+04  0.10905309076E+04  0.50400001928E-02 0.  1.
    10030    2    1    2    0    0  0.00000000000E+00  0.00000000000E+00 -0.70340555279E+03  0.14776562624E+04  0.12994955398E+04 0.  0.
        5    1    3    3  502    0 -0.18464360310E+03 -0.51886186308E+03 -0.74369590235E+03  0.92542778124E+03  0.46999998093E+01 0.  1.
       -5    1    3    3    0  502  0.18464360310E+03  0.51886186308E+03  0.40290349556E+02  0.55222848114E+03  0.46999998093E+01 0. -1.
</event>
<event>
 5   0  0.1408341E-04  0.1300685E+04  0.7818609E-02  0.9029022E-01
       -1   -1    0    0    0  501  0.00000000000E+00  0.00000000000E+00  0.55784337524E+03  0.55784337526E+03  0.50400001928E-02 0.  1.
        1   -1    0    0  501    0  0.00000000000E+00  0.00000000000E+00 -0.75817952627E+03  0.75817952628E+03  0.50400001928E-02 0. -1.
    10030    2    1    2    0    0  0.00000000000E+00  0.00000000000E+00 -0.20033615103E+03  0.13160229015E+04  0.13006850902E+04 0.  0.
        5    1    3    3  502    0  0.16802073613E+03 -0.24840311191E+03 -0.68402407539E+03  0.74689095555E+03  0.46999998093E+01 0. -1.
       -5    1    3    3    0  502 -0.16802073613E+03  0.24840311191E+03  0.48368792436E+03  0.56913194599E+03  0.46999998093E+01 0.  1.
</event>
<event>
 5   0  0.2661377E-04  0.1298415E+04  0.7818609E-02  0.9030823E-01
        2   -1    0    0  501    0  0.00000000000E+00  0.00000000000E+00  0.17139926709E+04  0.17139926709E+04  0.25500000920E-02 0.  1.
       -2   -1    0    0    0  501  0.00000000000E+00  0.00000000000E+00 -0.24589972005E+03  0.24589972006E+03  0.25500000920E-02 0. -1.
    10030    2    1    2    0    0  0.00000000000E+00  0.00000000000E+00  0.14680929508E+04  0.19598923909E+04  0.12984149074E+04 0.  0.
        5    1    3    3  502    0  0.26768797758E+03  0.23863292513E+03 -0.82795713941E+02  0.36807573479E+03  0.46999998093E+01 0. -1.
       -5    1    3    3    0  502 -0.26768797758E+03 -0.23863292513E+03  0.15508886648E+04  0.15918166561E+04  0.46999998093E+01 0.  1.
</event>
<event>
 5   0  0.1430636E-04  0.1298929E+04  0.7818609E-02  0.9030415E-01
       -1   -1    0    0    0  501  0.00000000000E+00  0.00000000000E+00  0.46671004179E+03  0.46671004181E+03  0.50400001928E-02 0.  1.
        1   -1    0    0  501    0  0.00000000000E+00  0.00000000000E+00 -0.90378200936E+03  0.90378200938E+03  0.50400001928E-02 0. -1.
    10030    2    1    2    0    0  0.00000000000E+00  0.00000000000E+00 -0.43707196757E+03  0.13704920512E+04  0.12989290040E+04 0.  0.
        4    1    3    3  502    0 -0.55235498818E+03 -0.33235298490E+03 -0.30193504527E+03  0.71184332827E+03  0.12699999809E+01 0. -1.
       -4    1    3    3    0  502  0.55235498818E+03  0.33235298490E+03 -0.13513692230E+03  0.65864872292E+03  0.12699999809E+01 0.  1.
</event>
<event>
 5   0  0.1430636E-04  0.1299014E+04  0.7818609E-02  0.9030348E-01
       -1   -1    0    0    0  501  0.00000000000E+00  0.00000000000E+00  0.92920195382E+03  0.92920195384E+03  0.50400001928E-02 0. -1.
        1   -1    0    0  501    0  0.00000000000E+00  0.00000000000E+00 -0.45400148500E+03  0.45400148503E+03  0.50400001928E-02 0.  1.
    10030    2    1    2    0    0  0.00000000000E+00  0.00000000000E+00  0.47520046882E+03  0.13832034389E+04  0.12990135749E+04 0.  0.
        4    1    3    3  502    0 -0.16328132243E+03  0.87995938008E+02  0.90039961921E+03  0.91930689247E+03  0.12699999809E+01 0. -1.
       -4    1    3    3    0  502  0.16328132243E+03 -0.87995938008E+02 -0.42519915040E+03  0.46389654640E+03  0.12699999809E+01 0.  1.
</event>
<event>
 5   0  0.1408341E-04  0.1301109E+04  0.7818609E-02  0.9028686E-01
        1   -1    0    0  501    0  0.00000000000E+00  0.00000000000E+00  0.13481535777E+04  0.13481535777E+04  0.50400001928E-02 0.  1.
       -1   -1    0    0    0  501  0.00000000000E+00  0.00000000000E+00 -0.31392655678E+03  0.31392655682E+03  0.50400001928E-02 0. -1.
    10030    2    1    2    0    0  0.00000000000E+00  0.00000000000E+00  0.10342270209E+04  0.16620801345E+04  0.13011090818E+04 0.  0.
        5    1    3    3  502    0  0.19639360206E+03  0.12662840997E+03 -0.25844101049E+03  0.34845235979E+03  0.46999998093E+01 0. -1.
       -5    1    3    3    0  502 -0.19639360206E+03 -0.12662840997E+03  0.12926680314E+04  0.13136277747E+04  0.46999998093E+01 0.  1.
</event>
<event>
 5   0  0.1430636E-04  0.1297848E+04  0.7818609E-02  0.9031273E-01
       -1   -1    0    0    0  501  0.00000000000E+00  0.00000000000E+00  0.95606239653E+03  0.95606239654E+03  0.50400001928E-02 0. -1.
        1   -1    0    0  501    0  0.00000000000E+00  0.00000000000E+00 -0.44045518226E+03  0.44045518229E+03  0.50400001928E-02 0.  1.
    10030    2    1    2    0    0  0.00000000000E+00  0.00000000000E+00  0.51560721427E+03  0.13965175788E+04  0.12978484305E+04 0.  0.
        4    1    3    3  502    0 -0.46346489235E+03  0.40212860052E+03  0.30576473662E+02  0.61436442885E+03  0.12699999809E+01 0.  1.
       -4    1    3    3    0  502  0.46346489235E+03 -0.40212860052E+03  0.48503074060E+03  0.78215314998E+03  0.12699999809E+01 0. -1.
</event>
<event>
 5   0  0.1430636E-04  0.1300541E+04  0.7818609E-02  0.9029136E-01
        1   -1    0    0  501    0  0.00000000000E+00  0.00000000000E+00  0.11093574281E+04  0.11093574281E+04  0.50400001928E-02 0.  1.
       -1   -1    0    0    0  501  0.00000000000E+00  0.00000000000E+00 -0.38116829444E+03  0.38116829448E+03  0.50400001928E-02 0. -1.
    10030    2    1    2    0    0  0.00000000000E+00  0.00000000000E+00  0.72818913369E+03  0.14905257226E+04  0.13005412394E+04 0.  0.
        4    1    3    3  502    0  0.31905700787E+03  0.21129468932E+03 -0.23845144498E+03  0.45089192111E+03  0.12699999809E+01 0. -1.
       -4    1    3    3    0  502 -0.31905700787E+03 -0.21129468932E+03  0.96664057867E+03  0.10396338015E+04  0.12699999809E+01 0.  1.
</event>
<event>
 5   0  0.1430636E-04  0.1305230E+04  0.7818609E-02  0.9025428E-01
        1   -1    0    0  501    0  0.00000000000E+00  0.00000000000E+00  0.45741187403E+03  0.45741187405E+03  0.50400001928E-02 0.  1.
       -1   -1    0    0    0  501  0.00000000000E+00  0.00000000000E+00 -0.93112258859E+03  0.93112258860E+03  0.50400001928E-02 0. -1.
    10030    2    1    2    0    0  0.00000000000E+00  0.00000000000E+00 -0.47371071456E+03  0.13885344627E+04  0.13052302911E+04 0.  0.
        4    1    3    3  502    0 -0.15898100952E+03 -0.44379757218E+03 -0.71696116809E+03  0.85805954101E+03  0.12699999809E+01 0. -1.
       -4    1    3    3    0  502  0.15898100952E+03  0.44379757218E+03  0.24325045353E+03  0.53047492165E+03  0.12699999809E+01 0.  1.
</event>
<event>
 5   0  0.1479690E-04  0.1297724E+04  0.7818609E-02  0.9031372E-01
       -1   -1    0    0    0  501  0.00000000000E+00  0.00000000000E+00  0.50070683792E+03  0.50070683795E+03  0.50400001928E-02 0.  1.
        1   -1    0    0  501    0  0.00000000000E+00  0.00000000000E+00 -0.84085554366E+03  0.84085554368E+03  0.50400001928E-02 0. -1.
    10030    2    1    2    0    0  0.00000000000E+00  0.00000000000E+00 -0.34014870574E+03  0.13415623816E+04  0.12977243474E+04 0.  0.
        1    1    3    3  502    0  0.21474028502E+03 -0.28557909305E+03 -0.72999169248E+03  0.81274638080E+03  0.50400001928E-02 0. -1.
       -1    1    3    3    0  502 -0.21474028502E+03  0.28557909305E+03  0.38984298674E+03  0.52881600082E+03  0.50400001928E-02 0.  1.
</event>
<event>
 5   0  0.2723209E-04  0.1305584E+04  0.7818609E-02  0.9025149E-01
       -2   -1    0    0    0  501  0.00000000000E+00  0.00000000000E+00  0.93157757367E+03  0.93157757368E+03  0.25500000920E-02 0.  1.
        2   -1    0    0  501    0  0.00000000000E+00  0.00000000000E+00 -0.45743642517E+03  0.45743642518E+03  0.25500000920E-02 0. -1.
    10030    2    1    2    0    0  0.00000000000E+00  0.00000000000E+00  0.47414114850E+03  0.13890139989E+04  0.13055841835E+04 0.  0.
        2    1    3    3  502    0 -0.34993951282E+03 -0.54990285675E+03  0.19890775147E+03  0.68148008635E+03  0.25500000920E-02 0. -1.
       -2    1    3    3    0  502  0.34993951282E+03  0.54990285675E+03  0.27523339703E+03  0.70753391250E+03  0.25500000920E-02 0.  1.
</event>
<event>
 5   0  0.1479690E-04  0.1296758E+04  0.7818609E-02  0.9032140E-01
        1   -1    0    0  501    0  0.00000000000E+00  0.00000000000E+00  0.50370966427E+03  0.50370966429E+03  0.50400001928E-02 0.  1.
       -1   -1    0    0    0  501  0.00000000000E+00  0.00000000000E+00 -0.83459812298E+03  0.83459812299E+03  0.50400001928E-02 0. -1.
    10030    2    1    2    0    0  0.00000000000E+00  0.00000000000E+00 -0.33088845871E+03  0.13383077873E+04  0.12967577111E+04 0.  0.
        1    1    3    3  502    0  0.36662651747E+03 -0.15275617049E+03 -0.69435487035E+03  0.79992383196E+03  0.50400001928E-02 0. -1.
       -1    1    3    3    0  502 -0.36662651747E+03  0.15275617049E+03  0.36346641164E+03  0.53838395533E+03  0.50400001928E-02 0.  1.
</event>
<event>
 5   0  0.1479690E-04  0.1299568E+04  0.7818609E-02  0.9029908E-01
       -1   -1    0    0    0  501  0.00000000000E+00  0.00000000000E+00  0.53210588944E+03  0.53210588947E+03  0.50400001928E-02 0. -1.
        1   -1    0    0  501    0  0.00000000000E+00  0.00000000000E+00 -0.79348772368E+03  0.79348772370E+03  0.50400001928E-02 0.  1.
    10030    2    1    2    0    0  0.00000000000E+00  0.00000000000E+00 -0.26138183424E+03  0.13255936132E+04  0.12995683760E+04 0.  0.
        1    1    3    3  502    0  0.30069818415E+02 -0.59601366567E+03  0.13152325926E+03  0.61109316098E+03  0.50400001928E-02 0. -1.
       -1    1    3    3    0  502 -0.30069818415E+02  0.59601366567E+03 -0.39290509350E+03  0.71450045218E+03  0.50400001928E-02 0.  1.
</event>
<event>
 5   0  0.1002887E-04  0.1300657E+04  0.7818609E-02  0.9029045E-01
        4   -1    0    0  501    0  0.00000000000E+00  0.00000000000E+00  0.60992099539E+03  0.60992231761E+03  0.12699999809E+01 0. -1.
       -4   -1    0    0    0  501  0.00000000000E+00  0.00000000000E+00 -0.69340994293E+03  0.69341110595E+03  0.12699999809E+01 0.  1.
    10030    2    1    2    0    0  0.00000000000E+00  0.00000000000E+00 -0.83488947535E+02  0.13033334236E+04  0.13006566067E+04 0.  0.
        2    1    3    3  502    0  0.11666862301E+03 -0.61750035165E+03 -0.20944675557E+03  0.66240938649E+03  0.25500000920E-02 0.  1.
       -2    1    3    3    0  502 -0.11666862301E+03  0.61750035165E+03  0.12595780804E+03  0.64092403707E+03  0.25500000920E-02 0. -1.
</event>
<event>
 5   0  0.1002887E-04  0.1300111E+04  0.7818609E-02  0.9029477E-01
       -4   -1    0    0    0  501  0.00000000000E+00  0.00000000000E+00  0.91127958775E+03  0.91128047271E+03  0.12699999809E+01 0.  1.
        4   -1    0    0  501    0  0.00000000000E+00  0.00000000000E+00 -0.46371070246E+03  0.46371244158E+03  0.12699999809E+01 0. -1.
    10030    2    1    2    0    0  0.00000000000E+00  0.00000000000E+00  0.44756888529E+03  0.13749929143E+04  0.13001106135E+04 0.  0.
        5    1    3    3  502    0 -0.40782962456E+03  0.44125466149E+03 -0.38531845983E+02  0.60211084703E+03  0.46999998093E+01 0.  1.
       -5    1    3    3    0  502  0.40782962456E+03 -0.44125466149E+03  0.48610073127E+03  0.77288206727E+03  0.46999998093E+01 0. -1.
</event>
<event>
 5   0  0.1475396E-04  0.1302083E+04  0.7818609E-02  0.9027915E-01
        1   -1    0    0  501    0  0.00000000000E+00  0.00000000000E+00  0.10361409546E+04  0.10361409546E+04  0.50400001928E-02 0. -1.
       -1   -1    0    0    0  501  0.00000000000E+00  0.00000000000E+00 -0.40907084039E+03  0.40907084042E+03  0.50400001928E-02 0.  1.
    10030    2    1    2    0    0  0.00000000000E+00  0.00000000000E+00  0.62707011423E+03  0.14452117950E+04  0.13020830252E+04 0.  0.
        3    1    3    3  502    0 -0.53684632415E+03  0.17521485511E+03 -0.46036836856E+02  0.56658946492E+03  0.10100000352E+00 0.  1.
       -3    1    3    3    0  502  0.53684632415E+03 -0.17521485511E+03  0.67310695108E+03  0.87862233013E+03  0.10100000352E+00 0. -1.
</event>
<event>
 5   0  0.1430636E-04  0.1301038E+04  0.7818609E-02  0.9028743E-01
        1   -1    0    0  501    0  0.00000000000E+00  0.00000000000E+00  0.61742088746E+03  0.61742088748E+03  0.50400001928E-02 0.  1.
       -1   -1    0    0    0  501  0.00000000000E+00  0.00000000000E+00 -0.68539114989E+03  0.68539114991E+03  0.50400001928E-02 0. -1.
    10030    2    1    2    0    0  0.00000000000E+00  0.00000000000E+00 -0.67970262437E+02  0.13028120374E+04  0.13010377582E+04 0.  0.
        4    1    3    3  502    0 -0.26646922304E+03  0.11884636101E+03  0.54822233159E+03  0.62103111203E+03  0.12699999809E+01 0.  1.
       -4    1    3    3    0  502  0.26646922304E+03 -0.11884636101E+03 -0.61619259403E+03  0.68178092536E+03  0.12699999809E+01 0. -1.
</event>
<event>
 5   0  0.1430636E-04  0.1285669E+04  0.7818609E-02  0.9041008E-01
       -1   -1    0    0    0  501  0.00000000000E+00  0.00000000000E+00  0.47194765446E+03  0.47194765449E+03  0.50400001928E-02 0. -1.
        1   -1    0    0  501    0  0.00000000000E+00  0.00000000000E+00 -0.87559732099E+03  0.87559732101E+03  0.50400001928E-02 0.  1.
    10030    2    1    2    0    0  0.00000000000E+00  0.00000000000E+00 -0.40364966653E+03  0.13475449755E+04  0.12856688562E+04 0.  0.
        4    1    3    3  502    0 -0.64225414510E+03  0.22988610764E+02 -0.21721575414E+03  0.67838275323E+03  0.12699999809E+01 0.  1.
       -4    1    3    3    0  502  0.64225414510E+03 -0.22988610764E+02 -0.18643391239E+03  0.66916222227E+03  0.12699999809E+01 0. -1.
</event>
<event>
 5   0  0.2573071E-04  0.1302858E+04  0.7818609E-02  0.9027302E-01
       -2   -1    0    0    0  501  0.00000000000E+00  0.00000000000E+00  0.73656659852E+03  0.73656659852E+03  0.25500000920E-02 0.  1.
        2   -1    0    0  501    0  0.00000000000E+00  0.00000000000E+00 -0.57613180791E+03  0.57613180792E+03  0.25500000920E-02 0. -1.
    10030    2    1    2    0    0  0.00000000000E+00  0.00000000000E+00  0.16043479060E+03  0.13126984064E+04  0.13028575456E+04 0.  0.
        4    1    3    3  502    0  0.84980888559E+02 -0.52681974112E+03 -0.29623159233E+03  0.61034052811E+03  0.12699999809E+01 0.  1.
       -4    1    3    3    0  502 -0.84980888559E+02  0.52681974112E+03  0.45666638293E+03  0.70235787833E+03  0.12699999809E+01 0. -1.
</event>
<event>
 5   0  0.1002887E-04  0.1302444E+04  0.7818609E-02  0.9027629E-01
        3   -1    0    0  501    0  0.00000000000E+00  0.00000000000E+00  0.28389055351E+03  0.28389057147E+03  0.10100000352E+00 0.  1.
       -3   -1    0    0    0  501  0.00000000000E+00  0.00000000000E+00 -0.14938510359E+04  0.14938510393E+04  0.10100000352E+00 0. -1.
    10030    2    1    2    0    0  0.00000000000E+00  0.00000000000E+00 -0.12099604824E+04  0.17777416108E+04  0.13024441891E+04 0.  0.
        4    1    3    3  502    0 -0.46009648430E+03  0.12512176102E+03 -0.12104056952E+04  0.13009334302E+04  0.12699999809E+01 0. -1.
       -4    1    3    3    0  502  0.46009648430E+03 -0.12512176102E+03  0.44521281887E+00  0.47680818057E+03  0.12699999809E+01 0.  1.
</event>
<event>
 5   0  0.1475396E-04  0.1298877E+04  0.7818609E-02  0.9030456E-01
       -1   -1    0    0    0  501  0.00000000000E+00  0.00000000000E+00  0.27283718156E+03  0.27283718161E+03  0.50400001928E-02 0. -1.
        1   -1    0    0  501    0  0.00000000000E+00  0.00000000000E+00 -0.15458693587E+04  0.15458693587E+04  0.50400001928E-02 0.  1.
    10030    2    1    2    0    0  0.00000000000E+00  0.00000000000E+00 -0.12730321771E+04  0.18187065403E+04  0.12988774214E+04 0.  0.
        3    1    3    3  502    0  0.45223880622E+03  0.25875264477E+03 -0.93677497373E+02  0.52938488149E+03  0.10100000352E+00 0. -1.
       -3    1    3    3    0  502 -0.45223880622E+03 -0.25875264477E+03 -0.11793546798E+04  0.12893216588E+04  0.10100000352E+00 0.  1.
</event>
<event>
 5   0  0.2723209E-04  0.1302157E+04  0.7818609E-02  0.9027856E-01
        2   -1    0    0  501    0  0.00000000000E+00  0.00000000000E+00  0.11473555583E+04  0.11473555583E+04  0.25500000920E-02 0. -1.
       -2   -1    0    0    0  501  0.00000000000E+00  0.00000000000E+00 -0.36946130859E+03  0.36946130860E+03  0.25500000920E-02 0.  1.
    10030    2    1    2    0    0  0.00000000000E+00  0.00000000000E+00  0.77789424970E+03  0.15168168669E+04  0.13021574191E+04 0.  0.
        2    1    3    3  502    0 -0.54902770177E+03 -0.34751144956E+03  0.34080825017E+03  0.73372057916E+03  0.25500000920E-02 0. -1.
       -2    1    3    3    0  502  0.54902770177E+03  0.34751144956E+03  0.43708599953E+03  0.78309628774E+03  0.25500000920E-02 0.  1.
</event>
<event>
 5   0  0.2661377E-04  0.1299639E+04  0.7818609E-02  0.9029852E-01
        2   -1    0    0  501    0  0.00000000000E+00  0.00000000000E+00  0.16861322565E+04  0.16861322566E+04  0.25500000920E-02 0.  1.
       -2   -1    0    0    0  501  0.00000000000E+00  0.00000000000E+00 -0.25043425409E+03  0.25043425410E+03  0.25500000920E-02 0. -1.
    10030    2    1    2    0    0  0.00000000000E+00  0.00000000000E+00  0.14356980025E+04  0.19365665107E+04  0.12996388329E+04 0.  0.
        5    1    3    3  502    0  0.45563898626E+03 -0.44058810381E+03  0.93129189762E+03  0.11265218380E+04  0.46999998093E+01 0.  1.
       -5    1    3    3    0  502 -0.45563898626E+03  0.44058810381E+03  0.50440610484E+03  0.81004467260E+03  0.46999998093E+01 0. -1.
</event>
<event>
 5   0  0.2756984E-04  0.1302543E+04  0.7818609E-02  0.9027551E-01
       -2   -1    0    0    0  501  0.00000000000E+00  0.00000000000E+00  0.16796223131E+04  0.16796223131E+04  0.25500000920E-02 0. -1.
        2   -1    0    0  501    0  0.00000000000E+00  0.00000000000E+00 -0.25252958565E+03  0.25252958566E+03  0.25500000920E-02 0.  1.
    10030    2    1    2    0    0  0.00000000000E+00  0.00000000000E+00  0.14270927275E+04  0.19321518988E+04  0.13025426316E+04 0.  0.
        3    1    3    3  502    0 -0.53328569147E+03  0.35933494472E+03  0.56054282811E+03  0.85306711551E+03  0.10100000352E+00 0.  1.
       -3    1    3    3    0  502  0.53328569147E+03 -0.35933494472E+03  0.86654989938E+03  0.10790847833E+04  0.10100000352E+00 0. -1.
</event>
<event>
 5   0  0.1476511E-04  0.1299916E+04  0.7818609E-02  0.9029632E-01
       -1   -1    0    0    0  501  0.00000000000E+00  0.00000000000E+00  0.58515528924E+03  0.58515528926E+03  0.50400001928E-02 0.  1.
        1   -1    0    0  501    0  0.00000000000E+00  0.00000000000E+00 -0.72193741295E+03  0.72193741297E+03  0.50400001928E-02 0. -1.
    10030    2    1    2    0    0  0.00000000000E+00  0.00000000000E+00 -0.13678212371E+03  0.13070927022E+04  0.12999161445E+04 0.  0.
        2    1    3    3  502    0  0.11556246682E+03  0.38069445282E+03 -0.58519602147E+03  0.70762796277E+03  0.25500000920E-02 0. -1.
       -2    1    3    3    0  502 -0.11556246682E+03 -0.38069445282E+03  0.44841389776E+03  0.59946473946E+03  0.25500000920E-02 0.  1.
</event>
<event>
 5   0  0.2756984E-04  0.1298353E+04  0.7818609E-02  0.9030872E-01
       -2   -1    0    0    0  501  0.00000000000E+00  0.00000000000E+00  0.32202650348E+03  0.32202650349E+03  0.25500000920E-02 0. -1.
        2   -1    0    0  501    0  0.00000000000E+00  0.00000000000E+00 -0.13086823802E+04  0.13086823802E+04  0.25500000920E-02 0.  1.
    10030    2    1    2    0    0  0.00000000000E+00  0.00000000000E+00 -0.98665587672E+03  0.16307088837E+04  0.12983534358E+04 0.  0.
        3    1    3    3  502    0  0.13342944712E+03 -0.35490195504E+03 -0.11551621696E+04  0.12157954036E+04  0.10100000352E+00 0.  1.
       -3    1    3    3    0  502 -0.13342944712E+03  0.35490195504E+03  0.16850629288E+03  0.41491348013E+03  0.10100000352E+00 0. -1.
</event>
<event>
 5   0  0.1408341E-04  0.1273504E+04  0.7818609E-02  0.9050845E-01
        1   -1    0    0  501    0  0.00000000000E+00  0.00000000000E+00  0.80107090450E+03  0.80107090451E+03  0.50400001928E-02 0.  1.
       -1   -1    0    0    0  501  0.00000000000E+00  0.00000000000E+00 -0.50613897935E+03  0.50613897937E+03  0.50400001928E-02 0. -1.
    10030    2    1    2    0    0  0.00000000000E+00  0.00000000000E+00  0.29493192515E+03  0.13072098839E+04  0.12735041578E+04 0.  0.
        5    1    3    3  502    0  0.40094919786E+03 -0.19113468090E+03 -0.32083069261E+03  0.54794812603E+03  0.46999998093E+01 0. -1.
       -5    1    3    3    0  502 -0.40094919786E+03  0.19113468090E+03  0.61576261776E+03  0.75926175785E+03  0.46999998093E+01 0.  1.
</event>
<event>
 5   0  0.1475396E-04  0.1296512E+04  0.7818609E-02  0.9032336E-01
        1   -1    0    0  501    0  0.00000000000E+00  0.00000000000E+00  0.11007960002E+04  0.11007960003E+04  0.50400001928E-02 0.  1.
       -1   -1    0    0    0  501  0.00000000000E+00  0.00000000000E+00 -0.38175636901E+03  0.38175636905E+03  0.50400001928E-02 0. -1.
    10030    2    1    2    0    0  0.00000000000E+00  0.00000000000E+00  0.71903963123E+03  0.14825523693E+04  0.12965120657E+04 0.  0.
        3    1    3    3  502    0 -0.20348578164E+03 -0.39548032750E+03  0.89881309453E+03  0.10028340550E+04  0.10100000352E+00 0.  1.
       -3    1    3    3    0  502  0.20348578164E+03  0.39548032750E+03 -0.17977346330E+03  0.47971831430E+03  0.10100000352E+00 0. -1.
</event>
<event>
 5   0  0.1430636E-04  0.1304270E+04  0.7818609E-02  0.9026186E-01
       -1   -1    0    0    0  501  0.00000000000E+00  0.00000000000E+00  0.47215825406E+03  0.47215825409E+03  0.50400001928E-02 0.  1.
        1   -1    0    0  501    0  0.00000000000E+00  0.00000000000E+00 -0.90071485930E+03  0.90071485931E+03  0.50400001928E-02 0. -1.
    10030    2    1    2    0    0  0.00000000000E+00  0.00000000000E+00 -0.42855660524E+03  0.13728731134E+04  0.13042698423E+04 0.  0.
        4    1    3    3  502    0  0.47582026258E+03  0.95830860555E+02 -0.67272095084E+03  0.82954419214E+03  0.12699999809E+01 0. -1.
       -4    1    3    3    0  502 -0.47582026258E+03 -0.95830860555E+02  0.24416434560E+03  0.54332892126E+03  0.12699999809E+01 0.  1.
</event>
<event>
 5   0  0.2573071E-04  0.1298489E+04  0.7818609E-02  0.9030764E-01
        2   -1    0    0  501    0  0.00000000000E+00  0.00000000000E+00  0.66084113459E+03  0.66084113460E+03  0.25500000920E-02 0. -1.
       -2   -1    0    0    0  501  0.00000000000E+00  0.00000000000E+00 -0.63785135334E+03  0.63785135335E+03  0.25500000920E-02 0.  1.
    10030    2    1    2    0    0  0.00000000000E+00  0.00000000000E+00  0.22989781246E+02  0.12986924879E+04  0.12984889866E+04 0.  0.
        4    1    3    3  502    0  0.16332396119E+03 -0.59594292045E+03 -0.18777016213E+03  0.64581880386E+03  0.12699999809E+01 0. -1.
       -4    1    3    3    0  502 -0.16332396119E+03  0.59594292045E+03  0.21075994338E+03  0.65287368408E+03  0.12699999809E+01 0.  1.
</event>
<event>
 5   0  0.1430636E-04  0.1299742E+04  0.7818609E-02  0.9029769E-01
        1   -1    0    0  501    0  0.00000000000E+00  0.00000000000E+00  0.40982730889E+03  0.40982730892E+03  0.50400001928E-02 0. -1.
       -1   -1    0    0    0  501  0.00000000000E+00  0.00000000000E+00 -0.10305135040E+04  0.10305135040E+04  0.50400001928E-02 0.  1.
    10030    2    1    2    0    0  0.00000000000E+00  0.00000000000E+00 -0.62068619513E+03  0.14403408130E+04  0.12997423993E+04 0.  0.
        4    1    3    3  502    0 -0.57785923349E+03  0.18021803090E+03 -0.48262554115E+02  0.60723201449E+03  0.12699999809E+01 0. -1.
       -4    1    3    3    0  502  0.57785923349E+03 -0.18021803090E+03 -0.57242364102E+03  0.83310879847E+03  0.12699999809E+01 0.  1.
</event>
<event>
 5   0  0.1002887E-04  0.1305482E+04  0.7818609E-02  0.9025229E-01
       -4   -1    0    0    0  501  0.00000000000E+00  0.00000000000E+00  0.18224117311E+04  0.18224121736E+04  0.12699999809E+01 0. -1.
        4   -1    0    0  501    0  0.00000000000E+00  0.00000000000E+00 -0.23379298638E+03  0.23379643578E+03  0.12699999809E+01 0.  1.
    10030    2    1    2    0    0  0.00000000000E+00  0.00000000000E+00  0.15886187447E+04  0.20562086094E+04  0.13054824125E+04 0.  0.
        1    1    3    3  502    0 -0.16042300086E+03 -0.62945129074E+03  0.69312972548E+03  0.94993330449E+03  0.50400001928E-02 0.  1.
       -1    1    3    3    0  502  0.16042300086E+03  0.62945129074E+03  0.89548901922E+03  0.11062753049E+04  0.50400001928E-02 0. -1.
</event>
<event>
 5   0  0.1475396E-04  0.1300496E+04  0.7818609E-02  0.9029172E-01
       -1   -1    0    0    0  501  0.00000000000E+00  0.00000000000E+00  0.31430403651E+03  0.31430403655E+03  0.50400001928E-02 0. -1.
        1   -1    0    0  501    0  0.00000000000E+00  0.00000000000E+00 -0.13452658205E+04  0.13452658205E+04  0.50400001928E-02 0.  1.
    10030    2    1    2    0    0  0.00000000000E+00  0.00000000000E+00 -0.10309617839E+04  0.16595698570E+04  0.13004960247E+04 0.  0.
        3    1    3    3  502    0  0.25465060706E+03 -0.17403372594E+03 -0.12459748766E+04  0.12835840731E+04  0.10100000352E+00 0.  1.
       -3    1    3    3    0  502 -0.25465060706E+03  0.17403372594E+03  0.21501309269E+03  0.37598578387E+03  0.10100000352E+00 0. -1.
</event>
<event>
 5   0  0.2723209E-04  0.1299564E+04  0.7818609E-02  0.9029911E-01
       -2   -1    0    0    0  501  0.00000000000E+00  0.00000000000E+00  0.59545167240E+03  0.59545167240E+03  0.25500000920E-02 0.  1.
        2   -1    0    0  501    0  0.00000000000E+00  0.00000000000E+00 -0.70906928563E+03  0.70906928564E+03  0.25500000920E-02 0. -1.
    10030    2    1    2    0    0  0.00000000000E+00  0.00000000000E+00 -0.11361761323E+03  0.13045209580E+04  0.12995637606E+04 0.  0.
        2    1    3    3  502    0  0.53398998640E+03  0.30926585034E+03 -0.26111852565E+03  0.67005489044E+03  0.25500000920E-02 0. -1.
       -2    1    3    3    0  502 -0.53398998640E+03 -0.30926585034E+03  0.14750091242E+03  0.63446606760E+03  0.25500000920E-02 0.  1.
</event>
<event>
 5   0  0.2573071E-04  0.1292896E+04  0.7818609E-02  0.9035217E-01
       -2   -1    0    0    0  501  0.00000000000E+00  0.00000000000E+00  0.86848169719E+03  0.86848169719E+03  0.25500000920E-02 0. -1.
        2   -1    0    0  501    0  0.00000000000E+00  0.00000000000E+00 -0.48117911481E+03  0.48117911482E+03  0.25500000920E-02 0.  1.
    10030    2    1    2    0    0  0.00000000000E+00  0.00000000000E+00  0.38730258238E+03  0.13496608120E+04  0.12928963675E+04 0.  0.
        4    1    3    3  502    0  0.33245441985E+03  0.39525038127E+03  0.59949384301E+03  0.79129216215E+03  0.12699999809E+01 0. -1.
       -4    1    3    3    0  502 -0.33245441985E+03 -0.39525038127E+03 -0.21219126063E+03  0.55836864987E+03  0.12699999809E+01 0.  1.
</event>
<event>
 5   0  0.2723209E-04  0.1300156E+04  0.7818609E-02  0.9029441E-01
        2   -1    0    0  501    0  0.00000000000E+00  0.00000000000E+00  0.13395546460E+04  0.13395546460E+04  0.25500000920E-02 0.  1.
       -2   -1    0    0    0  501  0.00000000000E+00  0.00000000000E+00 -0.31547901203E+03  0.31547901204E+03  0.25500000920E-02 0. -1.
    10030    2    1    2    0    0  0.00000000000E+00  0.00000000000E+00  0.10240756340E+04  0.16550336581E+04  0.13001559542E+04 0.  0.
        2    1    3    3  502    0 -0.62769757868E+02 -0.50296480190E+03 -0.61134573827E+01  0.50690335255E+03  0.25500000920E-02 0. -1.
       -2    1    3    3    0  502  0.62769757868E+02  0.50296480190E+03  0.10301890914E+04  0.11481303055E+04  0.25500000920E-02 0.  1.
</event>
<event>
 5   0  0.1430636E-04  0.1293555E+04  0.7818609E-02  0.9034692E-01
       -1   -1    0    0    0  501  0.00000000000E+00  0.00000000000E+00  0.37150255286E+03  0.37150255289E+03  0.50400001928E-02 0.  1.
        1   -1    0    0  501    0  0.00000000000E+00  0.00000000000E+00 -0.11260245811E+04  0.11260245811E+04  0.50400001928E-02 0. -1.
    10030    2    1    2    0    0  0.00000000000E+00  0.00000000000E+00 -0.75452202822E+03  0.14975271340E+04  0.12935548021E+04 0.  0.
        4    1    3    3  502    0 -0.22799501727E+03 -0.24618023730E+03  0.26285839497E+03  0.42624240268E+03  0.12699999809E+01 0.  1.
       -4    1    3    3    0  502  0.22799501727E+03  0.24618023730E+03 -0.10173804232E+04  0.10712847313E+04  0.12699999809E+01 0. -1.
</event>
<event>
 5   0  0.2661377E-04  0.1295624E+04  0.7818609E-02  0.9033043E-01
        2   -1    0    0  501    0  0.00000000000E+00  0.00000000000E+00  0.11350933098E+04  0.11350933098E+04  0.25500000920E-02 0. -1.
       -2   -1    0    0    0  501  0.00000000000E+00  0.00000000000E+00 -0.36971432710E+03  0.36971432710E+03  0.25500000920E-02 0.  1.
    10030    2    1    2    0    0  0.00000000000E+00  0.00000000000E+00  0.76537898266E+03  0.15048076369E+04  0.12956238022E+04 0.  0.
        5    1    3    3  502    0 -0.56885762766E+03  0.18734790025E+03  0.95972748287E+02  0.60657323934E+03  0.46999998093E+01 0.  1.
       -5    1    3    3    0  502  0.56885762766E+03 -0.18734790025E+03  0.66940623438E+03  0.89823439752E+03  0.46999998093E+01 0. -1.
</event>
<event>
 5   0  0.1476511E-04  0.1300035E+04  0.7818609E-02  0.9029537E-01
       -1   -1    0    0    0  501  0.00000000000E+00  0.00000000000E+00  0.22174412755E+03  0.22174412760E+03  0.50400001928E-02 0.  1.
        1   -1    0    0  501    0  0.00000000000E+00  0.00000000000E+00 -0.19054519788E+04  0.19054519788E+04  0.50400001928E-02 0. -1.
    10030    2    1    2    0    0  0.00000000000E+00  0.00000000000E+00 -0.16837078513E+04  0.21271961064E+04  0.13000350560E+04 0.  0.
        2    1    3    3  502    0 -0.34491170341E+03  0.52805395769E+03 -0.10991046946E+04  0.12672159228E+04  0.25500000920E-02 0. -1.
       -2    1    3    3    0  502  0.34491170341E+03 -0.52805395769E+03 -0.58460315668E+03  0.85998018360E+03  0.25500000920E-02 0.  1.
</event>
<event>
 5   0  0.1479690E-04  0.1300702E+04  0.7818609E-02  0.9029009E-01
        1   -1    0    0  501    0  0.00000000000E+00  0.00000000000E+00  0.46048192786E+03  0.46048192789E+03  0.50400001928E-02 0.  1.
       -1   -1    0    0    0  501  0.00000000000E+00  0.00000000000E+00 -0.91850837383E+03  0.91850837384E+03  0.50400001928E-02 0. -1.
    10030    2    1    2    0    0  0.00000000000E+00  0.00000000000E+00 -0.45802644597E+03  0.13789903017E+04  0.13007021285E+04 0.  0.
        1    1    3    3  502    0  0.33383215076E+03 -0.11475453050E+03 -0.80809782179E+03  0.88183592395E+03  0.50400001928E-02 0. -1.
       -1    1    3    3    0  502 -0.33383215076E+03  0.11475453050E+03  0.35007137582E+03  0.49715437778E+03  0.50400001928E-02 0.  1.
</event>
<event>
 5   0  0.1408341E-04  0.1300305E+04  0.7818609E-02  0.9029323E-01
       -1   -1    0    0    0  501  0.00000000000E+00  0.00000000000E+00  0.41076204989E+03  0.41076204992E+03  0.50400001928E-02 0.  1.
        1   -1    0    0  501    0  0.00000000000E+00  0.00000000000E+00 -0.10290590133E+04  0.10290590133E+04  0.50400001928E-02 0. -1.
    10030    2    1    2    0    0  0.00000000000E+00  0.00000000000E+00 -0.61829696343E+03  0.14398210632E+04  0.13003051792E+04 0.  0.
        5    1    3    3  502    0  0.50127594092E+03  0.15826748845E+03 -0.73275222660E+03  0.90181710033E+03  0.46999998093E+01 0. -1.
       -5    1    3    3    0  502 -0.50127594092E+03 -0.15826748845E+03  0.11445526318E+03  0.53800396292E+03  0.46999998093E+01 0.  1.
</event>
<event>
 5   0  0.1430636E-04  0.1305738E+04  0.7818609E-02  0.9025028E-01
        1   -1    0    0  501    0  0.00000000000E+00  0.00000000000E+00  0.16334150824E+04  0.16334150824E+04  0.50400001928E-02 0.  1.
       -1   -1    0    0    0  501  0.00000000000E+00  0.00000000000E+00 -0.26094878726E+03  0.26094878731E+03  0.50400001928E-02 0. -1.
    10030    2    1    2    0    0  0.00000000000E+00  0.00000000000E+00  0.13724662951E+04  0.18943638697E+04  0.13057376228E+04 0.  0.
        4    1    3    3  502    0 -0.22941320185E+03  0.23738651049E+03  0.15033996545E+04  0.15392189274E+04  0.12699999809E+01 0.  1.
       -4    1    3    3    0  502  0.22941320185E+03 -0.23738651049E+03 -0.13093335934E+03  0.35514494229E+03  0.12699999809E+01 0. -1.
</event>
<event>
 5   0  0.2794825E-04  0.1295869E+04  0.7818609E-02  0.9032847E-01
       -2   -1    0    0    0  501  0.00000000000E+00  0.00000000000E+00  0.38341228066E+03  0.38341228066E+03  0.25500000920E-02 0.  1.
        2   -1    0    0  501    0  0.00000000000E+00  0.00000000000E+00 -0.10949554740E+04  0.10949554740E+04  0.25500000920E-02 0. -1.
    10030    2    1    2    0    0  0.00000000000E+00  0.00000000000E+00 -0.71154319336E+03  0.14783677547E+04  0.12958694001E+04 0.  0.
        1    1    3    3  502    0 -0.76650254333E+02  0.54094292924E+03 -0.75314257755E+03  0.93043981876E+03  0.50400001928E-02 0. -1.
       -1    1    3    3    0  502  0.76650254333E+02 -0.54094292924E+03  0.41599384186E+02  0.54792793593E+03  0.50400001928E-02 0.  1.
</event>
<event>
 5   0  0.1479690E-04  0.1300027E+04  0.7818609E-02  0.9029544E-01
       -1   -1    0    0    0  501  0.00000000000E+00  0.00000000000E+00  0.73465091167E+03  0.73465091169E+03  0.50400001928E-02 0. -1.
        1   -1    0    0  501    0  0.00000000000E+00  0.00000000000E+00 -0.57512660737E+03  0.57512660740E+03  0.50400001928E-02 0.  1.
    10030    2    1    2    0    0  0.00000000000E+00  0.00000000000E+00  0.15952430430E+03  0.13097775191E+04  0.13000265943E+04 0.  0.
        1    1    3    3  502    0  0.16970715742E+03 -0.59871212301E+02  0.70905268260E+03  0.73153317633E+03  0.50400001928E-02 0. -1.
       -1    1    3    3    0  502 -0.16970715742E+03  0.59871212301E+02 -0.54952837830E+03  0.57824434276E+03  0.50400001928E-02 0.  1.
</event>
<event>
 5   0  0.2756984E-04  0.1300548E+04  0.7818609E-02  0.9029131E-01
       -2   -1    0    0    0  501  0.00000000000E+00  0.00000000000E+00  0.67598165490E+03  0.67598165490E+03  0.25500000920E-02 0. -1.
        2   -1    0    0  501    0  0.00000000000E+00  0.00000000000E+00 -0.62554368349E+03  0.62554368349E+03  0.25500000920E-02 0.  1.
    10030    2    1    2    0    0  0.00000000000E+00  0.00000000000E+00  0.50437971409E+02  0.13015253384E+04  0.13005476606E+04 0.  0.
        3    1    3    3  502    0 -0.12978716546E+03  0.57435356413E+03  0.30134182367E+03  0.66146324905E+03  0.10100000352E+00 0. -1.
       -3    1    3    3    0  502  0.12978716546E+03 -0.57435356413E+03 -0.25090385226E+03  0.64006208935E+03  0.10100000352E+00 0.  1.
</event>
<event>
 5   0  0.2794825E-04  0.1300230E+04  0.7818609E-02  0.9029383E-01
        2   -1    0    0  501    0  0.00000000000E+00  0.00000000000E+00  0.48071103316E+03  0.48071103316E+03  0.25500000920E-02 0. -1.
       -2   -1    0    0    0  501  0.00000000000E+00  0.00000000000E+00 -0.87921713450E+03  0.87921713450E+03  0.25500000920E-02 0.  1.
    10030    2    1    2    0    0  0.00000000000E+00  0.00000000000E+00 -0.39850610134E+03  0.13599281677E+04  0.13002297906E+04 0.  0.
        1    1    3    3  502    0 -0.43506778444E+03 -0.47556717461E+03 -0.11049654892E+03  0.65395535166E+03  0.50400001928E-02 0.  1.
       -1    1    3    3    0  502  0.43506778444E+03  0.47556717461E+03 -0.28800955242E+03  0.70597281600E+03  0.50400001928E-02 0. -1.
</event>
<event>
 5   0  0.2794825E-04  0.1300085E+04  0.7818609E-02  0.9029498E-01
        2   -1    0    0  501    0  0.00000000000E+00  0.00000000000E+00  0.16042935225E+04  0.16042935225E+04  0.25500000920E-02 0. -1.
       -2   -1    0    0    0  501  0.00000000000E+00  0.00000000000E+00 -0.26339011326E+03  0.26339011328E+03  0.25500000920E-02 0.  1.
    10030    2    1    2    0    0  0.00000000000E+00  0.00000000000E+00  0.13409034093E+04  0.18676836358E+04  0.13000846936E+04 0.  0.
        1    1    3    3  502    0  0.39007869274E+03 -0.67969852029E+02 -0.70155142687E+02  0.40212315450E+03  0.50400001928E-02 0.  1.
       -1    1    3    3    0  502 -0.39007869274E+03  0.67969852029E+02  0.14110585519E+04  0.14655604813E+04  0.50400001928E-02 0. -1.
</event>
<event>
 5   0  0.2661377E-04  0.1309359E+04  0.7818609E-02  0.9022176E-01
        2   -1    0    0  501    0  0.00000000000E+00  0.00000000000E+00  0.98795506460E+03  0.98795506460E+03  0.25500000920E-02 0. -1.
       -2   -1    0    0    0  501  0.00000000000E+00  0.00000000000E+00 -0.43383051419E+03  0.43383051420E+03  0.25500000920E-02 0.  1.
    10030    2    1    2    0    0  0.00000000000E+00  0.00000000000E+00  0.55412455040E+03  0.14217855788E+04  0.13093587036E+04 0.  0.
        5    1    3    3  502    0 -0.53642822305E+02 -0.15459144648E+02 -0.43122283675E+03  0.43484682645E+03  0.46999998093E+01 0.  1.
       -5    1    3    3    0  502  0.53642822305E+02  0.15459144648E+02  0.98534738715E+03  0.98693875236E+03  0.46999998093E+01 0. -1.
</event>
<event>
 5   0  0.1408341E-04  0.1299805E+04  0.7818609E-02  0.9029720E-01
        1   -1    0    0  501    0  0.00000000000E+00  0.00000000000E+00  0.40399300530E+03  0.40399300534E+03  0.50400001928E-02 0. -1.
       -1   -1    0    0    0  501  0.00000000000E+00  0.00000000000E+00 -0.10454965991E+04  0.10454965991E+04  0.50400001928E-02 0.  1.
    10030    2    1    2    0    0  0.00000000000E+00  0.00000000000E+00 -0.64150359375E+03  0.14494896044E+04  0.12998050825E+04 0.  0.
        5    1    3    3  502    0 -0.10110742589E+03  0.19116891295E+03  0.36267155378E+03  0.42228072508E+03  0.46999998093E+01 0. -1.
       -5    1    3    3    0  502  0.10110742589E+03 -0.19116891295E+03 -0.10041751475E+04  0.10272088793E+04  0.46999998093E+01 0.  1.
</event>
<event>
 5   0  0.2756984E-04  0.1296965E+04  0.7818609E-02  0.9031976E-01
        2   -1    0    0  501    0  0.00000000000E+00  0.00000000000E+00  0.10510787072E+04  0.10510787072E+04  0.25500000920E-02 0. -1.
       -2   -1    0    0    0  501  0.00000000000E+00  0.00000000000E+00 -0.40009314649E+03  0.40009314650E+03  0.25500000920E-02 0.  1.
    10030    2    1    2    0    0  0.00000000000E+00  0.00000000000E+00  0.65098556075E+03  0.14511718537E+04  0.12969647446E+04 0.  0.
        3    1    3    3  502    0  0.23470545055E+03 -0.52641829170E+03 -0.70413391504E+01  0.57641344278E+03  0.10100000352E+00 0. -1.
       -3    1    3    3    0  502 -0.23470545055E+03  0.52641829170E+03  0.65802689990E+03  0.87475841096E+03  0.10100000352E+00 0.  1.
</event>
<event>
 5   0  0.1476511E-04  0.1300862E+04  0.7818609E-02  0.9028882E-01
        1   -1    0    0  501    0  0.00000000000E+00  0.00000000000E+00  0.15024662810E+04  0.15024662810E+04  0.50400001928E-02 0. -1.
       -1   -1    0    0    0  501  0.00000000000E+00  0.00000000000E+00 -0.28157732092E+03  0.28157732097E+03  0.50400001928E-02 0.  1.
    10030    2    1    2    0    0  0.00000000000E+00  0.00000000000E+00  0.12208889601E+04  0.17840436020E+04  0.13008619146E+04 0.  0.
        2    1    3    3  502    0 -0.55567557304E+03  0.18060890320E+03  0.21852792458E+03  0.62381838079E+03  0.25500000920E-02 0.  1.
       -2    1    3    3    0  502  0.55567557304E+03 -0.18060890320E+03  0.10023610355E+04  0.11602252212E+04  0.25500000920E-02 0. -1.
</event>
<event>
 5   0  0.1479690E-04  0.1298814E+04  0.7818609E-02  0.9030506E-01
        1   -1    0    0  501    0  0.00000000000E+00  0.00000000000E+00  0.84460124256E+03  0.84460124257E+03  0.50400001928E-02 0. -1.
       -1   -1    0    0    0  501  0.00000000000E+00  0.00000000000E+00 -0.49932351603E+03  0.49932351605E+03  0.50400001928E-02 0.  1.
    10030    2    1    2    0    0  0.00000000000E+00  0.00000000000E+00  0.34527772653E+03  0.13439247586E+04  0.12988137081E+04 0.  0.
        1    1    3    3  502    0 -0.12566560773E+03  0.11982519954E+03  0.82013618366E+03  0.83831574194E+03  0.50400001928E-02 0. -1.
       -1    1    3    3    0  502  0.12566560773E+03 -0.11982519954E+03 -0.47485845713E+03  0.50560901668E+03  0.50400001928E-02 0.  1.
</event>
<event>
 5   0  0.1475396E-04  0.1302788E+04  0.7818609E-02  0.9027357E-01
       -1   -1    0    0    0  501  0.00000000000E+00  0.00000000000E+00  0.36739187171E+03  0.36739187174E+03  0.50400001928E-02 0.  1.
        1   -1    0    0  501    0  0.00000000000E+00  0.00000000000E+00 -0.11549369172E+04  0.11549369172E+04  0.50400001928E-02 0. -1.
    10030    2    1    2    0    0  0.00000000000E+00  0.00000000000E+00 -0.78754504549E+03  0.15223287889E+04  0.13027884491E+04 0.  0.
        3    1    3    3  502    0 -0.25824332808E+03 -0.16728539996E+03  0.27712282453E+03  0.41409068042E+03  0.10100000352E+00 0.  1.
       -3    1    3    3    0  502  0.25824332808E+03  0.16728539996E+03 -0.10646678700E+04  0.11082381085E+04  0.10100000352E+00 0. -1.
</event>
<event>
 5   0  0.1475396E-04  0.1301570E+04  0.7818609E-02  0.9028321E-01
        1   -1    0    0  501    0  0.00000000000E+00  0.00000000000E+00  0.68355212776E+03  0.68355212778E+03  0.50400001928E-02 0.  1.
       -1   -1    0    0    0  501  0.00000000000E+00  0.00000000000E+00 -0.61958875137E+03  0.61958875139E+03  0.50400001928E-02 0. -1.
    10030    2    1    2    0    0  0.00000000000E+00  0.00000000000E+00  0.63963376390E+02  0.13031408792E+04  0.13015701431E+04 0.  0.
        3    1    3    3  502    0  0.18362135935E+03 -0.26402621425E+03  0.59843345201E+03  0.67937416208E+03  0.10100000352E+00 0.  1.
       -3    1    3    3    0  502 -0.18362135935E+03  0.26402621425E+03 -0.53447007562E+03  0.62376671709E+03  0.10100000352E+00 0. -1.
</event>
<event>
 5   0  0.2723209E-04  0.1299751E+04  0.7818609E-02  0.9029762E-01
        2   -1    0    0  501    0  0.00000000000E+00  0.00000000000E+00  0.23142572505E+04  0.23142572505E+04  0.25500000920E-02 0.  1.
       -2   -1    0    0    0  501  0.00000000000E+00  0.00000000000E+00 -0.18249413260E+03  0.18249413262E+03  0.25500000920E-02 0. -1.
    10030    2    1    2    0    0  0.00000000000E+00  0.00000000000E+00  0.21317631179E+04  0.24967513831E+04  0.12997513140E+04 0.  0.
        2    1    3    3  502    0 -0.44906564796E+03  0.46976049556E+03  0.10694702842E+04  0.12514397981E+04  0.25500000920E-02 0. -1.
       -2    1    3    3    0  502  0.44906564796E+03 -0.46976049556E+03  0.10622928337E+04  0.12453115850E+04  0.25500000920E-02 0.  1.
</event>
<event>
 5   0  0.1408341E-04  0.1300309E+04  0.7818609E-02  0.9029320E-01
        1   -1    0    0  501    0  0.00000000000E+00  0.00000000000E+00  0.94047769511E+03  0.94047769512E+03  0.50400001928E-02 0.  1.
       -1   -1    0    0    0  501  0.00000000000E+00  0.00000000000E+00 -0.44945326908E+03  0.44945326911E+03  0.50400001928E-02 0. -1.
    10030    2    1    2    0    0  0.00000000000E+00  0.00000000000E+00  0.49102442603E+03  0.13899309642E+04  0.13003088473E+04 0.  0.
        5    1    3    3  502    0  0.56103769892E+03 -0.27561370239E+03  0.54439379366E+02  0.62746469906E+03  0.46999998093E+01 0. -1.
       -5    1    3    3    0  502 -0.56103769892E+03  0.27561370239E+03  0.43658504667E+03  0.76246626517E+03  0.46999998093E+01 0.  1.
</event>
<event>
 5   0  0.2661377E-04  0.1298632E+04  0.7818609E-02  0.9030650E-01
        2   -1    0    0  501    0  0.00000000000E+00  0.00000000000E+00  0.54152993531E+03  0.54152993532E+03  0.25500000920E-02 0. -1.
       -2   -1    0    0    0  501  0.00000000000E+00  0.00000000000E+00 -0.77855615913E+03  0.77855615914E+03  0.25500000920E-02 0.  1.
    10030    2    1    2    0    0  0.00000000000E+00  0.00000000000E+00 -0.23702622382E+03  0.13200860945E+04  0.12986323059E+04 0.  0.
        5    1    3    3  502    0  0.44176546265E+03  0.61013699216E+02  0.36120475532E+03  0.57390797237E+03  0.46999998093E+01 0. -1.
       -5    1    3    3    0  502 -0.44176546265E+03 -0.61013699216E+02 -0.59823097914E+03  0.74617812209E+03  0.46999998093E+01 0.  1.
</event>
<event>
 5   0  0.1476511E-04  0.1302367E+04  0.7818609E-02  0.9027690E-01
       -1   -1    0    0    0  501  0.00000000000E+00  0.00000000000E+00  0.33978761697E+03  0.33978761701E+03  0.50400001928E-02 0. -1.
        1   -1    0    0  501    0  0.00000000000E+00  0.00000000000E+00 -0.12479557313E+04  0.12479557313E+04  0.50400001928E-02 0.  1.
    10030    2    1    2    0    0  0.00000000000E+00  0.00000000000E+00 -0.90816811428E+03  0.15877433483E+04  0.13023669284E+04 0.  0.
        2    1    3    3  502    0 -0.15500812337E+03 -0.30854546109E+03  0.21899028092E+03  0.40888208937E+03  0.25500000920E-02 0. -1.
       -2    1    3    3    0  502  0.15500812337E+03  0.30854546109E+03 -0.11271583952E+04  0.11788612589E+04  0.25500000920E-02 0.  1.
</event>
<event>
 5   0  0.1476511E-04  0.1299756E+04  0.7818609E-02  0.9029759E-01
        1   -1    0    0  501    0  0.00000000000E+00  0.00000000000E+00  0.78011548056E+03  0.78011548058E+03  0.50400001928E-02 0.  1.
       -1   -1    0    0    0  501  0.00000000000E+00  0.00000000000E+00 -0.54138337132E+03  0.54138337134E+03  0.50400001928E-02 0. -1.
    10030    2    1    2    0    0  0.00000000000E+00  0.00000000000E+00  0.23873210924E+03  0.13214988519E+04  0.12997562062E+04 0.  0.
        2    1    3    3  502    0 -0.57762008180E+03  0.24043082192E+03  0.29806052021E+03  0.69303103303E+03  0.25500000920E-02 0.  1.
       -2    1    3    3    0  502  0.57762008180E+03 -0.24043082192E+03 -0.59328410968E+02  0.62846781889E+03  0.25500000920E-02 0. -1.
</event>
<event>
 5   0  0.1479690E-04  0.1297298E+04  0.7818609E-02  0.9031710E-01
       -1   -1    0    0    0  501  0.00000000000E+00  0.00000000000E+00  0.28572911738E+03  0.28572911743E+03  0.50400001928E-02 0. -1.
        1   -1    0    0  501    0  0.00000000000E+00  0.00000000000E+00 -0.14725337124E+04  0.14725337124E+04  0.50400001928E-02 0.  1.
    10030    2    1    2    0    0  0.00000000000E+00  0.00000000000E+00 -0.11868045950E+04  0.17582628298E+04  0.12972983589E+04 0.  0.
        1    1    3    3  502    0  0.17400272575E+03 -0.42988903951E+03 -0.12080458086E+04  0.12940078093E+04  0.50400001928E-02 0.  1.
       -1    1    3    3    0  502 -0.17400272575E+03  0.42988903951E+03  0.21241213625E+02  0.46425502048E+03  0.50400001928E-02 0. -1.
</event>
<event>
 5   0  0.1476511E-04  0.1297956E+04  0.7818609E-02  0.9031188E-01
       -1   -1    0    0    0  501  0.00000000000E+00  0.00000000000E+00  0.36722204231E+03  0.36722204234E+03  0.50400001928E-02 0. -1.
        1   -1    0    0  501    0  0.00000000000E+00  0.00000000000E+00 -0.11469143911E+04  0.11469143911E+04  0.50400001928E-02 0.  1.
    10030    2    1    2    0    0  0.00000000000E+00  0.00000000000E+00 -0.77969234880E+03  0.15141364335E+04  0.12979556928E+04 0.  0.
        2    1    3    3  502    0 -0.20584831099E+03 -0.45961420111E+03  0.87663197212E+02  0.51117861570E+03  0.25500000920E-02 0. -1.
       -2    1    3    3    0  502  0.20584831099E+03  0.45961420111E+03 -0.86735554601E+03  0.10029578178E+04  0.25500000920E-02 0.  1.
</event>
<event>
 5   0  0.2794825E-04  0.1291937E+04  0.7818609E-02  0.9035984E-01
        2   -1    0    0  501    0  0.00000000000E+00  0.00000000000E+00  0.12604588735E+04  0.12604588735E+04  0.25500000920E-02 0. -1.
       -2   -1    0    0    0  501  0.00000000000E+00  0.00000000000E+00 -0.33105009450E+03  0.33105009451E+03  0.25500000920E-02 0.  1.
    10030    2    1    2    0    0  0.00000000000E+00  0.00000000000E+00  0.92940877896E+03  0.15915089680E+04  0.12919365761E+04 0.  0.
        1    1    3    3  502    0 -0.37857303035E+03 -0.75213598961E+02  0.11027894256E+04  0.11683831315E+04  0.50400001928E-02 0. -1.
       -1    1    3    3    0  502  0.37857303035E+03  0.75213598961E+02 -0.17338064667E+03  0.42312583642E+03  0.50400001928E-02 0.  1.
</event>
<event>
 5   0  0.2794825E-04  0.1303571E+04  0.7818609E-02  0.9026738E-01
       -2   -1    0    0    0  501  0.00000000000E+00  0.00000000000E+00  0.62622417708E+03  0.62622417708E+03  0.25500000920E-02 0. -1.
        2   -1    0    0  501    0  0.00000000000E+00  0.00000000000E+00 -0.67839002239E+03  0.67839002240E+03  0.25500000920E-02 0.  1.
    10030    2    1    2    0    0  0.00000000000E+00  0.00000000000E+00 -0.52165845314E+02  0.13046141995E+04  0.13035708397E+04 0.  0.
        1    1    3    3  502    0  0.28244196570E+03  0.33588948606E+03 -0.50837009554E+03  0.67159166530E+03  0.50400001928E-02 0.  1.
       -1    1    3    3    0  502 -0.28244196570E+03 -0.33588948606E+03  0.45620425022E+03  0.63302253418E+03  0.50400001928E-02 0. -1.
</event>
<event>
 5   0  0.1002887E-04  0.1299712E+04  0.7818609E-02  0.9029794E-01
       -3   -1    0    0    0  501  0.00000000000E+00  0.00000000000E+00  0.36287990364E+03  0.36287991770E+03  0.10100000352E+00 0.  1.
        3   -1    0    0  501    0  0.00000000000E+00  0.00000000000E+00 -0.11637810893E+04  0.11637810937E+04  0.10100000352E+00 0. -1.
    10030    2    1    2    0    0  0.00000000000E+00  0.00000000000E+00 -0.80090118569E+03  0.15266610114E+04  0.12997119429E+04 0.  0.
        4    1    3    3  502    0 -0.24103754187E+03  0.42060487121E+03 -0.90880733320E+03  0.10300193862E+04  0.12699999809E+01 0. -1.
       -4    1    3    3    0  502  0.24103754187E+03 -0.42060487121E+03  0.10790614751E+03  0.49664162516E+03  0.12699999809E+01 0.  1.
</event>
<event>
 5   0  0.1430636E-04  0.1300546E+04  0.7818609E-02  0.9029133E-01
       -1   -1    0    0    0  501  0.00000000000E+00  0.00000000000E+00  0.60013851342E+03  0.60013851344E+03  0.50400001928E-02 0. -1.
        1   -1    0    0  501    0  0.00000000000E+00  0.00000000000E+00 -0.70459515680E+03  0.70459515682E+03  0.50400001928E-02 0.  1.
    10030    2    1    2    0    0  0.00000000000E+00  0.00000000000E+00 -0.10445664338E+03  0.13047336703E+04  0.13005455624E+04 0.  0.
        4    1    3    3  502    0 -0.64190423305E+03 -0.10363360100E+03 -0.60747394572E+02  0.65304886992E+03  0.12699999809E+01 0.  1.
       -4    1    3    3    0  502  0.64190423305E+03  0.10363360100E+03 -0.43709248806E+02  0.65168480034E+03  0.12699999809E+01 0. -1.
</event>
<event>
 5   0  0.2661377E-04  0.1302250E+04  0.7818609E-02  0.9027783E-01
        2   -1    0    0  501    0  0.00000000000E+00  0.00000000000E+00  0.78897261153E+03  0.78897261154E+03  0.25500000920E-02 0.  1.
       -2   -1    0    0    0  501  0.00000000000E+00  0.00000000000E+00 -0.53736143551E+03  0.53736143552E+03  0.25500000920E-02 0. -1.
    10030    2    1    2    0    0  0.00000000000E+00  0.00000000000E+00  0.25161117602E+03  0.13263340471E+04  0.13022495231E+04 0.  0.
        5    1    3    3  502    0  0.41965603460E+03 -0.46518374137E+03 -0.54770550913E+02  0.62891096656E+03  0.46999998093E+01 0. -1.
       -5    1    3    3    0  502 -0.41965603460E+03  0.46518374137E+03  0.30638172694E+03  0.69742308050E+03  0.46999998093E+01 0.  1.
</event>
<event>
 5   0  0.1408341E-04  0.1301155E+04  0.7818609E-02  0.9028649E-01
        1   -1    0    0  501    0  0.00000000000E+00  0.00000000000E+00  0.46290398607E+03  0.46290398609E+03  0.50400001928E-02 0. -1.
       -1   -1    0    0    0  501  0.00000000000E+00  0.00000000000E+00 -0.91433926370E+03  0.91433926371E+03  0.50400001928E-02 0.  1.
    10030    2    1    2    0    0  0.00000000000E+00  0.00000000000E+00 -0.45143527763E+03  0.13772432498E+04  0.13011553171E+04 0.  0.
        5    1    3    3  502    0  0.45714461444E+03  0.46006731804E+03 -0.27954476097E+03  0.70626517613E+03  0.46999998093E+01 0.  1.
       -5    1    3    3    0  502 -0.45714461444E+03 -0.46006731804E+03 -0.17189051667E+03  0.67097807368E+03  0.46999998093E+01 0. -1.
</event>
<event>
 5   0  0.1476511E-04  0.1298065E+04  0.7818609E-02  0.9031101E-01
        1   -1    0    0  501    0  0.00000000000E+00  0.00000000000E+00  0.10909615936E+04  0.10909615936E+04  0.50400001928E-02 0. -1.
       -1   -1    0    0    0  501  0.00000000000E+00  0.00000000000E+00 -0.38612099659E+03  0.38612099663E+03  0.50400001928E-02 0.  1.
    10030    2    1    2    0    0  0.00000000000E+00  0.00000000000E+00  0.70484059696E+03  0.14770825902E+04  0.12980649873E+04 0.  0.
        2    1    3    3  502    0  0.56610112774E+03  0.20470381322E+03  0.76329571977E+02  0.60679513969E+03  0.25500000920E-02 0.  1.
       -2    1    3    3    0  502 -0.56610112774E+03 -0.20470381322E+03  0.62851102498E+03  0.87028745051E+03  0.25500000920E-02 0. -1.
</event>
<event>
 5   0  0.2661377E-04  0.1298633E+04  0.7818609E-02  0.9030650E-01
       -2   -1    0    0    0  501  0.00000000000E+00  0.00000000000E+00  0.40754354376E+03  0.40754354376E+03  0.25500000920E-02 0. -1.
        2   -1    0    0  501    0  0.00000000000E+00  0.00000000000E+00 -0.10345192267E+04  0.10345192267E+04  0.25500000920E-02 0.  1.
    10030    2    1    2    0    0  0.00000000000E+00  0.00000000000E+00 -0.62697568292E+03  0.14420627704E+04  0.12986325604E+04 0.  0.
        5    1    3    3  502    0 -0.25425082104E+03 -0.38276236823E+03  0.19591460231E+03  0.49955493384E+03  0.46999998093E+01 0. -1.
       -5    1    3    3    0  502  0.25425082104E+03  0.38276236823E+03 -0.82289028522E+03  0.94250783660E+03  0.46999998093E+01 0.  1.
</event>
<event>
 5   0  0.2794825E-04  0.1300089E+04  0.7818609E-02  0.9029495E-01
        2   -1    0    0  501    0  0.00000000000E+00  0.00000000000E+00  0.13875136715E+04  0.13875136715E+04  0.25500000920E-02 0. -1.
       -2   -1    0    0    0  501  0.00000000000E+00  0.00000000000E+00 -0.30454317847E+03  0.30454317848E+03  0.25500000920E-02 0.  1.
    10030    2    1    2    0    0  0.00000000000E+00  0.00000000000E+00  0.10829704931E+04  0.16920568500E+04  0.13000889565E+04 0.  0.
        1    1    3    3  502    0 -0.36158048482E+02 -0.27608700619E+03 -0.22299810964E+03  0.35673463020E+03  0.50400001928E-02 0.  1.
       -1    1    3    3    0  502  0.36158048482E+02  0.27608700619E+03  0.13059686027E+04  0.13353222198E+04  0.50400001928E-02 0. -1.
</event>
<event>
 5   0  0.1476511E-04  0.1296438E+04  0.7818609E-02  0.9032395E-01
        1   -1    0    0  501    0  0.00000000000E+00  0.00000000000E+00  0.10139390054E+04  0.10139390054E+04  0.50400001928E-02 0. -1.
       -1   -1    0    0    0  501  0.00000000000E+00  0.00000000000E+00 -0.41441127313E+03  0.41441127316E+03  0.50400001928E-02 0.  1.
    10030    2    1    2    0    0  0.00000000000E+00  0.00000000000E+00  0.59952773229E+03  0.14283502786E+04  0.12964378182E+04 0.  0.
        2    1    3    3  502    0  0.13593645202E+03  0.48151614965E+03  0.75382819392E+03  0.90476155274E+03  0.25500000920E-02 0. -1.
       -2    1    3    3    0  502 -0.13593645202E+03 -0.48151614965E+03 -0.15430046164E+03  0.52358872584E+03  0.25500000920E-02 0.  1.
</event>
<event>
 5   0  0.1408341E-04  0.1301857E+04  0.7818609E-02  0.9028094E-01
        1   -1    0    0  501    0  0.00000000000E+00  0.00000000000E+00  0.39787041100E+03  0.39787041104E+03  0.50400001928E-02 0.  1.
       -1   -1    0    0    0  501  0.00000000000E+00  0.00000000000E+00 -0.10649398322E+04  0.10649398322E+04  0.50400001928E-02 0. -1.
    10030    2    1    2    0    0  0.00000000000E+00  0.00000000000E+00 -0.66706942122E+03  0.14628102433E+04  0.13018572099E+04 0.  0.
        5    1    3    3  502    0  0.37776732796E+03  0.51030122781E+03 -0.17237864403E+03  0.65791487602E+03  0.46999998093E+01 0.  1.
       -5    1    3    3    0  502 -0.37776732796E+03 -0.51030122781E+03 -0.49469077719E+03  0.80489536724E+03  0.46999998093E+01 0. -1.
</event>
<event>
 5   0  0.1475396E-04  0.1296441E+04  0.7818609E-02  0.9032392E-01
        1   -1    0    0  501    0  0.00000000000E+00  0.00000000000E+00  0.98907375484E+03  0.98907375485E+03  0.50400001928E-02 0. -1.
       -1   -1    0    0    0  501  0.00000000000E+00  0.00000000000E+00 -0.42483157029E+03  0.42483157032E+03  0.50400001928E-02 0.  1.
    10030    2    1    2    0    0  0.00000000000E+00  0.00000000000E+00  0.56424218455E+03  0.14139053252E+04  0.12964409071E+04 0.  0.
        3    1    3    3  502    0 -0.43313133077E+03  0.39964807413E+03 -0.12278538375E+02  0.58946764589E+03  0.10100000352E+00 0.  1.
       -3    1    3    3    0  502  0.43313133077E+03 -0.39964807413E+03  0.57652072292E+03  0.82443767928E+03  0.10100000352E+00 0. -1.
</event>
<event>
 5   0  0.1475396E-04  0.1304377E+04  0.7818609E-02  0.9026102E-01
       -1   -1    0    0    0  501  0.00000000000E+00  0.00000000000E+00  0.29829430975E+03  0.29829430980E+03  0.50400001928E-02 0.  1.
        1   -1    0    0  501    0  0.00000000000E+00  0.00000000000E+00 -0.14259392093E+04  0.14259392093E+04  0.50400001928E-02 0. -1.
    10030    2    1    2    0    0  0.00000000000E+00  0.00000000000E+00 -0.11276448996E+04  0.17242335191E+04  0.13043765595E+04 0.  0.
        3    1    3    3  502    0  0.36012190581E+03 -0.45284011094E+03 -0.96170181633E+03  0.11223289833E+04  0.10100000352E+00 0. -1.
       -3    1    3    3    0  502 -0.36012190581E+03  0.45284011094E+03 -0.16594308324E+03  0.60190453579E+03  0.10100000352E+00 0.  1.
</event>
<event>
 5   0  0.1408341E-04  0.1296692E+04  0.7818609E-02  0.9032192E-01
       -1   -1    0    0    0  501  0.00000000000E+00  0.00000000000E+00  0.31518285932E+03  0.31518285936E+03  0.50400001928E-02 0. -1.
        1   -1    0    0  501    0  0.00000000000E+00  0.00000000000E+00 -0.13336787932E+04  0.13336787932E+04  0.50400001928E-02 0.  1.
    10030    2    1    2    0    0  0.00000000000E+00  0.00000000000E+00 -0.10184959339E+04  0.16488616526E+04  0.12966922465E+04 0.  0.
        5    1    3    3  502    0  0.77382492104E+02 -0.11605024028E+03  0.29585556994E+03  0.32712125675E+03  0.46999998093E+01 0. -1.
       -5    1    3    3    0  502 -0.77382492104E+02  0.11605024028E+03 -0.13143515038E+04  0.13217403958E+04  0.46999998093E+01 0.  1.
</event>
<event>
 5   0  0.1430636E-04  0.1303423E+04  0.7818609E-02  0.9026855E-01
       -1   -1    0    0    0  501  0.00000000000E+00  0.00000000000E+00  0.75223169123E+03  0.75223169125E+03  0.50400001928E-02 0. -1.
        1   -1    0    0  501    0  0.00000000000E+00  0.00000000000E+00 -0.56462331981E+03  0.56462331983E+03  0.50400001928E-02 0.  1.
    10030    2    1    2    0    0  0.00000000000E+00  0.00000000000E+00  0.18760837142E+03  0.13168550111E+04  0.13034225022E+04 0.  0.
        4    1    3    3  502    0 -0.43870407239E+03 -0.32569900206E+03 -0.26508166391E+03  0.60729811832E+03  0.12699999809E+01 0.  1.
       -4    1    3    3    0  502  0.43870407239E+03  0.32569900206E+03  0.45269003533E+03  0.70955689276E+03  0.12699999809E+01 0. -1.
</event>
<event>
 5   0  0.1408341E-04  0.1305791E+04  0.7818609E-02  0.9024986E-01
       -1   -1    0    0    0  501  0.00000000000E+00  0.00000000000E+00  0.31212359152E+03  0.31212359156E+03  0.50400001928E-02 0.  1.
        1   -1    0    0  501    0  0.00000000000E+00  0.00000000000E+00 -0.13657161344E+04  0.13657161344E+04  0.50400001928E-02 0. -1.
    10030    2    1    2    0    0  0.00000000000E+00  0.00000000000E+00 -0.10535925428E+04  0.16778397259E+04  0.13057905267E+04 0.  0.
        5    1    3    3  502    0  0.35855506450E+03 -0.14585524980E+03  0.14875370828E+03  0.41471103662E+03  0.46999998093E+01 0.  1.
       -5    1    3    3    0  502 -0.35855506450E+03  0.14585524980E+03 -0.12023462511E+04  0.12631286893E+04  0.46999998093E+01 0. -1.
</event>
<event>
 5   0  0.2573071E-04  0.1301204E+04  0.7818609E-02  0.9028611E-01
       -2   -1    0    0    0  501  0.00000000000E+00  0.00000000000E+00  0.18703066055E+03  0.18703066057E+03  0.25500000920E-02 0. -1.
        2   -1    0    0  501    0  0.00000000000E+00  0.00000000000E+00 -0.22631734516E+04  0.22631734516E+04  0.25500000920E-02 0.  1.
    10030    2    1    2    0    0  0.00000000000E+00  0.00000000000E+00 -0.20761427911E+04  0.24502041122E+04  0.13012037898E+04 0.  0.
        4    1    3    3  502    0 -0.61504048474E+03  0.18917876022E+03 -0.12188599188E+04  0.13782904323E+04  0.12699999809E+01 0.  1.
       -4    1    3    3    0  502  0.61504048474E+03 -0.18917876022E+03 -0.85728287232E+03  0.10719136799E+04  0.12699999809E+01 0. -1.
</event>
<event>
 5   0  0.1408341E-04  0.1300553E+04  0.7818609E-02  0.9029127E-01
       -1   -1    0    0    0  501  0.00000000000E+00  0.00000000000E+00  0.42271071261E+03  0.42271071264E+03  0.50400001928E-02 0.  1.
        1   -1    0    0  501    0  0.00000000000E+00  0.00000000000E+00 -0.10003522800E+04  0.10003522800E+04  0.50400001928E-02 0. -1.
    10030    2    1    2    0    0  0.00000000000E+00  0.00000000000E+00 -0.57764156741E+03  0.14230629927E+04  0.13005531518E+04 0.  0.
        5    1    3    3  502    0 -0.11918416464E+03  0.94413221978E+02  0.40296767731E+03  0.43072469228E+03  0.46999998093E+01 0.  1.
       -5    1    3    3    0  502  0.11918416464E+03 -0.94413221978E+02 -0.98060924472E+03  0.99233830039E+03  0.46999998093E+01 0. -1.
</event>
<event>
 5   0  0.2756984E-04  0.1300041E+04  0.7818609E-02  0.9029532E-01
       -2   -1    0    0    0  501  0.00000000000E+00  0.00000000000E+00  0.55900182678E+03  0.55900182678E+03  0.25500000920E-02 0.  1.
        2   -1    0    0  501    0  0.00000000000E+00  0.00000000000E+00 -0.75585969782E+03  0.75585969782E+03  0.25500000920E-02 0. -1.
    10030    2    1    2    0    0  0.00000000000E+00  0.00000000000E+00 -0.19685787104E+03  0.13148615246E+04  0.13000414638E+04 0.  0.
        3    1    3    3  502    0 -0.21497789847E+03 -0.39222658920E+03 -0.57547277776E+03  0.72885260667E+03  0.10100000352E+00 0. -1.
       -3    1    3    3    0  502  0.21497789847E+03  0.39222658920E+03  0.37861490672E+03  0.58600891793E+03  0.10100000352E+00 0.  1.
</event>
<event>
 5   0  0.2661377E-04  0.1328642E+04  0.7818609E-02  0.9007155E-01
        2   -1    0    0  501    0  0.00000000000E+00  0.00000000000E+00  0.13003713512E+04  0.13003713512E+04  0.25500000920E-02 0.  1.
       -2   -1    0    0    0  501  0.00000000000E+00  0.00000000000E+00 -0.33938192574E+03  0.33938192575E+03  0.25500000920E-02 0. -1.
    10030    2    1    2    0    0  0.00000000000E+00  0.00000000000E+00  0.96098942542E+03  0.16397532769E+04  0.13286422142E+04 0.  0.
        5    1    3    3  502    0 -0.77346284265E+02  0.29951189631E+03  0.12060391218E+04  0.12450872568E+04  0.46999998093E+01 0.  1.
       -5    1    3    3    0  502  0.77346284265E+02 -0.29951189631E+03 -0.24504969640E+03  0.39466602010E+03  0.46999998093E+01 0. -1.
</event>
<event>
 5   0  0.1476511E-04  0.1299174E+04  0.7818609E-02  0.9030221E-01
       -1   -1    0    0    0  501  0.00000000000E+00  0.00000000000E+00  0.92869860126E+03  0.92869860127E+03  0.50400001928E-02 0. -1.
        1   -1    0    0  501    0  0.00000000000E+00  0.00000000000E+00 -0.45435966001E+03  0.45435966003E+03  0.50400001928E-02 0.  1.
    10030    2    1    2    0    0  0.00000000000E+00  0.00000000000E+00  0.47433894125E+03  0.13830582613E+04  0.12991738617E+04 0.  0.
        2    1    3    3  502    0 -0.66851083889E+02 -0.22337796941E+03  0.88261385001E+03  0.91289319905E+03  0.25500000920E-02 0. -1.
       -2    1    3    3    0  502  0.66851083889E+02  0.22337796941E+03 -0.40827490876E+03  0.47016506225E+03  0.25500000920E-02 0.  1.
</event>
<event>
 5   0  0.2661377E-04  0.1295421E+04  0.7818609E-02  0.9033205E-01
       -2   -1    0    0    0  501  0.00000000000E+00  0.00000000000E+00  0.41691183588E+03  0.41691183588E+03  0.25500000920E-02 0.  1.
        2   -1    0    0  501    0  0.00000000000E+00  0.00000000000E+00 -0.10062764897E+04  0.10062764897E+04  0.25500000920E-02 0. -1.
    10030    2    1    2    0    0  0.00000000000E+00  0.00000000000E+00 -0.58936465384E+03  0.14231883256E+04  0.12954205166E+04 0.  0.
        5    1    3    3  502    0 -0.66118334395E+02 -0.31216912636E+01  0.41316745595E+03  0.41846244246E+03  0.46999998093E+01 0.  1.
       -5    1    3    3    0  502  0.66118334395E+02  0.31216912636E+01 -0.10025321098E+04  0.10047258831E+04  0.46999998093E+01 0. -1.
</event>
<event>
 5   0  0.1408341E-04  0.1300428E+04  0.7818609E-02  0.9029226E-01
       -1   -1    0    0    0  501  0.00000000000E+00  0.00000000000E+00  0.31442427334E+03  0.31442427338E+03  0.50400001928E-02 0.  1.
        1   -1    0    0  501    0  0.00000000000E+00  0.00000000000E+00 -0.13446104797E+04  0.13446104797E+04  0.50400001928E-02 0. -1.
    10030    2    1    2    0    0  0.00000000000E+00  0.00000000000E+00 -0.10301862063E+04  0.16590347531E+04  0.13004278881E+04 0.  0.
        5    1    3    3  502    0 -0.64908600583E+03 -0.10121941431E+02 -0.46837540967E+03  0.80050778325E+03  0.46999998093E+01 0. -1.
       -5    1    3    3    0  502  0.64908600583E+03  0.10121941431E+02 -0.56181079667E+03  0.85852696982E+03  0.46999998093E+01 0.  1.
</event>
<event>
 5   0  0.1476511E-04  0.1299287E+04  0.7818609E-02  0.9030130E-01
        1   -1    0    0  501    0  0.00000000000E+00  0.00000000000E+00  0.11019407863E+04  0.11019407863E+04  0.50400001928E-02 0. -1.
       -1   -1    0    0    0  501  0.00000000000E+00  0.00000000000E+00 -0.38299425628E+03  0.38299425631E+03  0.50400001928E-02 0.  1.
    10030    2    1    2    0    0  0.00000000000E+00  0.00000000000E+00  0.71894653004E+03  0.14849350426E+04  0.12992874847E+04 0.  0.
        2    1    3    3  502    0  0.83124460328E+02 -0.27849502673E+03  0.10234956664E+04  0.10639607770E+04  0.25500000920E-02 0. -1.
       -2    1    3    3    0  502 -0.83124460328E+02  0.27849502673E+03 -0.30454913640E+03  0.42097426561E+03  0.25500000920E-02 0.  1.
</event>
<event>
 5   0  0.2661377E-04  0.1313057E+04  0.7818609E-02  0.9019274E-01
        2   -1    0    0  501    0  0.00000000000E+00  0.00000000000E+00  0.16739979560E+03  0.16739979561E+03  0.25500000920E-02 0.  1.
       -2   -1    0    0    0  501  0.00000000000E+00  0.00000000000E+00 -0.25748527745E+04  0.25748527745E+04  0.25500000920E-02 0. -1.
    10030    2    1    2    0    0  0.00000000000E+00  0.00000000000E+00 -0.24074529789E+04  0.27422525702E+04  0.13130572389E+04 0.  0.
        5    1    3    3  502    0 -0.49834182784E+03  0.42152184503E+03 -0.13511433737E+04  0.15005451508E+04  0.46999998093E+01 0. -1.
       -5    1    3    3    0  502  0.49834182784E+03 -0.42152184503E+03 -0.10563096053E+04  0.12417074194E+04  0.46999998093E+01 0.  1.
</event>
<event>
 5   0  0.2794825E-04  0.1301441E+04  0.7818609E-02  0.9028423E-01
       -2   -1    0    0    0  501  0.00000000000E+00  0.00000000000E+00  0.23741498273E+03  0.23741498275E+03  0.25500000920E-02 0.  1.
        2   -1    0    0  501    0  0.00000000000E+00  0.00000000000E+00 -0.17835327164E+04  0.17835327164E+04  0.25500000920E-02 0. -1.
    10030    2    1    2    0    0  0.00000000000E+00  0.00000000000E+00 -0.15461177337E+04  0.20209476992E+04  0.13014413380E+04 0.  0.
        1    1    3    3  502    0 -0.28726536844E+03 -0.55818831384E+03 -0.10390541154E+04  0.12139724216E+04  0.50400001928E-02 0. -1.
       -1    1    3    3    0  502  0.28726536844E+03  0.55818831384E+03 -0.50706361829E+03  0.80697527758E+03  0.50400001928E-02 0.  1.
</event>
<event>
 5   0  0.1476511E-04  0.1305319E+04  0.7818609E-02  0.9025358E-01
        1   -1    0    0  501    0  0.00000000000E+00  0.00000000000E+00  0.14370341262E+04  0.14370341262E+04  0.50400001928E-02 0.  1.
       -1   -1    0    0    0  501  0.00000000000E+00  0.00000000000E+00 -0.29641892750E+03  0.29641892754E+03  0.50400001928E-02 0. -1.
    10030    2    1    2    0    0  0.00000000000E+00  0.00000000000E+00  0.11406151987E+04  0.17334530538E+04  0.13053185274E+04 0.  0.
        2    1    3    3  502    0 -0.50192116117E+03  0.18704469523E+03  0.10655144155E+04  0.11925734945E+04  0.25500000920E-02 0.  1.
       -2    1    3    3    0  502  0.50192116117E+03 -0.18704469523E+03  0.75100783220E+02  0.54087955932E+03  0.25500000920E-02 0. -1.
</event>
<event>
 5   0  0.2794825E-04  0.1300246E+04  0.7818609E-02  0.9029370E-01
       -2   -1    0    0    0  501  0.00000000000E+00  0.00000000000E+00  0.82141110901E+03  0.82141110901E+03  0.25500000920E-02 0.  1.
        2   -1    0    0  501    0  0.00000000000E+00  0.00000000000E+00 -0.51455379825E+03  0.51455379826E+03  0.25500000920E-02 0. -1.
    10030    2    1    2    0    0  0.00000000000E+00  0.00000000000E+00  0.30685731076E+03  0.13359649073E+04  0.13002464475E+04 0.  0.
        1    1    3    3  502    0  0.20669734398E+03 -0.43711215021E+03  0.59995815379E+03  0.77054565744E+03  0.50400001928E-02 0.  1.
       -1    1    3    3    0  502 -0.20669734398E+03  0.43711215021E+03 -0.29310084303E+03  0.56541924983E+03  0.50400001928E-02 0. -1.
</event>
<event>
 5   0  0.1430636E-04  0.1295532E+04  0.7818609E-02  0.9033116E-01
       -1   -1    0    0    0  501  0.00000000000E+00  0.00000000000E+00  0.30785293343E+03  0.30785293347E+03  0.50400001928E-02 0. -1.
        1   -1    0    0  501    0  0.00000000000E+00  0.00000000000E+00 -0.13629912607E+04  0.13629912607E+04  0.50400001928E-02 0.  1.
    10030    2    1    2    0    0  0.00000000000E+00  0.00000000000E+00 -0.10551383272E+04  0.16708441941E+04  0.12955321036E+04 0.  0.
        4    1    3    3  502    0  0.39143014621E+03  0.15639960231E+03  0.10677423460E+03  0.43483415809E+03  0.12699999809E+01 0. -1.
       -4    1    3    3    0  502 -0.39143014621E+03 -0.15639960231E+03 -0.11619125618E+04  0.12360100360E+04  0.12699999809E+01 0.  1.
</event>
<event>
 5   0  0.2756984E-04  0.1288572E+04  0.7818609E-02  0.9038677E-01
       -2   -1    0    0    0  501  0.00000000000E+00  0.00000000000E+00  0.70421369127E+03  0.70421369128E+03  0.25500000920E-02 0.  1.
        2   -1    0    0  501    0  0.00000000000E+00  0.00000000000E+00 -0.58945795279E+03  0.58945795279E+03  0.25500000920E-02 0. -1.
    10030    2    1    2    0    0  0.00000000000E+00  0.00000000000E+00  0.11475573848E+03  0.12936716441E+04  0.12885718619E+04 0.  0.
        3    1    3    3  502    0 -0.59271965671E+03 -0.93796185033E+02 -0.17804975102E+03  0.62595210665E+03  0.10100000352E+00 0. -1.
       -3    1    3    3    0  502  0.59271965671E+03  0.93796185033E+02  0.29280548950E+03  0.66771953743E+03  0.10100000352E+00 0.  1.
</event>
<event>
 5   0  0.1430636E-04  0.1300915E+04  0.7818609E-02  0.9028840E-01
        1   -1    0    0  501    0  0.00000000000E+00  0.00000000000E+00  0.57601125789E+03  0.57601125792E+03  0.50400001928E-02 0. -1.
       -1   -1    0    0    0  501  0.00000000000E+00  0.00000000000E+00 -0.73452594845E+03  0.73452594846E+03  0.50400001928E-02 0.  1.
    10030    2    1    2    0    0  0.00000000000E+00  0.00000000000E+00 -0.15851469055E+03  0.13105372064E+04  0.13009153939E+04 0.  0.
        4    1    3    3  502    0  0.87437482918E+02  0.22445381979E+03  0.52942071066E+03  0.58164657002E+03  0.12699999809E+01 0. -1.
       -4    1    3    3    0  502 -0.87437482918E+02 -0.22445381979E+03 -0.68793540121E+03  0.72889063636E+03  0.12699999809E+01 0.  1.
</event>
<event>
 5   0  0.2756984E-04  0.1299172E+04  0.7818609E-02  0.9030222E-01
        2   -1    0    0  501    0  0.00000000000E+00  0.00000000000E+00  0.12526890792E+04  0.12526890792E+04  0.25500000920E-02 0. -1.
       -2   -1    0    0    0  501  0.00000000000E+00  0.00000000000E+00 -0.33684503778E+03  0.33684503779E+03  0.25500000920E-02 0.  1.
    10030    2    1    2    0    0  0.00000000000E+00  0.00000000000E+00  0.91584404138E+03  0.15895341170E+04  0.12991721983E+04 0.  0.
        3    1    3    3  502    0  0.47064547470E+03  0.33476633941E+03  0.82166608909E+03  0.10043459748E+04  0.10100000352E+00 0. -1.
       -3    1    3    3    0  502 -0.47064547470E+03 -0.33476633941E+03  0.94177952288E+02  0.58518814219E+03  0.10100000352E+00 0.  1.
</event>
<event>
 5   0  0.2573071E-04  0.1298084E+04  0.7818609E-02  0.9031086E-01
        2   -1    0    0  501    0  0.00000000000E+00  0.00000000000E+00  0.95370331506E+03  0.95370331506E+03  0.25500000920E-02 0. -1.
       -2   -1    0    0    0  501  0.00000000000E+00  0.00000000000E+00 -0.44170519336E+03  0.44170519336E+03  0.25500000920E-02 0.  1.
    10030    2    1    2    0    0  0.00000000000E+00  0.00000000000E+00  0.51199812170E+03  0.13954085084E+04  0.12980842919E+04 0.  0.
        4    1    3    3  502    0 -0.19270526552E+03 -0.24850331025E+03 -0.35434164103E+03  0.47376030441E+03  0.12699999809E+01 0.  1.
       -4    1    3    3    0  502  0.19270526552E+03  0.24850331025E+03  0.86633976274E+03  0.92164820401E+03  0.12699999809E+01 0. -1.
</event>
<event>
 5   0  0.2723209E-04  0.1275419E+04  0.7818609E-02  0.9049288E-01
       -2   -1    0    0    0  501  0.00000000000E+00  0.00000000000E+00  0.27856960492E+03  0.27856960493E+03  0.25500000920E-02 0.  1.
        2   -1    0    0  501    0  0.00000000000E+00  0.00000000000E+00 -0.14598628417E+04  0.14598628417E+04  0.25500000920E-02 0. -1.
    10030    2    1    2    0    0  0.00000000000E+00  0.00000000000E+00 -0.11812932368E+04  0.17384324466E+04  0.12754190136E+04 0.  0.
        2    1    3    3  502    0  0.31104718631E+02  0.25362612571E+03  0.20573967777E+03  0.32805872977E+03  0.25500000920E-02 0.  1.
       -2    1    3    3    0  502 -0.31104718631E+02 -0.25362612571E+03 -0.13870329145E+04  0.14103737169E+04  0.25500000920E-02 0. -1.
</event>
<event>
 5   0  0.2723209E-04  0.1300725E+04  0.7818609E-02  0.9028990E-01
       -2   -1    0    0    0  501  0.00000000000E+00  0.00000000000E+00  0.24221593366E+03  0.24221593367E+03  0.25500000920E-02 0. -1.
        2   -1    0    0  501    0  0.00000000000E+00  0.00000000000E+00 -0.17462572467E+04  0.17462572467E+04  0.25500000920E-02 0.  1.
    10030    2    1    2    0    0  0.00000000000E+00  0.00000000000E+00 -0.15040413130E+04  0.19884731803E+04  0.13007249201E+04 0.  0.
        2    1    3    3  502    0 -0.44968306869E+03 -0.22561383523E+03 -0.12197318704E+03  0.51768129508E+03  0.25500000920E-02 0. -1.
       -2    1    3    3    0  502  0.44968306869E+03  0.22561383523E+03 -0.13820681260E+04  0.14707918852E+04  0.25500000920E-02 0.  1.
</event>
<event>
 5   0  0.1430636E-04  0.1298059E+04  0.7818609E-02  0.9031106E-01
        1   -1    0    0  501    0  0.00000000000E+00  0.00000000000E+00  0.76424657893E+03  0.76424657895E+03  0.50400001928E-02 0. -1.
       -1   -1    0    0    0  501  0.00000000000E+00  0.00000000000E+00 -0.55118239503E+03  0.55118239505E+03  0.50400001928E-02 0.  1.
    10030    2    1    2    0    0  0.00000000000E+00  0.00000000000E+00  0.21306418391E+03  0.13154289740E+04  0.12980589506E+04 0.  0.
        4    1    3    3  502    0 -0.25701420742E+03  0.15365753640E+03  0.69005923748E+03  0.75223022104E+03  0.12699999809E+01 0. -1.
       -4    1    3    3    0  502  0.25701420742E+03 -0.15365753640E+03 -0.47699505357E+03  0.56319875296E+03  0.12699999809E+01 0.  1.
</event>
<event>
 5   0  0.2723209E-04  0.1296059E+04  0.7818609E-02  0.9032696E-01
        2   -1    0    0  501    0  0.00000000000E+00  0.00000000000E+00  0.24206731269E+04  0.24206731269E+04  0.25500000920E-02 0. -1.
       -2   -1    0    0    0  501  0.00000000000E+00  0.00000000000E+00 -0.17348156484E+03  0.17348156486E+03  0.25500000920E-02 0.  1.
    10030    2    1    2    0    0  0.00000000000E+00  0.00000000000E+00  0.22471915621E+04  0.25941546918E+04  0.12960588907E+04 0.  0.
        2    1    3    3  502    0  0.25914097909E+03 -0.36050243399E+03  0.17876469487E+03  0.47861557444E+03  0.25500000920E-02 0.  1.
       -2    1    3    3    0  502 -0.25914097909E+03  0.36050243399E+03  0.20684268672E+04  0.21155391173E+04  0.25500000920E-02 0. -1.
</event>
<event>
 5   0  0.1002887E-04  0.1297968E+04  0.7818609E-02  0.9031178E-01
       -4   -1    0    0    0  501  0.00000000000E+00  0.00000000000E+00  0.90011526401E+03  0.90011615995E+03  0.12699999809E+01 0.  1.
        4   -1    0    0  501    0  0.00000000000E+00  0.00000000000E+00 -0.46791601552E+03  0.46791773901E+03  0.12699999809E+01 0. -1.
    10030    2    1    2    0    0  0.00000000000E+00  0.00000000000E+00  0.43219924849E+03  0.13680338990E+04  0.12979678572E+04 0.  0.
        2    1    3    3  502    0  0.39485053584E+03 -0.28589047999E+03 -0.23544230138E+03  0.54136253056E+03  0.25500000920E-02 0. -1.
       -2    1    3    3    0  502 -0.39485053584E+03  0.28589047999E+03  0.66764154988E+03  0.82667136840E+03  0.25500000920E-02 0.  1.
</event>
<event>
 5   0  0.2661377E-04  0.1297228E+04  0.7818609E-02  0.9031766E-01
        2   -1    0    0  501    0  0.00000000000E+00  0.00000000000E+00  0.33723170015E+03  0.33723170016E+03  0.25500000920E-02 0. -1.
       -2   -1    0    0    0  501  0.00000000000E+00  0.00000000000E+00 -0.12475103414E+04  0.12475103414E+04  0.25500000920E-02 0.  1.
    10030    2    1    2    0    0  0.00000000000E+00  0.00000000000E+00 -0.91027864121E+03  0.15847420415E+04  0.12972278649E+04 0.  0.
        5    1    3    3  502    0  0.40393455530E+03  0.22178378985E+03 -0.10127291579E+04  0.11126516129E+04  0.46999998093E+01 0.  1.
       -5    1    3    3    0  502 -0.40393455530E+03 -0.22178378985E+03  0.10245051672E+03  0.47209042860E+03  0.46999998093E+01 0. -1.
</event>
<event>
 5   0  0.2756984E-04  0.1299417E+04  0.7818609E-02  0.9030028E-01
       -2   -1    0    0    0  501  0.00000000000E+00  0.00000000000E+00  0.69309181611E+03  0.69309181612E+03  0.25500000920E-02 0. -1.
        2   -1    0    0  501    0  0.00000000000E+00  0.00000000000E+00 -0.60904069322E+03  0.60904069323E+03  0.25500000920E-02 0.  1.
    10030    2    1    2    0    0  0.00000000000E+00  0.00000000000E+00  0.84051122893E+02  0.13021325093E+04  0.12994169772E+04 0.  0.
        3    1    3    3  502    0  0.10406228010E+03  0.31297096934E+03  0.60296436302E+03  0.68727419496E+03  0.10100000352E+00 0. -1.
       -3    1    3    3    0  502 -0.10406228010E+03 -0.31297096934E+03 -0.51891324013E+03  0.61485831438E+03  0.10100000352E+00 0.  1.
</event>
<event>
 5   0  0.1408341E-04  0.1298643E+04  0.7818609E-02  0.9030642E-01
       -1   -1    0    0    0  501  0.00000000000E+00  0.00000000000E+00  0.38616235243E+03  0.38616235246E+03  0.50400001928E-02 0.  1.
        1   -1    0    0  501    0  0.00000000000E+00  0.00000000000E+00 -0.10918160856E+04  0.10918160856E+04  0.50400001928E-02 0. -1.
    10030    2    1    2    0    0  0.00000000000E+00  0.00000000000E+00 -0.70565373314E+03  0.14779784380E+04  0.12986427808E+04 0.  0.
        5    1    3    3  502    0  0.64763043702E+03 -0.20891149482E+02 -0.40022622110E+03  0.76161981404E+03  0.46999998093E+01 0.  1.
       -5    1    3    3    0  502 -0.64763043702E+03  0.20891149482E+02 -0.30542751204E+03  0.71635862401E+03  0.46999998093E+01 0. -1.
</event>
<event>
 5   0  0.1479690E-04  0.1302924E+04  0.7818609E-02  0.9027250E-01
       -1   -1    0    0    0  501  0.00000000000E+00  0.00000000000E+00  0.34309540588E+03  0.34309540591E+03  0.50400001928E-02 0.  1.
        1   -1    0    0  501    0  0.00000000000E+00  0.00000000000E+00 -0.12369810458E+04  0.12369810458E+04  0.50400001928E-02 0. -1.
    10030    2    1    2    0    0  0.00000000000E+00  0.00000000000E+00 -0.89388563988E+03  0.15800764517E+04  0.13029236570E+04 0.  0.
        1    1    3    3  502    0  0.23179340572E+03 -0.40601938309E+02 -0.11836374503E+04  0.12068033452E+04  0.50400001928E-02 0. -1.
       -1    1    3    3    0  502 -0.23179340572E+03  0.40601938309E+02  0.28975181041E+03  0.37327310644E+03  0.50400001928E-02 0.  1.
</event>
<event>
 5   0  0.2756984E-04  0.1300291E+04  0.7818609E-02  0.9029335E-01
        2   -1    0    0  501    0  0.00000000000E+00  0.00000000000E+00  0.31061401933E+03  0.31061401934E+03  0.25500000920E-02 0.  1.
       -2   -1    0    0    0  501  0.00000000000E+00  0.00000000000E+00 -0.13608177848E+04  0.13608177848E+04  0.25500000920E-02 0. -1.
    10030    2    1    2    0    0  0.00000000000E+00  0.00000000000E+00 -0.10502037655E+04  0.16714318042E+04  0.13002908624E+04 0.  0.
        3    1    3    3  502    0  0.43531487106E+03  0.36671495783E+03 -0.12124349202E+03  0.58196124598E+03  0.10100000352E+00 0.  1.
       -3    1    3    3    0  502 -0.43531487106E+03 -0.36671495783E+03 -0.92896027349E+03  0.10894705582E+04  0.10100000352E+00 0. -1.
</event>
<event>
 5   0  0.1476511E-04  0.1305599E+04  0.7818609E-02  0.9025137E-01
       -1   -1    0    0    0  501  0.00000000000E+00  0.00000000000E+00  0.54015491231E+03  0.54015491234E+03  0.50400001928E-02 0. -1.
        1   -1    0    0  501    0  0.00000000000E+00  0.00000000000E+00 -0.78893563554E+03  0.78893563556E+03  0.50400001928E-02 0.  1.
    10030    2    1    2    0    0  0.00000000000E+00  0.00000000000E+00 -0.24878072323E+03  0.13290905479E+04  0.13055994165E+04 0.  0.
        2    1    3    3  502    0  0.82285721520E+02  0.73090871321E+01 -0.78359311724E+03  0.78793561673E+03  0.25500000920E-02 0.  1.
       -2    1    3    3    0  502 -0.82285721520E+02 -0.73090871321E+01  0.53481239401E+03  0.54115493116E+03  0.25500000920E-02 0. -1.
</event>
<event>
 5   0  0.2573071E-04  0.1312467E+04  0.7818609E-02  0.9019736E-01
        2   -1    0    0  501    0  0.00000000000E+00  0.00000000000E+00  0.13212469269E+04  0.13212469269E+04  0.25500000920E-02 0. -1.
       -2   -1    0    0    0  501  0.00000000000E+00  0.00000000000E+00 -0.32593660067E+03  0.32593660068E+03  0.25500000920E-02 0.  1.
    10030    2    1    2    0    0  0.00000000000E+00  0.00000000000E+00  0.99531032625E+03  0.16471835276E+04  0.13124674960E+04 0.  0.
        4    1    3    3  502    0 -0.17370055586E+02  0.58669514197E+03  0.86597587918E+03  0.10461494849E+04  0.12699999809E+01 0. -1.
       -4    1    3    3    0  502  0.17370055586E+02 -0.58669514197E+03  0.12933444707E+03  0.60103404274E+03  0.12699999809E+01 0.  1.
</event>
<event>
 5   0  0.1002887E-04  0.1302308E+04  0.7818609E-02  0.9027737E-01
        3   -1    0    0  501    0  0.00000000000E+00  0.00000000000E+00  0.49875168141E+03  0.49875169164E+03  0.10100000352E+00 0. -1.
       -3   -1    0    0    0  501  0.00000000000E+00  0.00000000000E+00 -0.85012501241E+03  0.85012501841E+03  0.10100000352E+00 0.  1.
    10030    2    1    2    0    0  0.00000000000E+00  0.00000000000E+00 -0.35137333100E+03  0.13488767100E+04  0.13023076292E+04 0.  0.
        5    1    3    3  502    0  0.29280684275E+03 -0.40968237912E+03 -0.60324776314E+03  0.78581515170E+03  0.46999998093E+01 0.  1.
       -5    1    3    3    0  502 -0.29280684275E+03  0.40968237912E+03  0.25187443214E+03  0.56306155834E+03  0.46999998093E+01 0. -1.
</event>
<event>
 5   0  0.1430636E-04  0.1301287E+04  0.7818609E-02  0.9028545E-01
        1   -1    0    0  501    0  0.00000000000E+00  0.00000000000E+00  0.94479056120E+03  0.94479056121E+03  0.50400001928E-02 0. -1.
       -1   -1    0    0    0  501  0.00000000000E+00  0.00000000000E+00 -0.44807484060E+03  0.44807484063E+03  0.50400001928E-02 0.  1.
    10030    2    1    2    0    0  0.00000000000E+00  0.00000000000E+00  0.49671572060E+03  0.13928654018E+04  0.13012868710E+04 0.  0.
        4    1    3    3  502    0 -0.48626023072E+03 -0.41700673423E+03  0.37036017558E+03  0.73994047121E+03  0.12699999809E+01 0.  1.
       -4    1    3    3    0  502  0.48626023072E+03  0.41700673423E+03  0.12635554502E+03  0.65292493063E+03  0.12699999809E+01 0. -1.
</event>
<event>
 5   0  0.2573071E-04  0.1310855E+04  0.7818609E-02  0.9021001E-01
       -2   -1    0    0    0  501  0.00000000000E+00  0.00000000000E+00  0.61379079113E+03  0.61379079114E+03  0.25500000920E-02 0.  1.
        2   -1    0    0  501    0  0.00000000000E+00  0.00000000000E+00 -0.69988884864E+03  0.69988884865E+03  0.25500000920E-02 0. -1.
    10030    2    1    2    0    0  0.00000000000E+00  0.00000000000E+00 -0.86098057509E+02  0.13136796398E+04  0.13108551867E+04 0.  0.
        4    1    3    3  502    0  0.52005811055E+02 -0.10523219089E+03 -0.68926808685E+03  0.69919276801E+03  0.12699999809E+01 0. -1.
       -4    1    3    3    0  502 -0.52005811055E+02  0.10523219089E+03  0.60317002935E+03  0.61448687178E+03  0.12699999809E+01 0.  1.
</event>
<event>
 5   0  0.2794825E-04  0.1294537E+04  0.7818609E-02  0.9033909E-01
        2   -1    0    0  501    0  0.00000000000E+00  0.00000000000E+00  0.17694155457E+04  0.17694155457E+04  0.25500000920E-02 0. -1.
       -2   -1    0    0    0  501  0.00000000000E+00  0.00000000000E+00 -0.23677678576E+03  0.23677678578E+03  0.25500000920E-02 0.  1.
    10030    2    1    2    0    0  0.00000000000E+00  0.00000000000E+00  0.15326387599E+04  0.20061923314E+04  0.12945370224E+04 0.  0.
        1    1    3    3  502    0 -0.33295873677E+03 -0.35934798779E+03  0.11071633087E+03  0.50224556013E+03  0.50400001928E-02 0.  1.
       -1    1    3    3    0  502  0.33295873677E+03  0.35934798779E+03  0.14219224290E+04  0.15039467713E+04  0.50400001928E-02 0. -1.
</event>
<event>
 5   0  0.2723209E-04  0.1296204E+04  0.7818609E-02  0.9032581E-01
        2   -1    0    0  501    0  0.00000000000E+00  0.00000000000E+00  0.26839269671E+03  0.26839269673E+03  0.25500000920E-02 0.  1.
       -2   -1    0    0    0  501  0.00000000000E+00  0.00000000000E+00 -0.15650061679E+04  0.15650061679E+04  0.25500000920E-02 0. -1.
    10030    2    1    2    0    0  0.00000000000E+00  0.00000000000E+00 -0.12966134712E+04  0.18333988647E+04  0.12962040361E+04 0.  0.
        2    1    3    3  502    0 -0.61400794114E+03  0.28768325839E+01 -0.35492715379E+03  0.70921598435E+03  0.25500000920E-02 0.  1.
       -2    1    3    3    0  502  0.61400794114E+03 -0.28768325839E+01 -0.94168631744E+03  0.11241828803E+04  0.25500000920E-02 0. -1.
</event>
<event>
 5   0  0.1475396E-04  0.1298055E+04  0.7818609E-02  0.9031109E-01
       -1   -1    0    0    0  501  0.00000000000E+00  0.00000000000E+00  0.48737025907E+03  0.48737025910E+03  0.50400001928E-02 0.  1.
        1   -1    0    0  501    0  0.00000000000E+00  0.00000000000E+00 -0.86430547759E+03  0.86430547761E+03  0.50400001928E-02 0. -1.
    10030    2    1    2    0    0  0.00000000000E+00  0.00000000000E+00 -0.37693521852E+03  0.13516757367E+04  0.12980551368E+04 0.  0.
        3    1    3    3  502    0  0.18450764991E+03  0.82054888585E+02  0.45382700047E+03  0.49672430398E+03  0.10100000352E+00 0.  1.
       -3    1    3    3    0  502 -0.18450764991E+03 -0.82054888585E+02 -0.83076221899E+03  0.85495143272E+03  0.10100000352E+00 0. -1.
</event>
<event>
 5   0  0.1002887E-04  0.1299479E+04  0.7818609E-02  0.9029978E-01
        3   -1    0    0  501    0  0.00000000000E+00  0.00000000000E+00  0.69382807004E+03  0.69382807740E+03  0.10100000352E+00 0. -1.
       -3   -1    0    0    0  501  0.00000000000E+00  0.00000000000E+00 -0.60845261697E+03  0.60845262535E+03  0.10100000352E+00 0.  1.
    10030    2    1    2    0    0  0.00000000000E+00  0.00000000000E+00  0.85375453076E+02  0.13022807027E+04  0.12994791498E+04 0.  0.
        3    1    3    3  502    0  0.59594499953E+03 -0.24079132204E+03  0.13792207940E+03  0.65738376418E+03  0.10100000352E+00 0. -1.
       -3    1    3    3    0  502 -0.59594499953E+03  0.24079132204E+03 -0.52546626320E+02  0.64489693856E+03  0.10100000352E+00 0.  1.
</event>
<event>
 5   0  0.1479690E-04  0.1300515E+04  0.7818609E-02  0.9029157E-01
        1   -1    0    0  501    0  0.00000000000E+00  0.00000000000E+00  0.98484715119E+03  0.98484715120E+03  0.50400001928E-02 0.  1.
       -1   -1    0    0    0  501  0.00000000000E+00  0.00000000000E+00 -0.42934071732E+03  0.42934071734E+03  0.50400001928E-02 0. -1.
    10030    2    1    2    0    0  0.00000000000E+00  0.00000000000E+00  0.55550643387E+03  0.14141878685E+04  0.13005152554E+04 0.  0.
        1    1    3    3  502    0  0.15029603722E+03  0.21740971490E+03 -0.36829681425E+03  0.45331934257E+03  0.50400001928E-02 0. -1.
       -1    1    3    3    0  502 -0.15029603722E+03 -0.21740971490E+03  0.92380324812E+03  0.96086852597E+03  0.50400001928E-02 0.  1.
</event>
<event>
 5   0  0.1476511E-04  0.1297358E+04  0.7818609E-02  0.9031663E-01
        1   -1    0    0  501    0  0.00000000000E+00  0.00000000000E+00  0.97108303835E+03  0.97108303837E+03  0.50400001928E-02 0.  1.
       -1   -1    0    0    0  501  0.00000000000E+00  0.00000000000E+00 -0.43331476616E+03  0.43331476619E+03  0.50400001928E-02 0. -1.
    10030    2    1    2    0    0  0.00000000000E+00  0.00000000000E+00  0.53776827219E+03  0.14043978046E+04  0.12973582693E+04 0.  0.
        2    1    3    3  502    0  0.21480894927E+02 -0.32421269831E+03  0.87664081556E+03  0.93491947359E+03  0.25500000920E-02 0.  1.
       -2    1    3    3    0  502 -0.21480894927E+02  0.32421269831E+03 -0.33887254337E+03  0.46947833097E+03  0.25500000920E-02 0. -1.
</event>
<event>
 5   0  0.2723209E-04  0.1300528E+04  0.7818609E-02  0.9029146E-01
       -2   -1    0    0    0  501  0.00000000000E+00  0.00000000000E+00  0.80320089209E+03  0.80320089209E+03  0.25500000920E-02 0. -1.
        2   -1    0    0  501    0  0.00000000000E+00  0.00000000000E+00 -0.52644797626E+03  0.52644797627E+03  0.25500000920E-02 0.  1.
    10030    2    1    2    0    0  0.00000000000E+00  0.00000000000E+00  0.27675291582E+03  0.13296488684E+04  0.13005283298E+04 0.  0.
        2    1    3    3  502    0  0.35763052683E+03  0.50690597223E+03 -0.60898666295E+02  0.62334733975E+03  0.25500000920E-02 0. -1.
       -2    1    3    3    0  502 -0.35763052683E+03 -0.50690597223E+03  0.33765158212E+03  0.70630152861E+03  0.25500000920E-02 0.  1.
</event>
<event>
 5   0  0.2661377E-04  0.1300487E+04  0.7818609E-02  0.9029179E-01
        2   -1    0    0  501    0  0.00000000000E+00  0.00000000000E+00  0.14413747680E+04  0.14413747680E+04  0.25500000920E-02 0.  1.
       -2   -1    0    0    0  501  0.00000000000E+00  0.00000000000E+00 -0.29334255916E+03  0.29334255917E+03  0.25500000920E-02 0. -1.
    10030    2    1    2    0    0  0.00000000000E+00  0.00000000000E+00  0.11480322088E+04  0.17347173272E+04  0.13004869291E+04 0.  0.
        5    1    3    3  502    0  0.16561311151E+03 -0.59400576437E+03  0.29894853929E+03  0.68531953858E+03  0.46999998093E+01 0. -1.
       -5    1    3    3    0  502 -0.16561311151E+03  0.59400576437E+03  0.84908366953E+03  0.10493977886E+04  0.46999998093E+01 0.  1.
</event>
<event>
 5   0  0.1479690E-04  0.1299839E+04  0.7818609E-02  0.9029693E-01
       -1   -1    0    0    0  501  0.00000000000E+00  0.00000000000E+00  0.24907726088E+03  0.24907726094E+03  0.50400001928E-02 0. -1.
        1   -1    0    0  501    0  0.00000000000E+00  0.00000000000E+00 -0.16958409437E+04  0.16958409437E+04  0.50400001928E-02 0.  1.
    10030    2    1    2    0    0  0.00000000000E+00  0.00000000000E+00 -0.14467636828E+04  0.19449182046E+04  0.12998390934E+04 0.  0.
        1    1    3    3  502    0 -0.23773174421E+03 -0.70810655894E+02  0.17546161149E+03  0.30383763481E+03  0.50400001928E-02 0. -1.
       -1    1    3    3    0  502  0.23773174421E+03  0.70810655894E+02 -0.16222252943E+04  0.16410805698E+04  0.50400001928E-02 0.  1.
</event>
<event>
 5   0  0.2794825E-04  0.1284210E+04  0.7818609E-02  0.9042182E-01
       -2   -1    0    0    0  501  0.00000000000E+00  0.00000000000E+00  0.23550261190E+03  0.23550261191E+03  0.25500000920E-02 0. -1.
        2   -1    0    0  501    0  0.00000000000E+00  0.00000000000E+00 -0.17507176043E+04  0.17507176043E+04  0.25500000920E-02 0.  1.
    10030    2    1    2    0    0  0.00000000000E+00  0.00000000000E+00 -0.15152149924E+04  0.19862202162E+04  0.12842095912E+04 0.  0.
        1    1    3    3  502    0  0.26471662719E+02  0.63925903551E+03 -0.84155081228E+03  0.10571474037E+04  0.50400001928E-02 0. -1.
       -1    1    3    3    0  502 -0.26471662719E+02 -0.63925903551E+03 -0.67366418011E+03  0.92907281254E+03  0.50400001928E-02 0.  1.
</event>
<event>
 5   0  0.1479690E-04  0.1309856E+04  0.7818609E-02  0.9021786E-01
       -1   -1    0    0    0  501  0.00000000000E+00  0.00000000000E+00  0.61512725832E+03  0.61512725834E+03  0.50400001928E-02 0. -1.
        1   -1    0    0  501    0  0.00000000000E+00  0.00000000000E+00 -0.69730409017E+03  0.69730409019E+03  0.50400001928E-02 0.  1.
    10030    2    1    2    0    0  0.00000000000E+00  0.00000000000E+00 -0.82176831856E+02  0.13124313485E+04  0.13098561039E+04 0.  0.
        1    1    3    3  502    0 -0.28431571113E+03 -0.19092010165E+03  0.51826073145E+03  0.62119247790E+03  0.50400001928E-02 0. -1.
       -1    1    3    3    0  502  0.28431571113E+03  0.19092010165E+03 -0.60043756331E+03  0.69123887063E+03  0.50400001928E-02 0.  1.
</event>
<event>
 5   0  0.2661377E-04  0.1290899E+04  0.7818609E-02  0.9036814E-01
       -2   -1    0    0    0  501  0.00000000000E+00  0.00000000000E+00  0.18528152270E+03  0.18528152272E+03  0.25500000920E-02 0.  1.
        2   -1    0    0  501    0  0.00000000000E+00  0.00000000000E+00 -0.22484968218E+04  0.22484968218E+04  0.25500000920E-02 0. -1.
    10030    2    1    2    0    0  0.00000000000E+00  0.00000000000E+00 -0.20632152991E+04  0.24337783445E+04  0.12908987798E+04 0.  0.
        5    1    3    3  502    0  0.52868128549E+03 -0.32551226480E+03 -0.69901439839E+03  0.93493601670E+03  0.46999998093E+01 0.  1.
       -5    1    3    3    0  502 -0.52868128549E+03  0.32551226480E+03 -0.13642009007E+04  0.14988423278E+04  0.46999998093E+01 0. -1.
</event>
<event>
 5   0  0.2794825E-04  0.1299734E+04  0.7818609E-02  0.9029776E-01
        2   -1    0    0  501    0  0.00000000000E+00  0.00000000000E+00  0.33185401244E+03  0.33185401245E+03  0.25500000920E-02 0.  1.
       -2   -1    0    0    0  501  0.00000000000E+00  0.00000000000E+00 -0.12726290185E+04  0.12726290185E+04  0.25500000920E-02 0. -1.
    10030    2    1    2    0    0  0.00000000000E+00  0.00000000000E+00 -0.94077500601E+03  0.16044830309E+04  0.12997338899E+04 0.  0.
        1    1    3    3  502    0  0.36927545652E+03  0.92915048004E+02  0.17971030502E+03  0.42106218387E+03  0.50400001928E-02 0.  1.
       -1    1    3    3    0  502 -0.36927545652E+03 -0.92915048004E+02 -0.11204853110E+04  0.11834208470E+04  0.50400001928E-02 0. -1.
</event>
<event>
 5   0  0.2661377E-04  0.1282468E+04  0.7818609E-02  0.9043585E-01
       -2   -1    0    0    0  501  0.00000000000E+00  0.00000000000E+00  0.35223769427E+03  0.35223769428E+03  0.25500000920E-02 0.  1.
        2   -1    0    0  501    0  0.00000000000E+00  0.00000000000E+00 -0.11673401073E+04  0.11673401073E+04  0.25500000920E-02 0. -1.
    10030    2    1    2    0    0  0.00000000000E+00  0.00000000000E+00 -0.81510241303E+03  0.15195778016E+04  0.12824682262E+04 0.  0.
        5    1    3    3  502    0 -0.62121376297E+03 -0.75980765662E+02 -0.57292436687E+03  0.84849515980E+03  0.46999998093E+01 0. -1.
       -5    1    3    3    0  502  0.62121376297E+03  0.75980765662E+02 -0.24217804616E+03  0.67108264178E+03  0.46999998093E+01 0.  1.
</event>
<event>
 5   0  0.2661377E-04  0.1299151E+04  0.7818609E-02  0.9030239E-01
       -2   -1    0    0    0  501  0.00000000000E+00  0.00000000000E+00  0.35823169859E+03  0.35823169860E+03  0.25500000920E-02 0.  1.
        2   -1    0    0  501    0  0.00000000000E+00  0.00000000000E+00 -0.11778646721E+04  0.11778646721E+04  0.25500000920E-02 0. -1.
    10030    2    1    2    0    0  0.00000000000E+00  0.00000000000E+00 -0.81963297347E+03  0.15360963707E+04  0.12991512032E+04 0.  0.
        5    1    3    3  502    0 -0.34749420920E+03  0.25719473772E+03 -0.98302919002E+03  0.10739040166E+04  0.46999998093E+01 0. -1.
       -5    1    3    3    0  502  0.34749420920E+03 -0.25719473772E+03  0.16339621654E+03  0.46219235402E+03  0.46999998093E+01 0.  1.
</event>
<event>
 5   0  0.1476511E-04  0.1300462E+04  0.7818609E-02  0.9029199E-01
       -1   -1    0    0    0  501  0.00000000000E+00  0.00000000000E+00  0.70882504656E+03  0.70882504658E+03  0.50400001928E-02 0.  1.
        1   -1    0    0  501    0  0.00000000000E+00  0.00000000000E+00 -0.59648071308E+03  0.59648071310E+03  0.50400001928E-02 0. -1.
    10030    2    1    2    0    0  0.00000000000E+00  0.00000000000E+00  0.11234433348E+03  0.13053057597E+04  0.13004621782E+04 0.  0.
        2    1    3    3  502    0  0.41497407771E+03 -0.23192253714E+03  0.50145599045E+03  0.69097732146E+03  0.25500000920E-02 0.  1.
       -2    1    3    3    0  502 -0.41497407771E+03  0.23192253714E+03 -0.38911165697E+03  0.61432843822E+03  0.25500000920E-02 0. -1.
</event>
<event>
 5   0  0.2756984E-04  0.1299527E+04  0.7818609E-02  0.9029941E-01
       -2   -1    0    0    0  501  0.00000000000E+00  0.00000000000E+00  0.17970928692E+04  0.17970928692E+04  0.25500000920E-02 0.  1.
        2   -1    0    0  501    0  0.00000000000E+00  0.00000000000E+00 -0.23493074598E+03  0.23493074600E+03  0.25500000920E-02 0. -1.
    10030    2    1    2    0    0  0.00000000000E+00  0.00000000000E+00  0.15621621232E+04  0.20320236152E+04  0.12995266344E+04 0.  0.
        3    1    3    3  502    0  0.55154128568E+03 -0.71151889111E+01  0.24407228195E+03  0.60317468841E+03  0.10100000352E+00 0. -1.
       -3    1    3    3    0  502 -0.55154128568E+03  0.71151889111E+01  0.13180898413E+04  0.14288489268E+04  0.10100000352E+00 0.  1.
</event>
<event>
 5   0  0.1476511E-04  0.1297523E+04  0.7818609E-02  0.9031532E-01
       -1   -1    0    0    0  501  0.00000000000E+00  0.00000000000E+00  0.57699946326E+03  0.57699946328E+03  0.50400001928E-02 0. -1.
        1   -1    0    0  501    0  0.00000000000E+00  0.00000000000E+00 -0.72944837605E+03  0.72944837607E+03  0.50400001928E-02 0.  1.
    10030    2    1    2    0    0  0.00000000000E+00  0.00000000000E+00 -0.15244891280E+03  0.13064478394E+04  0.12975227497E+04 0.  0.
        2    1    3    3  502    0  0.57825640250E+03  0.20723249857E+03  0.13393487320E+03  0.62870050562E+03  0.25500000920E-02 0. -1.
       -2    1    3    3    0  502 -0.57825640250E+03 -0.20723249857E+03 -0.28638378600E+03  0.67774733374E+03  0.25500000920E-02 0.  1.
</event>
<event>
 5   0  0.2573071E-04  0.1300975E+04  0.7818609E-02  0.9028792E-01
       -2   -1    0    0    0  501  0.00000000000E+00  0.00000000000E+00  0.58462994980E+03  0.58462994981E+03  0.25500000920E-02 0. -1.
        2   -1    0    0  501    0  0.00000000000E+00  0.00000000000E+00 -0.72376382301E+03  0.72376382302E+03  0.25500000920E-02 0.  1.
    10030    2    1    2    0    0  0.00000000000E+00  0.00000000000E+00 -0.13913387321E+03  0.13083937728E+04  0.13009750305E+04 0.  0.
        4    1    3    3  502    0 -0.63837886185E+03 -0.10998590435E+03 -0.10001461809E+02  0.64786272663E+03  0.12699999809E+01 0.  1.
       -4    1    3    3    0  502  0.63837886185E+03  0.10998590435E+03 -0.12913241141E+03  0.66053104620E+03  0.12699999809E+01 0. -1.
</event>
<event>
 5   0  0.1475396E-04  0.1300439E+04  0.7818609E-02  0.9029217E-01
        1   -1    0    0  501    0  0.00000000000E+00  0.00000000000E+00  0.83307099484E+03  0.83307099486E+03  0.50400001928E-02 0.  1.
       -1   -1    0    0    0  501  0.00000000000E+00  0.00000000000E+00 -0.50750246726E+03  0.50750246728E+03  0.50400001928E-02 0. -1.
    10030    2    1    2    0    0  0.00000000000E+00  0.00000000000E+00  0.32556852759E+03  0.13405734621E+04  0.13004392878E+04 0.  0.
        3    1    3    3  502    0 -0.60404009237E+03  0.63444721364E+02 -0.76535429650E+02  0.61216611149E+03  0.10100000352E+00 0. -1.
       -3    1    3    3    0  502  0.60404009237E+03 -0.63444721364E+02  0.40210395724E+03  0.72840735065E+03  0.10100000352E+00 0.  1.
</event>
<event>
 5   0  0.2756984E-04  0.1300178E+04  0.7818609E-02  0.9029424E-01
       -2   -1    0    0    0  501  0.00000000000E+00  0.00000000000E+00  0.20188794297E+03  0.20188794298E+03  0.25500000920E-02 0. -1.
        2   -1    0    0  501    0  0.00000000000E+00  0.00000000000E+00 -0.20933182312E+04  0.20933182312E+04  0.25500000920E-02 0.  1.
    10030    2    1    2    0    0  0.00000000000E+00  0.00000000000E+00 -0.18914302883E+04  0.22952061742E+04  0.13001780058E+04 0.  0.
        3    1    3    3  502    0  0.10656991138E+03  0.97530288618E+01  0.18623195452E+03  0.21478970801E+03  0.10100000352E+00 0. -1.
       -3    1    3    3    0  502 -0.10656991138E+03 -0.97530288618E+01 -0.20776622428E+04  0.20804164662E+04  0.10100000352E+00 0.  1.
</event>
<event>
 5   0  0.1430636E-04  0.1301826E+04  0.7818609E-02  0.9028119E-01
        1   -1    0    0  501    0  0.00000000000E+00  0.00000000000E+00  0.91996253965E+03  0.91996253967E+03  0.50400001928E-02 0. -1.
       -1   -1    0    0    0  501  0.00000000000E+00  0.00000000000E+00 -0.46054861575E+03  0.46054861578E+03  0.50400001928E-02 0.  1.
    10030    2    1    2    0    0  0.00000000000E+00  0.00000000000E+00  0.45941392390E+03  0.13805111554E+04  0.13018256015E+04 0.  0.
        4    1    3    3  502    0  0.24961174200E+03 -0.56490263429E+02 -0.40495584249E+03  0.47904907773E+03  0.12699999809E+01 0.  1.
       -4    1    3    3    0  502 -0.24961174200E+03  0.56490263429E+02  0.86436976639E+03  0.90146207772E+03  0.12699999809E+01 0. -1.
</event>
<event>
 5   0  0.2794825E-04  0.1300498E+04  0.7818609E-02  0.9029170E-01
        2   -1    0    0  501    0  0.00000000000E+00  0.00000000000E+00  0.98615702498E+03  0.98615702499E+03  0.25500000920E-02 0.  1.
       -2   -1    0    0    0  501  0.00000000000E+00  0.00000000000E+00 -0.42875932349E+03  0.42875932350E+03  0.25500000920E-02 0. -1.
    10030    2    1    2    0    0  0.00000000000E+00  0.00000000000E+00  0.55739770149E+03  0.14149163485E+04  0.13004983951E+04 0.  0.
        1    1    3    3  502    0 -0.28046564142E+03  0.38586491769E+03 -0.20207425108E+03  0.51806053092E+03  0.50400001928E-02 0. -1.
       -1    1    3    3    0  502  0.28046564142E+03 -0.38586491769E+03  0.75947195258E+03  0.89685581756E+03  0.50400001928E-02 0.  1.
</event>
<event>
 5   0  0.1408341E-04  0.1300548E+04  0.7818609E-02  0.9029131E-01
        1   -1    0    0  501    0  0.00000000000E+00  0.00000000000E+00  0.79488674712E+03  0.79488674713E+03  0.50400001928E-02 0.  1.
       -1   -1    0    0    0  501  0.00000000000E+00  0.00000000000E+00 -0.53197016171E+03  0.53197016173E+03  0.50400001928E-02 0. -1.
    10030    2    1    2    0    0  0.00000000000E+00  0.00000000000E+00  0.26291658541E+03  0.13268569089E+04  0.13005476253E+04 0.  0.
        5    1    3    3  502    0 -0.51841051353E+03  0.30350872214E+03 -0.12250903116E+03  0.61310485047E+03  0.46999998093E+01 0. -1.
       -5    1    3    3    0  502  0.51841051353E+03 -0.30350872214E+03  0.38542561657E+03  0.71375205840E+03  0.46999998093E+01 0.  1.
</event>
<event>
 5   0  0.1430636E-04  0.1297746E+04  0.7818609E-02  0.9031354E-01
        1   -1    0    0  501    0  0.00000000000E+00  0.00000000000E+00  0.13428308854E+04  0.13428308854E+04  0.50400001928E-02 0. -1.
       -1   -1    0    0    0  501  0.00000000000E+00  0.00000000000E+00 -0.31354388033E+03  0.31354388037E+03  0.50400001928E-02 0.  1.
    10030    2    1    2    0    0  0.00000000000E+00  0.00000000000E+00  0.10292870051E+04  0.16563747658E+04  0.12977463643E+04 0.  0.
        4    1    3    3  502    0  0.38254433831E+03  0.85920312341E+02  0.11745437247E+04  0.12382556460E+04  0.12699999809E+01 0. -1.
       -4    1    3    3    0  502 -0.38254433831E+03 -0.85920312341E+02 -0.14525671957E+03  0.41811911978E+03  0.12699999809E+01 0.  1.
</event>
<event>
 5   0  0.2756984E-04  0.1298909E+04  0.7818609E-02  0.9030431E-01
       -2   -1    0    0    0  501  0.00000000000E+00  0.00000000000E+00  0.38285155416E+03  0.38285155417E+03  0.25500000920E-02 0.  1.
        2   -1    0    0  501    0  0.00000000000E+00  0.00000000000E+00 -0.11017092212E+04  0.11017092212E+04  0.25500000920E-02 0. -1.
    10030    2    1    2    0    0  0.00000000000E+00  0.00000000000E+00 -0.71885766703E+03  0.14845607754E+04  0.12989089076E+04 0.  0.
        3    1    3    3  502    0 -0.44880255373E+03  0.38464396525E+03 -0.66699435404E+03  0.89121051989E+03  0.10100000352E+00 0. -1.
       -3    1    3    3    0  502  0.44880255373E+03 -0.38464396525E+03 -0.51863312984E+02  0.59335025547E+03  0.10100000352E+00 0.  1.
</event>
<event>
 5   0  0.1408341E-04  0.1307665E+04  0.7818609E-02  0.9023508E-01
        1   -1    0    0  501    0  0.00000000000E+00  0.00000000000E+00  0.63875226010E+03  0.63875226012E+03  0.50400001928E-02 0.  1.
       -1   -1    0    0    0  501  0.00000000000E+00  0.00000000000E+00 -0.66926919195E+03  0.66926919196E+03  0.50400001928E-02 0. -1.
    10030    2    1    2    0    0  0.00000000000E+00  0.00000000000E+00 -0.30516931850E+02  0.13080214521E+04  0.13076654144E+04 0.  0.
        5    1    3    3  502    0 -0.41206306731E+03 -0.42018090155E+03  0.26964737901E+03  0.64736370031E+03  0.46999998093E+01 0.  1.
       -5    1    3    3    0  502  0.41206306731E+03  0.42018090155E+03 -0.30016431086E+03  0.66065775177E+03  0.46999998093E+01 0. -1.
</event>
<event>
 5   0  0.1475396E-04  0.1298384E+04  0.7818609E-02  0.9030848E-01
       -1   -1    0    0    0  501  0.00000000000E+00  0.00000000000E+00  0.80424777490E+03  0.80424777491E+03  0.50400001928E-02 0.  1.
        1   -1    0    0  501    0  0.00000000000E+00  0.00000000000E+00 -0.52403034003E+03  0.52403034005E+03  0.50400001928E-02 0. -1.
    10030    2    1    2    0    0  0.00000000000E+00  0.00000000000E+00  0.28021743487E+03  0.13282781150E+04  0.12983839724E+04 0.  0.
        3    1    3    3  502    0 -0.45353598480E+03  0.17936968851E+03 -0.29822082537E+03  0.57166777550E+03  0.10100000352E+00 0. -1.
       -3    1    3    3    0  502  0.45353598480E+03 -0.17936968851E+03  0.57843826024E+03  0.75661033946E+03  0.10100000352E+00 0.  1.
</event>
<event>
 5   0  0.1476511E-04  0.1299339E+04  0.7818609E-02  0.9030089E-01
       -1   -1    0    0    0  501  0.00000000000E+00  0.00000000000E+00  0.29984949135E+03  0.29984949139E+03  0.50400001928E-02 0.  1.
        1   -1    0    0  501    0  0.00000000000E+00  0.00000000000E+00 -0.14076087396E+04  0.14076087396E+04  0.50400001928E-02 0. -1.
    10030    2    1    2    0    0  0.00000000000E+00  0.00000000000E+00 -0.11077592482E+04  0.17074582310E+04  0.12993394701E+04 0.  0.
        2    1    3    3  502    0 -0.42978374805E+02 -0.37463955099E+03  0.14131230891E+03  0.40270473367E+03  0.25500000920E-02 0.  1.
       -2    1    3    3    0  502  0.42978374805E+02  0.37463955099E+03 -0.12490715572E+04  0.13047534973E+04  0.25500000920E-02 0. -1.
</event>
<event>
 5   0  0.2723209E-04  0.1306778E+04  0.7818609E-02  0.9024207E-01
        2   -1    0    0  501    0  0.00000000000E+00  0.00000000000E+00  0.65620806521E+03  0.65620806521E+03  0.25500000920E-02 0. -1.
       -2   -1    0    0    0  501  0.00000000000E+00  0.00000000000E+00 -0.65058246788E+03  0.65058246788E+03  0.25500000920E-02 0.  1.
    10030    2    1    2    0    0  0.00000000000E+00  0.00000000000E+00  0.56255973307E+01  0.13067905331E+04  0.13067784242E+04 0.  0.
        2    1    3    3  502    0  0.42543577922E+03  0.41419795210E+03 -0.26988354316E+03  0.65222133716E+03  0.25500000920E-02 0.  1.
       -2    1    3    3    0  502 -0.42543577922E+03 -0.41419795210E+03  0.27550914049E+03  0.65456919594E+03  0.25500000920E-02 0. -1.
</event>
<event>
 5   0  0.1476511E-04  0.1300251E+04  0.7818609E-02  0.9029366E-01
        1   -1    0    0  501    0  0.00000000000E+00  0.00000000000E+00  0.46336278471E+03  0.46336278473E+03  0.50400001928E-02 0.  1.
       -1   -1    0    0    0  501  0.00000000000E+00  0.00000000000E+00 -0.91216430214E+03  0.91216430215E+03  0.50400001928E-02 0. -1.
    10030    2    1    2    0    0  0.00000000000E+00  0.00000000000E+00 -0.44880151743E+03  0.13755270869E+04  0.13002507315E+04 0.  0.
        2    1    3    3  502    0 -0.25386468922E+02 -0.50282157691E+03  0.21073830853E+03  0.54578809597E+03  0.25500000920E-02 0. -1.
       -2    1    3    3    0  502  0.25386468922E+02  0.50282157691E+03 -0.65953982596E+03  0.82973899092E+03  0.25500000920E-02 0.  1.
</event>
<event>
 5   0  0.1476511E-04  0.1292381E+04  0.7818609E-02  0.9035629E-01
       -1   -1    0    0    0  501  0.00000000000E+00  0.00000000000E+00  0.54623986675E+03  0.54623986678E+03  0.50400001928E-02 0.  1.
        1   -1    0    0  501    0  0.00000000000E+00  0.00000000000E+00 -0.76442952201E+03  0.76442952203E+03  0.50400001928E-02 0. -1.
    10030    2    1    2    0    0  0.00000000000E+00  0.00000000000E+00 -0.21818965526E+03  0.13106693888E+04  0.12923805636E+04 0.  0.
        2    1    3    3  502    0 -0.61408584425E+03 -0.20085875007E+03 -0.98161793292E+02  0.65351465114E+03  0.25500000920E-02 0. -1.
       -2    1    3    3    0  502  0.61408584425E+03  0.20085875007E+03 -0.12002786197E+03  0.65715473767E+03  0.25500000920E-02 0.  1.
</event>
<event>
 5   0  0.1475396E-04  0.1297468E+04  0.7818609E-02  0.9031576E-01
       -1   -1    0    0    0  501  0.00000000000E+00  0.00000000000E+00  0.54934699164E+03  0.54934699166E+03  0.50400001928E-02 0.  1.
        1   -1    0    0  501    0  0.00000000000E+00  0.00000000000E+00 -0.76610178410E+03  0.76610178412E+03  0.50400001928E-02 0. -1.
    10030    2    1    2    0    0  0.00000000000E+00  0.00000000000E+00 -0.21675479247E+03  0.13154487758E+04  0.12974678577E+04 0.  0.
        3    1    3    3  502    0  0.55205065110E+03  0.14514882796E+03  0.20416015561E+03  0.60622560403E+03  0.10100000352E+00 0.  1.
       -3    1    3    3    0  502 -0.55205065110E+03 -0.14514882796E+03 -0.42091494808E+03  0.70922317176E+03  0.10100000352E+00 0. -1.
</event>
<event>
 5   0  0.2794825E-04  0.1299616E+04  0.7818609E-02  0.9029869E-01
        2   -1    0    0  501    0  0.00000000000E+00  0.00000000000E+00  0.92659751210E+03  0.92659751211E+03  0.25500000920E-02 0. -1.
       -2   -1    0    0    0  501  0.00000000000E+00  0.00000000000E+00 -0.45570028429E+03  0.45570028429E+03  0.25500000920E-02 0.  1.
    10030    2    1    2    0    0  0.00000000000E+00  0.00000000000E+00  0.47089722782E+03  0.13822977964E+04  0.12996164814E+04 0.  0.
        1    1    3    3  502    0  0.34214630024E+03  0.75098041516E+02 -0.34667987161E+03  0.49283946677E+03  0.50400001928E-02 0.  1.
       -1    1    3    3    0  502 -0.34214630024E+03 -0.75098041516E+02  0.81757709943E+03  0.88945832963E+03  0.50400001928E-02 0. -1.
</event>
<event>
 5   0  0.2573071E-04  0.1296402E+04  0.7818609E-02  0.9032423E-01
        2   -1    0    0  501    0  0.00000000000E+00  0.00000000000E+00  0.13406690423E+04  0.13406690423E+04  0.25500000920E-02 0.  1.
       -2   -1    0    0    0  501  0.00000000000E+00  0.00000000000E+00 -0.31339917003E+03  0.31339917004E+03  0.25500000920E-02 0. -1.
    10030    2    1    2    0    0  0.00000000000E+00  0.00000000000E+00  0.10272698723E+04  0.16540682123E+04  0.12964020444E+04 0.  0.
        4    1    3    3  502    0  0.34966000073E+03 -0.49525671855E+03  0.22095307319E+03  0.64526212258E+03  0.12699999809E+01 0. -1.
       -4    1    3    3    0  502 -0.34966000073E+03  0.49525671855E+03  0.80631679906E+03  0.10088060898E+04  0.12699999809E+01 0.  1.
</event>
<event>
 5   0  0.1479690E-04  0.1292067E+04  0.7818609E-02  0.9035880E-01
       -1   -1    0    0    0  501  0.00000000000E+00  0.00000000000E+00  0.50291917842E+03  0.50291917845E+03  0.50400001928E-02 0. -1.
        1   -1    0    0  501    0  0.00000000000E+00  0.00000000000E+00 -0.82987320528E+03  0.82987320530E+03  0.50400001928E-02 0.  1.
    10030    2    1    2    0    0  0.00000000000E+00  0.00000000000E+00 -0.32695402686E+03  0.13327923837E+04  0.12920667949E+04 0.  0.
        1    1    3    3  502    0  0.11702452803E+03 -0.46883300043E+03  0.27882732354E+03  0.55789228246E+03  0.50400001928E-02 0. -1.
       -1    1    3    3    0  502 -0.11702452803E+03  0.46883300043E+03 -0.60578135041E+03  0.77490010129E+03  0.50400001928E-02 0.  1.
</event>
<event>
 5   0  0.2794825E-04  0.1294864E+04  0.7818609E-02  0.9033648E-01
        2   -1    0    0  501    0  0.00000000000E+00  0.00000000000E+00  0.65386202255E+03  0.65386202255E+03  0.25500000920E-02 0. -1.
       -2   -1    0    0    0  501  0.00000000000E+00  0.00000000000E+00 -0.64106485788E+03  0.64106485789E+03  0.25500000920E-02 0.  1.
    10030    2    1    2    0    0  0.00000000000E+00  0.00000000000E+00  0.12797164664E+02  0.12949268804E+04  0.12948636447E+04 0.  0.
        1    1    3    3  502    0 -0.90685048093E+02  0.63523140659E+03  0.92572661544E+02  0.64831505887E+03  0.50400001928E-02 0.  1.
       -1    1    3    3    0  502  0.90685048093E+02 -0.63523140659E+03 -0.79775496880E+02  0.64661182157E+03  0.50400001928E-02 0. -1.
</event>
<event>
 5   0  0.2573071E-04  0.1299413E+04  0.7818609E-02  0.9030031E-01
       -2   -1    0    0    0  501  0.00000000000E+00  0.00000000000E+00  0.80112207173E+03  0.80112207174E+03  0.25500000920E-02 0. -1.
        2   -1    0    0  501    0  0.00000000000E+00  0.00000000000E+00 -0.52690887999E+03  0.52690888000E+03  0.25500000920E-02 0.  1.
    10030    2    1    2    0    0  0.00000000000E+00  0.00000000000E+00  0.27421319174E+03  0.13280309517E+04  0.12994126882E+04 0.  0.
        4    1    3    3  502    0 -0.56625937654E+02  0.14064301350E+03 -0.50857462124E+03  0.53069455653E+03  0.12699999809E+01 0.  1.
       -4    1    3    3    0  502  0.56625937654E+02 -0.14064301350E+03  0.78278781298E+03  0.79733639520E+03  0.12699999809E+01 0. -1.
</event>
<event>
 5   0  0.2661377E-04  0.1302430E+04  0.7818609E-02  0.9027641E-01
       -2   -1    0    0    0  501  0.00000000000E+00  0.00000000000E+00  0.93514080271E+03  0.93514080271E+03  0.25500000920E-02 0. -1.
        2   -1    0    0  501    0  0.00000000000E+00  0.00000000000E+00 -0.45349404080E+03  0.45349404081E+03  0.25500000920E-02 0.  1.
    10030    2    1    2    0    0  0.00000000000E+00  0.00000000000E+00  0.48164676190E+03  0.13886348435E+04  0.13024297007E+04 0.  0.
        5    1    3    3  502    0  0.19396311736E+03  0.55052441702E+03 -0.67007562059E+02  0.58754653263E+03  0.46999998093E+01 0.  1.
       -5    1    3    3    0  502 -0.19396311736E+03 -0.55052441702E+03  0.54865432396E+03  0.80108831089E+03  0.46999998093E+01 0. -1.
</event>
<event>
 5   0  0.2794825E-04  0.1289760E+04  0.7818609E-02  0.9037725E-01
        2   -1    0    0  501    0  0.00000000000E+00  0.00000000000E+00  0.19115652103E+04  0.19115652103E+04  0.25500000920E-02 0. -1.
       -2   -1    0    0    0  501  0.00000000000E+00  0.00000000000E+00 -0.21755486053E+03  0.21755486054E+03  0.25500000920E-02 0.  1.
    10030    2    1    2    0    0  0.00000000000E+00  0.00000000000E+00  0.16940103498E+04  0.21291200709E+04  0.12897601370E+04 0.  0.
        1    1    3    3  502    0 -0.75293314230E+01  0.64250525735E+03  0.75657867897E+03  0.99261321473E+03  0.50400001928E-02 0.  1.
       -1    1    3    3    0  502  0.75293314230E+01 -0.64250525735E+03  0.93743167085E+03  0.11365068562E+04  0.50400001928E-02 0. -1.
</event>
<event>
 5   0  0.2661377E-04  0.1301225E+04  0.7818609E-02  0.9028595E-01
        2   -1    0    0  501    0  0.00000000000E+00  0.00000000000E+00  0.14211791221E+04  0.14211791222E+04  0.25500000920E-02 0.  1.
       -2   -1    0    0    0  501  0.00000000000E+00  0.00000000000E+00 -0.29784875698E+03  0.29784875699E+03  0.25500000920E-02 0. -1.
    10030    2    1    2    0    0  0.00000000000E+00  0.00000000000E+00  0.11233303652E+04  0.17190278791E+04  0.13012247077E+04 0.  0.
        5    1    3    3  502    0  0.40805616790E+03  0.23791928367E+03 -0.29376482298E+02  0.47328689969E+03  0.46999998093E+01 0. -1.
       -5    1    3    3    0  502 -0.40805616790E+03 -0.23791928367E+03  0.11527068475E+04  0.12457409795E+04  0.46999998093E+01 0.  1.
</event>
<event>
 5   0  0.2794825E-04  0.1300592E+04  0.7818609E-02  0.9029096E-01
       -2   -1    0    0    0  501  0.00000000000E+00  0.00000000000E+00  0.63546359518E+03  0.63546359518E+03  0.25500000920E-02 0. -1.
        2   -1    0    0  501    0  0.00000000000E+00  0.00000000000E+00 -0.66547412032E+03  0.66547412033E+03  0.25500000920E-02 0.  1.
    10030    2    1    2    0    0  0.00000000000E+00  0.00000000000E+00 -0.30010525145E+02  0.13009377155E+04  0.13005915224E+04 0.  0.
        1    1    3    3  502    0  0.27995786184E+03 -0.58636780611E+03  0.11097057237E+02  0.64986671953E+03  0.50400001928E-02 0.  1.
       -1    1    3    3    0  502 -0.27995786184E+03  0.58636780611E+03 -0.41107582382E+02  0.65107099598E+03  0.50400001928E-02 0. -1.
</event>
<event>
 5   0  0.1430636E-04  0.1301222E+04  0.7818609E-02  0.9028597E-01
       -1   -1    0    0    0  501  0.00000000000E+00  0.00000000000E+00  0.39994771656E+03  0.39994771659E+03  0.50400001928E-02 0. -1.
        1   -1    0    0  501    0  0.00000000000E+00  0.00000000000E+00 -0.10583744079E+04  0.10583744079E+04  0.50400001928E-02 0.  1.
    10030    2    1    2    0    0  0.00000000000E+00  0.00000000000E+00 -0.65842669133E+03  0.14583221245E+04  0.13012216225E+04 0.  0.
        4    1    3    3  502    0 -0.12749574131E+02  0.41670977955E+03  0.23057372840E+03  0.47641940467E+03  0.12699999809E+01 0. -1.
       -4    1    3    3    0  502  0.12749574131E+02 -0.41670977955E+03 -0.88900041973E+03  0.98190271982E+03  0.12699999809E+01 0.  1.
</event>
<event>
 5   0  0.1475396E-04  0.1300065E+04  0.7818609E-02  0.9029513E-01
        1   -1    0    0  501    0  0.00000000000E+00  0.00000000000E+00  0.31985545720E+03  0.31985545724E+03  0.50400001928E-02 0. -1.
       -1   -1    0    0    0  501  0.00000000000E+00  0.00000000000E+00 -0.13210417523E+04  0.13210417523E+04  0.50400001928E-02 0.  1.
    10030    2    1    2    0    0  0.00000000000E+00  0.00000000000E+00 -0.10011862951E+04  0.16408972096E+04  0.13000652502E+04 0.  0.
        3    1    3    3  502    0  0.17631982764E+03  0.54699813223E+03 -0.11724638549E+03  0.58655124532E+03  0.10100000352E+00 0. -1.
       -3    1    3    3    0  502 -0.17631982764E+03 -0.54699813223E+03 -0.88393990962E+03  0.10543459642E+04  0.10100000352E+00 0.  1.
</event>
<event>
 5   0  0.2794825E-04  0.1300545E+04  0.7818609E-02  0.9029133E-01
       -2   -1    0    0    0  501  0.00000000000E+00  0.00000000000E+00  0.27332990526E+03  0.27332990527E+03  0.25500000920E-02 0.  1.
        2   -1    0    0  501    0  0.00000000000E+00  0.00000000000E+00 -0.15470483185E+04  0.15470483185E+04  0.25500000920E-02 0. -1.
    10030    2    1    2    0    0  0.00000000000E+00  0.00000000000E+00 -0.12737184132E+04  0.18203782237E+04  0.13005453784E+04 0.  0.
        1    1    3    3  502    0  0.51652862439E+03  0.94906682487E+02 -0.10012169362E+03  0.53463394183E+03  0.50400001928E-02 0.  1.
       -1    1    3    3    0  502 -0.51652862439E+03 -0.94906682487E+02 -0.11735967196E+04  0.12857442819E+04  0.50400001928E-02 0. -1.
</event>
<event>
 5   0  0.1476511E-04  0.1298172E+04  0.7818609E-02  0.9031016E-01
       -1   -1    0    0    0  501  0.00000000000E+00  0.00000000000E+00  0.73363381383E+03  0.73363381385E+03  0.50400001928E-02 0. -1.
        1   -1    0    0  501    0  0.00000000000E+00  0.00000000000E+00 -0.57428194466E+03  0.57428194468E+03  0.50400001928E-02 0.  1.
    10030    2    1    2    0    0  0.00000000000E+00  0.00000000000E+00  0.15935186917E+03  0.13079157585E+04  0.12981720276E+04 0.  0.
        2    1    3    3  502    0  0.22541354644E+03 -0.16578438580E+03  0.66974833185E+03  0.72585023077E+03  0.25500000920E-02 0. -1.
       -2    1    3    3    0  502 -0.22541354644E+03  0.16578438580E+03 -0.51039646267E+03  0.58206552776E+03  0.25500000920E-02 0.  1.
</event>
<event>
 5   0  0.2723209E-04  0.1303228E+04  0.7818609E-02  0.9027009E-01
       -2   -1    0    0    0  501  0.00000000000E+00  0.00000000000E+00  0.10131599565E+04  0.10131599565E+04  0.25500000920E-02 0. -1.
        2   -1    0    0  501    0  0.00000000000E+00  0.00000000000E+00 -0.41908555529E+03  0.41908555529E+03  0.25500000920E-02 0.  1.
    10030    2    1    2    0    0  0.00000000000E+00  0.00000000000E+00  0.59407440125E+03  0.14322455118E+04  0.13032278435E+04 0.  0.
        2    1    3    3  502    0  0.51686529050E+03  0.39584295566E+03  0.26675328068E+03  0.70356143074E+03  0.25500000920E-02 0. -1.
       -2    1    3    3    0  502 -0.51686529050E+03 -0.39584295566E+03  0.32732112057E+03  0.72868408110E+03  0.25500000920E-02 0.  1.
</event>
<event>
 5   0  0.1430636E-04  0.1301967E+04  0.7818609E-02  0.9028007E-01
       -1   -1    0    0    0  501  0.00000000000E+00  0.00000000000E+00  0.38328630464E+03  0.38328630467E+03  0.50400001928E-02 0. -1.
        1   -1    0    0  501    0  0.00000000000E+00  0.00000000000E+00 -0.11056471976E+04  0.11056471977E+04  0.50400001928E-02 0.  1.
    10030    2    1    2    0    0  0.00000000000E+00  0.00000000000E+00 -0.72236089301E+03  0.14889335023E+04  0.13019668639E+04 0.  0.
        4    1    3    3  502    0 -0.94544291483E+02  0.44928789394E+03  0.16658913426E+03  0.48841763610E+03  0.12699999809E+01 0. -1.
       -4    1    3    3    0  502  0.94544291483E+02 -0.44928789394E+03 -0.88895002727E+03  0.10005158662E+04  0.12699999809E+01 0.  1.
</event>
<event>
 5   0  0.2661377E-04  0.1299287E+04  0.7818609E-02  0.9030131E-01
        2   -1    0    0  501    0  0.00000000000E+00  0.00000000000E+00  0.81104637269E+03  0.81104637270E+03  0.25500000920E-02 0. -1.
       -2   -1    0    0    0  501  0.00000000000E+00  0.00000000000E+00 -0.52036071035E+03  0.52036071036E+03  0.25500000920E-02 0.  1.
    10030    2    1    2    0    0  0.00000000000E+00  0.00000000000E+00  0.29068566235E+03  0.13314070831E+04  0.12992869839E+04 0.  0.
        5    1    3    3  502    0  0.17430694420E+02 -0.64034363230E+02 -0.51686056081E+03  0.52112489683E+03  0.46999998093E+01 0.  1.
       -5    1    3    3    0  502 -0.17430694420E+02  0.64034363230E+02  0.80754622315E+03  0.81028218622E+03  0.46999998093E+01 0. -1.
</event>
<event>
 5   0  0.1430636E-04  0.1299822E+04  0.7818609E-02  0.9029706E-01
        1   -1    0    0  501    0  0.00000000000E+00  0.00000000000E+00  0.16732125278E+04  0.16732125278E+04  0.50400001928E-02 0. -1.
       -1   -1    0    0    0  501  0.00000000000E+00  0.00000000000E+00 -0.25243904322E+03  0.25243904327E+03  0.50400001928E-02 0.  1.
    10030    2    1    2    0    0  0.00000000000E+00  0.00000000000E+00  0.14207734845E+04  0.19256515711E+04  0.12998217873E+04 0.  0.
        4    1    3    3  502    0 -0.11772249180E+03  0.48903398382E+03  0.13200805712E+04  0.14126666803E+04  0.12699999809E+01 0. -1.
       -4    1    3    3    0  502  0.11772249180E+03 -0.48903398382E+03  0.10069291335E+03  0.51298489071E+03  0.12699999809E+01 0.  1.
</event>
<event>
 5   0  0.2794825E-04  0.1299688E+04  0.7818609E-02  0.9029813E-01
        2   -1    0    0  501    0  0.00000000000E+00  0.00000000000E+00  0.98821819810E+03  0.98821819810E+03  0.25500000920E-02 0. -1.
       -2   -1    0    0    0  501  0.00000000000E+00  0.00000000000E+00 -0.42733174597E+03  0.42733174598E+03  0.25500000920E-02 0.  1.
    10030    2    1    2    0    0  0.00000000000E+00  0.00000000000E+00  0.56088645213E+03  0.14155499441E+04  0.12996876671E+04 0.  0.
        1    1    3    3  502    0  0.43115750579E+03 -0.34906024609E+03  0.64907886032E+03  0.85384027612E+03  0.50400001928E-02 0.  1.
       -1    1    3    3    0  502 -0.43115750579E+03  0.34906024609E+03 -0.88192408187E+02  0.56170966796E+03  0.50400001928E-02 0. -1.
</event>
<event>
 5   0  0.1476511E-04  0.1298328E+04  0.7818609E-02  0.9030892E-01
       -1   -1    0    0    0  501  0.00000000000E+00  0.00000000000E+00  0.92971741441E+03  0.92971741442E+03  0.50400001928E-02 0. -1.
        1   -1    0    0  501    0  0.00000000000E+00  0.00000000000E+00 -0.45327073864E+03  0.45327073867E+03  0.50400001928E-02 0.  1.
    10030    2    1    2    0    0  0.00000000000E+00  0.00000000000E+00  0.47644667577E+03  0.13829881531E+04  0.12983276924E+04 0.  0.
        2    1    3    3  502    0  0.43718533863E+03  0.38324870716E+03  0.54585090806E+03  0.79747338870E+03  0.25500000920E-02 0. -1.
       -2    1    3    3    0  502 -0.43718533863E+03 -0.38324870716E+03 -0.69404232290E+02  0.58551476439E+03  0.25500000920E-02 0.  1.
</event>
<event>
 5   0  0.1476511E-04  0.1299497E+04  0.7818609E-02  0.9029964E-01
        1   -1    0    0  501    0  0.00000000000E+00  0.00000000000E+00  0.11486534237E+04  0.11486534237E+04  0.50400001928E-02 0.  1.
       -1   -1    0    0    0  501  0.00000000000E+00  0.00000000000E+00 -0.36753764918E+03  0.36753764921E+03  0.50400001928E-02 0. -1.
    10030    2    1    2    0    0  0.00000000000E+00  0.00000000000E+00  0.78111577447E+03  0.15161910729E+04  0.12994974091E+04 0.  0.
        2    1    3    3  502    0 -0.61681225222E+03  0.10262024620E+03  0.18451759601E+03  0.65194709346E+03  0.25500000920E-02 0. -1.
       -2    1    3    3    0  502  0.61681225222E+03 -0.10262024620E+03  0.59659817846E+03  0.86424397942E+03  0.25500000920E-02 0.  1.
</event>
<event>
 5   0  0.1475396E-04  0.1300077E+04  0.7818609E-02  0.9029504E-01
       -1   -1    0    0    0  501  0.00000000000E+00  0.00000000000E+00  0.79016693775E+03  0.79016693777E+03  0.50400001928E-02 0.  1.
        1   -1    0    0  501    0  0.00000000000E+00  0.00000000000E+00 -0.53476088894E+03  0.53476088896E+03  0.50400001928E-02 0. -1.
    10030    2    1    2    0    0  0.00000000000E+00  0.00000000000E+00  0.25540604881E+03  0.13249278267E+04  0.13000774963E+04 0.  0.
        3    1    3    3  502    0  0.47039313082E+03  0.12711154047E+02  0.58473820483E+03  0.75056648563E+03  0.10100000352E+00 0.  1.
       -3    1    3    3    0  502 -0.47039313082E+03 -0.12711154047E+02 -0.32933215602E+03  0.57436134110E+03  0.10100000352E+00 0. -1.
</event>
<event>
 5   0  0.1408341E-04  0.1301609E+04  0.7818609E-02  0.9028290E-01
        1   -1    0    0  501    0  0.00000000000E+00  0.00000000000E+00  0.18555088345E+04  0.18555088345E+04  0.50400001928E-02 0. -1.
       -1   -1    0    0    0  501  0.00000000000E+00  0.00000000000E+00 -0.22826433937E+03  0.22826433943E+03  0.50400001928E-02 0.  1.
    10030    2    1    2    0    0  0.00000000000E+00  0.00000000000E+00  0.16272444951E+04  0.20837731739E+04  0.13016090018E+04 0.  0.
        5    1    3    3  502    0  0.72068515206E+02 -0.56832203113E+03  0.31930148266E+03  0.65586532824E+03  0.46999998093E+01 0.  1.
       -5    1    3    3    0  502 -0.72068515206E+02  0.56832203113E+03  0.13079430125E+04  0.14279078457E+04  0.46999998093E+01 0. -1.
</event>
<event>
 5   0  0.1430636E-04  0.1300364E+04  0.7818609E-02  0.9029277E-01
       -1   -1    0    0    0  501  0.00000000000E+00  0.00000000000E+00  0.91872584539E+03  0.91872584541E+03  0.50400001928E-02 0. -1.
        1   -1    0    0  501    0  0.00000000000E+00  0.00000000000E+00 -0.46013332488E+03  0.46013332491E+03  0.50400001928E-02 0.  1.
    10030    2    1    2    0    0  0.00000000000E+00  0.00000000000E+00  0.45859252051E+03  0.13788591703E+04  0.13003636075E+04 0.  0.
        4    1    3    3  502    0  0.32908430451E+03 -0.55108202132E+03  0.11937124520E+03  0.65286980385E+03  0.12699999809E+01 0.  1.
       -4    1    3    3    0  502 -0.32908430451E+03  0.55108202132E+03  0.33922127531E+03  0.72598936647E+03  0.12699999809E+01 0. -1.
</event>
<event>
 5   0  0.2573071E-04  0.1292824E+04  0.7818609E-02  0.9035275E-01
       -2   -1    0    0    0  501  0.00000000000E+00  0.00000000000E+00  0.40621135406E+03  0.40621135407E+03  0.25500000920E-02 0.  1.
        2   -1    0    0  501    0  0.00000000000E+00  0.00000000000E+00 -0.10286479351E+04  0.10286479351E+04  0.25500000920E-02 0. -1.
    10030    2    1    2    0    0  0.00000000000E+00  0.00000000000E+00 -0.62243658103E+03  0.14348592892E+04  0.12928239951E+04 0.  0.
        4    1    3    3  502    0 -0.17101198532E+03  0.60260170617E+03 -0.13408121706E+03  0.64058824612E+03  0.12699999809E+01 0.  1.
       -4    1    3    3    0  502  0.17101198532E+03 -0.60260170617E+03 -0.48835536396E+03  0.79427104304E+03  0.12699999809E+01 0. -1.
</event>
<event>
 5   0  0.2794825E-04  0.1298043E+04  0.7818609E-02  0.9031118E-01
        2   -1    0    0  501    0  0.00000000000E+00  0.00000000000E+00  0.22138720132E+04  0.22138720132E+04  0.25500000920E-02 0. -1.
       -2   -1    0    0    0  501  0.00000000000E+00  0.00000000000E+00 -0.19026808840E+03  0.19026808841E+03  0.25500000920E-02 0.  1.
    10030    2    1    2    0    0  0.00000000000E+00  0.00000000000E+00  0.20236039248E+04  0.24041401016E+04  0.12980434445E+04 0.  0.
        1    1    3    3  502    0 -0.24096973886E+03 -0.18624248966E+03 -0.49704658276E+02  0.30858261954E+03  0.50400001928E-02 0.  1.
       -1    1    3    3    0  502  0.24096973886E+03  0.18624248966E+03  0.20733085830E+04  0.20955574820E+04  0.50400001928E-02 0. -1.
</event>
<event>
 5   0  0.2661377E-04  0.1300463E+04  0.7818609E-02  0.9029198E-01
       -2   -1    0    0    0  501  0.00000000000E+00  0.00000000000E+00  0.33722337955E+03  0.33722337956E+03  0.25500000920E-02 0.  1.
        2   -1    0    0  501    0  0.00000000000E+00  0.00000000000E+00 -0.12537704172E+04  0.12537704172E+04  0.25500000920E-02 0. -1.
    10030    2    1    2    0    0  0.00000000000E+00  0.00000000000E+00 -0.91654703760E+03  0.15909937967E+04  0.13004625289E+04 0.  0.
        5    1    3    3  502    0  0.17175711168E+03 -0.57372170987E+03 -0.76806714979E+03  0.97396424081E+03  0.46999998093E+01 0. -1.
       -5    1    3    3    0  502 -0.17175711168E+03  0.57372170987E+03 -0.14847988781E+03  0.61702955591E+03  0.46999998093E+01 0.  1.
</event>
<event>
 5   0  0.2723209E-04  0.1299827E+04  0.7818609E-02  0.9029703E-01
       -2   -1    0    0    0  501  0.00000000000E+00  0.00000000000E+00  0.42482380532E+03  0.42482380533E+03  0.25500000920E-02 0. -1.
        2   -1    0    0  501    0  0.00000000000E+00  0.00000000000E+00 -0.99426478004E+03  0.99426478004E+03  0.25500000920E-02 0.  1.
    10030    2    1    2    0    0  0.00000000000E+00  0.00000000000E+00 -0.56944097472E+03  0.14190885854E+04  0.12998266767E+04 0.  0.
        2    1    3    3  502    0 -0.23659789327E+03  0.51715490695E+03 -0.62816216492E+03  0.84735793282E+03  0.25500000920E-02 0.  1.
       -2    1    3    3    0  502  0.23659789327E+03 -0.51715490695E+03  0.58721190196E+02  0.57173065255E+03  0.25500000920E-02 0. -1.
</event>
<event>
 5   0  0.1476511E-04  0.1300862E+04  0.7818609E-02  0.9028882E-01
        1   -1    0    0  501    0  0.00000000000E+00  0.00000000000E+00  0.70748006225E+03  0.70748006227E+03  0.50400001928E-02 0.  1.
       -1   -1    0    0    0  501  0.00000000000E+00  0.00000000000E+00 -0.59798193006E+03  0.59798193008E+03  0.50400001928E-02 0. -1.
    10030    2    1    2    0    0  0.00000000000E+00  0.00000000000E+00  0.10949813219E+03  0.13054619924E+04  0.13008617038E+04 0.  0.
        2    1    3    3  502    0  0.31262877904E+03  0.55643542032E+03 -0.71006341161E+02  0.64218301984E+03  0.25500000920E-02 0.  1.
       -2    1    3    3    0  502 -0.31262877904E+03 -0.55643542032E+03  0.18050447335E+03  0.66327897252E+03  0.25500000920E-02 0. -1.
</event>
<event>
 5   0  0.1479690E-04  0.1299366E+04  0.7818609E-02  0.9030068E-01
        1   -1    0    0  501    0  0.00000000000E+00  0.00000000000E+00  0.42269406625E+03  0.42269406628E+03  0.50400001928E-02 0. -1.
       -1   -1    0    0    0  501  0.00000000000E+00  0.00000000000E+00 -0.99856593180E+03  0.99856593182E+03  0.50400001928E-02 0.  1.
    10030    2    1    2    0    0  0.00000000000E+00  0.00000000000E+00 -0.57587186556E+03  0.14212599981E+04  0.12993658363E+04 0.  0.
        1    1    3    3  502    0 -0.22028369335E+03 -0.58125234319E+03 -0.49463052851E+03  0.79437935005E+03  0.50400001928E-02 0.  1.
       -1    1    3    3    0  502  0.22028369335E+03  0.58125234319E+03 -0.81241337041E+02  0.62688064804E+03  0.50400001928E-02 0. -1.
</event>
<event>
 5   0  0.2661377E-04  0.1297844E+04  0.7818609E-02  0.9031276E-01
        2   -1    0    0  501    0  0.00000000000E+00  0.00000000000E+00  0.72318832044E+03  0.72318832045E+03  0.25500000920E-02 0.  1.
       -2   -1    0    0    0  501  0.00000000000E+00  0.00000000000E+00 -0.58228270443E+03  0.58228270443E+03  0.25500000920E-02 0. -1.
    10030    2    1    2    0    0  0.00000000000E+00  0.00000000000E+00  0.14090561602E+03  0.13054710249E+04  0.12978444453E+04 0.  0.
        5    1    3    3  502    0 -0.68336198448E+02 -0.29530144122E+03  0.64758849149E+03  0.71502847602E+03  0.46999998093E+01 0.  1.
       -5    1    3    3    0  502  0.68336198448E+02  0.29530144122E+03 -0.50668287548E+03  0.59044254886E+03  0.46999998093E+01 0. -1.
</event>
<event>
 5   0  0.2794825E-04  0.1300809E+04  0.7818609E-02  0.9028924E-01
        2   -1    0    0  501    0  0.00000000000E+00  0.00000000000E+00  0.84924157091E+03  0.84924157091E+03  0.25500000920E-02 0. -1.
       -2   -1    0    0    0  501  0.00000000000E+00  0.00000000000E+00 -0.49812241336E+03  0.49812241336E+03  0.25500000920E-02 0.  1.
    10030    2    1    2    0    0  0.00000000000E+00  0.00000000000E+00  0.35111915755E+03  0.13473639843E+04  0.13008093801E+04 0.  0.
        1    1    3    3  502    0 -0.24921908146E+03 -0.21852998114E+03  0.75519503297E+03  0.82473331512E+03  0.50400001928E-02 0. -1.
       -1    1    3    3    0  502  0.24921908146E+03  0.21852998114E+03 -0.40407587542E+03  0.52263066916E+03  0.50400001928E-02 0.  1.
</event>
<event>
 5   0  0.1408341E-04  0.1301635E+04  0.7818609E-02  0.9028270E-01
        1   -1    0    0  501    0  0.00000000000E+00  0.00000000000E+00  0.53641983867E+03  0.53641983869E+03  0.50400001928E-02 0.  1.
       -1   -1    0    0    0  501  0.00000000000E+00  0.00000000000E+00 -0.78961183532E+03  0.78961183534E+03  0.50400001928E-02 0. -1.
    10030    2    1    2    0    0  0.00000000000E+00  0.00000000000E+00 -0.25319199665E+03  0.13260316740E+04  0.13016350538E+04 0.  0.
        5    1    3    3  502    0  0.48616522891E+03 -0.36515896256E+03 -0.36298756080E+03  0.70815235439E+03  0.46999998093E+01 0. -1.
       -5    1    3    3    0  502 -0.48616522891E+03  0.36515896256E+03  0.10979556415E+03  0.61787931964E+03  0.46999998093E+01 0.  1.
</event>
<event>
 5   0  0.1475396E-04  0.1301095E+04  0.7818609E-02  0.9028697E-01
        1   -1    0    0  501    0  0.00000000000E+00  0.00000000000E+00  0.34004068622E+03  0.34004068626E+03  0.50400001928E-02 0. -1.
       -1   -1    0    0    0  501  0.00000000000E+00  0.00000000000E+00 -0.12445920034E+04  0.12445920034E+04  0.50400001928E-02 0.  1.
    10030    2    1    2    0    0  0.00000000000E+00  0.00000000000E+00 -0.90455131714E+03  0.15846326896E+04  0.13010947989E+04 0.  0.
        3    1    3    3  502    0 -0.17009627838E+03  0.30556087490E+03 -0.11203721932E+04  0.11736839667E+04  0.10100000352E+00 0.  1.
       -3    1    3    3    0  502  0.17009627838E+03 -0.30556087490E+03  0.21582087602E+03  0.41094872297E+03  0.10100000352E+00 0. -1.
</event>
<event>
 5   0  0.2661377E-04  0.1299596E+04  0.7818609E-02  0.9029886E-01
       -2   -1    0    0    0  501  0.00000000000E+00  0.00000000000E+00  0.24416040836E+03  0.24416040837E+03  0.25500000920E-02 0.  1.
        2   -1    0    0  501    0  0.00000000000E+00  0.00000000000E+00 -0.17293446273E+04  0.17293446273E+04  0.25500000920E-02 0. -1.
    10030    2    1    2    0    0  0.00000000000E+00  0.00000000000E+00 -0.14851842189E+04  0.19735050356E+04  0.12995960763E+04 0.  0.
        5    1    3    3  502    0  0.53992989875E+03 -0.36036929489E+03 -0.69897299338E+03  0.95392644356E+03  0.46999998093E+01 0.  1.
       -5    1    3    3    0  502 -0.53992989875E+03  0.36036929489E+03 -0.78621122553E+03  0.10195785921E+04  0.46999998093E+01 0. -1.
</event>
<event>
 5   0  0.1475396E-04  0.1298476E+04  0.7818609E-02  0.9030775E-01
       -1   -1    0    0    0  501  0.00000000000E+00  0.00000000000E+00  0.67369035307E+03  0.67369035309E+03  0.50400001928E-02 0. -1.
        1   -1    0    0  501    0  0.00000000000E+00  0.00000000000E+00 -0.62567321486E+03  0.62567321488E+03  0.50400001928E-02 0.  1.
    10030    2    1    2    0    0  0.00000000000E+00  0.00000000000E+00  0.48017138209E+02  0.12993635680E+04  0.12984760438E+04 0.  0.
        3    1    3    3  502    0  0.15172398866E+03  0.17603190380E+03 -0.58262571584E+03  0.62726400730E+03  0.10100000352E+00 0.  1.
       -3    1    3    3    0  502 -0.15172398866E+03 -0.17603190380E+03  0.63064285405E+03  0.67209956067E+03  0.10100000352E+00 0. -1.
</event>
<event>
 5   0  0.2661377E-04  0.1306306E+04  0.7818609E-02  0.9024580E-01
       -2   -1    0    0    0  501  0.00000000000E+00  0.00000000000E+00  0.54431967891E+03  0.54431967892E+03  0.25500000920E-02 0.  1.
        2   -1    0    0  501    0  0.00000000000E+00  0.00000000000E+00 -0.78374642396E+03  0.78374642396E+03  0.25500000920E-02 0. -1.
    10030    2    1    2    0    0  0.00000000000E+00  0.00000000000E+00 -0.23942674505E+03  0.13280661029E+04  0.13063056332E+04 0.  0.
        5    1    3    3  502    0  0.52706773175E+03 -0.36959091931E+03 -0.74719768704E+01  0.64379792010E+03  0.46999998093E+01 0.  1.
       -5    1    3    3    0  502 -0.52706773175E+03  0.36959091931E+03 -0.23195476818E+03  0.68426818278E+03  0.46999998093E+01 0. -1.
</event>
<event>
 5   0  0.1476511E-04  0.1300249E+04  0.7818609E-02  0.9029367E-01
       -1   -1    0    0    0  501  0.00000000000E+00  0.00000000000E+00  0.20658758914E+03  0.20658758920E+03  0.50400001928E-02 0. -1.
        1   -1    0    0  501    0  0.00000000000E+00  0.00000000000E+00 -0.20459219533E+04  0.20459219533E+04  0.50400001928E-02 0.  1.
    10030    2    1    2    0    0  0.00000000000E+00  0.00000000000E+00 -0.18393343642E+04  0.22525095425E+04  0.13002493360E+04 0.  0.
        2    1    3    3  502    0 -0.37391326028E+03 -0.12858122081E+03 -0.25661830684E+02  0.39623577087E+03  0.25500000920E-02 0. -1.
       -2    1    3    3    0  502  0.37391326028E+03  0.12858122081E+03 -0.18136725335E+04  0.18562737716E+04  0.25500000920E-02 0.  1.
</event>
<event>
 5   0  0.2794825E-04  0.1313013E+04  0.7818609E-02  0.9019309E-01
        2   -1    0    0  501    0  0.00000000000E+00  0.00000000000E+00  0.15937172895E+04  0.15937172895E+04  0.25500000920E-02 0. -1.
       -2   -1    0    0    0  501  0.00000000000E+00  0.00000000000E+00 -0.27043737030E+03  0.27043737032E+03  0.25500000920E-02 0.  1.
    10030    2    1    2    0    0  0.00000000000E+00  0.00000000000E+00  0.13232799192E+04  0.18641546598E+04  0.13130128907E+04 0.  0.
        1    1    3    3  502    0 -0.50729498790E+03 -0.41671521797E+03  0.66026702520E+03  0.93110274526E+03  0.50400001928E-02 0.  1.
       -1    1    3    3    0  502  0.50729498790E+03  0.41671521797E+03  0.66301289401E+03  0.93305191457E+03  0.50400001928E-02 0. -1.
</event>
<event>
 5   0  0.1476511E-04  0.1300823E+04  0.7818609E-02  0.9028913E-01
       -1   -1    0    0    0  501  0.00000000000E+00  0.00000000000E+00  0.52092360767E+03  0.52092360769E+03  0.50400001928E-02 0. -1.
        1   -1    0    0  501    0  0.00000000000E+00  0.00000000000E+00 -0.81208606115E+03  0.81208606116E+03  0.50400001928E-02 0.  1.
    10030    2    1    2    0    0  0.00000000000E+00  0.00000000000E+00 -0.29116245348E+03  0.13330096689E+04  0.13008225102E+04 0.  0.
        2    1    3    3  502    0 -0.87383261329E+02 -0.17795479285E+03 -0.78036926071E+03  0.80515832339E+03  0.25500000920E-02 0.  1.
       -2    1    3    3    0  502  0.87383261329E+02  0.17795479285E+03  0.48920680723E+03  0.52785134546E+03  0.25500000920E-02 0. -1.
</event>
<event>
 5   0  0.2573071E-04  0.1297897E+04  0.7818609E-02  0.9031235E-01
        2   -1    0    0  501    0  0.00000000000E+00  0.00000000000E+00  0.49924435189E+03  0.49924435190E+03  0.25500000920E-02 0.  1.
       -2   -1    0    0    0  501  0.00000000000E+00  0.00000000000E+00 -0.84354294782E+03  0.84354294782E+03  0.25500000920E-02 0. -1.
    10030    2    1    2    0    0  0.00000000000E+00  0.00000000000E+00 -0.34429859592E+03  0.13427872997E+04  0.12978968407E+04 0.  0.
        4    1    3    3  502    0  0.52176468241E+03 -0.12276546953E+02  0.22686257361E+03  0.56908464890E+03  0.12699999809E+01 0.  1.
       -4    1    3    3    0  502 -0.52176468241E+03  0.12276546953E+02 -0.57116116953E+03  0.77370265082E+03  0.12699999809E+01 0. -1.
</event>
<event>
 5   0  0.1430636E-04  0.1302214E+04  0.7818609E-02  0.9027811E-01
        1   -1    0    0  501    0  0.00000000000E+00  0.00000000000E+00  0.22925703385E+03  0.22925703391E+03  0.50400001928E-02 0. -1.
       -1   -1    0    0    0  501  0.00000000000E+00  0.00000000000E+00 -0.18491923953E+04  0.18491923953E+04  0.50400001928E-02 0.  1.
    10030    2    1    2    0    0  0.00000000000E+00  0.00000000000E+00 -0.16199353615E+04  0.20784494292E+04  0.13022140586E+04 0.  0.
        4    1    3    3  502    0  0.82715840572E+00  0.64313083002E+03 -0.64781885563E+03  0.91284655409E+03  0.12699999809E+01 0.  1.
       -4    1    3    3    0  502 -0.82715840572E+00 -0.64313083002E+03 -0.97211650583E+03  0.11656028751E+04  0.12699999809E+01 0. -1.
</event>
<event>
 5   0  0.1476511E-04  0.1300574E+04  0.7818609E-02  0.9029110E-01
       -1   -1    0    0    0  501  0.00000000000E+00  0.00000000000E+00  0.78971588760E+03  0.78971588762E+03  0.50400001928E-02 0. -1.
        1   -1    0    0  501    0  0.00000000000E+00  0.00000000000E+00 -0.53547526654E+03  0.53547526657E+03  0.50400001928E-02 0.  1.
    10030    2    1    2    0    0  0.00000000000E+00  0.00000000000E+00  0.25424062106E+03  0.13251911542E+04  0.13005742200E+04 0.  0.
        2    1    3    3  502    0 -0.64798527977E+03 -0.45225003572E+02  0.15841154130E+03  0.66859886342E+03  0.25500000920E-02 0. -1.
       -2    1    3    3    0  502  0.64798527977E+03  0.45225003572E+02  0.95829079757E+02  0.65659229076E+03  0.25500000920E-02 0.  1.
</event>
<event>
 5   0  0.1408341E-04  0.1299906E+04  0.7818609E-02  0.9029640E-01
       -1   -1    0    0    0  501  0.00000000000E+00  0.00000000000E+00  0.37279696530E+03  0.37279696533E+03  0.50400001928E-02 0.  1.
        1   -1    0    0  501    0  0.00000000000E+00  0.00000000000E+00 -0.11331599592E+04  0.11331599592E+04  0.50400001928E-02 0. -1.
    10030    2    1    2    0    0  0.00000000000E+00  0.00000000000E+00 -0.76036299385E+03  0.15059569245E+04  0.12999055258E+04 0.  0.
        5    1    3    3  502    0  0.32392238528E+03  0.91278951234E+02 -0.10243384047E+04  0.10782155702E+04  0.46999998093E+01 0. -1.
       -5    1    3    3    0  502 -0.32392238528E+03 -0.91278951234E+02  0.26397541082E+03  0.42774135426E+03  0.46999998093E+01 0.  1.
</event>
<event>
 5   0  0.1476511E-04  0.1301345E+04  0.7818609E-02  0.9028499E-01
        1   -1    0    0  501    0  0.00000000000E+00  0.00000000000E+00  0.12653053511E+04  0.12653053511E+04  0.50400001928E-02 0.  1.
       -1   -1    0    0    0  501  0.00000000000E+00  0.00000000000E+00 -0.33460268795E+03  0.33460268799E+03  0.50400001928E-02 0. -1.
    10030    2    1    2    0    0  0.00000000000E+00  0.00000000000E+00  0.93070266318E+03  0.15999080391E+04  0.13013447992E+04 0.  0.
        2    1    3    3  502    0  0.23418995189E+03  0.45205338863E+03  0.96350036214E+03  0.10897385685E+04  0.25500000920E-02 0.  1.
       -2    1    3    3    0  502 -0.23418995189E+03 -0.45205338863E+03 -0.32797698957E+02  0.51016947067E+03  0.25500000920E-02 0. -1.
</event>
<event>
 5   0  0.1475396E-04  0.1300556E+04  0.7818609E-02  0.9029124E-01
        1   -1    0    0  501    0  0.00000000000E+00  0.00000000000E+00  0.10774455157E+04  0.10774455157E+04  0.50400001928E-02 0.  1.
       -1   -1    0    0    0  501  0.00000000000E+00  0.00000000000E+00 -0.39246684289E+03  0.39246684292E+03  0.50400001928E-02 0. -1.
    10030    2    1    2    0    0  0.00000000000E+00  0.00000000000E+00  0.68497867283E+03  0.14699123587E+04  0.13005562502E+04 0.  0.
        3    1    3    3  502    0 -0.25317849171E+03 -0.41790646870E+03 -0.14247367321E+03  0.50896357729E+03  0.10100000352E+00 0. -1.
       -3    1    3    3    0  502  0.25317849171E+03  0.41790646870E+03  0.82745234604E+03  0.96094878137E+03  0.10100000352E+00 0.  1.
</event>
<event>
 5   0  0.1408341E-04  0.1299336E+04  0.7818609E-02  0.9030092E-01
        1   -1    0    0  501    0  0.00000000000E+00  0.00000000000E+00  0.16407481717E+04  0.16407481717E+04  0.50400001928E-02 0. -1.
       -1   -1    0    0    0  501  0.00000000000E+00  0.00000000000E+00 -0.25724139857E+03  0.25724139862E+03  0.50400001928E-02 0.  1.
    10030    2    1    2    0    0  0.00000000000E+00  0.00000000000E+00  0.13835067732E+04  0.18979895703E+04  0.12993357602E+04 0.  0.
        5    1    3    3  502    0 -0.25487963487E+03  0.77736613646E+02  0.15572204004E+04  0.15798620430E+04  0.46999998093E+01 0. -1.
       -5    1    3    3    0  502  0.25487963487E+03 -0.77736613646E+02 -0.17371362727E+03  0.31812752737E+03  0.46999998093E+01 0.  1.
</event>
<event>
 5   0  0.1408341E-04  0.1300507E+04  0.7818609E-02  0.9029163E-01
        1   -1    0    0  501    0  0.00000000000E+00  0.00000000000E+00  0.25708236702E+03  0.25708236706E+03  0.50400001928E-02 0. -1.
       -1   -1    0    0    0  501  0.00000000000E+00  0.00000000000E+00 -0.16447255079E+04  0.16447255079E+04  0.50400001928E-02 0.  1.
    10030    2    1    2    0    0  0.00000000000E+00  0.00000000000E+00 -0.13876431409E+04  0.19018078750E+04  0.13005074805E+04 0.  0.
        5    1    3    3  502    0  0.58685275451E+03 -0.14657828926E+03 -0.34491353117E+03  0.69632520014E+03  0.46999998093E+01 0. -1.
       -5    1    3    3    0  502 -0.58685275451E+03  0.14657828926E+03 -0.10427296097E+04  0.12054826749E+04  0.46999998093E+01 0.  1.
</event>
<event>
 5   0  0.1408341E-04  0.1299606E+04  0.7818609E-02  0.9029877E-01
       -1   -1    0    0    0  501  0.00000000000E+00  0.00000000000E+00  0.56452154575E+03  0.56452154577E+03  0.50400001928E-02 0. -1.
        1   -1    0    0  501    0  0.00000000000E+00  0.00000000000E+00 -0.74796821443E+03  0.74796821445E+03  0.50400001928E-02 0.  1.
    10030    2    1    2    0    0  0.00000000000E+00  0.00000000000E+00 -0.18344666869E+03  0.13124897602E+04  0.12996063598E+04 0.  0.
        5    1    3    3  502    0  0.42021556069E+03 -0.46065643847E+03  0.92946186063E+02  0.63043362477E+03  0.46999998093E+01 0. -1.
       -5    1    3    3    0  502 -0.42021556069E+03  0.46065643847E+03 -0.27639285475E+03  0.68205613544E+03  0.46999998093E+01 0.  1.
</event>
<event>
 5   0  0.2573071E-04  0.1299151E+04  0.7818609E-02  0.9030239E-01
       -2   -1    0    0    0  501  0.00000000000E+00  0.00000000000E+00  0.34827008300E+03  0.34827008301E+03  0.25500000920E-02 0. -1.
        2   -1    0    0  501    0  0.00000000000E+00  0.00000000000E+00 -0.12115543825E+04  0.12115543825E+04  0.25500000920E-02 0.  1.
    10030    2    1    2    0    0  0.00000000000E+00  0.00000000000E+00 -0.86328429951E+03  0.15598244655E+04  0.12991507155E+04 0.  0.
        4    1    3    3  502    0 -0.60344000274E+03  0.14523221072E+03 -0.20158601420E+03  0.65258774580E+03  0.12699999809E+01 0. -1.
       -4    1    3    3    0  502  0.60344000274E+03 -0.14523221072E+03 -0.66169828531E+03  0.90723671973E+03  0.12699999809E+01 0.  1.
</event>
<event>
 5   0  0.1430636E-04  0.1300380E+04  0.7818609E-02  0.9029264E-01
        1   -1    0    0  501    0  0.00000000000E+00  0.00000000000E+00  0.69872053115E+03  0.69872053116E+03  0.50400001928E-02 0.  1.
       -1   -1    0    0    0  501  0.00000000000E+00  0.00000000000E+00 -0.60503026940E+03  0.60503026942E+03  0.50400001928E-02 0. -1.
    10030    2    1    2    0    0  0.00000000000E+00  0.00000000000E+00  0.93690261744E+02  0.13037508006E+04  0.13003800540E+04 0.  0.
        4    1    3    3  502    0 -0.61573342939E+03 -0.93586667951E+02  0.23403565285E+03  0.66532730306E+03  0.12699999809E+01 0.  1.
       -4    1    3    3    0  502  0.61573342939E+03  0.93586667951E+02 -0.14034539111E+03  0.63842349753E+03  0.12699999809E+01 0. -1.
</event>
<event>
 5   0  0.2756984E-04  0.1299635E+04  0.7818609E-02  0.9029854E-01
       -2   -1    0    0    0  501  0.00000000000E+00  0.00000000000E+00  0.11994066216E+04  0.11994066216E+04  0.25500000920E-02 0.  1.
        2   -1    0    0  501    0  0.00000000000E+00  0.00000000000E+00 -0.35205991561E+03  0.35205991562E+03  0.25500000920E-02 0. -1.
    10030    2    1    2    0    0  0.00000000000E+00  0.00000000000E+00  0.84734670598E+03  0.15514665372E+04  0.12996353242E+04 0.  0.
        3    1    3    3  502    0 -0.20274664273E+03  0.57886682264E+03  0.16744337575E+03  0.63579107715E+03  0.10100000352E+00 0.  1.
       -3    1    3    3    0  502  0.20274664273E+03 -0.57886682264E+03  0.67990333022E+03  0.91567546006E+03  0.10100000352E+00 0. -1.
</event>
<event>
 5   0  0.2794825E-04  0.1300227E+04  0.7818609E-02  0.9029385E-01
        2   -1    0    0  501    0  0.00000000000E+00  0.00000000000E+00  0.16203232432E+04  0.16203232432E+04  0.25500000920E-02 0. -1.
       -2   -1    0    0    0  501  0.00000000000E+00  0.00000000000E+00 -0.26084159716E+03  0.26084159717E+03  0.25500000920E-02 0.  1.
    10030    2    1    2    0    0  0.00000000000E+00  0.00000000000E+00  0.13594816460E+04  0.18811648404E+04  0.13002272150E+04 0.  0.
        1    1    3    3  502    0  0.24264707103E+03  0.48606243377E+03  0.11963778571E+04  0.13139460672E+04  0.50400001928E-02 0. -1.
       -1    1    3    3    0  502 -0.24264707103E+03 -0.48606243377E+03  0.16310378892E+03  0.56721877313E+03  0.50400001928E-02 0.  1.
</event>
<event>
 5   0  0.1430636E-04  0.1298736E+04  0.7818609E-02  0.9030568E-01
        1   -1    0    0  501    0  0.00000000000E+00  0.00000000000E+00  0.10039149174E+04  0.10039149174E+04  0.50400001928E-02 0. -1.
       -1   -1    0    0    0  501  0.00000000000E+00  0.00000000000E+00 -0.42003440415E+03  0.42003440418E+03  0.50400001928E-02 0.  1.
    10030    2    1    2    0    0  0.00000000000E+00  0.00000000000E+00  0.58388051322E+03  0.14239493216E+04  0.12987360073E+04 0.  0.
        4    1    3    3  502    0  0.10332485842E+03  0.16877504578E+03 -0.38616722947E+03  0.43392140355E+03  0.12699999809E+01 0.  1.
       -4    1    3    3    0  502 -0.10332485842E+03 -0.16877504578E+03  0.97004774269E+03  0.99002791801E+03  0.12699999809E+01 0. -1.
</event>
<event>
 5   0  0.2794825E-04  0.1298443E+04  0.7818609E-02  0.9030801E-01
        2   -1    0    0  501    0  0.00000000000E+00  0.00000000000E+00  0.74185504006E+03  0.74185504007E+03  0.25500000920E-02 0.  1.
       -2   -1    0    0    0  501  0.00000000000E+00  0.00000000000E+00 -0.56815491785E+03  0.56815491786E+03  0.25500000920E-02 0. -1.
    10030    2    1    2    0    0  0.00000000000E+00  0.00000000000E+00  0.17370012221E+03  0.13100099579E+04  0.12984430513E+04 0.  0.
        1    1    3    3  502    0  0.90329229031E+02 -0.42823556967E+03 -0.39694594053E+03  0.59085628750E+03  0.50400001928E-02 0. -1.
       -1    1    3    3    0  502 -0.90329229031E+02  0.42823556967E+03  0.57064606274E+03  0.71915367043E+03  0.50400001928E-02 0.  1.
</event>
<event>
 5   0  0.2756984E-04  0.1298765E+04  0.7818609E-02  0.9030545E-01
        2   -1    0    0  501    0  0.00000000000E+00  0.00000000000E+00  0.22836475750E+04  0.22836475750E+04  0.25500000920E-02 0. -1.
       -2   -1    0    0    0  501  0.00000000000E+00  0.00000000000E+00 -0.18465961291E+03  0.18465961292E+03  0.25500000920E-02 0.  1.
    10030    2    1    2    0    0  0.00000000000E+00  0.00000000000E+00  0.20989879620E+04  0.24683071879E+04  0.12987647627E+04 0.  0.
        3    1    3    3  502    0 -0.27708192107E+03 -0.21521263343E+03  0.20880224612E+04  0.21172927708E+04  0.10100000352E+00 0. -1.
       -3    1    3    3    0  502  0.27708192107E+03  0.21521263343E+03  0.10965500813E+02  0.35101441705E+03  0.10100000352E+00 0.  1.
</event>
<event>
 5   0  0.1476511E-04  0.1293125E+04  0.7818609E-02  0.9035035E-01
       -1   -1    0    0    0  501  0.00000000000E+00  0.00000000000E+00  0.70000850945E+03  0.70000850947E+03  0.50400001928E-02 0. -1.
        1   -1    0    0  501    0  0.00000000000E+00  0.00000000000E+00 -0.59719729682E+03  0.59719729685E+03  0.50400001928E-02 0.  1.
    10030    2    1    2    0    0  0.00000000000E+00  0.00000000000E+00  0.10281121263E+03  0.12972058063E+04  0.12931251906E+04 0.  0.
        2    1    3    3  502    0  0.25322330325E+03  0.92062380334E+02 -0.53819535962E+03  0.60187354843E+03  0.25500000920E-02 0.  1.
       -2    1    3    3    0  502 -0.25322330325E+03 -0.92062380334E+02  0.64100657225E+03  0.69533225788E+03  0.25500000920E-02 0. -1.
</event>
<event>
 5   0  0.2756984E-04  0.1287233E+04  0.7818609E-02  0.9039751E-01
        2   -1    0    0  501    0  0.00000000000E+00  0.00000000000E+00  0.10476171708E+04  0.10476171708E+04  0.25500000920E-02 0.  1.
       -2   -1    0    0    0  501  0.00000000000E+00  0.00000000000E+00 -0.39541389294E+03  0.39541389295E+03  0.25500000920E-02 0. -1.
    10030    2    1    2    0    0  0.00000000000E+00  0.00000000000E+00  0.65220327790E+03  0.14430310638E+04  0.12872332871E+04 0.  0.
        3    1    3    3  502    0  0.15818277620E+03 -0.62113957448E+03  0.39152822410E+03  0.75108622816E+03  0.10100000352E+00 0.  1.
       -3    1    3    3    0  502 -0.15818277620E+03  0.62113957448E+03  0.26067505380E+03  0.69194483562E+03  0.10100000352E+00 0. -1.
</event>
<event>
 5   0  0.1430636E-04  0.1300100E+04  0.7818609E-02  0.9029486E-01
       -1   -1    0    0    0  501  0.00000000000E+00  0.00000000000E+00  0.58607425226E+03  0.58607425228E+03  0.50400001928E-02 0.  1.
        1   -1    0    0  501    0  0.00000000000E+00  0.00000000000E+00 -0.72100925505E+03  0.72100925507E+03  0.50400001928E-02 0. -1.
    10030    2    1    2    0    0  0.00000000000E+00  0.00000000000E+00 -0.13493500279E+03  0.13070835073E+04  0.13000999347E+04 0.  0.
        4    1    3    3  502    0  0.61549620631E+03 -0.29803917468E+02 -0.27555632878E+03  0.67502352308E+03  0.12699999809E+01 0.  1.
       -4    1    3    3    0  502 -0.61549620631E+03  0.29803917468E+02  0.14062132599E+03  0.63205998426E+03  0.12699999809E+01 0. -1.
</event>
<event>
 5   0  0.1476511E-04  0.1299829E+04  0.7818609E-02  0.9029701E-01
       -1   -1    0    0    0  501  0.00000000000E+00  0.00000000000E+00  0.59118951263E+03  0.59118951265E+03  0.50400001928E-02 0. -1.
        1   -1    0    0  501    0  0.00000000000E+00  0.00000000000E+00 -0.71447315231E+03  0.71447315233E+03  0.50400001928E-02 0.  1.
    10030    2    1    2    0    0  0.00000000000E+00  0.00000000000E+00 -0.12328363968E+03  0.13056626650E+04  0.12998292730E+04 0.  0.
        2    1    3    3  502    0 -0.41211132983E+02 -0.78334750297E+02 -0.70839028643E+03  0.71389879429E+03  0.25500000920E-02 0.  1.
       -2    1    3    3    0  502  0.41211132983E+02  0.78334750297E+02  0.58510664674E+03  0.59176387069E+03  0.25500000920E-02 0. -1.
</event>
<event>
 5   0  0.1479690E-04  0.1300829E+04  0.7818609E-02  0.9028908E-01
        1   -1    0    0  501    0  0.00000000000E+00  0.00000000000E+00  0.11896185358E+04  0.11896185358E+04  0.50400001928E-02 0. -1.
       -1   -1    0    0    0  501  0.00000000000E+00  0.00000000000E+00 -0.35560882801E+03  0.35560882804E+03  0.50400001928E-02 0.  1.
    10030    2    1    2    0    0  0.00000000000E+00  0.00000000000E+00  0.83400970777E+03  0.15452273638E+04  0.13008287410E+04 0.  0.
        1    1    3    3  502    0  0.61668477819E+03  0.96295707661E+02  0.63431167282E+03  0.88990127389E+03  0.50400001928E-02 0. -1.
       -1    1    3    3    0  502 -0.61668477819E+03 -0.96295707661E+02  0.19969803494E+03  0.65532608994E+03  0.50400001928E-02 0.  1.
</event>
<event>
 5   0  0.2794825E-04  0.1300766E+04  0.7818609E-02  0.9028958E-01
        2   -1    0    0  501    0  0.00000000000E+00  0.00000000000E+00  0.52935532432E+03  0.52935532432E+03  0.25500000920E-02 0. -1.
       -2   -1    0    0    0  501  0.00000000000E+00  0.00000000000E+00 -0.79908156256E+03  0.79908156257E+03  0.25500000920E-02 0.  1.
    10030    2    1    2    0    0  0.00000000000E+00  0.00000000000E+00 -0.26972623825E+03  0.13284368869E+04  0.13007660508E+04 0.  0.
        1    1    3    3  502    0  0.36376159755E+03  0.13458425931E+03  0.39831818149E+03  0.55596114652E+03  0.50400001928E-02 0. -1.
       -1    1    3    3    0  502 -0.36376159755E+03 -0.13458425931E+03 -0.66804441974E+03  0.77247574038E+03  0.50400001928E-02 0.  1.
</event>
<event>
 5   0  0.1479690E-04  0.1300625E+04  0.7818609E-02  0.9029070E-01
       -1   -1    0    0    0  501  0.00000000000E+00  0.00000000000E+00  0.50939033352E+03  0.50939033355E+03  0.50400001928E-02 0.  1.
        1   -1    0    0  501    0  0.00000000000E+00  0.00000000000E+00 -0.83022060222E+03  0.83022060224E+03  0.50400001928E-02 0. -1.
    10030    2    1    2    0    0  0.00000000000E+00  0.00000000000E+00 -0.32083026870E+03  0.13396109358E+04  0.13006250028E+04 0.  0.
        1    1    3    3  502    0  0.11943659072E+03  0.54823174103E+03 -0.49902975002E+03  0.75090201259E+03  0.50400001928E-02 0. -1.
       -1    1    3    3    0  502 -0.11943659072E+03 -0.54823174103E+03  0.17819948132E+03  0.58870892319E+03  0.50400001928E-02 0.  1.
</event>
<event>
 5   0  0.1430636E-04  0.1302443E+04  0.7818609E-02  0.9027630E-01
        1   -1    0    0  501    0  0.00000000000E+00  0.00000000000E+00  0.88475072039E+03  0.88475072040E+03  0.50400001928E-02 0. -1.
       -1   -1    0    0    0  501  0.00000000000E+00  0.00000000000E+00 -0.47933189960E+03  0.47933189963E+03  0.50400001928E-02 0.  1.
    10030    2    1    2    0    0  0.00000000000E+00  0.00000000000E+00  0.40541882079E+03  0.13640826200E+04  0.13024426951E+04 0.  0.
        4    1    3    3  502    0 -0.25546049392E+03  0.20846100405E+03 -0.38544766489E+03  0.50723522100E+03  0.12699999809E+01 0.  1.
       -4    1    3    3    0  502  0.25546049392E+03 -0.20846100405E+03  0.79086648567E+03  0.85684739903E+03  0.12699999809E+01 0. -1.
</event>
<event>
 5   0  0.2723209E-04  0.1311429E+04  0.7818609E-02  0.9020551E-01
       -2   -1    0    0    0  501  0.00000000000E+00  0.00000000000E+00  0.11165744020E+04  0.11165744020E+04  0.25500000920E-02 0. -1.
        2   -1    0    0  501    0  0.00000000000E+00  0.00000000000E+00 -0.38507168097E+03  0.38507168098E+03  0.25500000920E-02 0.  1.
    10030    2    1    2    0    0  0.00000000000E+00  0.00000000000E+00  0.73150272108E+03  0.15016460830E+04  0.13114285065E+04 0.  0.
        2    1    3    3  502    0  0.17821650091E+03 -0.62887354090E+03  0.42544912976E+03  0.77990384898E+03  0.25500000920E-02 0.  1.
       -2    1    3    3    0  502 -0.17821650091E+03  0.62887354090E+03  0.30605359131E+03  0.72174223404E+03  0.25500000920E-02 0. -1.
</event>
<event>
 5   0  0.2723209E-04  0.1297885E+04  0.7818609E-02  0.9031244E-01
        2   -1    0    0  501    0  0.00000000000E+00  0.00000000000E+00  0.17465983278E+04  0.17465983278E+04  0.25500000920E-02 0. -1.
       -2   -1    0    0    0  501  0.00000000000E+00  0.00000000000E+00 -0.24111227455E+03  0.24111227456E+03  0.25500000920E-02 0.  1.
    10030    2    1    2    0    0  0.00000000000E+00  0.00000000000E+00  0.15054860533E+04  0.19877106024E+04  0.12978848879E+04 0.  0.
        2    1    3    3  502    0  0.54409549359E+03 -0.18042584968E+03  0.28687267735E+03  0.64100649481E+03  0.25500000920E-02 0. -1.
       -2    1    3    3    0  502 -0.54409549359E+03  0.18042584968E+03  0.12186133759E+04  0.13467041076E+04  0.25500000920E-02 0.  1.
</event>
<event>
 5   0  0.1002887E-04  0.1302376E+04  0.7818609E-02  0.9027683E-01
       -4   -1    0    0    0  501  0.00000000000E+00  0.00000000000E+00  0.51732145897E+03  0.51732301786E+03  0.12699999809E+01 0.  1.
        4   -1    0    0  501    0  0.00000000000E+00  0.00000000000E+00 -0.81969141918E+03  0.81969240303E+03  0.12699999809E+01 0. -1.
    10030    2    1    2    0    0  0.00000000000E+00  0.00000000000E+00 -0.30236996021E+03  0.13370154209E+04  0.13023757687E+04 0.  0.
        3    1    3    3  502    0 -0.52487289893E+03 -0.18914880350E+03  0.19356959039E+03  0.59054045283E+03  0.10100000352E+00 0. -1.
       -3    1    3    3    0  502  0.52487289893E+03  0.18914880350E+03 -0.49593955060E+03  0.74647496807E+03  0.10100000352E+00 0.  1.
</event>
<event>
 5   0  0.2794825E-04  0.1297484E+04  0.7818609E-02  0.9031563E-01
       -2   -1    0    0    0  501  0.00000000000E+00  0.00000000000E+00  0.69329648205E+03  0.69329648206E+03  0.25500000920E-02 0. -1.
        2   -1    0    0  501    0  0.00000000000E+00  0.00000000000E+00 -0.60705107459E+03  0.60705107459E+03  0.25500000920E-02 0.  1.
    10030    2    1    2    0    0  0.00000000000E+00  0.00000000000E+00  0.86245407465E+02  0.13003475566E+04  0.12974842958E+04 0.  0.
        1    1    3    3  502    0 -0.25831390240E+03 -0.50704120649E+03  0.35533789142E+03  0.67088141602E+03  0.50400001928E-02 0. -1.
       -1    1    3    3    0  502  0.25831390240E+03  0.50704120649E+03 -0.26909248395E+03  0.62946614063E+03  0.50400001928E-02 0.  1.
</event>
<event>
 5   0  0.1475396E-04  0.1301024E+04  0.7818609E-02  0.9028753E-01
       -1   -1    0    0    0  501  0.00000000000E+00  0.00000000000E+00  0.35124858337E+03  0.35124858341E+03  0.50400001928E-02 0. -1.
        1   -1    0    0  501    0  0.00000000000E+00  0.00000000000E+00 -0.12047482948E+04  0.12047482948E+04  0.50400001928E-02 0.  1.
    10030    2    1    2    0    0  0.00000000000E+00  0.00000000000E+00 -0.85349971141E+03  0.15559968782E+04  0.13010244147E+04 0.  0.
        3    1    3    3  502    0 -0.43136318248E+03  0.32078692673E+03 -0.86485624559E+03  0.10183097679E+04  0.10100000352E+00 0.  1.
       -3    1    3    3    0  502  0.43136318248E+03 -0.32078692673E+03  0.11356534181E+02  0.53768711035E+03  0.10100000352E+00 0. -1.
</event>
<event>
 5   0  0.2573071E-04  0.1300473E+04  0.7818609E-02  0.9029190E-01
        2   -1    0    0  501    0  0.00000000000E+00  0.00000000000E+00  0.44099888608E+03  0.44099888609E+03  0.25500000920E-02 0.  1.
       -2   -1    0    0    0  501  0.00000000000E+00  0.00000000000E+00 -0.95874927909E+03  0.95874927910E+03  0.25500000920E-02 0. -1.
    10030    2    1    2    0    0  0.00000000000E+00  0.00000000000E+00 -0.51775039301E+03  0.13997481652E+04  0.13004727819E+04 0.  0.
        4    1    3    3  502    0 -0.48926074672E+03 -0.31463117466E+02 -0.71861104344E+03  0.86992496842E+03  0.12699999809E+01 0. -1.
       -4    1    3    3    0  502  0.48926074672E+03  0.31463117466E+02  0.20086065042E+03  0.52982319676E+03  0.12699999809E+01 0.  1.
</event>
<event>
 5   0  0.1002887E-04  0.1300036E+04  0.7818609E-02  0.9029537E-01
        4   -1    0    0  501    0  0.00000000000E+00  0.00000000000E+00  0.36335376801E+03  0.36335598747E+03  0.12699999809E+01 0.  1.
       -4   -1    0    0    0  501  0.00000000000E+00  0.00000000000E+00 -0.11628361597E+04  0.11628368532E+04  0.12699999809E+01 0. -1.
    10030    2    1    2    0    0  0.00000000000E+00  0.00000000000E+00 -0.79948239169E+03  0.15261928407E+04  0.13000355735E+04 0.  0.
        2    1    3    3  502    0 -0.20878426458E+03  0.19143042749E+03  0.28708864095E+03  0.40330678828E+03  0.25500000920E-02 0.  1.
       -2    1    3    3    0  502  0.20878426458E+03 -0.19143042749E+03 -0.10865710326E+04  0.11228860524E+04  0.25500000920E-02 0. -1.
</event>
<event>
 5   0  0.2756984E-04  0.1299796E+04  0.7818609E-02  0.9029727E-01
       -2   -1    0    0    0  501  0.00000000000E+00  0.00000000000E+00  0.35719499524E+03  0.35719499525E+03  0.25500000920E-02 0. -1.
        2   -1    0    0  501    0  0.00000000000E+00  0.00000000000E+00 -0.11824558170E+04  0.11824558170E+04  0.25500000920E-02 0.  1.
    10030    2    1    2    0    0  0.00000000000E+00  0.00000000000E+00 -0.82526082172E+03  0.15396508122E+04  0.12997958300E+04 0.  0.
        3    1    3    3  502    0 -0.78272064323E+02  0.42207447437E+03  0.16536080907E+03  0.46001911411E+03  0.10100000352E+00 0. -1.
       -3    1    3    3    0  502  0.78272064323E+02 -0.42207447437E+03 -0.99062163079E+03  0.10796316981E+04  0.10100000352E+00 0.  1.
</event>
<event>
 5   0  0.1479690E-04  0.1272409E+04  0.7818609E-02  0.9051736E-01
        1   -1    0    0  501    0  0.00000000000E+00  0.00000000000E+00  0.99611477617E+03  0.99611477619E+03  0.50400001928E-02 0.  1.
       -1   -1    0    0    0  501  0.00000000000E+00  0.00000000000E+00 -0.40633462189E+03  0.40633462192E+03  0.50400001928E-02 0. -1.
    10030    2    1    2    0    0  0.00000000000E+00  0.00000000000E+00  0.58978015428E+03  0.14024493981E+04  0.12724086151E+04 0.  0.
        1    1    3    3  502    0 -0.18091090348E+01  0.27867474156E+03  0.92526111100E+03  0.96631827470E+03  0.50400001928E-02 0.  1.
       -1    1    3    3    0  502  0.18091090348E+01 -0.27867474156E+03 -0.33548095672E+03  0.43613112341E+03  0.50400001928E-02 0. -1.
</event>
<event>
 5   0  0.1476511E-04  0.1299827E+04  0.7818609E-02  0.9029702E-01
        1   -1    0    0  501    0  0.00000000000E+00  0.00000000000E+00  0.22534469529E+04  0.22534469529E+04  0.50400001928E-02 0.  1.
       -1   -1    0    0    0  501  0.00000000000E+00  0.00000000000E+00 -0.18744073234E+03  0.18744073241E+03  0.50400001928E-02 0. -1.
    10030    2    1    2    0    0  0.00000000000E+00  0.00000000000E+00  0.20660062205E+04  0.24408876853E+04  0.12998272919E+04 0.  0.
        2    1    3    3  502    0  0.17811326780E+03 -0.22201550187E+03  0.21301794383E+04  0.21491113649E+04  0.25500000920E-02 0.  1.
       -2    1    3    3    0  502 -0.17811326780E+03  0.22201550187E+03 -0.64173217813E+02  0.29177632037E+03  0.25500000920E-02 0. -1.
</event>
<event>
 5   0  0.1476511E-04  0.1299444E+04  0.7818609E-02  0.9030006E-01
        1   -1    0    0  501    0  0.00000000000E+00  0.00000000000E+00  0.85856871554E+03  0.85856871555E+03  0.50400001928E-02 0. -1.
       -1   -1    0    0    0  501  0.00000000000E+00  0.00000000000E+00 -0.49167739454E+03  0.49167739457E+03  0.50400001928E-02 0.  1.
    10030    2    1    2    0    0  0.00000000000E+00  0.00000000000E+00  0.36689132100E+03  0.13502461101E+04  0.12994442337E+04 0.  0.
        2    1    3    3  502    0 -0.69362146810E+02 -0.59661478233E+03  0.44087823858E+03  0.74507310189E+03  0.25500000920E-02 0.  1.
       -2    1    3    3    0  502  0.69362146810E+02  0.59661478233E+03 -0.73986917583E+02  0.60517300823E+03  0.25500000920E-02 0. -1.
</event>
<event>
 5   0  0.2723209E-04  0.1300002E+04  0.7818609E-02  0.9029564E-01
        2   -1    0    0  501    0  0.00000000000E+00  0.00000000000E+00  0.15876686925E+04  0.15876686925E+04  0.25500000920E-02 0.  1.
       -2   -1    0    0    0  501  0.00000000000E+00  0.00000000000E+00 -0.26611425980E+03  0.26611425981E+03  0.25500000920E-02 0. -1.
    10030    2    1    2    0    0  0.00000000000E+00  0.00000000000E+00  0.13215544327E+04  0.18537829523E+04  0.13000019676E+04 0.  0.
        2    1    3    3  502    0 -0.45665127670E+02 -0.16488360330E+03 -0.23342933927E+03  0.28941520858E+03  0.25500000920E-02 0. -1.
       -2    1    3    3    0  502  0.45665127670E+02  0.16488360330E+03  0.15549837719E+04  0.15643677437E+04  0.25500000920E-02 0.  1.
</event>
<event>
 5   0  0.2573071E-04  0.1299115E+04  0.7818609E-02  0.9030267E-01
       -2   -1    0    0    0  501  0.00000000000E+00  0.00000000000E+00  0.44783306217E+03  0.44783306218E+03  0.25500000920E-02 0. -1.
        2   -1    0    0  501    0  0.00000000000E+00  0.00000000000E+00 -0.94214827056E+03  0.94214827057E+03  0.25500000920E-02 0.  1.
    10030    2    1    2    0    0  0.00000000000E+00  0.00000000000E+00 -0.49431520839E+03  0.13899813327E+04  0.12991153067E+04 0.  0.
        4    1    3    3  502    0  0.48658840742E+03 -0.40133390350E+02  0.21122912126E+03  0.53197586583E+03  0.12699999809E+01 0. -1.
       -4    1    3    3    0  502 -0.48658840742E+03  0.40133390350E+02 -0.70554432965E+03  0.85800546692E+03  0.12699999809E+01 0.  1.
</event>
<event>
 5   0  0.2661377E-04  0.1302929E+04  0.7818609E-02  0.9027246E-01
       -2   -1    0    0    0  501  0.00000000000E+00  0.00000000000E+00  0.40891252980E+03  0.40891252981E+03  0.25500000920E-02 0.  1.
        2   -1    0    0  501    0  0.00000000000E+00  0.00000000000E+00 -0.10378888357E+04  0.10378888357E+04  0.25500000920E-02 0. -1.
    10030    2    1    2    0    0  0.00000000000E+00  0.00000000000E+00 -0.62897630594E+03  0.14468013656E+04  0.13029286235E+04 0.  0.
        5    1    3    3  502    0 -0.19678345945E+03  0.32595718125E+03 -0.90145110725E+03  0.97857447477E+03  0.46999998093E+01 0. -1.
       -5    1    3    3    0  502  0.19678345945E+03 -0.32595718125E+03  0.27247480130E+03  0.46822689079E+03  0.46999998093E+01 0.  1.
</event>
<event>
 5   0  0.1479690E-04  0.1299409E+04  0.7818609E-02  0.9030034E-01
        1   -1    0    0  501    0  0.00000000000E+00  0.00000000000E+00  0.88081795344E+03  0.88081795346E+03  0.50400001928E-02 0.  1.
       -1   -1    0    0    0  501  0.00000000000E+00  0.00000000000E+00 -0.47923158825E+03  0.47923158828E+03  0.50400001928E-02 0. -1.
    10030    2    1    2    0    0  0.00000000000E+00  0.00000000000E+00  0.40158636519E+03  0.13600495417E+04  0.12994087684E+04 0.  0.
        1    1    3    3  502    0  0.30038881118E+03 -0.49445751815E+03  0.51021435083E+03  0.77138859141E+03  0.50400001928E-02 0.  1.
       -1    1    3    3    0  502 -0.30038881118E+03  0.49445751815E+03 -0.10862798564E+03  0.58866095032E+03  0.50400001928E-02 0. -1.
</event>
<event>
 5   0  0.1430636E-04  0.1303950E+04  0.7818609E-02  0.9026439E-01
       -1   -1    0    0    0  501  0.00000000000E+00  0.00000000000E+00  0.50769246223E+03  0.50769246226E+03  0.50400001928E-02 0. -1.
        1   -1    0    0  501    0  0.00000000000E+00  0.00000000000E+00 -0.83726102590E+03  0.83726102592E+03  0.50400001928E-02 0.  1.
    10030    2    1    2    0    0  0.00000000000E+00  0.00000000000E+00 -0.32956856367E+03  0.13449534882E+04  0.13039495570E+04 0.  0.
        4    1    3    3  502    0  0.20533943824E+02  0.57102414734E+03  0.15906228224E+03  0.59312110249E+03  0.12699999809E+01 0. -1.
       -4    1    3    3    0  502 -0.20533943824E+02 -0.57102414734E+03 -0.48863084590E+03  0.75183238568E+03  0.12699999809E+01 0.  1.
</event>
<event>
 5   0  0.2723209E-04  0.1299134E+04  0.7818609E-02  0.9030252E-01
        2   -1    0    0  501    0  0.00000000000E+00  0.00000000000E+00  0.13314106527E+04  0.13314106527E+04  0.25500000920E-02 0. -1.
       -2   -1    0    0    0  501  0.00000000000E+00  0.00000000000E+00 -0.31690996472E+03  0.31690996473E+03  0.25500000920E-02 0.  1.
    10030    2    1    2    0    0  0.00000000000E+00  0.00000000000E+00  0.10145006880E+04  0.16483206175E+04  0.12991340239E+04 0.  0.
        2    1    3    3  502    0  0.58155951795E+03  0.24700791337E+03  0.69846634321E+03  0.94184904033E+03  0.25500000920E-02 0. -1.
       -2    1    3    3    0  502 -0.58155951795E+03 -0.24700791337E+03  0.31603434479E+03  0.70647157712E+03  0.25500000920E-02 0.  1.
</event>
<event>
 5   0  0.2794825E-04  0.1301756E+04  0.7818609E-02  0.9028174E-01
        2   -1    0    0  501    0  0.00000000000E+00  0.00000000000E+00  0.96906484012E+03  0.96906484012E+03  0.25500000920E-02 0.  1.
       -2   -1    0    0    0  501  0.00000000000E+00  0.00000000000E+00 -0.43716591710E+03  0.43716591711E+03  0.25500000920E-02 0. -1.
    10030    2    1    2    0    0  0.00000000000E+00  0.00000000000E+00  0.53189892302E+03  0.14062307572E+04  0.13017559212E+04 0.  0.
        1    1    3    3  502    0  0.58974127613E+03  0.21716873943E+03  0.82989902692E+02  0.63391194825E+03  0.50400001928E-02 0. -1.
       -1    1    3    3    0  502 -0.58974127613E+03 -0.21716873943E+03  0.44890902033E+03  0.77231880898E+03  0.50400001928E-02 0.  1.
</event>
<event>
 5   0  0.2794825E-04  0.1301750E+04  0.7818609E-02  0.9028179E-01
       -2   -1    0    0    0  501  0.00000000000E+00  0.00000000000E+00  0.45624568402E+03  0.45624568403E+03  0.25500000920E-02 0.  1.
        2   -1    0    0  501    0  0.00000000000E+00  0.00000000000E+00 -0.92853092177E+03  0.92853092178E+03  0.25500000920E-02 0. -1.
    10030    2    1    2    0    0  0.00000000000E+00  0.00000000000E+00 -0.47228523775E+03  0.13847766058E+04  0.13017499384E+04 0.  0.
        1    1    3    3  502    0 -0.57680781186E+03 -0.17910113867E+03  0.21928404373E+02  0.60437184302E+03  0.50400001928E-02 0.  1.
       -1    1    3    3    0  502  0.57680781186E+03  0.17910113867E+03 -0.49421364212E+03  0.78040476279E+03  0.50400001928E-02 0. -1.
</event>
<event>
 5   0  0.1476511E-04  0.1292154E+04  0.7818609E-02  0.9035811E-01
       -1   -1    0    0    0  501  0.00000000000E+00  0.00000000000E+00  0.67970475366E+03  0.67970475368E+03  0.50400001928E-02 0.  1.
        1   -1    0    0  501    0  0.00000000000E+00  0.00000000000E+00 -0.61411262632E+03  0.61411262634E+03  0.50400001928E-02 0. -1.
    10030    2    1    2    0    0  0.00000000000E+00  0.00000000000E+00  0.65592127346E+02  0.12938173800E+04  0.12921536618E+04 0.  0.
        2    1    3    3  502    0  0.62132099293E+03 -0.12615849596E+03 -0.91700380662E+02  0.64059714500E+03  0.25500000920E-02 0. -1.
       -2    1    3    3    0  502 -0.62132099293E+03  0.12615849596E+03  0.15729250801E+03  0.65322023502E+03  0.25500000920E-02 0.  1.
</event>
<event>
 5   0  0.2661377E-04  0.1299804E+04  0.7818609E-02  0.9029721E-01
       -2   -1    0    0    0  501  0.00000000000E+00  0.00000000000E+00  0.38846065052E+03  0.38846065053E+03  0.25500000920E-02 0. -1.
        2   -1    0    0  501    0  0.00000000000E+00  0.00000000000E+00 -0.10872982210E+04  0.10872982210E+04  0.25500000920E-02 0.  1.
    10030    2    1    2    0    0  0.00000000000E+00  0.00000000000E+00 -0.69883757045E+03  0.14757588715E+04  0.12998039456E+04 0.  0.
        5    1    3    3  502    0 -0.42175200920E+03  0.40509796069E+03 -0.67129451815E+03  0.89030193480E+03  0.46999998093E+01 0.  1.
       -5    1    3    3    0  502  0.42175200920E+03 -0.40509796069E+03 -0.27543052304E+02  0.58545693671E+03  0.46999998093E+01 0. -1.
</event>
<event>
 5   0  0.1430636E-04  0.1298653E+04  0.7818609E-02  0.9030634E-01
        1   -1    0    0  501    0  0.00000000000E+00  0.00000000000E+00  0.17597033709E+04  0.17597033709E+04  0.50400001928E-02 0. -1.
       -1   -1    0    0    0  501  0.00000000000E+00  0.00000000000E+00 -0.23960009816E+03  0.23960009821E+03  0.50400001928E-02 0.  1.
    10030    2    1    2    0    0  0.00000000000E+00  0.00000000000E+00  0.15201032727E+04  0.19993034691E+04  0.12986533032E+04 0.  0.
        4    1    3    3  502    0 -0.52078701657E+03  0.26385637027E+03  0.11976227799E+04  0.13323442635E+04  0.12699999809E+01 0. -1.
       -4    1    3    3    0  502  0.52078701657E+03 -0.26385637027E+03  0.32248049286E+03  0.66695920560E+03  0.12699999809E+01 0.  1.
</event>
<event>
 5   0  0.1479690E-04  0.1305749E+04  0.7818609E-02  0.9025019E-01
        1   -1    0    0  501    0  0.00000000000E+00  0.00000000000E+00  0.80871338411E+03  0.80871338413E+03  0.50400001928E-02 0.  1.
       -1   -1    0    0    0  501  0.00000000000E+00  0.00000000000E+00 -0.52706538676E+03  0.52706538678E+03  0.50400001928E-02 0. -1.
    10030    2    1    2    0    0  0.00000000000E+00  0.00000000000E+00  0.28164799735E+03  0.13357787709E+04  0.13057485709E+04 0.  0.
        1    1    3    3  502    0  0.24975446553E+02 -0.14728274443E+03  0.79099473145E+03  0.80497741890E+03  0.50400001928E-02 0.  1.
       -1    1    3    3    0  502 -0.24975446553E+02  0.14728274443E+03 -0.50934673409E+03  0.53080135201E+03  0.50400001928E-02 0. -1.
</event>
<event>
 5   0  0.1479690E-04  0.1300313E+04  0.7818609E-02  0.9029317E-01
       -1   -1    0    0    0  501  0.00000000000E+00  0.00000000000E+00  0.32974658261E+03  0.32974658264E+03  0.50400001928E-02 0.  1.
        1   -1    0    0  501    0  0.00000000000E+00  0.00000000000E+00 -0.12819039599E+04  0.12819039599E+04  0.50400001928E-02 0. -1.
    10030    2    1    2    0    0  0.00000000000E+00  0.00000000000E+00 -0.95215737725E+03  0.16116505425E+04  0.13003129624E+04 0.  0.
        1    1    3    3  502    0 -0.23025333446E+03  0.57820985050E+03 -0.24301185788E+03  0.66813022110E+03  0.50400001928E-02 0.  1.
       -1    1    3    3    0  502  0.23025333446E+03 -0.57820985050E+03 -0.70914551937E+03  0.94352032142E+03  0.50400001928E-02 0. -1.
</event>
<event>
 5   0  0.1476511E-04  0.1302501E+04  0.7818609E-02  0.9027584E-01
        1   -1    0    0  501    0  0.00000000000E+00  0.00000000000E+00  0.74705302755E+03  0.74705302757E+03  0.50400001928E-02 0.  1.
       -1   -1    0    0    0  501  0.00000000000E+00  0.00000000000E+00 -0.56773417002E+03  0.56773417004E+03  0.50400001928E-02 0. -1.
    10030    2    1    2    0    0  0.00000000000E+00  0.00000000000E+00  0.17931885753E+03  0.13147871976E+04  0.13025014865E+04 0.  0.
        2    1    3    3  502    0  0.10077494000E+03  0.30431108647E+03 -0.48257986856E+03  0.57934804344E+03  0.25500000920E-02 0. -1.
       -2    1    3    3    0  502 -0.10077494000E+03 -0.30431108647E+03  0.66189872609E+03  0.73543915418E+03  0.25500000920E-02 0.  1.
</event>
<event>
 5   0  0.1475396E-04  0.1299599E+04  0.7818609E-02  0.9029883E-01
       -1   -1    0    0    0  501  0.00000000000E+00  0.00000000000E+00  0.42230111910E+03  0.42230111913E+03  0.50400001928E-02 0.  1.
        1   -1    0    0  501    0  0.00000000000E+00  0.00000000000E+00 -0.99985400832E+03  0.99985400833E+03  0.50400001928E-02 0. -1.
    10030    2    1    2    0    0  0.00000000000E+00  0.00000000000E+00 -0.57755288921E+03  0.14221551275E+04  0.12995991177E+04 0.  0.
        3    1    3    3  502    0 -0.31564115596E+03  0.33880188429E+03  0.21009056738E+03  0.50848216571E+03  0.10100000352E+00 0.  1.
       -3    1    3    3    0  502  0.31564115596E+03 -0.33880188429E+03 -0.78764345659E+03  0.91367296176E+03  0.10100000352E+00 0. -1.
</event>
<event>
 5   0  0.2756984E-04  0.1305615E+04  0.7818609E-02  0.9025124E-01
       -2   -1    0    0    0  501  0.00000000000E+00  0.00000000000E+00  0.98782986228E+03  0.98782986228E+03  0.25500000920E-02 0.  1.
        2   -1    0    0  501    0  0.00000000000E+00  0.00000000000E+00 -0.43140770960E+03  0.43140770961E+03  0.25500000920E-02 0. -1.
    10030    2    1    2    0    0  0.00000000000E+00  0.00000000000E+00  0.55642215267E+03  0.14192375719E+04  0.13056146727E+04 0.  0.
        3    1    3    3  502    0  0.41797799533E+03 -0.40051839368E+03  0.60619202451E+03  0.83820604211E+03  0.10100000352E+00 0.  1.
       -3    1    3    3    0  502 -0.41797799533E+03  0.40051839368E+03 -0.49769871832E+02  0.58103152978E+03  0.10100000352E+00 0. -1.
</event>
<event>
 5   0  0.1475396E-04  0.1299146E+04  0.7818609E-02  0.9030243E-01
       -1   -1    0    0    0  501  0.00000000000E+00  0.00000000000E+00  0.35634955196E+03  0.35634955199E+03  0.50400001928E-02 0.  1.
        1   -1    0    0  501    0  0.00000000000E+00  0.00000000000E+00 -0.11840761513E+04  0.11840761513E+04  0.50400001928E-02 0. -1.
    10030    2    1    2    0    0  0.00000000000E+00  0.00000000000E+00 -0.82772659932E+03  0.15404257033E+04  0.12991458825E+04 0.  0.
        3    1    3    3  502    0  0.68192409125E+02  0.60681269347E+03 -0.15119673949E+03  0.62907258234E+03  0.10100000352E+00 0.  1.
       -3    1    3    3    0  502 -0.68192409125E+02 -0.60681269347E+03 -0.67652985983E+03  0.91135312094E+03  0.10100000352E+00 0. -1.
</event>
<event>
 5   0  0.2573071E-04  0.1299173E+04  0.7818609E-02  0.9030222E-01
        2   -1    0    0  501    0  0.00000000000E+00  0.00000000000E+00  0.97383340670E+03  0.97383340670E+03  0.25500000920E-02 0. -1.
       -2   -1    0    0    0  501  0.00000000000E+00  0.00000000000E+00 -0.43330029065E+03  0.43330029066E+03  0.25500000920E-02 0.  1.
    10030    2    1    2    0    0  0.00000000000E+00  0.00000000000E+00  0.54053311605E+03  0.14071336974E+04  0.12991725031E+04 0.  0.
        4    1    3    3  502    0  0.55736515848E+03 -0.16672173402E+03  0.58325926601E+03  0.82379915075E+03  0.12699999809E+01 0. -1.
       -4    1    3    3    0  502 -0.55736515848E+03  0.16672173402E+03 -0.42726149961E+02  0.58333454662E+03  0.12699999809E+01 0.  1.
</event>
<event>
 5   0  0.2756984E-04  0.1298383E+04  0.7818609E-02  0.9030848E-01
        2   -1    0    0  501    0  0.00000000000E+00  0.00000000000E+00  0.67816396926E+03  0.67816396927E+03  0.25500000920E-02 0.  1.
       -2   -1    0    0    0  501  0.00000000000E+00  0.00000000000E+00 -0.62145693676E+03  0.62145693676E+03  0.25500000920E-02 0. -1.
    10030    2    1    2    0    0  0.00000000000E+00  0.00000000000E+00  0.56707032504E+02  0.12996209060E+04  0.12983831529E+04 0.  0.
        3    1    3    3  502    0  0.10107967619E+03  0.54179236838E+03 -0.31503856840E+03  0.63482704823E+03  0.10100000352E+00 0. -1.
       -3    1    3    3    0  502 -0.10107967619E+03 -0.54179236838E+03  0.37174560091E+03  0.66479385780E+03  0.10100000352E+00 0.  1.
</event>
<event>
 5   0  0.2723209E-04  0.1301179E+04  0.7818609E-02  0.9028630E-01
       -2   -1    0    0    0  501  0.00000000000E+00  0.00000000000E+00  0.74256293392E+03  0.74256293392E+03  0.25500000920E-02 0.  1.
        2   -1    0    0  501    0  0.00000000000E+00  0.00000000000E+00 -0.57000823301E+03  0.57000823302E+03  0.25500000920E-02 0. -1.
    10030    2    1    2    0    0  0.00000000000E+00  0.00000000000E+00  0.17255470091E+03  0.13125711669E+04  0.13011794432E+04 0.  0.
        2    1    3    3  502    0  0.26392295537E+03  0.87151492966E+02  0.67965875312E+03  0.73429335405E+03  0.25500000920E-02 0.  1.
       -2    1    3    3    0  502 -0.26392295537E+03 -0.87151492966E+02 -0.50710405222E+03  0.57827781289E+03  0.25500000920E-02 0. -1.
</event>
<event>
 5   0  0.1408341E-04  0.1296713E+04  0.7818609E-02  0.9032176E-01
        1   -1    0    0  501    0  0.00000000000E+00  0.00000000000E+00  0.55592280193E+03  0.55592280196E+03  0.50400001928E-02 0. -1.
       -1   -1    0    0    0  501  0.00000000000E+00  0.00000000000E+00 -0.75615915551E+03  0.75615915553E+03  0.50400001928E-02 0.  1.
    10030    2    1    2    0    0  0.00000000000E+00  0.00000000000E+00 -0.20023635358E+03  0.13120819575E+04  0.12967129466E+04 0.  0.
        5    1    3    3  502    0 -0.14468306729E+03 -0.48704447887E+03 -0.50763031535E+03  0.71823125901E+03  0.46999998093E+01 0.  1.
       -5    1    3    3    0  502  0.14468306729E+03  0.48704447887E+03  0.30739396177E+03  0.59385069848E+03  0.46999998093E+01 0. -1.
</event>
<event>
 5   0  0.1479690E-04  0.1299337E+04  0.7818609E-02  0.9030091E-01
       -1   -1    0    0    0  501  0.00000000000E+00  0.00000000000E+00  0.80332896336E+03  0.80332896337E+03  0.50400001928E-02 0.  1.
        1   -1    0    0  501    0  0.00000000000E+00  0.00000000000E+00 -0.52539984386E+03  0.52539984388E+03  0.50400001928E-02 0. -1.
    10030    2    1    2    0    0  0.00000000000E+00  0.00000000000E+00  0.27792911950E+03  0.13287288073E+04  0.12993366183E+04 0.  0.
        1    1    3    3  502    0  0.18856104408E+03  0.12578696987E+03  0.76158139456E+03  0.79459665850E+03  0.50400001928E-02 0.  1.
       -1    1    3    3    0  502 -0.18856104408E+03 -0.12578696987E+03 -0.48365227506E+03  0.53413214875E+03  0.50400001928E-02 0. -1.
</event>
<event>
 5   0  0.2573071E-04  0.1299542E+04  0.7818609E-02  0.9029928E-01
        2   -1    0    0  501    0  0.00000000000E+00  0.00000000000E+00  0.12730507136E+04  0.12730507137E+04  0.25500000920E-02 0.  1.
       -2   -1    0    0    0  501  0.00000000000E+00  0.00000000000E+00 -0.33164615983E+03  0.33164615984E+03  0.25500000920E-02 0. -1.
    10030    2    1    2    0    0  0.00000000000E+00  0.00000000000E+00  0.94140455382E+03  0.16046968735E+04  0.12995420431E+04 0.  0.
        4    1    3    3  502    0  0.49299648044E+03 -0.33048668898E+03  0.79724964881E+03  0.99391931099E+03  0.12699999809E+01 0.  1.
       -4    1    3    3    0  502 -0.49299648044E+03  0.33048668898E+03  0.14415490501E+03  0.61077756251E+03  0.12699999809E+01 0. -1.
</event>
<event>
 5   0  0.2573071E-04  0.1312692E+04  0.7818609E-02  0.9019560E-01
        2   -1    0    0  501    0  0.00000000000E+00  0.00000000000E+00  0.67691673790E+03  0.67691673790E+03  0.25500000920E-02 0. -1.
       -2   -1    0    0    0  501  0.00000000000E+00  0.00000000000E+00 -0.63640075132E+03  0.63640075132E+03  0.25500000920E-02 0.  1.
    10030    2    1    2    0    0  0.00000000000E+00  0.00000000000E+00  0.40515986580E+02  0.13133174892E+04  0.13126923792E+04 0.  0.
        4    1    3    3  502    0  0.12656895865E+03 -0.38921176065E+03 -0.49309765807E+03  0.64082166725E+03  0.12699999809E+01 0.  1.
       -4    1    3    3    0  502 -0.12656895865E+03  0.38921176065E+03  0.53361364465E+03  0.67249582198E+03  0.12699999809E+01 0. -1.
</event>
<event>
 5   0  0.1002887E-04  0.1299774E+04  0.7818609E-02  0.9029745E-01
        4   -1    0    0  501    0  0.00000000000E+00  0.00000000000E+00  0.91100374325E+03  0.91100462848E+03  0.12699999809E+01 0. -1.
       -4   -1    0    0    0  501  0.00000000000E+00  0.00000000000E+00 -0.46361062617E+03  0.46361236567E+03  0.12699999809E+01 0.  1.
    10030    2    1    2    0    0  0.00000000000E+00  0.00000000000E+00  0.44739311708E+03  0.13746169942E+04  0.12997735493E+04 0.  0.
        4    1    3    3  502    0  0.45686866327E+03  0.45240075363E+03  0.12361225887E+03  0.65473431315E+03  0.12699999809E+01 0.  1.
       -4    1    3    3    0  502 -0.45686866327E+03 -0.45240075363E+03  0.32378085820E+03  0.71988268100E+03  0.12699999809E+01 0. -1.
</event>
<event>
 5   0  0.2756984E-04  0.1296725E+04  0.7818609E-02  0.9032167E-01
       -2   -1    0    0    0  501  0.00000000000E+00  0.00000000000E+00  0.30193241414E+03  0.30193241415E+03  0.25500000920E-02 0.  1.
        2   -1    0    0  501    0  0.00000000000E+00  0.00000000000E+00 -0.13922776435E+04  0.13922776435E+04  0.25500000920E-02 0. -1.
    10030    2    1    2    0    0  0.00000000000E+00  0.00000000000E+00 -0.10903452294E+04  0.16942100577E+04  0.12967247203E+04 0.  0.
        3    1    3    3  502    0 -0.24071230999E+03 -0.60195100164E+03 -0.53303416031E+03  0.83929306610E+03  0.10100000352E+00 0.  1.
       -3    1    3    3    0  502  0.24071230999E+03  0.60195100164E+03 -0.55731106910E+03  0.85491699159E+03  0.10100000352E+00 0. -1.
</event>
<event>
 5   0  0.2573071E-04  0.1301095E+04  0.7818609E-02  0.9028697E-01
        2   -1    0    0  501    0  0.00000000000E+00  0.00000000000E+00  0.12476754482E+04  0.12476754482E+04  0.25500000920E-02 0. -1.
       -2   -1    0    0    0  501  0.00000000000E+00  0.00000000000E+00 -0.33920045038E+03  0.33920045039E+03  0.25500000920E-02 0.  1.
    10030    2    1    2    0    0  0.00000000000E+00  0.00000000000E+00  0.90847499786E+03  0.15868758986E+04  0.13010950372E+04 0.  0.
        4    1    3    3  502    0 -0.51627716914E+03  0.25612620178E+03  0.82229541464E+03  0.10041484494E+04  0.12699999809E+01 0. -1.
       -4    1    3    3    0  502  0.51627716914E+03 -0.25612620178E+03  0.86179583213E+02  0.58272744922E+03  0.12699999809E+01 0.  1.
</event>
<event>
 5   0  0.1408341E-04  0.1304499E+04  0.7818609E-02  0.9026005E-01
        1   -1    0    0  501    0  0.00000000000E+00  0.00000000000E+00  0.82876399148E+03  0.82876399150E+03  0.50400001928E-02 0. -1.
       -1   -1    0    0    0  501  0.00000000000E+00  0.00000000000E+00 -0.51333027798E+03  0.51333027801E+03  0.50400001928E-02 0.  1.
    10030    2    1    2    0    0  0.00000000000E+00  0.00000000000E+00  0.31543371350E+03  0.13420942695E+04  0.13044993678E+04 0.  0.
        5    1    3    3  502    0 -0.16016914525E+03  0.24717652943E+03  0.75643068009E+03  0.81176342340E+03  0.46999998093E+01 0. -1.
       -5    1    3    3    0  502  0.16016914525E+03 -0.24717652943E+03 -0.44099696659E+03  0.53033084611E+03  0.46999998093E+01 0.  1.
</event>
<event>
 5   0  0.1476511E-04  0.1299584E+04  0.7818609E-02  0.9029895E-01
        1   -1    0    0  501    0  0.00000000000E+00  0.00000000000E+00  0.14672412784E+04  0.14672412785E+04  0.50400001928E-02 0. -1.
       -1   -1    0    0    0  501  0.00000000000E+00  0.00000000000E+00 -0.28777106633E+03  0.28777106637E+03  0.50400001928E-02 0.  1.
    10030    2    1    2    0    0  0.00000000000E+00  0.00000000000E+00  0.11794702121E+04  0.17550123448E+04  0.12995839139E+04 0.  0.
        2    1    3    3  502    0 -0.64474220570E+03  0.72047219536E+02  0.54018523601E+03  0.84420578230E+03  0.25500000920E-02 0.  1.
       -2    1    3    3    0  502  0.64474220570E+03 -0.72047219536E+02  0.63928497610E+03  0.91080656252E+03  0.25500000920E-02 0. -1.
</event>
<event>
 5   0  0.2573071E-04  0.1298417E+04  0.7818609E-02  0.9030822E-01
       -2   -1    0    0    0  501  0.00000000000E+00  0.00000000000E+00  0.44188038814E+03  0.44188038815E+03  0.25500000920E-02 0.  1.
        2   -1    0    0  501    0  0.00000000000E+00  0.00000000000E+00 -0.95381356868E+03  0.95381356868E+03  0.25500000920E-02 0. -1.
    10030    2    1    2    0    0  0.00000000000E+00  0.00000000000E+00 -0.51193318054E+03  0.13956939568E+04  0.12984167435E+04 0.  0.
        4    1    3    3  502    0  0.43136308141E+02  0.34342308537E+03  0.33442745105E+03  0.48129355861E+03  0.12699999809E+01 0.  1.
       -4    1    3    3    0  502 -0.43136308141E+02 -0.34342308537E+03 -0.84636063159E+03  0.91440039821E+03  0.12699999809E+01 0. -1.
</event>
<event>
 5   0  0.2756984E-04  0.1298037E+04  0.7818609E-02  0.9031123E-01
       -2   -1    0    0    0  501  0.00000000000E+00  0.00000000000E+00  0.16481665881E+03  0.16481665883E+03  0.25500000920E-02 0. -1.
        2   -1    0    0  501    0  0.00000000000E+00  0.00000000000E+00 -0.25557182895E+04  0.25557182895E+04  0.25500000920E-02 0.  1.
    10030    2    1    2    0    0  0.00000000000E+00  0.00000000000E+00 -0.23909016307E+04  0.27205349484E+04  0.12980369014E+04 0.  0.
        3    1    3    3  502    0  0.43225587800E+03 -0.34208527274E+03 -0.47745382584E+03  0.72926651089E+03  0.10100000352E+00 0. -1.
       -3    1    3    3    0  502 -0.43225587800E+03  0.34208527274E+03 -0.19134478049E+04  0.19912684375E+04  0.10100000352E+00 0.  1.
</event>
<event>
 5   0  0.1002887E-04  0.1301876E+04  0.7818609E-02  0.9028079E-01
        3   -1    0    0  501    0  0.00000000000E+00  0.00000000000E+00  0.43725297811E+03  0.43725298978E+03  0.10100000352E+00 0.  1.
       -3   -1    0    0    0  501  0.00000000000E+00  0.00000000000E+00 -0.96905044459E+03  0.96905044986E+03  0.10100000352E+00 0. -1.
    10030    2    1    2    0    0  0.00000000000E+00  0.00000000000E+00 -0.53179746648E+03  0.14063034396E+04  0.13018758846E+04 0.  0.
        2    1    3    3  502    0 -0.36834909057E+03  0.38941968091E+03  0.13303710491E+03  0.55229304875E+03  0.25500000920E-02 0. -1.
       -2    1    3    3    0  502  0.36834909057E+03 -0.38941968091E+03 -0.66483457139E+03  0.85401039088E+03  0.25500000920E-02 0.  1.
</event>
<event>
 5   0  0.2723209E-04  0.1295810E+04  0.7818609E-02  0.9032894E-01
       -2   -1    0    0    0  501  0.00000000000E+00  0.00000000000E+00  0.54313165630E+03  0.54313165631E+03  0.25500000920E-02 0.  1.
        2   -1    0    0  501    0  0.00000000000E+00  0.00000000000E+00 -0.77288983685E+03  0.77288983685E+03  0.25500000920E-02 0. -1.
    10030    2    1    2    0    0  0.00000000000E+00  0.00000000000E+00 -0.22975818055E+03  0.13160214932E+04  0.12958100744E+04 0.  0.
        2    1    3    3  502    0 -0.38631890156E+02  0.63212398928E+03  0.24030655391E+02  0.63375912866E+03  0.25500000920E-02 0. -1.
       -2    1    3    3    0  502  0.38631890156E+02 -0.63212398928E+03 -0.25378883594E+03  0.68226236450E+03  0.25500000920E-02 0.  1.
</event>
<event>
 5   0  0.2573071E-04  0.1300172E+04  0.7818609E-02  0.9029429E-01
        2   -1    0    0  501    0  0.00000000000E+00  0.00000000000E+00  0.13496802266E+04  0.13496802266E+04  0.25500000920E-02 0. -1.
       -2   -1    0    0    0  501  0.00000000000E+00  0.00000000000E+00 -0.31311992834E+03  0.31311992835E+03  0.25500000920E-02 0.  1.
    10030    2    1    2    0    0  0.00000000000E+00  0.00000000000E+00  0.10365602982E+04  0.16628001549E+04  0.13001719514E+04 0.  0.
        4    1    3    3  502    0 -0.35280670486E+03  0.13659722739E+03 -0.15782413869E+03  0.40992858546E+03  0.12699999809E+01 0.  1.
       -4    1    3    3    0  502  0.35280670486E+03 -0.13659722739E+03  0.11943844369E+04  0.12528715694E+04  0.12699999809E+01 0. -1.
</event>
<event>
 5   0  0.1479690E-04  0.1300586E+04  0.7818609E-02  0.9029100E-01
        1   -1    0    0  501    0  0.00000000000E+00  0.00000000000E+00  0.80200711882E+03  0.80200711884E+03  0.50400001928E-02 0.  1.
       -1   -1    0    0    0  501  0.00000000000E+00  0.00000000000E+00 -0.52727866077E+03  0.52727866079E+03  0.50400001928E-02 0. -1.
    10030    2    1    2    0    0  0.00000000000E+00  0.00000000000E+00  0.27472845806E+03  0.13292857796E+04  0.13005863902E+04 0.  0.
        1    1    3    3  502    0 -0.56232666730E+03 -0.21575627846E+03  0.38796690465E+03  0.71643588100E+03  0.50400001928E-02 0.  1.
       -1    1    3    3    0  502  0.56232666730E+03  0.21575627846E+03 -0.11323844660E+03  0.61284989864E+03  0.50400001928E-02 0. -1.
</event>
<event>
 5   0  0.2723209E-04  0.1299778E+04  0.7818609E-02  0.9029741E-01
        2   -1    0    0  501    0  0.00000000000E+00  0.00000000000E+00  0.70621385742E+03  0.70621385743E+03  0.25500000920E-02 0. -1.
       -2   -1    0    0    0  501  0.00000000000E+00  0.00000000000E+00 -0.59805609400E+03  0.59805609401E+03  0.25500000920E-02 0.  1.
    10030    2    1    2    0    0  0.00000000000E+00  0.00000000000E+00  0.10815776342E+03  0.13042699514E+04  0.12997776750E+04 0.  0.
        2    1    3    3  502    0  0.13414766710E+03  0.23931926974E+03 -0.53709751173E+03  0.60311113949E+03  0.25500000920E-02 0.  1.
       -2    1    3    3    0  502 -0.13414766710E+03 -0.23931926974E+03  0.64525527515E+03  0.70115881195E+03  0.25500000920E-02 0. -1.
</event>
<event>
 5   0  0.1408341E-04  0.1300379E+04  0.7818609E-02  0.9029265E-01
       -1   -1    0    0    0  501  0.00000000000E+00  0.00000000000E+00  0.51553317476E+03  0.51553317478E+03  0.50400001928E-02 0. -1.
        1   -1    0    0  501    0  0.00000000000E+00  0.00000000000E+00 -0.82001751841E+03  0.82001751842E+03  0.50400001928E-02 0.  1.
    10030    2    1    2    0    0  0.00000000000E+00  0.00000000000E+00 -0.30448434365E+03  0.13355506932E+04  0.13003787674E+04 0.  0.
        5    1    3    3  502    0  0.24568347526E+03 -0.11917335880E+03  0.45376933499E+03  0.52961434917E+03  0.46999998093E+01 0. -1.
       -5    1    3    3    0  502 -0.24568347526E+03  0.11917335880E+03 -0.75825367864E+03  0.80593634404E+03  0.46999998093E+01 0.  1.
</event>
<event>
 5   0  0.1002887E-04  0.1298787E+04  0.7818609E-02  0.9030528E-01
       -3   -1    0    0    0  501  0.00000000000E+00  0.00000000000E+00  0.22573610086E+03  0.22573612346E+03  0.10100000352E+00 0.  1.
        3   -1    0    0  501    0  0.00000000000E+00  0.00000000000E+00 -0.18681624848E+04  0.18681624876E+04  0.10100000352E+00 0. -1.
    10030    2    1    2    0    0  0.00000000000E+00  0.00000000000E+00 -0.16424263840E+04  0.20938986110E+04  0.12987867286E+04 0.  0.
        5    1    3    3  502    0  0.32828451700E+03 -0.89820587528E+02 -0.17128190097E+04  0.17463131197E+04  0.46999998093E+01 0. -1.
       -5    1    3    3    0  502 -0.32828451700E+03  0.89820587528E+02  0.70392625694E+02  0.34758549135E+03  0.46999998093E+01 0.  1.
</event>
<event>
 5   0  0.1475396E-04  0.1297764E+04  0.7818609E-02  0.9031340E-01
        1   -1    0    0  501    0  0.00000000000E+00  0.00000000000E+00  0.12576802778E+04  0.12576802778E+04  0.50400001928E-02 0. -1.
       -1   -1    0    0    0  501  0.00000000000E+00  0.00000000000E+00 -0.33478119000E+03  0.33478119004E+03  0.50400001928E-02 0.  1.
    10030    2    1    2    0    0  0.00000000000E+00  0.00000000000E+00  0.92289908781E+03  0.15924614679E+04  0.12977637691E+04 0.  0.
        3    1    3    3  502    0  0.16800926456E+03  0.15278129046E+03 -0.28442853968E+03  0.36396269050E+03  0.10100000352E+00 0.  1.
       -3    1    3    3    0  502 -0.16800926456E+03 -0.15278129046E+03  0.12073276275E+04  0.12284987774E+04  0.10100000352E+00 0. -1.
</event>
<event>
 5   0  0.1002887E-04  0.1284946E+04  0.7818609E-02  0.9041589E-01
        4   -1    0    0  501    0  0.00000000000E+00  0.00000000000E+00  0.84262839497E+03  0.84262935203E+03  0.12699999809E+01 0. -1.
       -4   -1    0    0    0  501  0.00000000000E+00  0.00000000000E+00 -0.48985990367E+03  0.48986154995E+03  0.12699999809E+01 0.  1.
    10030    2    1    2    0    0  0.00000000000E+00  0.00000000000E+00  0.35276849130E+03  0.13324909020E+04  0.12849460671E+04 0.  0.
        2    1    3    3  502    0  0.29397351927E+03 -0.56804685167E+03  0.23924007588E+03  0.68288613227E+03  0.25500000920E-02 0. -1.
       -2    1    3    3    0  502 -0.29397351927E+03  0.56804685167E+03  0.11352841542E+03  0.64960476972E+03  0.25500000920E-02 0.  1.
</event>
<event>
 5   0  0.1408341E-04  0.1300560E+04  0.7818609E-02  0.9029122E-01
       -1   -1    0    0    0  501  0.00000000000E+00  0.00000000000E+00  0.23684288595E+03  0.23684288600E+03  0.50400001928E-02 0. -1.
        1   -1    0    0  501    0  0.00000000000E+00  0.00000000000E+00 -0.17854190289E+04  0.17854190289E+04  0.50400001928E-02 0.  1.
    10030    2    1    2    0    0  0.00000000000E+00  0.00000000000E+00 -0.15485761430E+04  0.20222619149E+04  0.13005595649E+04 0.  0.
        5    1    3    3  502    0  0.21794531494E+03 -0.70500654126E+02  0.17200522054E+03  0.28649326070E+03  0.46999998093E+01 0. -1.
       -5    1    3    3    0  502 -0.21794531494E+03  0.70500654126E+02 -0.17205813635E+04  0.17357686542E+04  0.46999998093E+01 0.  1.
</event>
<event>
 5   0  0.2756984E-04  0.1317849E+04  0.7818609E-02  0.9015529E-01
        2   -1    0    0  501    0  0.00000000000E+00  0.00000000000E+00  0.25200231703E+04  0.25200231703E+04  0.25500000920E-02 0. -1.
       -2   -1    0    0    0  501  0.00000000000E+00  0.00000000000E+00 -0.17229261634E+03  0.17229261636E+03  0.25500000920E-02 0.  1.
    10030    2    1    2    0    0  0.00000000000E+00  0.00000000000E+00  0.23477305540E+04  0.26923157867E+04  0.13178488309E+04 0.  0.
        3    1    3    3  502    0 -0.23237888603E+03  0.46012143114E+03  0.33533007433E+03  0.61494548296E+03  0.10100000352E+00 0. -1.
       -3    1    3    3    0  502  0.23237888603E+03 -0.46012143114E+03  0.20124004797E+04  0.20773703037E+04  0.10100000352E+00 0.  1.
</event>
<event>
 5   0  0.1479690E-04  0.1299113E+04  0.7818609E-02  0.9030269E-01
        1   -1    0    0  501    0  0.00000000000E+00  0.00000000000E+00  0.11720367142E+04  0.11720367142E+04  0.50400001928E-02 0.  1.
       -1   -1    0    0    0  501  0.00000000000E+00  0.00000000000E+00 -0.35999164020E+03  0.35999164024E+03  0.50400001928E-02 0. -1.
    10030    2    1    2    0    0  0.00000000000E+00  0.00000000000E+00  0.81204507397E+03  0.15320283544E+04  0.12991126497E+04 0.  0.
        1    1    3    3  502    0 -0.34580742190E+03 -0.26843216271E+03  0.97193941572E+03  0.10659759973E+04  0.50400001928E-02 0.  1.
       -1    1    3    3    0  502  0.34580742190E+03  0.26843216271E+03 -0.15989434174E+03  0.46605235710E+03  0.50400001928E-02 0. -1.
</event>
<event>
 5   0  0.1408341E-04  0.1301830E+04  0.7818609E-02  0.9028115E-01
        1   -1    0    0  501    0  0.00000000000E+00  0.00000000000E+00  0.97855318220E+03  0.97855318221E+03  0.50400001928E-02 0.  1.
       -1   -1    0    0    0  501  0.00000000000E+00  0.00000000000E+00 -0.43297661180E+03  0.43297661183E+03  0.50400001928E-02 0. -1.
    10030    2    1    2    0    0  0.00000000000E+00  0.00000000000E+00  0.54557657040E+03  0.14115297940E+04  0.13018304672E+04 0.  0.
        5    1    3    3  502    0  0.12603789449E+03 -0.49445029015E+03  0.71094679594E+03  0.87511946438E+03  0.46999998093E+01 0.  1.
       -5    1    3    3    0  502 -0.12603789449E+03  0.49445029015E+03 -0.16537022554E+03  0.53641032966E+03  0.46999998093E+01 0. -1.
</event>
<event>
 5   0  0.2756984E-04  0.1299519E+04  0.7818609E-02  0.9029947E-01
       -2   -1    0    0    0  501  0.00000000000E+00  0.00000000000E+00  0.30207157455E+03  0.30207157456E+03  0.25500000920E-02 0. -1.
        2   -1    0    0  501    0  0.00000000000E+00  0.00000000000E+00 -0.13976397770E+04  0.13976397770E+04  0.25500000920E-02 0.  1.
    10030    2    1    2    0    0  0.00000000000E+00  0.00000000000E+00 -0.10955682025E+04  0.16997113516E+04  0.12995187542E+04 0.  0.
        3    1    3    3  502    0  0.23094261017E+03 -0.60008659106E+03 -0.67012387150E+03  0.92871116033E+03  0.10100000352E+00 0. -1.
       -3    1    3    3    0  502 -0.23094261017E+03  0.60008659106E+03 -0.42544433099E+03  0.77100019127E+03  0.10100000352E+00 0.  1.
</event>
<event>
 5   0  0.2661377E-04  0.1311426E+04  0.7818609E-02  0.9020553E-01
       -2   -1    0    0    0  501  0.00000000000E+00  0.00000000000E+00  0.68145236276E+03  0.68145236277E+03  0.25500000920E-02 0.  1.
        2   -1    0    0  501    0  0.00000000000E+00  0.00000000000E+00 -0.63094536719E+03  0.63094536720E+03  0.25500000920E-02 0. -1.
    10030    2    1    2    0    0  0.00000000000E+00  0.00000000000E+00  0.50506995570E+02  0.13123977300E+04  0.13114255011E+04 0.  0.
        5    1    3    3  502    0 -0.26353931366E+02  0.12517969927E+03 -0.61831939484E+03  0.63143127167E+03  0.46999998093E+01 0. -1.
       -5    1    3    3    0  502  0.26353931366E+02 -0.12517969927E+03  0.66882639041E+03  0.68096645829E+03  0.46999998093E+01 0.  1.
</event>
<event>
 5   0  0.2661377E-04  0.1300233E+04  0.7818609E-02  0.9029380E-01
       -2   -1    0    0    0  501  0.00000000000E+00  0.00000000000E+00  0.39786859054E+03  0.39786859055E+03  0.25500000920E-02 0. -1.
        2   -1    0    0  501    0  0.00000000000E+00  0.00000000000E+00 -0.10622890552E+04  0.10622890552E+04  0.25500000920E-02 0.  1.
    10030    2    1    2    0    0  0.00000000000E+00  0.00000000000E+00 -0.66442046462E+03  0.14601576457E+04  0.13002329778E+04 0.  0.
        5    1    3    3  502    0  0.62314521008E+03  0.93319653812E+02 -0.51192780884E+03  0.81185631863E+03  0.46999998093E+01 0.  1.
       -5    1    3    3    0  502 -0.62314521008E+03 -0.93319653812E+02 -0.15249265578E+03  0.64830132708E+03  0.46999998093E+01 0. -1.
</event>
<event>
 5   0  0.1430636E-04  0.1301141E+04  0.7818609E-02  0.9028661E-01
        1   -1    0    0  501    0  0.00000000000E+00  0.00000000000E+00  0.14063889576E+04  0.14063889576E+04  0.50400001928E-02 0. -1.
       -1   -1    0    0    0  501  0.00000000000E+00  0.00000000000E+00 -0.30094240382E+03  0.30094240386E+03  0.50400001928E-02 0.  1.
    10030    2    1    2    0    0  0.00000000000E+00  0.00000000000E+00  0.11054465538E+04  0.17073313615E+04  0.13011411509E+04 0.  0.
        4    1    3    3  502    0  0.25616768614E+03  0.52782887758E+03  0.92157250066E+03  0.10924846426E+04  0.12699999809E+01 0. -1.
       -4    1    3    3    0  502 -0.25616768614E+03 -0.52782887758E+03  0.18387405315E+03  0.61484671891E+03  0.12699999809E+01 0.  1.
</event>
<event>
 5   0  0.1408341E-04  0.1299882E+04  0.7818609E-02  0.9029659E-01
       -1   -1    0    0    0  501  0.00000000000E+00  0.00000000000E+00  0.37141775220E+03  0.37141775224E+03  0.50400001928E-02 0. -1.
        1   -1    0    0  501    0  0.00000000000E+00  0.00000000000E+00 -0.11373266579E+04  0.11373266579E+04  0.50400001928E-02 0.  1.
    10030    2    1    2    0    0  0.00000000000E+00  0.00000000000E+00 -0.76590890571E+03  0.15087444102E+04  0.12998820113E+04 0.  0.
        5    1    3    3  502    0  0.37678269224E+03  0.19525903973E+03 -0.95429802714E+03  0.10444128036E+04  0.46999998093E+01 0.  1.
       -5    1    3    3    0  502 -0.37678269224E+03 -0.19525903973E+03  0.18838912142E+03  0.46433160655E+03  0.46999998093E+01 0. -1.
</event>
<event>
 5   0  0.1430636E-04  0.1305597E+04  0.7818609E-02  0.9025139E-01
        1   -1    0    0  501    0  0.00000000000E+00  0.00000000000E+00  0.84649409763E+03  0.84649409764E+03  0.50400001928E-02 0. -1.
       -1   -1    0    0    0  501  0.00000000000E+00  0.00000000000E+00 -0.50342428846E+03  0.50342428848E+03  0.50400001928E-02 0.  1.
    10030    2    1    2    0    0  0.00000000000E+00  0.00000000000E+00  0.34306980917E+03  0.13499183861E+04  0.13055967047E+04 0.  0.
        4    1    3    3  502    0  0.39879761142E+03  0.47223432118E+03  0.38866211409E+03  0.73014015148E+03  0.12699999809E+01 0. -1.
       -4    1    3    3    0  502 -0.39879761142E+03 -0.47223432118E+03 -0.45592304913E+02  0.61977823465E+03  0.12699999809E+01 0.  1.
</event>
<event>
 5   0  0.1475396E-04  0.1297115E+04  0.7818609E-02  0.9031856E-01
        1   -1    0    0  501    0  0.00000000000E+00  0.00000000000E+00  0.51145938787E+03  0.51145938789E+03  0.50400001928E-02 0. -1.
       -1   -1    0    0    0  501  0.00000000000E+00  0.00000000000E+00 -0.82240488139E+03  0.82240488140E+03  0.50400001928E-02 0.  1.
    10030    2    1    2    0    0  0.00000000000E+00  0.00000000000E+00 -0.31094549352E+03  0.13338642693E+04  0.12971147941E+04 0.  0.
        3    1    3    3  502    0  0.61595046119E+03  0.30663753523E+02  0.50941504367E+02  0.61881360965E+03  0.10100000352E+00 0. -1.
       -3    1    3    3    0  502 -0.61595046119E+03 -0.30663753523E+02 -0.36188699789E+03  0.71505065965E+03  0.10100000352E+00 0.  1.
</event>
<event>
 5   0  0.1430636E-04  0.1302339E+04  0.7818609E-02  0.9027712E-01
        1   -1    0    0  501    0  0.00000000000E+00  0.00000000000E+00  0.93803800107E+03  0.93803800108E+03  0.50400001928E-02 0.  1.
       -1   -1    0    0    0  501  0.00000000000E+00  0.00000000000E+00 -0.45203031819E+03  0.45203031822E+03  0.50400001928E-02 0. -1.
    10030    2    1    2    0    0  0.00000000000E+00  0.00000000000E+00  0.48600768288E+03  0.13900683193E+04  0.13023388440E+04 0.  0.
        4    1    3    3  502    0 -0.45355364541E+03 -0.21584723524E+03 -0.19930071055E+03  0.54039182484E+03  0.12699999809E+01 0. -1.
       -4    1    3    3    0  502  0.45355364541E+03  0.21584723524E+03  0.68530839343E+03  0.84967649446E+03  0.12699999809E+01 0.  1.
</event>
<event>
 5   0  0.2661377E-04  0.1299889E+04  0.7818609E-02  0.9029653E-01
       -2   -1    0    0    0  501  0.00000000000E+00  0.00000000000E+00  0.65550231090E+03  0.65550231091E+03  0.25500000920E-02 0.  1.
        2   -1    0    0  501    0  0.00000000000E+00  0.00000000000E+00 -0.64443422866E+03  0.64443422867E+03  0.25500000920E-02 0. -1.
    10030    2    1    2    0    0  0.00000000000E+00  0.00000000000E+00  0.11068082241E+02  0.12999365396E+04  0.12998894201E+04 0.  0.
        5    1    3    3  502    0 -0.62231287221E+03 -0.18576231937E+03 -0.19468583225E+02  0.64975538932E+03  0.46999998093E+01 0. -1.
       -5    1    3    3    0  502  0.62231287221E+03  0.18576231937E+03  0.30536665466E+02  0.65018115026E+03  0.46999998093E+01 0.  1.
</event>
<event>
 5   0  0.2661377E-04  0.1298703E+04  0.7818609E-02  0.9030595E-01
       -2   -1    0    0    0  501  0.00000000000E+00  0.00000000000E+00  0.64398569528E+03  0.64398569529E+03  0.25500000920E-02 0.  1.
        2   -1    0    0  501    0  0.00000000000E+00  0.00000000000E+00 -0.65476167441E+03  0.65476167442E+03  0.25500000920E-02 0. -1.
    10030    2    1    2    0    0  0.00000000000E+00  0.00000000000E+00 -0.10775979133E+02  0.12987473697E+04  0.12987026637E+04 0.  0.
        5    1    3    3  502    0 -0.37277321151E+03 -0.41399438503E+03  0.32821582608E+03  0.64660570407E+03  0.46999998093E+01 0. -1.
       -5    1    3    3    0  502  0.37277321151E+03  0.41399438503E+03 -0.33899180521E+03  0.65214166563E+03  0.46999998093E+01 0.  1.
</event>
<event>
 5   0  0.1002887E-04  0.1300128E+04  0.7818609E-02  0.9029464E-01
        4   -1    0    0  501    0  0.00000000000E+00  0.00000000000E+00  0.40638183233E+03  0.40638381678E+03  0.12699999809E+01 0. -1.
       -4   -1    0    0    0  501  0.00000000000E+00  0.00000000000E+00 -0.10398627691E+04  0.10398635447E+04  0.12699999809E+01 0.  1.
    10030    2    1    2    0    0  0.00000000000E+00  0.00000000000E+00 -0.63348093681E+03  0.14462473615E+04  0.13001281988E+04 0.  0.
        2    1    3    3  502    0  0.13746218568E+03  0.48590795721E+03 -0.77211497126E+03  0.92258545633E+03  0.25500000920E-02 0.  1.
       -2    1    3    3    0  502 -0.13746218568E+03 -0.48590795721E+03  0.13863403445E+03  0.52366190513E+03  0.25500000920E-02 0. -1.
</event>
<event>
 5   0  0.1479690E-04  0.1299869E+04  0.7818609E-02  0.9029669E-01
       -1   -1    0    0    0  501  0.00000000000E+00  0.00000000000E+00  0.78760195022E+03  0.78760195024E+03  0.50400001928E-02 0.  1.
        1   -1    0    0  501    0  0.00000000000E+00  0.00000000000E+00 -0.53633039228E+03  0.53633039230E+03  0.50400001928E-02 0. -1.
    10030    2    1    2    0    0  0.00000000000E+00  0.00000000000E+00  0.25127155794E+03  0.13239323425E+04  0.12998690133E+04 0.  0.
        1    1    3    3  502    0  0.36745869536E+03 -0.11014107331E+03 -0.40872688705E+03  0.56054849661E+03  0.50400001928E-02 0. -1.
       -1    1    3    3    0  502 -0.36745869536E+03  0.11014107331E+03  0.65999844499E+03  0.76338384594E+03  0.50400001928E-02 0.  1.
</event>
<event>
 5   0  0.2794825E-04  0.1300203E+04  0.7818609E-02  0.9029404E-01
       -2   -1    0    0    0  501  0.00000000000E+00  0.00000000000E+00  0.33645489206E+03  0.33645489207E+03  0.25500000920E-02 0.  1.
        2   -1    0    0  501    0  0.00000000000E+00  0.00000000000E+00 -0.12561321013E+04  0.12561321013E+04  0.25500000920E-02 0. -1.
    10030    2    1    2    0    0  0.00000000000E+00  0.00000000000E+00 -0.91967720927E+03  0.15925869934E+04  0.13002027389E+04 0.  0.
        1    1    3    3  502    0 -0.90832995346E+02  0.55031111972E+03 -0.86891566681E+03  0.10325247685E+04  0.50400001928E-02 0. -1.
       -1    1    3    3    0  502  0.90832995346E+02 -0.55031111972E+03 -0.50761542463E+02  0.56006222489E+03  0.50400001928E-02 0.  1.
</event>
<event>
 5   0  0.2794825E-04  0.1300331E+04  0.7818609E-02  0.9029303E-01
        2   -1    0    0  501    0  0.00000000000E+00  0.00000000000E+00  0.93184465791E+03  0.93184465791E+03  0.25500000920E-02 0.  1.
       -2   -1    0    0    0  501  0.00000000000E+00  0.00000000000E+00 -0.45363241235E+03  0.45363241236E+03  0.25500000920E-02 0. -1.
    10030    2    1    2    0    0  0.00000000000E+00  0.00000000000E+00  0.47821224555E+03  0.13854770703E+04  0.13003306350E+04 0.  0.
        1    1    3    3  502    0 -0.15219990600E+03 -0.52523124188E+03  0.61381956599E+03  0.82207489224E+03  0.50400001928E-02 0.  1.
       -1    1    3    3    0  502  0.15219990600E+03  0.52523124188E+03 -0.13560732043E+03  0.56340217803E+03  0.50400001928E-02 0. -1.
</event>
<event>
 5   0  0.1475396E-04  0.1300506E+04  0.7818609E-02  0.9029164E-01
        1   -1    0    0  501    0  0.00000000000E+00  0.00000000000E+00  0.83564083109E+03  0.83564083110E+03  0.50400001928E-02 0. -1.
       -1   -1    0    0    0  501  0.00000000000E+00  0.00000000000E+00 -0.50599365551E+03  0.50599365554E+03  0.50400001928E-02 0.  1.
    10030    2    1    2    0    0  0.00000000000E+00  0.00000000000E+00  0.32964717558E+03  0.13416344866E+04  0.13005059921E+04 0.  0.
        3    1    3    3  502    0 -0.60564282415E+03 -0.19694495727E+03  0.29376286049E+02  0.63753707580E+03  0.10100000352E+00 0.  1.
       -3    1    3    3    0  502  0.60564282415E+03  0.19694495727E+03  0.30027088953E+03  0.70409741083E+03  0.10100000352E+00 0. -1.
</event>
<event>
 5   0  0.2573071E-04  0.1298141E+04  0.7818609E-02  0.9031041E-01
       -2   -1    0    0    0  501  0.00000000000E+00  0.00000000000E+00  0.18049521682E+03  0.18049521683E+03  0.25500000920E-02 0. -1.
        2   -1    0    0  501    0  0.00000000000E+00  0.00000000000E+00 -0.23340920300E+04  0.23340920300E+04  0.25500000920E-02 0.  1.
    10030    2    1    2    0    0  0.00000000000E+00  0.00000000000E+00 -0.21535968132E+04  0.25145872468E+04  0.12981408969E+04 0.  0.
        4    1    3    3  502    0  0.31868833769E+03  0.55774159439E+03 -0.89661055626E+03  0.11029732749E+04  0.12699999809E+01 0.  1.
       -4    1    3    3    0  502 -0.31868833769E+03 -0.55774159439E+03 -0.12569862569E+04  0.14116139719E+04  0.12699999809E+01 0. -1.
</event>
<event>
 5   0  0.1476511E-04  0.1303022E+04  0.7818609E-02  0.9027172E-01
        1   -1    0    0  501    0  0.00000000000E+00  0.00000000000E+00  0.10721801697E+04  0.10721801697E+04  0.50400001928E-02 0.  1.
       -1   -1    0    0    0  501  0.00000000000E+00  0.00000000000E+00 -0.39589096012E+03  0.39589096016E+03  0.50400001928E-02 0. -1.
    10030    2    1    2    0    0  0.00000000000E+00  0.00000000000E+00  0.67628920957E+03  0.14680711299E+04  0.13030217755E+04 0.  0.
        2    1    3    3  502    0  0.30798155413E+03 -0.48201510686E+03 -0.13251199016E+02  0.57215976371E+03  0.25500000920E-02 0. -1.
       -2    1    3    3    0  502 -0.30798155413E+03  0.48201510686E+03  0.68954040859E+03  0.89591136616E+03  0.25500000920E-02 0.  1.
</event>
<event>
 5   0  0.2723209E-04  0.1278890E+04  0.7818609E-02  0.9046475E-01
       -2   -1    0    0    0  501  0.00000000000E+00  0.00000000000E+00  0.18376281558E+04  0.18376281558E+04  0.25500000920E-02 0.  1.
        2   -1    0    0  501    0  0.00000000000E+00  0.00000000000E+00 -0.22250944296E+03  0.22250944297E+03  0.25500000920E-02 0. -1.
    10030    2    1    2    0    0  0.00000000000E+00  0.00000000000E+00  0.16151187129E+04  0.20601375988E+04  0.12788895454E+04 0.  0.
        2    1    3    3  502    0 -0.21680137229E+03 -0.60143236499E+03  0.82830738116E+03  0.10463349571E+04  0.25500000920E-02 0. -1.
       -2    1    3    3    0  502  0.21680137229E+03  0.60143236499E+03  0.78681133170E+03  0.10138026417E+04  0.25500000920E-02 0.  1.
</event>
<event>
 5   0  0.1479690E-04  0.1297859E+04  0.7818609E-02  0.9031265E-01
       -1   -1    0    0    0  501  0.00000000000E+00  0.00000000000E+00  0.33506088805E+03  0.33506088809E+03  0.50400001928E-02 0. -1.
        1   -1    0    0  501    0  0.00000000000E+00  0.00000000000E+00 -0.12568141348E+04  0.12568141348E+04  0.50400001928E-02 0.  1.
    10030    2    1    2    0    0  0.00000000000E+00  0.00000000000E+00 -0.92175324677E+03  0.15918750229E+04  0.12978586366E+04 0.  0.
        1    1    3    3  502    0 -0.23215274974E+02 -0.23487611276E+03 -0.12023028461E+04  0.12252501260E+04  0.50400001928E-02 0.  1.
       -1    1    3    3    0  502  0.23215274974E+02  0.23487611276E+03  0.28054959936E+03  0.36662489695E+03  0.50400001928E-02 0. -1.
</event>
<event>
 5   0  0.2723209E-04  0.1300170E+04  0.7818609E-02  0.9029431E-01
       -2   -1    0    0    0  501  0.00000000000E+00  0.00000000000E+00  0.21568058652E+03  0.21568058653E+03  0.25500000920E-02 0.  1.
        2   -1    0    0  501    0  0.00000000000E+00  0.00000000000E+00 -0.19594270252E+04  0.19594270252E+04  0.25500000920E-02 0. -1.
    10030    2    1    2    0    0  0.00000000000E+00  0.00000000000E+00 -0.17437464387E+04  0.21751076118E+04  0.13001697890E+04 0.  0.
        2    1    3    3  502    0 -0.63182590576E+03 -0.58743050189E+02 -0.63554607620E+03  0.89809439154E+03  0.25500000920E-02 0.  1.
       -2    1    3    3    0  502  0.63182590576E+03  0.58743050189E+02 -0.11082003625E+04  0.12770132202E+04  0.25500000920E-02 0. -1.
</event>
<event>
 5   0  0.2661377E-04  0.1301050E+04  0.7818609E-02  0.9028733E-01
        2   -1    0    0  501    0  0.00000000000E+00  0.00000000000E+00  0.84789078176E+03  0.84789078176E+03  0.25500000920E-02 0.  1.
       -2   -1    0    0    0  501  0.00000000000E+00  0.00000000000E+00 -0.49910055776E+03  0.49910055776E+03  0.25500000920E-02 0. -1.
    10030    2    1    2    0    0  0.00000000000E+00  0.00000000000E+00  0.34879022400E+03  0.13469913395E+04  0.13010499792E+04 0.  0.
        5    1    3    3  502    0 -0.37093254308E+03  0.28037797328E+03 -0.29659505586E+03  0.55153737550E+03  0.46999998093E+01 0. -1.
       -5    1    3    3    0  502  0.37093254308E+03 -0.28037797328E+03  0.64538527986E+03  0.79545396402E+03  0.46999998093E+01 0.  1.
</event>
<event>
 5   0  0.2661377E-04  0.1299440E+04  0.7818609E-02  0.9030010E-01
        2   -1    0    0  501    0  0.00000000000E+00  0.00000000000E+00  0.56739157500E+03  0.56739157501E+03  0.25500000920E-02 0.  1.
       -2   -1    0    0    0  501  0.00000000000E+00  0.00000000000E+00 -0.74399387508E+03  0.74399387508E+03  0.25500000920E-02 0. -1.
    10030    2    1    2    0    0  0.00000000000E+00  0.00000000000E+00 -0.17660230008E+03  0.13113854501E+04  0.12994396586E+04 0.  0.
        5    1    3    3  502    0 -0.64066328012E+03  0.69900367406E+02 -0.17138824425E+03  0.66688193867E+03  0.46999998093E+01 0.  1.
       -5    1    3    3    0  502  0.64066328012E+03 -0.69900367406E+02 -0.52140558286E+01  0.64450351142E+03  0.46999998093E+01 0. -1.
</event>
<event>
 5   0  0.1002887E-04  0.1299109E+04  0.7818609E-02  0.9030272E-01
        4   -1    0    0  501    0  0.00000000000E+00  0.00000000000E+00  0.20545810486E+04  0.20545814412E+04  0.12699999809E+01 0. -1.
       -4   -1    0    0    0  501  0.00000000000E+00  0.00000000000E+00 -0.20535381242E+03  0.20535773951E+03  0.12699999809E+01 0.  1.
    10030    2    1    2    0    0  0.00000000000E+00  0.00000000000E+00  0.18492272362E+04  0.22599391807E+04  0.12991088211E+04 0.  0.
        1    1    3    3  502    0 -0.98333709376E+02 -0.58279408732E+03  0.13933481020E+04  0.15135182192E+04  0.50400001928E-02 0. -1.
       -1    1    3    3    0  502  0.98333709376E+02  0.58279408732E+03  0.45587913425E+03  0.74642096145E+03  0.50400001928E-02 0.  1.
</event>
<event>
 5   0  0.1479690E-04  0.1300744E+04  0.7818609E-02  0.9028975E-01
       -1   -1    0    0    0  501  0.00000000000E+00  0.00000000000E+00  0.33414641819E+03  0.33414641822E+03  0.50400001928E-02 0.  1.
        1   -1    0    0  501    0  0.00000000000E+00  0.00000000000E+00 -0.12658631740E+04  0.12658631740E+04  0.50400001928E-02 0. -1.
    10030    2    1    2    0    0  0.00000000000E+00  0.00000000000E+00 -0.93171675579E+03  0.16000095922E+04  0.13007438572E+04 0.  0.
        1    1    3    3  502    0 -0.82120784985E+02 -0.60081455679E+03 -0.75502148716E+03  0.96839010790E+03  0.50400001928E-02 0. -1.
       -1    1    3    3    0  502  0.82120784985E+02  0.60081455679E+03 -0.17669526863E+03  0.63161948431E+03  0.50400001928E-02 0.  1.
</event>
<event>
 5   0  0.1475396E-04  0.1301678E+04  0.7818609E-02  0.9028236E-01
       -1   -1    0    0    0  501  0.00000000000E+00  0.00000000000E+00  0.45788259395E+03  0.45788259397E+03  0.50400001928E-02 0. -1.
        1   -1    0    0  501    0  0.00000000000E+00  0.00000000000E+00 -0.92510884982E+03  0.92510884984E+03  0.50400001928E-02 0.  1.
    10030    2    1    2    0    0  0.00000000000E+00  0.00000000000E+00 -0.46722625588E+03  0.13829914438E+04  0.13016777479E+04 0.  0.
        3    1    3    3  502    0 -0.17750794979E+03  0.58340117221E+03  0.80259815233E+01  0.60986098953E+03  0.10100000352E+00 0.  1.
       -3    1    3    3    0  502  0.17750794979E+03 -0.58340117221E+03 -0.47525223740E+03  0.77313045428E+03  0.10100000352E+00 0. -1.
</event>
<event>
 5   0  0.1475396E-04  0.1300954E+04  0.7818609E-02  0.9028809E-01
        1   -1    0    0  501    0  0.00000000000E+00  0.00000000000E+00  0.68396078760E+03  0.68396078761E+03  0.50400001928E-02 0.  1.
       -1   -1    0    0    0  501  0.00000000000E+00  0.00000000000E+00 -0.61863230839E+03  0.61863230841E+03  0.50400001928E-02 0. -1.
    10030    2    1    2    0    0  0.00000000000E+00  0.00000000000E+00  0.65328479211E+02  0.13025930960E+04  0.13009538668E+04 0.  0.
        3    1    3    3  502    0 -0.11195328869E+03  0.46580786114E+03  0.47322971759E+03  0.67339206867E+03  0.10100000352E+00 0.  1.
       -3    1    3    3    0  502  0.11195328869E+03 -0.46580786114E+03 -0.40790123838E+03  0.62920102735E+03  0.10100000352E+00 0. -1.
</event>
<event>
 5   0  0.2794825E-04  0.1299913E+04  0.7818609E-02  0.9029634E-01
       -2   -1    0    0    0  501  0.00000000000E+00  0.00000000000E+00  0.39194986732E+03  0.39194986732E+03  0.25500000920E-02 0.  1.
        2   -1    0    0  501    0  0.00000000000E+00  0.00000000000E+00 -0.10777993471E+04  0.10777993471E+04  0.25500000920E-02 0. -1.
    10030    2    1    2    0    0  0.00000000000E+00  0.00000000000E+00 -0.68584947980E+03  0.14697492144E+04  0.12999127834E+04 0.  0.
        1    1    3    3  502    0  0.91608429877E+01  0.29133022953E+03 -0.99976075726E+03  0.10413831166E+04  0.50400001928E-02 0. -1.
       -1    1    3    3    0  502 -0.91608429877E+01 -0.29133022953E+03  0.31391127745E+03  0.42836609789E+03  0.50400001928E-02 0.  1.
</event>
<event>
 5   0  0.1408341E-04  0.1298881E+04  0.7818609E-02  0.9030453E-01
        1   -1    0    0  501    0  0.00000000000E+00  0.00000000000E+00  0.37987782168E+03  0.37987782172E+03  0.50400001928E-02 0.  1.
       -1   -1    0    0    0  501  0.00000000000E+00  0.00000000000E+00 -0.11102865762E+04  0.11102865762E+04  0.50400001928E-02 0. -1.
    10030    2    1    2    0    0  0.00000000000E+00  0.00000000000E+00 -0.73040875451E+03  0.14901643979E+04  0.12988814358E+04 0.  0.
        5    1    3    3  502    0  0.40430363865E+03 -0.15781390494E+03 -0.91944796062E+03  0.10167464301E+04  0.46999998093E+01 0. -1.
       -5    1    3    3    0  502 -0.40430363865E+03  0.15781390494E+03  0.18903920611E+03  0.47341796783E+03  0.46999998093E+01 0.  1.
</event>
<event>
 5   0  0.2794825E-04  0.1300598E+04  0.7818609E-02  0.9029091E-01
        2   -1    0    0  501    0  0.00000000000E+00  0.00000000000E+00  0.70783077595E+03  0.70783077596E+03  0.25500000920E-02 0.  1.
       -2   -1    0    0    0  501  0.00000000000E+00  0.00000000000E+00 -0.59744297538E+03  0.59744297539E+03  0.25500000920E-02 0. -1.
    10030    2    1    2    0    0  0.00000000000E+00  0.00000000000E+00  0.11038780057E+03  0.13052737513E+04  0.13005975932E+04 0.  0.
        1    1    3    3  502    0 -0.19049252768E+03  0.31077643770E+03 -0.48527658126E+03  0.60692895604E+03  0.50400001928E-02 0. -1.
       -1    1    3    3    0  502  0.19049252768E+03 -0.31077643770E+03  0.59566438183E+03  0.69834479531E+03  0.50400001928E-02 0.  1.
</event>
<event>
 5   0  0.2756984E-04  0.1300090E+04  0.7818609E-02  0.9029494E-01
       -2   -1    0    0    0  501  0.00000000000E+00  0.00000000000E+00  0.40715580714E+03  0.40715580715E+03  0.25500000920E-02 0. -1.
        2   -1    0    0  501    0  0.00000000000E+00  0.00000000000E+00 -0.10378296486E+04  0.10378296486E+04  0.25500000920E-02 0.  1.
    10030    2    1    2    0    0  0.00000000000E+00  0.00000000000E+00 -0.63067384143E+03  0.14449854557E+04  0.13000897942E+04 0.  0.
        3    1    3    3  502    0 -0.30746196693E+03 -0.53056816593E+03 -0.55506759184E+03  0.82712482825E+03  0.10100000352E+00 0.  1.
       -3    1    3    3    0  502  0.30746196693E+03  0.53056816593E+03 -0.75606249593E+02  0.61786062747E+03  0.10100000352E+00 0. -1.
</event>
<event>
 5   0  0.2723209E-04  0.1298735E+04  0.7818609E-02  0.9030569E-01
       -2   -1    0    0    0  501  0.00000000000E+00  0.00000000000E+00  0.31607839869E+03  0.31607839870E+03  0.25500000920E-02 0.  1.
        2   -1    0    0  501    0  0.00000000000E+00  0.00000000000E+00 -0.13340932324E+04  0.13340932324E+04  0.25500000920E-02 0. -1.
    10030    2    1    2    0    0  0.00000000000E+00  0.00000000000E+00 -0.10180148337E+04  0.16501716311E+04  0.12987348499E+04 0.  0.
        2    1    3    3  502    0  0.40214551463E+03  0.23783758565E+03 -0.10820326712E+04  0.11785934132E+04  0.25500000920E-02 0. -1.
       -2    1    3    3    0  502 -0.40214551463E+03 -0.23783758565E+03  0.64017837470E+02  0.47157821791E+03  0.25500000920E-02 0.  1.
</event>
<event>
 5   0  0.1476511E-04  0.1298811E+04  0.7818609E-02  0.9030508E-01
       -1   -1    0    0    0  501  0.00000000000E+00  0.00000000000E+00  0.77716448688E+03  0.77716448689E+03  0.50400001928E-02 0. -1.
        1   -1    0    0  501    0  0.00000000000E+00  0.00000000000E+00 -0.54264933832E+03  0.54264933834E+03  0.50400001928E-02 0.  1.
    10030    2    1    2    0    0  0.00000000000E+00  0.00000000000E+00  0.23451514855E+03  0.13198138252E+04  0.12988114484E+04 0.  0.
        2    1    3    3  502    0 -0.35209207900E+02  0.46863438968E+03  0.57269006832E+03  0.74083182563E+03  0.25500000920E-02 0. -1.
       -2    1    3    3    0  502  0.35209207900E+02 -0.46863438968E+03 -0.33817491976E+03  0.57898199961E+03  0.25500000920E-02 0.  1.
</event>
<event>
 5   0  0.2661377E-04  0.1300314E+04  0.7818609E-02  0.9029317E-01
        2   -1    0    0  501    0  0.00000000000E+00  0.00000000000E+00  0.23540366209E+04  0.23540366209E+04  0.25500000920E-02 0. -1.
       -2   -1    0    0    0  501  0.00000000000E+00  0.00000000000E+00 -0.17956553800E+03  0.17956553802E+03  0.25500000920E-02 0.  1.
    10030    2    1    2    0    0  0.00000000000E+00  0.00000000000E+00  0.21744710829E+04  0.25336021589E+04  0.13003135811E+04 0.  0.
        5    1    3    3  502    0 -0.33517718012E+03  0.16785577745E+03  0.21222345577E+04  0.21550918570E+04  0.46999998093E+01 0. -1.
       -5    1    3    3    0  502  0.33517718012E+03 -0.16785577745E+03  0.52236525166E+02  0.37851030191E+03  0.46999998093E+01 0.  1.
</event>
<event>
 5   0  0.1002887E-04  0.1299099E+04  0.7818609E-02  0.9030280E-01
        3   -1    0    0  501    0  0.00000000000E+00  0.00000000000E+00  0.55182066382E+03  0.55182067306E+03  0.10100000352E+00 0.  1.
       -3   -1    0    0    0  501  0.00000000000E+00  0.00000000000E+00 -0.76458616768E+03  0.76458617435E+03  0.10100000352E+00 0. -1.
    10030    2    1    2    0    0  0.00000000000E+00  0.00000000000E+00 -0.21276550386E+03  0.13164068474E+04  0.12990988524E+04 0.  0.
        4    1    3    3  502    0  0.10340065270E+03 -0.55287560625E+03 -0.43559536228E+03  0.71141272374E+03  0.12699999809E+01 0. -1.
       -4    1    3    3    0  502 -0.10340065270E+03  0.55287560625E+03  0.22282985842E+03  0.60499412366E+03  0.12699999809E+01 0.  1.
</event>
<event>
 5   0  0.2661377E-04  0.1299943E+04  0.7818609E-02  0.9029611E-01
        2   -1    0    0  501    0  0.00000000000E+00  0.00000000000E+00  0.10418495347E+04  0.10418495347E+04  0.25500000920E-02 0.  1.
       -2   -1    0    0    0  501  0.00000000000E+00  0.00000000000E+00 -0.40549297967E+03  0.40549297968E+03  0.25500000920E-02 0. -1.
    10030    2    1    2    0    0  0.00000000000E+00  0.00000000000E+00  0.63635655507E+03  0.14473425144E+04  0.12999425714E+04 0.  0.
        5    1    3    3  502    0 -0.40380091206E+03  0.29321834878E+03 -0.14546314037E+03  0.51982092286E+03  0.46999998093E+01 0. -1.
       -5    1    3    3    0  502  0.40380091206E+03 -0.29321834878E+03  0.78181969544E+03  0.92752159156E+03  0.46999998093E+01 0.  1.
</event>
<event>
 5   0  0.2794825E-04  0.1305914E+04  0.7818609E-02  0.9024888E-01
        2   -1    0    0  501    0  0.00000000000E+00  0.00000000000E+00  0.15274035638E+04  0.15274035638E+04  0.25500000920E-02 0.  1.
       -2   -1    0    0    0  501  0.00000000000E+00  0.00000000000E+00 -0.27913588138E+03  0.27913588139E+03  0.25500000920E-02 0. -1.
    10030    2    1    2    0    0  0.00000000000E+00  0.00000000000E+00  0.12482676824E+04  0.18065394452E+04  0.13059144536E+04 0.  0.
        1    1    3    3  502    0  0.37838757967E+03 -0.27771176320E+03 -0.38107178455E+01  0.46937778544E+03  0.50400001928E-02 0. -1.
       -1    1    3    3    0  502 -0.37838757967E+03  0.27771176320E+03  0.12520784003E+04  0.13371616598E+04  0.50400001928E-02 0.  1.
</event>
<event>
 5   0  0.2573071E-04  0.1301676E+04  0.7818609E-02  0.9028237E-01
        2   -1    0    0  501    0  0.00000000000E+00  0.00000000000E+00  0.13184360807E+04  0.13184360807E+04  0.25500000920E-02 0. -1.
       -2   -1    0    0    0  501  0.00000000000E+00  0.00000000000E+00 -0.32128244249E+03  0.32128244250E+03  0.25500000920E-02 0.  1.
    10030    2    1    2    0    0  0.00000000000E+00  0.00000000000E+00  0.99715363823E+03  0.16397185232E+04  0.13016764026E+04 0.  0.
        4    1    3    3  502    0 -0.10605704954E+03 -0.24753244981E+03  0.12449604457E+04  0.12737537186E+04  0.12699999809E+01 0. -1.
       -4    1    3    3    0  502  0.10605704954E+03  0.24753244981E+03 -0.24780680748E+03  0.36596480459E+03  0.12699999809E+01 0.  1.
</event>
<event>
 5   0  0.1476511E-04  0.1298121E+04  0.7818609E-02  0.9031056E-01
        1   -1    0    0  501    0  0.00000000000E+00  0.00000000000E+00  0.12592359889E+04  0.12592359890E+04  0.50400001928E-02 0. -1.
       -1   -1    0    0    0  501  0.00000000000E+00  0.00000000000E+00 -0.33455173142E+03  0.33455173146E+03  0.50400001928E-02 0.  1.
    10030    2    1    2    0    0  0.00000000000E+00  0.00000000000E+00  0.92468425752E+03  0.15937877204E+04  0.12981210736E+04 0.  0.
        2    1    3    3  502    0 -0.59203219660E+03  0.25222801337E+03  0.35846356832E+03  0.73662556456E+03  0.25500000920E-02 0.  1.
       -2    1    3    3    0  502  0.59203219660E+03 -0.25222801337E+03  0.56622068920E+03  0.85716215585E+03  0.25500000920E-02 0. -1.
</event>
<event>
 5   0  0.1476511E-04  0.1290713E+04  0.7818609E-02  0.9036962E-01
       -1   -1    0    0    0  501  0.00000000000E+00  0.00000000000E+00  0.14375781583E+04  0.14375781583E+04  0.50400001928E-02 0. -1.
        1   -1    0    0  501    0  0.00000000000E+00  0.00000000000E+00 -0.28971292492E+03  0.28971292496E+03  0.50400001928E-02 0.  1.
    10030    2    1    2    0    0  0.00000000000E+00  0.00000000000E+00  0.11478652334E+04  0.17272910833E+04  0.12907129396E+04 0.  0.
        2    1    3    3  502    0 -0.25432317416E+03 -0.39801200425E+03 -0.14577800429E+02  0.47255300730E+03  0.25500000920E-02 0.  1.
       -2    1    3    3    0  502  0.25432317416E+03  0.39801200425E+03  0.11624430338E+04  0.12547380760E+04  0.25500000920E-02 0. -1.
</event>
<event>
 5   0  0.2661377E-04  0.1303131E+04  0.7818609E-02  0.9027086E-01
        2   -1    0    0  501    0  0.00000000000E+00  0.00000000000E+00  0.34537697887E+03  0.34537697888E+03  0.25500000920E-02 0. -1.
       -2   -1    0    0    0  501  0.00000000000E+00  0.00000000000E+00 -0.12292004935E+04  0.12292004935E+04  0.25500000920E-02 0.  1.
    10030    2    1    2    0    0  0.00000000000E+00  0.00000000000E+00 -0.88382351465E+03  0.15745774724E+04  0.13031309265E+04 0.  0.
        5    1    3    3  502    0  0.57881565036E+03 -0.10417193452E+03 -0.78074577334E+03  0.97747910547E+03  0.46999998093E+01 0.  1.
       -5    1    3    3    0  502 -0.57881565036E+03  0.10417193452E+03 -0.10307774132E+03  0.59709836694E+03  0.46999998093E+01 0. -1.
</event>
<event>
 5   0  0.2756984E-04  0.1301223E+04  0.7818609E-02  0.9028596E-01
        2   -1    0    0  501    0  0.00000000000E+00  0.00000000000E+00  0.52431877569E+03  0.52431877570E+03  0.25500000920E-02 0.  1.
       -2   -1    0    0    0  501  0.00000000000E+00  0.00000000000E+00 -0.80732448982E+03  0.80732448982E+03  0.25500000920E-02 0. -1.
    10030    2    1    2    0    0  0.00000000000E+00  0.00000000000E+00 -0.28300571412E+03  0.13316432655E+04  0.13012230986E+04 0.  0.
        3    1    3    3  502    0  0.13794582343E+03 -0.23193415107E+03  0.46434467070E+03  0.53706469261E+03  0.10100000352E+00 0.  1.
       -3    1    3    3    0  502 -0.13794582343E+03  0.23193415107E+03 -0.74735038483E+03  0.79457857292E+03  0.10100000352E+00 0. -1.
</event>
<event>
 5   0  0.1476511E-04  0.1299199E+04  0.7818609E-02  0.9030201E-01
        1   -1    0    0  501    0  0.00000000000E+00  0.00000000000E+00  0.11411704213E+04  0.11411704214E+04  0.50400001928E-02 0. -1.
       -1   -1    0    0    0  501  0.00000000000E+00  0.00000000000E+00 -0.36977783092E+03  0.36977783095E+03  0.50400001928E-02 0.  1.
    10030    2    1    2    0    0  0.00000000000E+00  0.00000000000E+00  0.77139259043E+03  0.15109482523E+04  0.12991990196E+04 0.  0.
        2    1    3    3  502    0 -0.34773310197E+02 -0.64678429117E+03  0.44314844179E+03  0.78480548155E+03  0.25500000920E-02 0.  1.
       -2    1    3    3    0  502  0.34773310197E+02  0.64678429117E+03  0.32824414863E+03  0.72614277076E+03  0.25500000920E-02 0. -1.
</event>
<event>
 5   0  0.2573071E-04  0.1303756E+04  0.7818609E-02  0.9026592E-01
        2   -1    0    0  501    0  0.00000000000E+00  0.00000000000E+00  0.14821716917E+04  0.14821716917E+04  0.25500000920E-02 0. -1.
       -2   -1    0    0    0  501  0.00000000000E+00  0.00000000000E+00 -0.28670444545E+03  0.28670444546E+03  0.25500000920E-02 0.  1.
    10030    2    1    2    0    0  0.00000000000E+00  0.00000000000E+00  0.11954672462E+04  0.17688761371E+04  0.13037564388E+04 0.  0.
        4    1    3    3  502    0 -0.57508394691E+03  0.28042494357E+03  0.76710464344E+03  0.99890482122E+03  0.12699999809E+01 0.  1.
       -4    1    3    3    0  502  0.57508394691E+03 -0.28042494357E+03  0.42836260278E+03  0.76997131591E+03  0.12699999809E+01 0. -1.
</event>
<event>
 5   0  0.1430636E-04  0.1299419E+04  0.7818609E-02  0.9030026E-01
       -1   -1    0    0    0  501  0.00000000000E+00  0.00000000000E+00  0.13157840857E+04  0.13157840858E+04  0.50400001928E-02 0. -1.
        1   -1    0    0  501    0  0.00000000000E+00  0.00000000000E+00 -0.32081445131E+03  0.32081445135E+03  0.50400001928E-02 0.  1.
    10030    2    1    2    0    0  0.00000000000E+00  0.00000000000E+00  0.99496963444E+03  0.16365985371E+04  0.12994191772E+04 0.  0.
        4    1    3    3  502    0  0.41020183204E+03 -0.50160666250E+03  0.43779335163E+03  0.78200985832E+03  0.12699999809E+01 0. -1.
       -4    1    3    3    0  502 -0.41020183204E+03  0.50160666250E+03  0.55717628281E+03  0.85458867878E+03  0.12699999809E+01 0.  1.
</event>
<event>
 5   0  0.1475396E-04  0.1298271E+04  0.7818609E-02  0.9030938E-01
       -1   -1    0    0    0  501  0.00000000000E+00  0.00000000000E+00  0.28937109222E+03  0.28937109226E+03  0.50400001928E-02 0.  1.
        1   -1    0    0  501    0  0.00000000000E+00  0.00000000000E+00 -0.14561814206E+04  0.14561814207E+04  0.50400001928E-02 0. -1.
    10030    2    1    2    0    0  0.00000000000E+00  0.00000000000E+00 -0.11668103284E+04  0.17455525129E+04  0.12982708627E+04 0.  0.
        3    1    3    3  502    0  0.15317866504E+03  0.18433267942E+03 -0.13945142320E+04  0.14149601385E+04  0.10100000352E+00 0. -1.
       -3    1    3    3    0  502 -0.15317866504E+03 -0.18433267942E+03  0.22770390356E+03  0.33059237442E+03  0.10100000352E+00 0.  1.
</event>
<event>
 5   0  0.2756984E-04  0.1298852E+04  0.7818609E-02  0.9030476E-01
       -2   -1    0    0    0  501  0.00000000000E+00  0.00000000000E+00  0.16748724558E+03  0.16748724560E+03  0.25500000920E-02 0. -1.
        2   -1    0    0  501    0  0.00000000000E+00  0.00000000000E+00 -0.25181264810E+04  0.25181264810E+04  0.25500000920E-02 0.  1.
    10030    2    1    2    0    0  0.00000000000E+00  0.00000000000E+00 -0.23506392354E+04  0.26856137266E+04  0.12988519059E+04 0.  0.
        3    1    3    3  502    0 -0.17222988782E+03 -0.47202053866E+03 -0.20260587357E+04  0.20874339591E+04  0.10100000352E+00 0.  1.
       -3    1    3    3    0  502  0.17222988782E+03  0.47202053866E+03 -0.32458049975E+03  0.59817976745E+03  0.10100000352E+00 0. -1.
</event>
<event>
 5   0  0.1476511E-04  0.1301388E+04  0.7818609E-02  0.9028465E-01
       -1   -1    0    0    0  501  0.00000000000E+00  0.00000000000E+00  0.36580017583E+03  0.36580017587E+03  0.50400001928E-02 0.  1.
        1   -1    0    0  501    0  0.00000000000E+00  0.00000000000E+00 -0.11574697405E+04  0.11574697405E+04  0.50400001928E-02 0. -1.
    10030    2    1    2    0    0  0.00000000000E+00  0.00000000000E+00 -0.79166956467E+03  0.15232699164E+04  0.13013879278E+04 0.  0.
        2    1    3    3  502    0 -0.34644207012E+03 -0.15433150699E+03  0.22304942943E+03  0.43999019304E+03  0.25500000920E-02 0.  1.
       -2    1    3    3    0  502  0.34644207012E+03  0.15433150699E+03 -0.10147189941E+04  0.10832797233E+04  0.25500000920E-02 0. -1.
</event>
<event>
 5   0  0.2794825E-04  0.1298800E+04  0.7818609E-02  0.9030517E-01
       -2   -1    0    0    0  501  0.00000000000E+00  0.00000000000E+00  0.50642616633E+03  0.50642616634E+03  0.25500000920E-02 0. -1.
        2   -1    0    0  501    0  0.00000000000E+00  0.00000000000E+00 -0.83273822395E+03  0.83273822395E+03  0.25500000920E-02 0.  1.
    10030    2    1    2    0    0  0.00000000000E+00  0.00000000000E+00 -0.32631205762E+03  0.13391643903E+04  0.12988001021E+04 0.  0.
        1    1    3    3  502    0 -0.13386561838E+03 -0.53219918688E+03 -0.52117101764E+03  0.75681913820E+03  0.50400001928E-02 0.  1.
       -1    1    3    3    0  502  0.13386561838E+03  0.53219918688E+03  0.19485896002E+03  0.58234525208E+03  0.50400001928E-02 0. -1.
</event>
<event>
 5   0  0.2756984E-04  0.1304013E+04  0.7818609E-02  0.9026389E-01
        2   -1    0    0  501    0  0.00000000000E+00  0.00000000000E+00  0.10915519405E+04  0.10915519405E+04  0.25500000920E-02 0. -1.
       -2   -1    0    0    0  501  0.00000000000E+00  0.00000000000E+00 -0.38945701499E+03  0.38945701500E+03  0.25500000920E-02 0.  1.
    10030    2    1    2    0    0  0.00000000000E+00  0.00000000000E+00  0.70209492555E+03  0.14810089555E+04  0.13040131295E+04 0.  0.
        3    1    3    3  502    0 -0.67119348370E+02 -0.13518177456E+03 -0.36934437091E+03  0.39899172125E+03  0.10100000352E+00 0.  1.
       -3    1    3    3    0  502  0.67119348370E+02  0.13518177456E+03  0.10714392965E+04  0.10820172343E+04  0.10100000352E+00 0. -1.
</event>
<event>
 5   0  0.1479690E-04  0.1297002E+04  0.7818609E-02  0.9031946E-01
       -1   -1    0    0    0  501  0.00000000000E+00  0.00000000000E+00  0.29728189747E+03  0.29728189751E+03  0.50400001928E-02 0.  1.
        1   -1    0    0  501    0  0.00000000000E+00  0.00000000000E+00 -0.14146619913E+04  0.14146619913E+04  0.50400001928E-02 0. -1.
    10030    2    1    2    0    0  0.00000000000E+00  0.00000000000E+00 -0.11173800939E+04  0.17119438888E+04  0.12970017750E+04 0.  0.
        1    1    3    3  502    0 -0.53656919574E+03  0.19366676781E+03 -0.15156228580E+03  0.59024100610E+03  0.50400001928E-02 0.  1.
       -1    1    3    3    0  502  0.53656919574E+03 -0.19366676781E+03 -0.96581780806E+03  0.11217028827E+04  0.50400001928E-02 0. -1.
</event>
<event>
 5   0  0.1479690E-04  0.1302307E+04  0.7818609E-02  0.9027738E-01
        1   -1    0    0  501    0  0.00000000000E+00  0.00000000000E+00  0.86313776805E+03  0.86313776806E+03  0.50400001928E-02 0. -1.
       -1   -1    0    0    0  501  0.00000000000E+00  0.00000000000E+00 -0.49123211661E+03  0.49123211664E+03  0.50400001928E-02 0.  1.
    10030    2    1    2    0    0  0.00000000000E+00  0.00000000000E+00  0.37190565144E+03  0.13543698847E+04  0.13023071723E+04 0.  0.
        1    1    3    3  502    0 -0.50014871474E+03 -0.37508095081E+03  0.37535018301E+03  0.72919285270E+03  0.50400001928E-02 0.  1.
       -1    1    3    3    0  502  0.50014871474E+03  0.37508095081E+03 -0.34445315730E+01  0.62517703200E+03  0.50400001928E-02 0. -1.
</event>
<event>
 5   0  0.2794825E-04  0.1298280E+04  0.7818609E-02  0.9030930E-01
       -2   -1    0    0    0  501  0.00000000000E+00  0.00000000000E+00  0.24295774514E+03  0.24295774516E+03  0.25500000920E-02 0.  1.
        2   -1    0    0  501    0  0.00000000000E+00  0.00000000000E+00 -0.17343875638E+04  0.17343875638E+04  0.25500000920E-02 0. -1.
    10030    2    1    2    0    0  0.00000000000E+00  0.00000000000E+00 -0.14914298186E+04  0.19773453089E+04  0.12982802343E+04 0.  0.
        1    1    3    3  502    0 -0.79237306422E+01 -0.62709864884E+03 -0.49055344046E+03  0.79621490745E+03  0.50400001928E-02 0.  1.
       -1    1    3    3    0  502  0.79237306422E+01  0.62709864884E+03 -0.10008763782E+04  0.11811304015E+04  0.50400001928E-02 0. -1.
</event>
<event>
 5   0  0.1476511E-04  0.1298026E+04  0.7818609E-02  0.9031132E-01
        1   -1    0    0  501    0  0.00000000000E+00  0.00000000000E+00  0.12931741919E+04  0.12931741919E+04  0.50400001928E-02 0. -1.
       -1   -1    0    0    0  501  0.00000000000E+00  0.00000000000E+00 -0.32572405349E+03  0.32572405353E+03  0.50400001928E-02 0.  1.
    10030    2    1    2    0    0  0.00000000000E+00  0.00000000000E+00  0.96745013837E+03  0.16188982454E+04  0.12980261009E+04 0.  0.
        2    1    3    3  502    0  0.30127008174E+03 -0.54016919605E+03  0.72898789758E+03  0.95601766581E+03  0.25500000920E-02 0. -1.
       -2    1    3    3    0  502 -0.30127008174E+03  0.54016919605E+03  0.23846224079E+03  0.66288057960E+03  0.25500000920E-02 0.  1.
</event>
<event>
 5   0  0.1479690E-04  0.1311424E+04  0.7818609E-02  0.9020554E-01
        1   -1    0    0  501    0  0.00000000000E+00  0.00000000000E+00  0.15309978241E+04  0.15309978241E+04  0.50400001928E-02 0. -1.
       -1   -1    0    0    0  501  0.00000000000E+00  0.00000000000E+00 -0.28083534997E+03  0.28083535001E+03  0.50400001928E-02 0.  1.
    10030    2    1    2    0    0  0.00000000000E+00  0.00000000000E+00  0.12501624741E+04  0.18118331741E+04  0.13114241263E+04 0.  0.
        1    1    3    3  502    0  0.21561371934E+03  0.55660414649E+03  0.10000485619E+04  0.11646435412E+04  0.50400001928E-02 0. -1.
       -1    1    3    3    0  502 -0.21561371934E+03 -0.55660414649E+03  0.25011391225E+03  0.64718963293E+03  0.50400001928E-02 0.  1.
</event>
<event>
 5   0  0.2756984E-04  0.1297781E+04  0.7818609E-02  0.9031326E-01
       -2   -1    0    0    0  501  0.00000000000E+00  0.00000000000E+00  0.28672191710E+03  0.28672191712E+03  0.25500000920E-02 0.  1.
        2   -1    0    0  501    0  0.00000000000E+00  0.00000000000E+00 -0.14685276568E+04  0.14685276568E+04  0.25500000920E-02 0. -1.
    10030    2    1    2    0    0  0.00000000000E+00  0.00000000000E+00 -0.11818057397E+04  0.17552495739E+04  0.12977812837E+04 0.  0.
        3    1    3    3  502    0 -0.43790692231E+03 -0.47407018376E+03 -0.49963121177E+03  0.81617177709E+03  0.10100000352E+00 0.  1.
       -3    1    3    3    0  502  0.43790692231E+03  0.47407018376E+03 -0.68217452790E+03  0.93907779681E+03  0.10100000352E+00 0. -1.
</event>
<event>
 5   0  0.1430636E-04  0.1300734E+04  0.7818609E-02  0.9028983E-01
        1   -1    0    0  501    0  0.00000000000E+00  0.00000000000E+00  0.37767336899E+03  0.37767336903E+03  0.50400001928E-02 0. -1.
       -1   -1    0    0    0  501  0.00000000000E+00  0.00000000000E+00 -0.11199557859E+04  0.11199557859E+04  0.50400001928E-02 0.  1.
    10030    2    1    2    0    0  0.00000000000E+00  0.00000000000E+00 -0.74228241688E+03  0.14976291549E+04  0.13007343692E+04 0.  0.
        4    1    3    3  502    0  0.18470696681E+03  0.50115046989E+03  0.56120838988E+02  0.53704712877E+03  0.12699999809E+01 0. -1.
       -4    1    3    3    0  502 -0.18470696681E+03 -0.50115046989E+03 -0.79840325586E+03  0.96058202613E+03  0.12699999809E+01 0.  1.
</event>
<event>
 5   0  0.1479690E-04  0.1300340E+04  0.7818609E-02  0.9029295E-01
        1   -1    0    0  501    0  0.00000000000E+00  0.00000000000E+00  0.52744700127E+03  0.52744700129E+03  0.50400001928E-02 0.  1.
       -1   -1    0    0    0  501  0.00000000000E+00  0.00000000000E+00 -0.80144773759E+03  0.80144773761E+03  0.50400001928E-02 0. -1.
    10030    2    1    2    0    0  0.00000000000E+00  0.00000000000E+00 -0.27400073632E+03  0.13288947389E+04  0.13003402722E+04 0.  0.
        1    1    3    3  502    0  0.25491124310E+03  0.82472254155E+02 -0.74241076611E+03  0.78927508526E+03  0.50400001928E-02 0. -1.
       -1    1    3    3    0  502 -0.25491124310E+03 -0.82472254155E+02  0.46841002978E+03  0.53961965363E+03  0.50400001928E-02 0.  1.
</event>
<event>
 5   0  0.1430636E-04  0.1300499E+04  0.7818609E-02  0.9029169E-01
        1   -1    0    0  501    0  0.00000000000E+00  0.00000000000E+00  0.47461931911E+03  0.47461931914E+03  0.50400001928E-02 0. -1.
       -1   -1    0    0    0  501  0.00000000000E+00  0.00000000000E+00 -0.89087104017E+03  0.89087104019E+03  0.50400001928E-02 0.  1.
    10030    2    1    2    0    0  0.00000000000E+00  0.00000000000E+00 -0.41625172106E+03  0.13654903593E+04  0.13004992988E+04 0.  0.
        4    1    3    3  502    0  0.48290080611E+03 -0.30126468542E+03 -0.53827445516E+03  0.78338662307E+03  0.12699999809E+01 0.  1.
       -4    1    3    3    0  502 -0.48290080611E+03  0.30126468542E+03  0.12202273410E+03  0.58210373626E+03  0.12699999809E+01 0. -1.
</event>
<event>
 5   0  0.2723209E-04  0.1266900E+04  0.7818609E-02  0.9056233E-01
       -2   -1    0    0    0  501  0.00000000000E+00  0.00000000000E+00  0.23274410823E+03  0.23274410824E+03  0.25500000920E-02 0. -1.
        2   -1    0    0  501    0  0.00000000000E+00  0.00000000000E+00 -0.17240356324E+04  0.17240356324E+04  0.25500000920E-02 0.  1.
    10030    2    1    2    0    0  0.00000000000E+00  0.00000000000E+00 -0.14912915241E+04  0.19567797406E+04  0.12669003683E+04 0.  0.
        2    1    3    3  502    0 -0.26565670435E+03  0.80866549313E+02 -0.16250123966E+04  0.16485685223E+04  0.25500000920E-02 0.  1.
       -2    1    3    3    0  502  0.26565670435E+03 -0.80866549313E+02  0.13372087250E+03  0.30821121835E+03  0.25500000920E-02 0. -1.
</event>
<event>
 5   0  0.2573071E-04  0.1301083E+04  0.7818609E-02  0.9028707E-01
        2   -1    0    0  501    0  0.00000000000E+00  0.00000000000E+00  0.15353185467E+04  0.15353185467E+04  0.25500000920E-02 0.  1.
       -2   -1    0    0    0  501  0.00000000000E+00  0.00000000000E+00 -0.27564602845E+03  0.27564602846E+03  0.25500000920E-02 0. -1.
    10030    2    1    2    0    0  0.00000000000E+00  0.00000000000E+00  0.12596725183E+04  0.18109645752E+04  0.13010833329E+04 0.  0.
        4    1    3    3  502    0  0.31297520129E+03  0.47305207007E+02 -0.16123187890E+03  0.35523033500E+03  0.12699999809E+01 0. -1.
       -4    1    3    3    0  502 -0.31297520129E+03 -0.47305207007E+02  0.14209043972E+04  0.14557342402E+04  0.12699999809E+01 0.  1.
</event>
<event>
 5   0  0.2756984E-04  0.1304364E+04  0.7818609E-02  0.9026112E-01
       -2   -1    0    0    0  501  0.00000000000E+00  0.00000000000E+00  0.28098724936E+03  0.28098724937E+03  0.25500000920E-02 0. -1.
        2   -1    0    0  501    0  0.00000000000E+00  0.00000000000E+00 -0.15137380484E+04  0.15137380484E+04  0.25500000920E-02 0.  1.
    10030    2    1    2    0    0  0.00000000000E+00  0.00000000000E+00 -0.12327507990E+04  0.17947252977E+04  0.13043635850E+04 0.  0.
        3    1    3    3  502    0 -0.33364397346E+03 -0.46657657099E+03 -0.18932608312E+03  0.60403342091E+03  0.10100000352E+00 0. -1.
       -3    1    3    3    0  502  0.33364397346E+03  0.46657657099E+03 -0.10434247159E+04  0.11906918768E+04  0.10100000352E+00 0.  1.
</event>
<event>
 5   0  0.1475396E-04  0.1291360E+04  0.7818609E-02  0.9036445E-01
       -1   -1    0    0    0  501  0.00000000000E+00  0.00000000000E+00  0.59134493491E+03  0.59134493494E+03  0.50400001928E-02 0. -1.
        1   -1    0    0  501    0  0.00000000000E+00  0.00000000000E+00 -0.70500780265E+03  0.70500780267E+03  0.50400001928E-02 0.  1.
    10030    2    1    2    0    0  0.00000000000E+00  0.00000000000E+00 -0.11366286774E+03  0.12963527376E+04  0.12913602026E+04 0.  0.
        3    1    3    3  502    0 -0.18954505844E+03  0.14476500640E+03 -0.65916661246E+03  0.70098849451E+03  0.10100000352E+00 0.  1.
       -3    1    3    3    0  502  0.18954505844E+03 -0.14476500640E+03  0.54550374472E+03  0.59536424310E+03  0.10100000352E+00 0. -1.
</event>
<event>
 5   0  0.2661377E-04  0.1309133E+04  0.7818609E-02  0.9022354E-01
        2   -1    0    0  501    0  0.00000000000E+00  0.00000000000E+00  0.18592376065E+04  0.18592376065E+04  0.25500000920E-02 0. -1.
       -2   -1    0    0    0  501  0.00000000000E+00  0.00000000000E+00 -0.23044777939E+03  0.23044777940E+03  0.25500000920E-02 0.  1.
    10030    2    1    2    0    0  0.00000000000E+00  0.00000000000E+00  0.16287898271E+04  0.20896853859E+04  0.13091328088E+04 0.  0.
        5    1    3    3  502    0  0.48953847555E+03  0.43413409164E+03  0.84271446981E+03  0.10669161617E+04  0.46999998093E+01 0.  1.
       -5    1    3    3    0  502 -0.48953847555E+03 -0.43413409164E+03  0.78607535733E+03  0.10227692242E+04  0.46999998093E+01 0. -1.
</event>
<event>
 5   0  0.2723209E-04  0.1300067E+04  0.7818609E-02  0.9029512E-01
        2   -1    0    0  501    0  0.00000000000E+00  0.00000000000E+00  0.18500916355E+04  0.18500916355E+04  0.25500000920E-02 0. -1.
       -2   -1    0    0    0  501  0.00000000000E+00  0.00000000000E+00 -0.22839052635E+03  0.22839052636E+03  0.25500000920E-02 0.  1.
    10030    2    1    2    0    0  0.00000000000E+00  0.00000000000E+00  0.16217011092E+04  0.20784821619E+04  0.13000667713E+04 0.  0.
        2    1    3    3  502    0 -0.55442655038E+03  0.32344945409E+03  0.97494693902E+03  0.11672745534E+04  0.25500000920E-02 0.  1.
       -2    1    3    3    0  502  0.55442655038E+03 -0.32344945409E+03  0.64675417015E+03  0.91120760847E+03  0.25500000920E-02 0. -1.
</event>
<event>
 5   0  0.1475396E-04  0.1299858E+04  0.7818609E-02  0.9029678E-01
       -1   -1    0    0    0  501  0.00000000000E+00  0.00000000000E+00  0.33940210366E+03  0.33940210370E+03  0.50400001928E-02 0. -1.
        1   -1    0    0  501    0  0.00000000000E+00  0.00000000000E+00 -0.12445641351E+04  0.12445641351E+04  0.50400001928E-02 0.  1.
    10030    2    1    2    0    0  0.00000000000E+00  0.00000000000E+00 -0.90516203146E+03  0.15839662388E+04  0.12998579701E+04 0.  0.
        3    1    3    3  502    0 -0.55293907123E+03  0.14660838128E+02 -0.86841679287E+03  0.10296136620E+04  0.10100000352E+00 0.  1.
       -3    1    3    3    0  502  0.55293907123E+03 -0.14660838128E+02 -0.36745238592E+02  0.55435257682E+03  0.10100000352E+00 0. -1.
</event>
<event>
 5   0  0.2661377E-04  0.1299271E+04  0.7818609E-02  0.9030143E-01
        2   -1    0    0  501    0  0.00000000000E+00  0.00000000000E+00  0.85679487838E+03  0.85679487838E+03  0.25500000920E-02 0. -1.
       -2   -1    0    0    0  501  0.00000000000E+00  0.00000000000E+00 -0.49256426787E+03  0.49256426787E+03  0.25500000920E-02 0.  1.
    10030    2    1    2    0    0  0.00000000000E+00  0.00000000000E+00  0.36423061051E+03  0.13493591463E+04  0.12992713989E+04 0.  0.
        5    1    3    3  502    0 -0.58606773372E+03  0.18003841558E+03 -0.40907810864E+02  0.61447925806E+03  0.46999998093E+01 0.  1.
       -5    1    3    3    0  502  0.58606773372E+03 -0.18003841558E+03  0.40513842137E+03  0.73487988819E+03  0.46999998093E+01 0. -1.
</event>
<event>
 5   0  0.1408341E-04  0.1315057E+04  0.7818609E-02  0.9017709E-01
       -1   -1    0    0    0  501  0.00000000000E+00  0.00000000000E+00  0.31715254376E+03  0.31715254380E+03  0.50400001928E-02 0. -1.
        1   -1    0    0  501    0  0.00000000000E+00  0.00000000000E+00 -0.13632039280E+04  0.13632039280E+04  0.50400001928E-02 0.  1.
    10030    2    1    2    0    0  0.00000000000E+00  0.00000000000E+00 -0.10460513842E+04  0.16803564718E+04  0.13150567949E+04 0.  0.
        5    1    3    3  502    0 -0.26479670803E+02  0.65328091763E+03 -0.61196130610E+03  0.89554221590E+03  0.46999998093E+01 0. -1.
       -5    1    3    3    0  502  0.26479670803E+02 -0.65328091763E+03 -0.43409007809E+03  0.78481425586E+03  0.46999998093E+01 0.  1.
</event>
<event>
 5   0  0.2661377E-04  0.1300561E+04  0.7818609E-02  0.9029120E-01
        2   -1    0    0  501    0  0.00000000000E+00  0.00000000000E+00  0.20149463346E+04  0.20149463346E+04  0.25500000920E-02 0. -1.
       -2   -1    0    0    0  501  0.00000000000E+00  0.00000000000E+00 -0.20986408195E+03  0.20986408196E+03  0.25500000920E-02 0.  1.
    10030    2    1    2    0    0  0.00000000000E+00  0.00000000000E+00  0.18050822527E+04  0.22248104166E+04  0.13005612061E+04 0.  0.
        5    1    3    3  502    0  0.43751710037E+03  0.17179030379E+03  0.13386967255E+03  0.48874973230E+03  0.46999998093E+01 0.  1.
       -5    1    3    3    0  502 -0.43751710037E+03 -0.17179030379E+03  0.16712125801E+04  0.17360606843E+04  0.46999998093E+01 0. -1.
</event>
<event>
 5   0  0.2794825E-04  0.1299596E+04  0.7818609E-02  0.9029886E-01
       -2   -1    0    0    0  501  0.00000000000E+00  0.00000000000E+00  0.28187916198E+03  0.28187916199E+03  0.25500000920E-02 0.  1.
        2   -1    0    0  501    0  0.00000000000E+00  0.00000000000E+00 -0.14979377426E+04  0.14979377426E+04  0.25500000920E-02 0. -1.
    10030    2    1    2    0    0  0.00000000000E+00  0.00000000000E+00 -0.12160585807E+04  0.17798169046E+04  0.12995959920E+04 0.  0.
        1    1    3    3  502    0  0.47919046647E+03 -0.40841824303E+03 -0.82804216909E+03  0.10402320886E+04  0.50400001928E-02 0. -1.
       -1    1    3    3    0  502 -0.47919046647E+03  0.40841824303E+03 -0.38801641157E+03  0.73958481601E+03  0.50400001928E-02 0.  1.
</event>
<event>
 5   0  0.2573071E-04  0.1299630E+04  0.7818609E-02  0.9029859E-01
        2   -1    0    0  501    0  0.00000000000E+00  0.00000000000E+00  0.82259875647E+03  0.82259875647E+03  0.25500000920E-02 0.  1.
       -2   -1    0    0    0  501  0.00000000000E+00  0.00000000000E+00 -0.51332362381E+03  0.51332362382E+03  0.25500000920E-02 0. -1.
    10030    2    1    2    0    0  0.00000000000E+00  0.00000000000E+00  0.30927513266E+03  0.13359223803E+04  0.12996297544E+04 0.  0.
        4    1    3    3  502    0 -0.30868443445E+03 -0.45724624938E+03  0.50758820182E+03  0.74967166691E+03  0.12699999809E+01 0.  1.
       -4    1    3    3    0  502  0.30868443445E+03  0.45724624938E+03 -0.19831306916E+03  0.58625071338E+03  0.12699999809E+01 0. -1.
</event>
<event>
 5   0  0.1475396E-04  0.1300853E+04  0.7818609E-02  0.9028889E-01
       -1   -1    0    0    0  501  0.00000000000E+00  0.00000000000E+00  0.57355998819E+03  0.57355998821E+03  0.50400001928E-02 0. -1.
        1   -1    0    0  501    0  0.00000000000E+00  0.00000000000E+00 -0.73759439579E+03  0.73759439581E+03  0.50400001928E-02 0.  1.
    10030    2    1    2    0    0  0.00000000000E+00  0.00000000000E+00 -0.16403440761E+03  0.13111543840E+04  0.13008530016E+04 0.  0.
        3    1    3    3  502    0  0.18568143604E+03  0.17265373635E+03 -0.68573264642E+03  0.73110613521E+03  0.10100000352E+00 0.  1.
       -3    1    3    3    0  502 -0.18568143604E+03 -0.17265373635E+03  0.52169823882E+03  0.58004824881E+03  0.10100000352E+00 0. -1.
</event>
<event>
 5   0  0.1430636E-04  0.1297956E+04  0.7818609E-02  0.9031188E-01
       -1   -1    0    0    0  501  0.00000000000E+00  0.00000000000E+00  0.83080321019E+03  0.83080321021E+03  0.50400001928E-02 0. -1.
        1   -1    0    0  501    0  0.00000000000E+00  0.00000000000E+00 -0.50694588381E+03  0.50694588384E+03  0.50400001928E-02 0.  1.
    10030    2    1    2    0    0  0.00000000000E+00  0.00000000000E+00  0.32385732638E+03  0.13377490940E+04  0.12979557276E+04 0.  0.
        4    1    3    3  502    0  0.37581948152E+03 -0.31139139081E+02  0.70628880523E+03  0.80065936450E+03  0.12699999809E+01 0. -1.
       -4    1    3    3    0  502 -0.37581948152E+03  0.31139139081E+02 -0.38243147884E+03  0.53708972954E+03  0.12699999809E+01 0.  1.
</event>
<event>
 5   0  0.2794825E-04  0.1298804E+04  0.7818609E-02  0.9030514E-01
        2   -1    0    0  501    0  0.00000000000E+00  0.00000000000E+00  0.19797335757E+04  0.19797335757E+04  0.25500000920E-02 0.  1.
       -2   -1    0    0    0  501  0.00000000000E+00  0.00000000000E+00 -0.21302018415E+03  0.21302018416E+03  0.25500000920E-02 0. -1.
    10030    2    1    2    0    0  0.00000000000E+00  0.00000000000E+00  0.17667133915E+04  0.21927537599E+04  0.12988043900E+04 0.  0.
        1    1    3    3  502    0 -0.32987254624E+03  0.14380049487E+03  0.17960136621E+04  0.18317094621E+04  0.50400001928E-02 0.  1.
       -1    1    3    3    0  502  0.32987254624E+03 -0.14380049487E+03 -0.29300270519E+02  0.36104429779E+03  0.50400001928E-02 0. -1.
</event>
<event>
 5   0  0.1479690E-04  0.1300292E+04  0.7818609E-02  0.9029333E-01
        1   -1    0    0  501    0  0.00000000000E+00  0.00000000000E+00  0.60982204683E+03  0.60982204685E+03  0.50400001928E-02 0. -1.
       -1   -1    0    0    0  501  0.00000000000E+00  0.00000000000E+00 -0.69313653638E+03  0.69313653640E+03  0.50400001928E-02 0.  1.
    10030    2    1    2    0    0  0.00000000000E+00  0.00000000000E+00 -0.83314489551E+02  0.13029585833E+04  0.13002921847E+04 0.  0.
        1    1    3    3  502    0  0.39504264687E+03 -0.22961270788E+01 -0.55907447670E+03  0.68456426694E+03  0.50400001928E-02 0.  1.
       -1    1    3    3    0  502 -0.39504264687E+03  0.22961270788E+01  0.47575998715E+03  0.61839431631E+03  0.50400001928E-02 0. -1.
</event>
<event>
 5   0  0.2573071E-04  0.1283067E+04  0.7818609E-02  0.9043102E-01
        2   -1    0    0  501    0  0.00000000000E+00  0.00000000000E+00  0.60036048584E+03  0.60036048584E+03  0.25500000920E-02 0.  1.
       -2   -1    0    0    0  501  0.00000000000E+00  0.00000000000E+00 -0.68553039475E+03  0.68553039475E+03  0.25500000920E-02 0. -1.
    10030    2    1    2    0    0  0.00000000000E+00  0.00000000000E+00 -0.85169908907E+02  0.12858908806E+04  0.12830672014E+04 0.  0.
        4    1    3    3  502    0  0.64076579544E+03  0.31297918177E+02 -0.44428475771E+02  0.64306754439E+03  0.12699999809E+01 0.  1.
       -4    1    3    3    0  502 -0.64076579544E+03 -0.31297918177E+02 -0.40741433136E+02  0.64282333620E+03  0.12699999809E+01 0. -1.
</event>
<event>
 5   0  0.2661377E-04  0.1300210E+04  0.7818609E-02  0.9029398E-01
       -2   -1    0    0    0  501  0.00000000000E+00  0.00000000000E+00  0.43829277276E+03  0.43829277277E+03  0.25500000920E-02 0. -1.
        2   -1    0    0  501    0  0.00000000000E+00  0.00000000000E+00 -0.96427938421E+03  0.96427938421E+03  0.25500000920E-02 0.  1.
    10030    2    1    2    0    0  0.00000000000E+00  0.00000000000E+00 -0.52598661145E+03  0.14025721570E+04  0.13002102677E+04 0.  0.
        5    1    3    3  502    0  0.53324877272E+03  0.26757051741E+03 -0.54151882487E+03  0.80573752741E+03  0.46999998093E+01 0.  1.
       -5    1    3    3    0  502 -0.53324877272E+03 -0.26757051741E+03  0.15532213422E+02  0.59683462957E+03  0.46999998093E+01 0. -1.
</event>
<event>
 5   0  0.1002887E-04  0.1299496E+04  0.7818609E-02  0.9029965E-01
       -4   -1    0    0    0  501  0.00000000000E+00  0.00000000000E+00  0.11081084045E+04  0.11081091323E+04  0.12699999809E+01 0. -1.
        4   -1    0    0  501    0  0.00000000000E+00  0.00000000000E+00 -0.38098287920E+03  0.38098499596E+03  0.12699999809E+01 0.  1.
    10030    2    1    2    0    0  0.00000000000E+00  0.00000000000E+00  0.72712552528E+03  0.14890941282E+04  0.12994959766E+04 0.  0.
        2    1    3    3  502    0  0.10854224052E+03  0.63876027258E+03  0.30770263661E+03  0.71727053222E+03  0.25500000920E-02 0. -1.
       -2    1    3    3    0  502 -0.10854224052E+03 -0.63876027258E+03  0.41942288867E+03  0.77182359600E+03  0.25500000920E-02 0.  1.
</event>
<event>
 5   0  0.1430636E-04  0.1298303E+04  0.7818609E-02  0.9030912E-01
       -1   -1    0    0    0  501  0.00000000000E+00  0.00000000000E+00  0.48935543769E+03  0.48935543771E+03  0.50400001928E-02 0. -1.
        1   -1    0    0  501    0  0.00000000000E+00  0.00000000000E+00 -0.86112770976E+03  0.86112770977E+03  0.50400001928E-02 0.  1.
    10030    2    1    2    0    0  0.00000000000E+00  0.00000000000E+00 -0.37177227207E+03  0.13504831475E+04  0.12983027803E+04 0.  0.
        4    1    3    3  502    0  0.16977425680E+03 -0.17543761603E+03 -0.81155424279E+03  0.84748071204E+03  0.12699999809E+01 0.  1.
       -4    1    3    3    0  502 -0.16977425680E+03  0.17543761603E+03  0.43978197072E+03  0.50300243544E+03  0.12699999809E+01 0. -1.
</event>
<event>
 5   0  0.1430636E-04  0.1299417E+04  0.7818609E-02  0.9030028E-01
        1   -1    0    0  501    0  0.00000000000E+00  0.00000000000E+00  0.57637057668E+03  0.57637057670E+03  0.50400001928E-02 0.  1.
       -1   -1    0    0    0  501  0.00000000000E+00  0.00000000000E+00 -0.73237764267E+03  0.73237764268E+03  0.50400001928E-02 0. -1.
    10030    2    1    2    0    0  0.00000000000E+00  0.00000000000E+00 -0.15600706599E+03  0.13087482194E+04  0.12994166757E+04 0.  0.
        4    1    3    3  502    0 -0.21258152982E+03  0.40618216368E+03  0.38567682254E+03  0.59910189556E+03  0.12699999809E+01 0.  1.
       -4    1    3    3    0  502  0.21258152982E+03 -0.40618216368E+03 -0.54168388853E+03  0.70964632382E+03  0.12699999809E+01 0. -1.
</event>
<event>
 5   0  0.1479690E-04  0.1300966E+04  0.7818609E-02  0.9028799E-01
       -1   -1    0    0    0  501  0.00000000000E+00  0.00000000000E+00  0.40388440319E+03  0.40388440322E+03  0.50400001928E-02 0.  1.
        1   -1    0    0  501    0  0.00000000000E+00  0.00000000000E+00 -0.10476465689E+04  0.10476465689E+04  0.50400001928E-02 0. -1.
    10030    2    1    2    0    0  0.00000000000E+00  0.00000000000E+00 -0.64376216567E+03  0.14515309721E+04  0.13009659630E+04 0.  0.
        1    1    3    3  502    0  0.27799626495E+02  0.62158987634E+03 -0.53352163804E+03  0.81962926490E+03  0.50400001928E-02 0.  1.
       -1    1    3    3    0  502 -0.27799626495E+02 -0.62158987634E+03 -0.11024052763E+03  0.63190170720E+03  0.50400001928E-02 0. -1.
</event>
<event>
 5   0  0.1002887E-04  0.1301829E+04  0.7818609E-02  0.9028116E-01
        4   -1    0    0  501    0  0.00000000000E+00  0.00000000000E+00  0.55409452716E+03  0.55409598259E+03  0.12699999809E+01 0.  1.
       -4   -1    0    0    0  501  0.00000000000E+00  0.00000000000E+00 -0.76464926527E+03  0.76465031993E+03  0.12699999809E+01 0. -1.
    10030    2    1    2    0    0  0.00000000000E+00  0.00000000000E+00 -0.21055473811E+03  0.13187463025E+04  0.13018289107E+04 0.  0.
        2    1    3    3  502    0 -0.27310656354E+03  0.21454009742E+03  0.45239918393E+03  0.57033294668E+03  0.25500000920E-02 0.  1.
       -2    1    3    3    0  502  0.27310656354E+03 -0.21454009742E+03 -0.66295392204E+03  0.74841335584E+03  0.25500000920E-02 0. -1.
</event>
<event>
 5   0  0.2573071E-04  0.1300632E+04  0.7818609E-02  0.9029064E-01
       -2   -1    0    0    0  501  0.00000000000E+00  0.00000000000E+00  0.10309393116E+04  0.10309393116E+04  0.25500000920E-02 0.  1.
        2   -1    0    0  501    0  0.00000000000E+00  0.00000000000E+00 -0.41021882794E+03  0.41021882795E+03  0.25500000920E-02 0. -1.
    10030    2    1    2    0    0  0.00000000000E+00  0.00000000000E+00  0.62072048368E+03  0.14411581396E+04  0.13006317174E+04 0.  0.
        4    1    3    3  502    0 -0.29970441677E+03 -0.15977910881E+03  0.92485772421E+03  0.98524896548E+03  0.12699999809E+01 0.  1.
       -4    1    3    3    0  502  0.29970441677E+03  0.15977910881E+03 -0.30413724053E+03  0.45590917409E+03  0.12699999809E+01 0. -1.
</event>
<event>
 5   0  0.2794825E-04  0.1300344E+04  0.7818609E-02  0.9029292E-01
       -2   -1    0    0    0  501  0.00000000000E+00  0.00000000000E+00  0.23750448966E+03  0.23750448968E+03  0.25500000920E-02 0.  1.
        2   -1    0    0  501    0  0.00000000000E+00  0.00000000000E+00 -0.17798554798E+04  0.17798554798E+04  0.25500000920E-02 0. -1.
    10030    2    1    2    0    0  0.00000000000E+00  0.00000000000E+00 -0.15423509901E+04  0.20173599694E+04  0.13003440582E+04 0.  0.
        1    1    3    3  502    0 -0.37639351739E+01  0.74658821226E+02  0.23081529281E+03  0.24261864359E+03  0.50400001928E-02 0.  1.
       -1    1    3    3    0  502  0.37639351739E+01 -0.74658821226E+02 -0.17731662829E+04  0.17747413258E+04  0.50400001928E-02 0. -1.
</event>
<event>
 5   0  0.2794825E-04  0.1303370E+04  0.7818609E-02  0.9026897E-01
       -2   -1    0    0    0  501  0.00000000000E+00  0.00000000000E+00  0.22642461516E+03  0.22642461517E+03  0.25500000920E-02 0. -1.
        2   -1    0    0  501    0  0.00000000000E+00  0.00000000000E+00 -0.18756510038E+04  0.18756510039E+04  0.25500000920E-02 0.  1.
    10030    2    1    2    0    0  0.00000000000E+00  0.00000000000E+00 -0.16492263887E+04  0.21020756190E+04  0.13033703338E+04 0.  0.
        1    1    3    3  502    0  0.29437263938E+03 -0.37784573558E+03 -0.15373009115E+04  0.16101915237E+04  0.50400001928E-02 0.  1.
       -1    1    3    3    0  502 -0.29437263938E+03  0.37784573558E+03 -0.11192547722E+03  0.49188409528E+03  0.50400001928E-02 0. -1.
</event>
<event>
 5   0  0.1476511E-04  0.1300391E+04  0.7818609E-02  0.9029255E-01
        1   -1    0    0  501    0  0.00000000000E+00  0.00000000000E+00  0.16500039950E+04  0.16500039951E+04  0.50400001928E-02 0. -1.
       -1   -1    0    0    0  501  0.00000000000E+00  0.00000000000E+00 -0.25621417685E+03  0.25621417690E+03  0.50400001928E-02 0.  1.
    10030    2    1    2    0    0  0.00000000000E+00  0.00000000000E+00  0.13937898182E+04  0.19062181720E+04  0.13003913495E+04 0.  0.
        2    1    3    3  502    0  0.63483221379E+03 -0.30912624019E+02  0.89781618493E+03  0.11000188325E+04  0.25500000920E-02 0.  1.
       -2    1    3    3    0  502 -0.63483221379E+03  0.30912624019E+02  0.49597363327E+03  0.80619933943E+03  0.25500000920E-02 0. -1.
</event>
<event>
 5   0  0.1408341E-04  0.1298770E+04  0.7818609E-02  0.9030541E-01
       -1   -1    0    0    0  501  0.00000000000E+00  0.00000000000E+00  0.22977549487E+03  0.22977549492E+03  0.50400001928E-02 0. -1.
        1   -1    0    0  501    0  0.00000000000E+00  0.00000000000E+00 -0.18352746455E+04  0.18352746455E+04  0.50400001928E-02 0.  1.
    10030    2    1    2    0    0  0.00000000000E+00  0.00000000000E+00 -0.16054991506E+04  0.20650501404E+04  0.12987704030E+04 0.  0.
        5    1    3    3  502    0  0.45462388615E+02  0.27816552835E+03  0.12741793281E+03  0.30935466626E+03  0.46999998093E+01 0. -1.
       -5    1    3    3    0  502 -0.45462388615E+02 -0.27816552835E+03 -0.17329170834E+04  0.17556954742E+04  0.46999998093E+01 0.  1.
</event>
<event>
 5   0  0.2661377E-04  0.1301399E+04  0.7818609E-02  0.9028456E-01
        2   -1    0    0  501    0  0.00000000000E+00  0.00000000000E+00  0.44024530080E+03  0.44024530080E+03  0.25500000920E-02 0.  1.
       -2   -1    0    0    0  501  0.00000000000E+00  0.00000000000E+00 -0.96175893035E+03  0.96175893036E+03  0.25500000920E-02 0. -1.
    10030    2    1    2    0    0  0.00000000000E+00  0.00000000000E+00 -0.52151362956E+03  0.14020042312E+04  0.13013990158E+04 0.  0.
        5    1    3    3  502    0  0.58527812755E+03 -0.25975997991E+03 -0.13622652348E+03  0.65467968462E+03  0.46999998093E+01 0.  1.
       -5    1    3    3    0  502 -0.58527812755E+03  0.25975997991E+03 -0.38528710607E+03  0.74732454654E+03  0.46999998093E+01 0. -1.
</event>
<event>
 5   0  0.1430636E-04  0.1300294E+04  0.7818609E-02  0.9029332E-01
       -1   -1    0    0    0  501  0.00000000000E+00  0.00000000000E+00  0.27288439467E+03  0.27288439471E+03  0.50400001928E-02 0. -1.
        1   -1    0    0  501    0  0.00000000000E+00  0.00000000000E+00 -0.15489758373E+04  0.15489758374E+04  0.50400001928E-02 0.  1.
    10030    2    1    2    0    0  0.00000000000E+00  0.00000000000E+00 -0.12760914427E+04  0.18218602321E+04  0.13002943263E+04 0.  0.
        4    1    3    3  502    0  0.18402737323E+03 -0.44029683583E+03 -0.19390394965E+02  0.47760336898E+03  0.12699999809E+01 0. -1.
       -4    1    3    3    0  502 -0.18402737323E+03  0.44029683583E+03 -0.12567010477E+04  0.13442568631E+04  0.12699999809E+01 0.  1.
</event>
<event>
 5   0  0.2723209E-04  0.1287224E+04  0.7818609E-02  0.9039758E-01
        2   -1    0    0  501    0  0.00000000000E+00  0.00000000000E+00  0.74134387192E+03  0.74134387193E+03  0.25500000920E-02 0.  1.
       -2   -1    0    0    0  501  0.00000000000E+00  0.00000000000E+00 -0.55876444802E+03  0.55876444802E+03  0.25500000920E-02 0. -1.
    10030    2    1    2    0    0  0.00000000000E+00  0.00000000000E+00  0.18257942391E+03  0.13001083200E+04  0.12872242996E+04 0.  0.
        2    1    3    3  502    0 -0.30804826662E+03  0.47180074676E+03  0.40544464401E+03  0.69417219663E+03  0.25500000920E-02 0.  1.
       -2    1    3    3    0  502  0.30804826662E+03 -0.47180074676E+03 -0.22286522010E+03  0.60593612332E+03  0.25500000920E-02 0. -1.
</event>
<event>
 5   0  0.1479690E-04  0.1300923E+04  0.7818609E-02  0.9028833E-01
       -1   -1    0    0    0  501  0.00000000000E+00  0.00000000000E+00  0.39059144579E+03  0.39059144583E+03  0.50400001928E-02 0.  1.
        1   -1    0    0  501    0  0.00000000000E+00  0.00000000000E+00 -0.10832297461E+04  0.10832297462E+04  0.50400001928E-02 0. -1.
    10030    2    1    2    0    0  0.00000000000E+00  0.00000000000E+00 -0.69263830035E+03  0.14738211920E+04  0.13009231687E+04 0.  0.
        1    1    3    3  502    0 -0.13371118889E+03  0.61855057003E+03 -0.51669520744E+03  0.81698067733E+03  0.50400001928E-02 0. -1.
       -1    1    3    3    0  502  0.13371118889E+03 -0.61855057003E+03 -0.17594309292E+03  0.65684051465E+03  0.50400001928E-02 0.  1.
</event>
<event>
 5   0  0.2756984E-04  0.1300876E+04  0.7818609E-02  0.9028871E-01
       -2   -1    0    0    0  501  0.00000000000E+00  0.00000000000E+00  0.88726252416E+03  0.88726252416E+03  0.25500000920E-02 0.  1.
        2   -1    0    0  501    0  0.00000000000E+00  0.00000000000E+00 -0.47682558489E+03  0.47682558490E+03  0.25500000920E-02 0. -1.
    10030    2    1    2    0    0  0.00000000000E+00  0.00000000000E+00  0.41043693926E+03  0.13640881091E+04  0.13008758158E+04 0.  0.
        3    1    3    3  502    0 -0.15604259747E+03  0.55641855254E+03  0.51825186594E+03  0.77623186265E+03  0.10100000352E+00 0.  1.
       -3    1    3    3    0  502  0.15604259747E+03 -0.55641855254E+03 -0.10781492668E+03  0.58785624641E+03  0.10100000352E+00 0. -1.
</event>
<event>
 5   0  0.1002887E-04  0.1301254E+04  0.7818609E-02  0.9028571E-01
        4   -1    0    0  501    0  0.00000000000E+00  0.00000000000E+00  0.61574494132E+03  0.61574625103E+03  0.12699999809E+01 0.  1.
       -4   -1    0    0    0  501  0.00000000000E+00  0.00000000000E+00 -0.68748230822E+03  0.68748348127E+03  0.12699999809E+01 0. -1.
    10030    2    1    2    0    0  0.00000000000E+00  0.00000000000E+00 -0.71737366901E+02  0.13032297323E+04  0.13012538128E+04 0.  0.
        2    1    3    3  502    0  0.14680709048E+03 -0.45660987015E+03  0.40442425749E+03  0.62737857421E+03  0.25500000920E-02 0.  1.
       -2    1    3    3    0  502 -0.14680709048E+03  0.45660987015E+03 -0.47616162439E+03  0.67585115808E+03  0.25500000920E-02 0. -1.
</event>
<event>
 5   0  0.1479690E-04  0.1323553E+04  0.7818609E-02  0.9011093E-01
        1   -1    0    0  501    0  0.00000000000E+00  0.00000000000E+00  0.48417895271E+03  0.48417895274E+03  0.50400001928E-02 0. -1.
       -1   -1    0    0    0  501  0.00000000000E+00  0.00000000000E+00 -0.90451709236E+03  0.90451709237E+03  0.50400001928E-02 0.  1.
    10030    2    1    2    0    0  0.00000000000E+00  0.00000000000E+00 -0.42033813964E+03  0.13886960451E+04  0.13235530039E+04 0.  0.
        1    1    3    3  502    0 -0.52551759135E+03  0.38495013114E+03 -0.33249548918E+03  0.73137445445E+03  0.50400001928E-02 0.  1.
       -1    1    3    3    0  502  0.52551759135E+03 -0.38495013114E+03 -0.87842650468E+02  0.65732159066E+03  0.50400001928E-02 0. -1.
</event>
<event>
 5   0  0.1430636E-04  0.1301075E+04  0.7818609E-02  0.9028713E-01
       -1   -1    0    0    0  501  0.00000000000E+00  0.00000000000E+00  0.61728533871E+03  0.61728533873E+03  0.50400001928E-02 0.  1.
        1   -1    0    0  501    0  0.00000000000E+00  0.00000000000E+00 -0.68558053476E+03  0.68558053478E+03  0.50400001928E-02 0. -1.
    10030    2    1    2    0    0  0.00000000000E+00  0.00000000000E+00 -0.68295196052E+02  0.13028658735E+04  0.13010746522E+04 0.  0.
        4    1    3    3  502    0 -0.14922828096E+03  0.32239223053E+03 -0.57986701593E+03  0.68003911594E+03  0.12699999809E+01 0. -1.
       -4    1    3    3    0  502  0.14922828096E+03 -0.32239223053E+03  0.51157181988E+03  0.62282675757E+03  0.12699999809E+01 0.  1.
</event>
<event>
 5   0  0.1408341E-04  0.1302810E+04  0.7818609E-02  0.9027339E-01
       -1   -1    0    0    0  501  0.00000000000E+00  0.00000000000E+00  0.87396092010E+03  0.87396092011E+03  0.50400001928E-02 0. -1.
        1   -1    0    0  501    0  0.00000000000E+00  0.00000000000E+00 -0.48552373134E+03  0.48552373137E+03  0.50400001928E-02 0.  1.
    10030    2    1    2    0    0  0.00000000000E+00  0.00000000000E+00  0.38843718875E+03  0.13594846515E+04  0.13028104498E+04 0.  0.
        5    1    3    3  502    0 -0.44478378081E+02 -0.18881172470E+03 -0.45466691945E+03  0.49434025846E+03  0.46999998093E+01 0.  1.
       -5    1    3    3    0  502  0.44478378081E+02  0.18881172470E+03  0.84310410820E+03  0.86514439301E+03  0.46999998093E+01 0. -1.
</event>
<event>
 5   0  0.1408341E-04  0.1302070E+04  0.7818609E-02  0.9027925E-01
        1   -1    0    0  501    0  0.00000000000E+00  0.00000000000E+00  0.49890549645E+03  0.49890549647E+03  0.50400001928E-02 0.  1.
       -1   -1    0    0    0  501  0.00000000000E+00  0.00000000000E+00 -0.84955284017E+03  0.84955284019E+03  0.50400001928E-02 0. -1.
    10030    2    1    2    0    0  0.00000000000E+00  0.00000000000E+00 -0.35064734373E+03  0.13484583367E+04  0.13020700158E+04 0.  0.
        5    1    3    3  502    0 -0.10799602962E+03  0.10335478823E+02 -0.84010764300E+03  0.84709675148E+03  0.46999998093E+01 0. -1.
       -5    1    3    3    0  502  0.10799602962E+03 -0.10335478823E+02  0.48946029927E+03  0.50136158519E+03  0.46999998093E+01 0.  1.
</event>
<event>
 5   0  0.1002887E-04  0.1299837E+04  0.7818609E-02  0.9029694E-01
        4   -1    0    0  501    0  0.00000000000E+00  0.00000000000E+00  0.58156300707E+03  0.58156439376E+03  0.12699999809E+01 0.  1.
       -4   -1    0    0    0  501  0.00000000000E+00  0.00000000000E+00 -0.72630577052E+03  0.72630688086E+03  0.12699999809E+01 0. -1.
    10030    2    1    2    0    0  0.00000000000E+00  0.00000000000E+00 -0.14474276345E+03  0.13078712746E+04  0.12998372219E+04 0.  0.
        2    1    3    3  502    0 -0.43197438437E+03  0.22608860907E+03  0.36002453361E+03  0.60608216663E+03  0.25500000920E-02 0.  1.
       -2    1    3    3    0  502  0.43197438437E+03 -0.22608860907E+03 -0.50476729706E+03  0.70178910799E+03  0.25500000920E-02 0. -1.
</event>
<event>
 5   0  0.2661377E-04  0.1299798E+04  0.7818609E-02  0.9029725E-01
        2   -1    0    0  501    0  0.00000000000E+00  0.00000000000E+00  0.14981816816E+04  0.14981816816E+04  0.25500000920E-02 0.  1.
       -2   -1    0    0    0  501  0.00000000000E+00  0.00000000000E+00 -0.28192089190E+03  0.28192089192E+03  0.25500000920E-02 0. -1.
    10030    2    1    2    0    0  0.00000000000E+00  0.00000000000E+00  0.12162607897E+04  0.17801025735E+04  0.12997980088E+04 0.  0.
        5    1    3    3  502    0 -0.59476977994E+03  0.13329435972E+03  0.91689058920E+03  0.11010126793E+04  0.46999998093E+01 0.  1.
       -5    1    3    3    0  502  0.59476977994E+03 -0.13329435972E+03  0.29937020052E+03  0.67908989421E+03  0.46999998093E+01 0. -1.
</event>
<event>
 5   0  0.2661377E-04  0.1303049E+04  0.7818609E-02  0.9027151E-01
        2   -1    0    0  501    0  0.00000000000E+00  0.00000000000E+00  0.15854832755E+04  0.15854832755E+04  0.25500000920E-02 0. -1.
       -2   -1    0    0    0  501  0.00000000000E+00  0.00000000000E+00 -0.26773155278E+03  0.26773155279E+03  0.25500000920E-02 0.  1.
    10030    2    1    2    0    0  0.00000000000E+00  0.00000000000E+00  0.13177517227E+04  0.18532148283E+04  0.13030485782E+04 0.  0.
        5    1    3    3  502    0 -0.14944846345E+03 -0.38340642025E+03 -0.59485443878E+02  0.41580756889E+03  0.46999998093E+01 0.  1.
       -5    1    3    3    0  502  0.14944846345E+03  0.38340642025E+03  0.13772371666E+04  0.14374072594E+04  0.46999998093E+01 0. -1.
</event>
<event>
 5   0  0.2661377E-04  0.1301246E+04  0.7818609E-02  0.9028577E-01
        2   -1    0    0  501    0  0.00000000000E+00  0.00000000000E+00  0.84822259150E+03  0.84822259150E+03  0.25500000920E-02 0.  1.
       -2   -1    0    0    0  501  0.00000000000E+00  0.00000000000E+00 -0.49905589609E+03  0.49905589609E+03  0.25500000920E-02 0. -1.
    10030    2    1    2    0    0  0.00000000000E+00  0.00000000000E+00  0.34916669541E+03  0.13472784876E+04  0.13012463033E+04 0.  0.
        5    1    3    3  502    0  0.34017725825E+03  0.14175464164E+03 -0.38054925896E+03  0.52976860416E+03  0.46999998093E+01 0. -1.
       -5    1    3    3    0  502 -0.34017725825E+03 -0.14175464164E+03  0.72971595437E+03  0.81750988344E+03  0.46999998093E+01 0.  1.
</event>
<event>
 5   0  0.1476511E-04  0.1296276E+04  0.7818609E-02  0.9032523E-01
       -1   -1    0    0    0  501  0.00000000000E+00  0.00000000000E+00  0.33266132101E+03  0.33266132105E+03  0.50400001928E-02 0.  1.
        1   -1    0    0  501    0  0.00000000000E+00  0.00000000000E+00 -0.12627953213E+04  0.12627953213E+04  0.50400001928E-02 0. -1.
    10030    2    1    2    0    0  0.00000000000E+00  0.00000000000E+00 -0.93013400026E+03  0.15954566423E+04  0.12962764517E+04 0.  0.
        2    1    3    3  502    0  0.17636746852E+03  0.45249069668E+03 -0.99335089174E+03  0.11057121274E+04  0.25500000920E-02 0. -1.
       -2    1    3    3    0  502 -0.17636746852E+03 -0.45249069668E+03  0.63216891477E+02  0.48974451494E+03  0.25500000920E-02 0.  1.
</event>
<event>
 5   0  0.2756984E-04  0.1296853E+04  0.7818609E-02  0.9032065E-01
       -2   -1    0    0    0  501  0.00000000000E+00  0.00000000000E+00  0.15571465597E+03  0.15571465599E+03  0.25500000920E-02 0.  1.
        2   -1    0    0  501    0  0.00000000000E+00  0.00000000000E+00 -0.27001751040E+04  0.27001751040E+04  0.25500000920E-02 0. -1.
    10030    2    1    2    0    0  0.00000000000E+00  0.00000000000E+00 -0.25444604481E+04  0.28558897600E+04  0.12968528635E+04 0.  0.
        3    1    3    3  502    0  0.18503319219E+03  0.53942195639E+01  0.96290875001E+02  0.20865838739E+03  0.10100000352E+00 0.  1.
       -3    1    3    3    0  502 -0.18503319219E+03 -0.53942195639E+01 -0.26407513231E+04  0.26472313726E+04  0.10100000352E+00 0. -1.
</event>
<event>
 5   0  0.2573071E-04  0.1296779E+04  0.7818609E-02  0.9032123E-01
       -2   -1    0    0    0  501  0.00000000000E+00  0.00000000000E+00  0.47352198577E+03  0.47352198577E+03  0.25500000920E-02 0.  1.
        2   -1    0    0  501    0  0.00000000000E+00  0.00000000000E+00 -0.88783431950E+03  0.88783431950E+03  0.25500000920E-02 0. -1.
    10030    2    1    2    0    0  0.00000000000E+00  0.00000000000E+00 -0.41431233373E+03  0.13613563053E+04  0.12967791948E+04 0.  0.
        4    1    3    3  502    0 -0.37904746305E+03 -0.14450749662E+03  0.32384666621E+03  0.51907385982E+03  0.12699999809E+01 0.  1.
       -4    1    3    3    0  502  0.37904746305E+03  0.14450749662E+03 -0.73815899994E+03  0.84228244546E+03  0.12699999809E+01 0. -1.
</event>
<event>
 5   0  0.2756984E-04  0.1299572E+04  0.7818609E-02  0.9029905E-01
       -2   -1    0    0    0  501  0.00000000000E+00  0.00000000000E+00  0.17786630822E+03  0.17786630824E+03  0.25500000920E-02 0. -1.
        2   -1    0    0  501    0  0.00000000000E+00  0.00000000000E+00 -0.23738141892E+04  0.23738141892E+04  0.25500000920E-02 0.  1.
    10030    2    1    2    0    0  0.00000000000E+00  0.00000000000E+00 -0.21959478810E+04  0.25516804974E+04  0.12995715698E+04 0.  0.
        3    1    3    3  502    0 -0.40424386565E+02  0.23526847280E+02  0.17455676447E+03  0.18071446482E+03  0.10100000352E+00 0. -1.
       -3    1    3    3    0  502  0.40424386565E+02 -0.23526847280E+02 -0.23705046454E+04  0.23709660326E+04  0.10100000352E+00 0.  1.
</event>
<event>
 5   0  0.1476511E-04  0.1303284E+04  0.7818609E-02  0.9026965E-01
        1   -1    0    0  501    0  0.00000000000E+00  0.00000000000E+00  0.20290267967E+04  0.20290267967E+04  0.50400001928E-02 0. -1.
       -1   -1    0    0    0  501  0.00000000000E+00  0.00000000000E+00 -0.20928120730E+03  0.20928120737E+03  0.50400001928E-02 0.  1.
    10030    2    1    2    0    0  0.00000000000E+00  0.00000000000E+00  0.18197455894E+04  0.22383080041E+04  0.13032838183E+04 0.  0.
        2    1    3    3  502    0 -0.48740781854E+03 -0.43161672085E+03  0.86197500222E+03  0.10802130715E+04  0.25500000920E-02 0. -1.
       -2    1    3    3    0  502  0.48740781854E+03  0.43161672085E+03  0.95777058718E+03  0.11580949326E+04  0.25500000920E-02 0.  1.
</event>
<event>
 5   0  0.2723209E-04  0.1299994E+04  0.7818609E-02  0.9029570E-01
       -2   -1    0    0    0  501  0.00000000000E+00  0.00000000000E+00  0.68062599121E+03  0.68062599122E+03  0.25500000920E-02 0. -1.
        2   -1    0    0  501    0  0.00000000000E+00  0.00000000000E+00 -0.62074662556E+03  0.62074662556E+03  0.25500000920E-02 0.  1.
    10030    2    1    2    0    0  0.00000000000E+00  0.00000000000E+00  0.59879365651E+02  0.13013726168E+04  0.12999942882E+04 0.  0.
        2    1    3    3  502    0  0.34379450605E+03 -0.54358774248E+03  0.12392208148E+03  0.65501067048E+03  0.25500000920E-02 0. -1.
       -2    1    3    3    0  502 -0.34379450605E+03  0.54358774248E+03 -0.64042715828E+02  0.64636194630E+03  0.25500000920E-02 0.  1.
</event>
<event>
 5   0  0.1430636E-04  0.1299346E+04  0.7818609E-02  0.9030084E-01
       -1   -1    0    0    0  501  0.00000000000E+00  0.00000000000E+00  0.38291748525E+03  0.38291748529E+03  0.50400001928E-02 0. -1.
        1   -1    0    0  501    0  0.00000000000E+00  0.00000000000E+00 -0.11022612144E+04  0.11022612144E+04  0.50400001928E-02 0.  1.
    10030    2    1    2    0    0  0.00000000000E+00  0.00000000000E+00 -0.71934372915E+03  0.14851786997E+04  0.12993461315E+04 0.  0.
        4    1    3    3  502    0 -0.46030795092E+03  0.29898190171E+03  0.37599376976E+02  0.55017171254E+03  0.12699999809E+01 0. -1.
       -4    1    3    3    0  502  0.46030795092E+03 -0.29898190171E+03 -0.75694310612E+03  0.93500698716E+03  0.12699999809E+01 0.  1.
</event>
<event>
 5   0  0.1430636E-04  0.1299253E+04  0.7818609E-02  0.9030158E-01
        1   -1    0    0  501    0  0.00000000000E+00  0.00000000000E+00  0.10438559239E+04  0.10438559239E+04  0.50400001928E-02 0. -1.
       -1   -1    0    0    0  501  0.00000000000E+00  0.00000000000E+00 -0.40428433774E+03  0.40428433777E+03  0.50400001928E-02 0.  1.
    10030    2    1    2    0    0  0.00000000000E+00  0.00000000000E+00  0.63957158619E+03  0.14481402617E+04  0.12992530176E+04 0.  0.
        4    1    3    3  502    0 -0.28411737413E+03  0.52707171942E+03  0.60062315110E+03  0.84810203527E+03  0.12699999809E+01 0. -1.
       -4    1    3    3    0  502  0.28411737413E+03 -0.52707171942E+03  0.38948435092E+02  0.60003822644E+03  0.12699999809E+01 0.  1.
</event>
<event>
 5   0  0.2573071E-04  0.1290468E+04  0.7818609E-02  0.9037159E-01
       -2   -1    0    0    0  501  0.00000000000E+00  0.00000000000E+00  0.92668543370E+03  0.92668543370E+03  0.25500000920E-02 0. -1.
        2   -1    0    0  501    0  0.00000000000E+00  0.00000000000E+00 -0.44926432811E+03  0.44926432812E+03  0.25500000920E-02 0.  1.
    10030    2    1    2    0    0  0.00000000000E+00  0.00000000000E+00  0.47742110559E+03  0.13759497618E+04  0.12904676807E+04 0.  0.
        4    1    3    3  502    0  0.25404629516E+03 -0.22487949405E+03  0.82389609875E+03  0.89102003421E+03  0.12699999809E+01 0. -1.
       -4    1    3    3    0  502 -0.25404629516E+03  0.22487949405E+03 -0.34647499317E+03  0.48492972761E+03  0.12699999809E+01 0.  1.
</event>
<event>
 5   0  0.1475396E-04  0.1300180E+04  0.7818609E-02  0.9029422E-01
       -1   -1    0    0    0  501  0.00000000000E+00  0.00000000000E+00  0.50656746061E+03  0.50656746064E+03  0.50400001928E-02 0.  1.
        1   -1    0    0  501    0  0.00000000000E+00  0.00000000000E+00 -0.83427641081E+03  0.83427641082E+03  0.50400001928E-02 0. -1.
    10030    2    1    2    0    0  0.00000000000E+00  0.00000000000E+00 -0.32770895019E+03  0.13408438715E+04  0.13001804227E+04 0.  0.
        3    1    3    3  502    0 -0.28150739134E+03 -0.33032451488E+03  0.33528335268E+03  0.54843015352E+03  0.10100000352E+00 0.  1.
       -3    1    3    3    0  502  0.28150739134E+03  0.33032451488E+03 -0.66299230287E+03  0.79241371794E+03  0.10100000352E+00 0. -1.
</event>
<event>
 5   0  0.1476511E-04  0.1302934E+04  0.7818609E-02  0.9027241E-01
        1   -1    0    0  501    0  0.00000000000E+00  0.00000000000E+00  0.15860156611E+04  0.15860156611E+04  0.50400001928E-02 0.  1.
       -1   -1    0    0    0  501  0.00000000000E+00  0.00000000000E+00 -0.26759472745E+03  0.26759472750E+03  0.50400001928E-02 0. -1.
    10030    2    1    2    0    0  0.00000000000E+00  0.00000000000E+00  0.13184209337E+04  0.18536103886E+04  0.13029342710E+04 0.  0.
        2    1    3    3  502    0 -0.43287349323E+03 -0.37561708413E+03  0.21855433414E+03  0.61337888129E+03  0.25500000920E-02 0. -1.
       -2    1    3    3    0  502  0.43287349323E+03  0.37561708413E+03  0.10998665995E+04  0.12402315074E+04  0.25500000920E-02 0.  1.
</event>
<event>
 5   0  0.2756984E-04  0.1299311E+04  0.7818609E-02  0.9030112E-01
       -2   -1    0    0    0  501  0.00000000000E+00  0.00000000000E+00  0.52478823977E+03  0.52478823978E+03  0.25500000920E-02 0.  1.
        2   -1    0    0  501    0  0.00000000000E+00  0.00000000000E+00 -0.80423315427E+03  0.80423315428E+03  0.25500000920E-02 0. -1.
    10030    2    1    2    0    0  0.00000000000E+00  0.00000000000E+00 -0.27944491450E+03  0.13290213941E+04  0.12993107425E+04 0.  0.
        3    1    3    3  502    0 -0.21188745670E+03  0.50901676702E+03 -0.49117456568E+03  0.73840830683E+03  0.10100000352E+00 0.  1.
       -3    1    3    3    0  502  0.21188745670E+03 -0.50901676702E+03  0.21172965118E+03  0.59061308723E+03  0.10100000352E+00 0. -1.
</event>
<event>
 5   0  0.2756984E-04  0.1300361E+04  0.7818609E-02  0.9029279E-01
        2   -1    0    0  501    0  0.00000000000E+00  0.00000000000E+00  0.16193061669E+04  0.16193061669E+04  0.25500000920E-02 0. -1.
       -2   -1    0    0    0  501  0.00000000000E+00  0.00000000000E+00 -0.26105922320E+03  0.26105922321E+03  0.25500000920E-02 0.  1.
    10030    2    1    2    0    0  0.00000000000E+00  0.00000000000E+00  0.13582469437E+04  0.18803653901E+04  0.13003611961E+04 0.  0.
        3    1    3    3  502    0 -0.19985255528E+01 -0.42639431104E+03  0.13888867088E+04  0.14528669597E+04  0.10100000352E+00 0. -1.
       -3    1    3    3    0  502  0.19985255528E+01  0.42639431104E+03 -0.30639765081E+02  0.42749843040E+03  0.10100000352E+00 0.  1.
</event>
<event>
 5   0  0.2573071E-04  0.1299100E+04  0.7818609E-02  0.9030279E-01
       -2   -1    0    0    0  501  0.00000000000E+00  0.00000000000E+00  0.57967554582E+03  0.57967554583E+03  0.25500000920E-02 0. -1.
        2   -1    0    0  501    0  0.00000000000E+00  0.00000000000E+00 -0.72784768006E+03  0.72784768007E+03  0.25500000920E-02 0.  1.
    10030    2    1    2    0    0  0.00000000000E+00  0.00000000000E+00 -0.14817213424E+03  0.13075232259E+04  0.12991004599E+04 0.  0.
        4    1    3    3  502    0  0.27820811474E+03 -0.18850759815E+03 -0.63354881014E+03  0.71716147233E+03  0.12699999809E+01 0.  1.
       -4    1    3    3    0  502 -0.27820811474E+03  0.18850759815E+03  0.48537667590E+03  0.59036175357E+03  0.12699999809E+01 0. -1.
</event>
<event>
 5   0  0.1479690E-04  0.1299364E+04  0.7818609E-02  0.9030070E-01
        1   -1    0    0  501    0  0.00000000000E+00  0.00000000000E+00  0.20822232878E+04  0.20822232878E+04  0.50400001928E-02 0. -1.
       -1   -1    0    0    0  501  0.00000000000E+00  0.00000000000E+00 -0.20270955193E+03  0.20270955199E+03  0.50400001928E-02 0.  1.
    10030    2    1    2    0    0  0.00000000000E+00  0.00000000000E+00  0.18795137359E+04  0.22849328398E+04  0.12993637670E+04 0.  0.
        1    1    3    3  502    0 -0.29442314890E+03 -0.43361251544E+03  0.16148513143E+04  0.16977778334E+04  0.50400001928E-02 0. -1.
       -1    1    3    3    0  502  0.29442314890E+03  0.43361251544E+03  0.26466242156E+03  0.58715500642E+03  0.50400001928E-02 0.  1.
</event>
<event>
 5   0  0.2573071E-04  0.1320189E+04  0.7818609E-02  0.9013706E-01
       -2   -1    0    0    0  501  0.00000000000E+00  0.00000000000E+00  0.78956590989E+03  0.78956590989E+03  0.25500000920E-02 0. -1.
        2   -1    0    0  501    0  0.00000000000E+00  0.00000000000E+00 -0.55185375976E+03  0.55185375977E+03  0.25500000920E-02 0.  1.
    10030    2    1    2    0    0  0.00000000000E+00  0.00000000000E+00  0.23771215013E+03  0.13414196697E+04  0.13201892530E+04 0.  0.
        4    1    3    3  502    0 -0.59036430150E+03  0.28501579050E+03  0.40418190272E+02  0.65680990577E+03  0.12699999809E+01 0.  1.
       -4    1    3    3    0  502  0.59036430150E+03 -0.28501579050E+03  0.19729395985E+03  0.68460976389E+03  0.12699999809E+01 0. -1.
</event>
<event>
 5   0  0.1475396E-04  0.1298285E+04  0.7818609E-02  0.9030926E-01
        1   -1    0    0  501    0  0.00000000000E+00  0.00000000000E+00  0.17206142419E+04  0.17206142419E+04  0.50400001928E-02 0.  1.
       -1   -1    0    0    0  501  0.00000000000E+00  0.00000000000E+00 -0.24490448363E+03  0.24490448368E+03  0.50400001928E-02 0. -1.
    10030    2    1    2    0    0  0.00000000000E+00  0.00000000000E+00  0.14757097583E+04  0.19655187256E+04  0.12982852422E+04 0.  0.
        3    1    3    3  502    0  0.21698632826E+03 -0.19476479581E+03  0.16158973537E+04  0.16419928929E+04  0.10100000352E+00 0.  1.
       -3    1    3    3    0  502 -0.21698632826E+03  0.19476479581E+03 -0.14018759542E+03  0.32352583273E+03  0.10100000352E+00 0. -1.
</event>
<event>
 5   0  0.2756984E-04  0.1300268E+04  0.7818609E-02  0.9029353E-01
        2   -1    0    0  501    0  0.00000000000E+00  0.00000000000E+00  0.11015851058E+04  0.11015851058E+04  0.25500000920E-02 0. -1.
       -2   -1    0    0    0  501  0.00000000000E+00  0.00000000000E+00 -0.38369649305E+03  0.38369649306E+03  0.25500000920E-02 0.  1.
    10030    2    1    2    0    0  0.00000000000E+00  0.00000000000E+00  0.71788861275E+03  0.14852815989E+04  0.13002681906E+04 0.  0.
        3    1    3    3  502    0 -0.30587908399E+03  0.29821400961E+03  0.91875982779E+03  0.10132192462E+04  0.10100000352E+00 0. -1.
       -3    1    3    3    0  502  0.30587908399E+03 -0.29821400961E+03 -0.20087121504E+03  0.47206235264E+03  0.10100000352E+00 0.  1.
</event>
<event>
 5   0  0.2661377E-04  0.1296781E+04  0.7818609E-02  0.9032122E-01
        2   -1    0    0  501    0  0.00000000000E+00  0.00000000000E+00  0.91406225933E+03  0.91406225934E+03  0.25500000920E-02 0. -1.
       -2   -1    0    0    0  501  0.00000000000E+00  0.00000000000E+00 -0.45993595104E+03  0.45993595104E+03  0.25500000920E-02 0.  1.
    10030    2    1    2    0    0  0.00000000000E+00  0.00000000000E+00  0.45412630830E+03  0.13739982104E+04  0.12967807749E+04 0.  0.
        5    1    3    3  502    0  0.40363984495E+03  0.43380989652E+03 -0.51804413553E+02  0.59482933519E+03  0.46999998093E+01 0.  1.
       -5    1    3    3    0  502 -0.40363984495E+03 -0.43380989652E+03  0.50593072185E+03  0.77916887518E+03  0.46999998093E+01 0. -1.
</event>
<event>
 5   0  0.1430636E-04  0.1302625E+04  0.7818609E-02  0.9027486E-01
       -1   -1    0    0    0  501  0.00000000000E+00  0.00000000000E+00  0.53892336007E+03  0.53892336009E+03  0.50400001928E-02 0.  1.
        1   -1    0    0  501    0  0.00000000000E+00  0.00000000000E+00 -0.78713926619E+03  0.78713926621E+03  0.50400001928E-02 0. -1.
    10030    2    1    2    0    0  0.00000000000E+00  0.00000000000E+00 -0.24821590612E+03  0.13260626263E+04  0.13026246400E+04 0.  0.
        4    1    3    3  502    0  0.26757213353E+03 -0.18572211253E+03  0.45006041237E+03  0.55555696144E+03  0.12699999809E+01 0.  1.
       -4    1    3    3    0  502 -0.26757213353E+03  0.18572211253E+03 -0.69827631849E+03  0.77050566486E+03  0.12699999809E+01 0. -1.
</event>
<event>
 5   0  0.1479690E-04  0.1325707E+04  0.7818609E-02  0.9009424E-01
       -1   -1    0    0    0  501  0.00000000000E+00  0.00000000000E+00  0.25814764548E+03  0.25814764553E+03  0.50400001928E-02 0. -1.
        1   -1    0    0  501    0  0.00000000000E+00  0.00000000000E+00 -0.17020300067E+04  0.17020300067E+04  0.50400001928E-02 0.  1.
    10030    2    1    2    0    0  0.00000000000E+00  0.00000000000E+00 -0.14438823613E+04  0.19601776523E+04  0.13257074169E+04 0.  0.
        1    1    3    3  502    0  0.18056283061E+03  0.63139506519E+03 -0.85511588679E+03  0.10781863679E+04  0.50400001928E-02 0.  1.
       -1    1    3    3    0  502 -0.18056283061E+03 -0.63139506519E+03 -0.58876647447E+03  0.88199128433E+03  0.50400001928E-02 0. -1.
</event>
<event>
 5   0  0.2794825E-04  0.1300859E+04  0.7818609E-02  0.9028884E-01
        2   -1    0    0  501    0  0.00000000000E+00  0.00000000000E+00  0.15645370932E+04  0.15645370932E+04  0.25500000920E-02 0. -1.
       -2   -1    0    0    0  501  0.00000000000E+00  0.00000000000E+00 -0.27040489968E+03  0.27040489969E+03  0.25500000920E-02 0.  1.
    10030    2    1    2    0    0  0.00000000000E+00  0.00000000000E+00  0.12941321935E+04  0.18349419928E+04  0.13008589404E+04 0.  0.
        1    1    3    3  502    0  0.47178544036E+03  0.44396131849E+03  0.72901648257E+03  0.97526826358E+03  0.50400001928E-02 0. -1.
       -1    1    3    3    0  502 -0.47178544036E+03 -0.44396131849E+03  0.56511571091E+03  0.85967372927E+03  0.50400001928E-02 0.  1.
</event>
<event>
 5   0  0.1430636E-04  0.1297649E+04  0.7818609E-02  0.9031431E-01
        1   -1    0    0  501    0  0.00000000000E+00  0.00000000000E+00  0.31890131792E+03  0.31890131796E+03  0.50400001928E-02 0. -1.
       -1   -1    0    0    0  501  0.00000000000E+00  0.00000000000E+00 -0.13200740577E+04  0.13200740577E+04  0.50400001928E-02 0.  1.
    10030    2    1    2    0    0  0.00000000000E+00  0.00000000000E+00 -0.10011727397E+04  0.16389753756E+04  0.12976491926E+04 0.  0.
        4    1    3    3  502    0  0.17171876466E+03 -0.13035016734E+02  0.28950641739E+03  0.33685727602E+03  0.12699999809E+01 0. -1.
       -4    1    3    3    0  502 -0.17171876466E+03  0.13035016734E+02 -0.12906791571E+04  0.13021180996E+04  0.12699999809E+01 0.  1.
</event>
<event>
 5   0  0.2661377E-04  0.1299640E+04  0.7818609E-02  0.9029851E-01
       -2   -1    0    0    0  501  0.00000000000E+00  0.00000000000E+00  0.18405321249E+04  0.18405321249E+04  0.25500000920E-02 0.  1.
        2   -1    0    0  501    0  0.00000000000E+00  0.00000000000E+00 -0.22942596091E+03  0.22942596093E+03  0.25500000920E-02 0. -1.
    10030    2    1    2    0    0  0.00000000000E+00  0.00000000000E+00  0.16111061640E+04  0.20699580858E+04  0.12996397214E+04 0.  0.
        5    1    3    3  502    0 -0.50849427277E+03  0.21289308362E+03  0.25761711548E+03  0.60850518377E+03  0.46999998093E+01 0. -1.
       -5    1    3    3    0  502  0.50849427277E+03 -0.21289308362E+03  0.13534890485E+04  0.14614529021E+04  0.46999998093E+01 0.  1.
</event>
<event>
 5   0  0.1476511E-04  0.1303678E+04  0.7818609E-02  0.9026654E-01
        1   -1    0    0  501    0  0.00000000000E+00  0.00000000000E+00  0.10029097319E+04  0.10029097319E+04  0.50400001928E-02 0. -1.
       -1   -1    0    0    0  501  0.00000000000E+00  0.00000000000E+00 -0.42366105457E+03  0.42366105460E+03  0.50400001928E-02 0.  1.
    10030    2    1    2    0    0  0.00000000000E+00  0.00000000000E+00  0.57924867728E+03  0.14265707865E+04  0.13036775593E+04 0.  0.
        2    1    3    3  502    0  0.61368729914E+03 -0.21938208107E+03  0.30316833781E+03  0.71878483545E+03  0.25500000920E-02 0.  1.
       -2    1    3    3    0  502 -0.61368729914E+03  0.21938208107E+03  0.27608033947E+03  0.70778595102E+03  0.25500000920E-02 0. -1.
</event>
<event>
 5   0  0.1408341E-04  0.1299532E+04  0.7818609E-02  0.9029936E-01
       -1   -1    0    0    0  501  0.00000000000E+00  0.00000000000E+00  0.30574429016E+03  0.30574429021E+03  0.50400001928E-02 0. -1.
        1   -1    0    0  501    0  0.00000000000E+00  0.00000000000E+00 -0.13808792211E+04  0.13808792211E+04  0.50400001928E-02 0.  1.
    10030    2    1    2    0    0  0.00000000000E+00  0.00000000000E+00 -0.10751349309E+04  0.16866235113E+04  0.12995321270E+04 0.  0.
        5    1    3    3  502    0  0.56990161600E+03  0.71839687636E+02 -0.93171207385E+03  0.10945584823E+04  0.46999998093E+01 0.  1.
       -5    1    3    3    0  502 -0.56990161600E+03 -0.71839687636E+02 -0.14342285709E+03  0.59206502900E+03  0.46999998093E+01 0. -1.
</event>
<event>
 5   0  0.1479690E-04  0.1299211E+04  0.7818609E-02  0.9030191E-01
       -1   -1    0    0    0  501  0.00000000000E+00  0.00000000000E+00  0.38316389095E+03  0.38316389099E+03  0.50400001928E-02 0.  1.
        1   -1    0    0  501    0  0.00000000000E+00  0.00000000000E+00 -0.11013237495E+04  0.11013237495E+04  0.50400001928E-02 0. -1.
    10030    2    1    2    0    0  0.00000000000E+00  0.00000000000E+00 -0.71815985858E+03  0.14844876405E+04  0.12992112886E+04 0.  0.
        1    1    3    3  502    0 -0.21016527208E+03 -0.56968710542E+03 -0.95351397390E+02  0.61465822103E+03  0.50400001928E-02 0.  1.
       -1    1    3    3    0  502  0.21016527208E+03  0.56968710542E+03 -0.62280846119E+03  0.86982941950E+03  0.50400001928E-02 0. -1.
</event>
<event>
 5   0  0.2661377E-04  0.1300232E+04  0.7818609E-02  0.9029381E-01
        2   -1    0    0  501    0  0.00000000000E+00  0.00000000000E+00  0.45701252817E+03  0.45701252818E+03  0.25500000920E-02 0.  1.
       -2   -1    0    0    0  501  0.00000000000E+00  0.00000000000E+00 -0.92481252734E+03  0.92481252734E+03  0.25500000920E-02 0. -1.
    10030    2    1    2    0    0  0.00000000000E+00  0.00000000000E+00 -0.46779999917E+03  0.13818250555E+04  0.13002321504E+04 0.  0.
        5    1    3    3  502    0 -0.42836586421E+03  0.26252809805E+03 -0.67235531881E+03  0.83934622213E+03  0.46999998093E+01 0. -1.
       -5    1    3    3    0  502  0.42836586421E+03 -0.26252809805E+03  0.20455531964E+03  0.54247883339E+03  0.46999998093E+01 0.  1.
</event>
<event>
 5   0  0.1476511E-04  0.1302091E+04  0.7818609E-02  0.9027909E-01
        1   -1    0    0  501    0  0.00000000000E+00  0.00000000000E+00  0.63674382100E+03  0.63674382102E+03  0.50400001928E-02 0. -1.
       -1   -1    0    0    0  501  0.00000000000E+00  0.00000000000E+00 -0.66566823264E+03  0.66566823266E+03  0.50400001928E-02 0.  1.
    10030    2    1    2    0    0  0.00000000000E+00  0.00000000000E+00 -0.28924411638E+02  0.13024120537E+04  0.13020908325E+04 0.  0.
        2    1    3    3  502    0 -0.46866410903E+03  0.44779855567E+03 -0.75227010992E+02  0.65255551238E+03  0.25500000920E-02 0. -1.
       -2    1    3    3    0  502  0.46866410903E+03 -0.44779855567E+03  0.46302599354E+02  0.64985654130E+03  0.25500000920E-02 0.  1.
</event>
<event>
 5   0  0.1475396E-04  0.1301857E+04  0.7818609E-02  0.9028094E-01
        1   -1    0    0  501    0  0.00000000000E+00  0.00000000000E+00  0.88581245565E+03  0.88581245567E+03  0.50400001928E-02 0.  1.
       -1   -1    0    0    0  501  0.00000000000E+00  0.00000000000E+00 -0.47832667390E+03  0.47832667392E+03  0.50400001928E-02 0. -1.
    10030    2    1    2    0    0  0.00000000000E+00  0.00000000000E+00  0.40748578176E+03  0.13641391296E+04  0.13018567135E+04 0.  0.
        3    1    3    3  502    0 -0.56111194775E+03  0.44542983071E+02  0.54630367811E+03  0.78439684737E+03  0.10100000352E+00 0. -1.
       -3    1    3    3    0  502  0.56111194775E+03 -0.44542983071E+02 -0.13881789635E+03  0.57974228222E+03  0.10100000352E+00 0.  1.
</event>
<event>
 5   0  0.2661377E-04  0.1300098E+04  0.7818609E-02  0.9029487E-01
       -2   -1    0    0    0  501  0.00000000000E+00  0.00000000000E+00  0.72631536654E+03  0.72631536654E+03  0.25500000920E-02 0.  1.
        2   -1    0    0  501    0  0.00000000000E+00  0.00000000000E+00 -0.58179112046E+03  0.58179112046E+03  0.25500000920E-02 0. -1.
    10030    2    1    2    0    0  0.00000000000E+00  0.00000000000E+00  0.14452424608E+03  0.13081064870E+04  0.13000981977E+04 0.  0.
        5    1    3    3  502    0  0.21296235368E+02  0.30587431170E+03  0.64896733473E+03  0.71776968155E+03  0.46999998093E+01 0.  1.
       -5    1    3    3    0  502 -0.21296235368E+02 -0.30587431170E+03 -0.50444308865E+03  0.59033680546E+03  0.46999998093E+01 0. -1.
</event>
<event>
 5   0  0.1002887E-04  0.1297785E+04  0.7818609E-02  0.9031324E-01
       -4   -1    0    0    0  501  0.00000000000E+00  0.00000000000E+00  0.84805500354E+03  0.84805595448E+03  0.12699999809E+01 0.  1.
        4   -1    0    0  501    0  0.00000000000E+00  0.00000000000E+00 -0.49650024615E+03  0.49650187042E+03  0.12699999809E+01 0. -1.
    10030    2    1    2    0    0  0.00000000000E+00  0.00000000000E+00  0.35155475738E+03  0.13445578249E+04  0.12977846497E+04 0.  0.
        2    1    3    3  502    0 -0.48063424910E+03  0.43507195618E+03  0.14713388072E+03  0.66478964141E+03  0.25500000920E-02 0.  1.
       -2    1    3    3    0  502  0.48063424910E+03 -0.43507195618E+03  0.20442087667E+03  0.67976818349E+03  0.25500000920E-02 0. -1.
</event>
<event>
 5   0  0.2794825E-04  0.1299893E+04  0.7818609E-02  0.9029650E-01
        2   -1    0    0  501    0  0.00000000000E+00  0.00000000000E+00  0.83143529589E+03  0.83143529589E+03  0.25500000920E-02 0.  1.
       -2   -1    0    0    0  501  0.00000000000E+00  0.00000000000E+00 -0.50807404371E+03  0.50807404372E+03  0.25500000920E-02 0. -1.
    10030    2    1    2    0    0  0.00000000000E+00  0.00000000000E+00  0.32336125218E+03  0.13395093396E+04  0.12998933693E+04 0.  0.
        1    1    3    3  502    0  0.19659742873E+03  0.57456768519E+03 -0.77007853018E+02  0.61213461207E+03  0.50400001928E-02 0.  1.
       -1    1    3    3    0  502 -0.19659742873E+03 -0.57456768519E+03  0.40036910520E+03  0.72737472754E+03  0.50400001928E-02 0. -1.
</event>
<event>
 5   0  0.1430636E-04  0.1300529E+04  0.7818609E-02  0.9029145E-01
        1   -1    0    0  501    0  0.00000000000E+00  0.00000000000E+00  0.41609676535E+03  0.41609676538E+03  0.50400001928E-02 0. -1.
       -1   -1    0    0    0  501  0.00000000000E+00  0.00000000000E+00 -0.10162160372E+04  0.10162160373E+04  0.50400001928E-02 0.  1.
    10030    2    1    2    0    0  0.00000000000E+00  0.00000000000E+00 -0.60011927189E+03  0.14323128026E+04  0.13005294399E+04 0.  0.
        4    1    3    3  502    0  0.57262746049E+02 -0.36941749085E+03 -0.88604023831E+03  0.96167417634E+03  0.12699999809E+01 0.  1.
       -4    1    3    3    0  502 -0.57262746049E+02  0.36941749085E+03  0.28592096642E+03  0.47063862630E+03  0.12699999809E+01 0. -1.
</event>
<event>
 5   0  0.1408341E-04  0.1326079E+04  0.7818609E-02  0.9009136E-01
        1   -1    0    0  501    0  0.00000000000E+00  0.00000000000E+00  0.10150683208E+04  0.10150683208E+04  0.50400001928E-02 0. -1.
       -1   -1    0    0    0  501  0.00000000000E+00  0.00000000000E+00 -0.43309518182E+03  0.43309518185E+03  0.50400001928E-02 0.  1.
    10030    2    1    2    0    0  0.00000000000E+00  0.00000000000E+00  0.58197313900E+03  0.14481635027E+04  0.13260787292E+04 0.  0.
        5    1    3    3  502    0  0.14435345140E+03 -0.63703195688E+03  0.16670465887E+03  0.67413660805E+03  0.46999998093E+01 0. -1.
       -5    1    3    3    0  502 -0.14435345140E+03  0.63703195688E+03  0.41526848013E+03  0.77402689463E+03  0.46999998093E+01 0.  1.
</event>
<event>
 5   0  0.1479690E-04  0.1308643E+04  0.7818609E-02  0.9022739E-01
       -1   -1    0    0    0  501  0.00000000000E+00  0.00000000000E+00  0.10674825744E+04  0.10674825744E+04  0.50400001928E-02 0. -1.
        1   -1    0    0  501    0  0.00000000000E+00  0.00000000000E+00 -0.40107112077E+03  0.40107112080E+03  0.50400001928E-02 0.  1.
    10030    2    1    2    0    0  0.00000000000E+00  0.00000000000E+00  0.66641145366E+03  0.14685536952E+04  0.13086427053E+04 0.  0.
        1    1    3    3  502    0  0.45162094155E+03  0.34656645434E+03  0.69521902973E+03  0.89855399473E+03  0.50400001928E-02 0.  1.
       -1    1    3    3    0  502 -0.45162094155E+03 -0.34656645434E+03 -0.28807576070E+02  0.56999970052E+03  0.50400001928E-02 0. -1.
</event>
<event>
 5   0  0.2723209E-04  0.1298889E+04  0.7818609E-02  0.9030447E-01
        2   -1    0    0  501    0  0.00000000000E+00  0.00000000000E+00  0.13162698731E+04  0.13162698731E+04  0.25500000920E-02 0.  1.
       -2   -1    0    0    0  501  0.00000000000E+00  0.00000000000E+00 -0.32043432441E+03  0.32043432442E+03  0.25500000920E-02 0. -1.
    10030    2    1    2    0    0  0.00000000000E+00  0.00000000000E+00  0.99583554868E+03  0.16367041975E+04  0.12988888290E+04 0.  0.
        2    1    3    3  502    0  0.15908708160E+03  0.54334717169E+03  0.96976151253E+02  0.57440336213E+03  0.25500000920E-02 0. -1.
       -2    1    3    3    0  502 -0.15908708160E+03 -0.54334717169E+03  0.89885939743E+03  0.10623008354E+04  0.25500000920E-02 0.  1.
</event>
<event>
 5   0  0.1479690E-04  0.1300916E+04  0.7818609E-02  0.9028839E-01
        1   -1    0    0  501    0  0.00000000000E+00  0.00000000000E+00  0.20017228431E+04  0.20017228431E+04  0.50400001928E-02 0. -1.
       -1   -1    0    0    0  501  0.00000000000E+00  0.00000000000E+00 -0.21136565333E+03  0.21136565339E+03  0.50400001928E-02 0.  1.
    10030    2    1    2    0    0  0.00000000000E+00  0.00000000000E+00  0.17903571898E+04  0.22130884965E+04  0.13009157645E+04 0.  0.
        1    1    3    3  502    0 -0.38261820621E+03  0.20110148293E+03  0.68299697546E+02  0.43761095378E+03  0.50400001928E-02 0.  1.
       -1    1    3    3    0  502  0.38261820621E+03 -0.20110148293E+03  0.17220574922E+04  0.17754775427E+04  0.50400001928E-02 0. -1.
</event>
<event>
 5   0  0.1476511E-04  0.1296142E+04  0.7818609E-02  0.9032630E-01
       -1   -1    0    0    0  501  0.00000000000E+00  0.00000000000E+00  0.80712836228E+03  0.80712836230E+03  0.50400001928E-02 0. -1.
        1   -1    0    0  501    0  0.00000000000E+00  0.00000000000E+00 -0.52035842495E+03  0.52035842498E+03  0.50400001928E-02 0.  1.
    10030    2    1    2    0    0  0.00000000000E+00  0.00000000000E+00  0.28676993733E+03  0.13274867873E+04  0.12961420344E+04 0.  0.
        2    1    3    3  502    0  0.15671070262E+03 -0.21921878596E+03 -0.46025862273E+03  0.53334146683E+03  0.25500000920E-02 0.  1.
       -2    1    3    3    0  502 -0.15671070262E+03  0.21921878596E+03  0.74702856006E+03  0.79414532044E+03  0.25500000920E-02 0. -1.
</event>
<event>
 5   0  0.1430636E-04  0.1302112E+04  0.7818609E-02  0.9027892E-01
        1   -1    0    0  501    0  0.00000000000E+00  0.00000000000E+00  0.10158360829E+04  0.10158360829E+04  0.50400001928E-02 0. -1.
       -1   -1    0    0    0  501  0.00000000000E+00  0.00000000000E+00 -0.41726574514E+03  0.41726574517E+03  0.50400001928E-02 0.  1.
    10030    2    1    2    0    0  0.00000000000E+00  0.00000000000E+00  0.59857033775E+03  0.14331018281E+04  0.13021115161E+04 0.  0.
        4    1    3    3  502    0  0.28963268628E+03 -0.53585317076E+03  0.55229421814E+03  0.82222638602E+03  0.12699999809E+01 0. -1.
       -4    1    3    3    0  502 -0.28963268628E+03  0.53585317076E+03  0.46276119611E+02  0.61087544206E+03  0.12699999809E+01 0.  1.
</event>
<event>
 5   0  0.2756984E-04  0.1305239E+04  0.7818609E-02  0.9025421E-01
       -2   -1    0    0    0  501  0.00000000000E+00  0.00000000000E+00  0.50278201479E+03  0.50278201480E+03  0.25500000920E-02 0. -1.
        2   -1    0    0  501    0  0.00000000000E+00  0.00000000000E+00 -0.84711074577E+03  0.84711074577E+03  0.25500000920E-02 0.  1.
    10030    2    1    2    0    0  0.00000000000E+00  0.00000000000E+00 -0.34432873098E+03  0.13498927606E+04  0.13052387483E+04 0.  0.
        3    1    3    3  502    0 -0.34652929966E+03 -0.29158744316E+03 -0.65814054896E+03  0.79890849596E+03  0.10100000352E+00 0.  1.
       -3    1    3    3    0  502  0.34652929966E+03  0.29158744316E+03  0.31381181799E+03  0.55098426460E+03  0.10100000352E+00 0. -1.
</event>
<event>
 5   0  0.2756984E-04  0.1298308E+04  0.7818609E-02  0.9030908E-01
        2   -1    0    0  501    0  0.00000000000E+00  0.00000000000E+00  0.11079825420E+04  0.11079825420E+04  0.25500000920E-02 0.  1.
       -2   -1    0    0    0  501  0.00000000000E+00  0.00000000000E+00 -0.38033160120E+03  0.38033160120E+03  0.25500000920E-02 0. -1.
    10030    2    1    2    0    0  0.00000000000E+00  0.00000000000E+00  0.72765094081E+03  0.14883141432E+04  0.12983077822E+04 0.  0.
        3    1    3    3  502    0  0.14265950056E+03  0.51720678582E+03 -0.55096048919E+02  0.53934235621E+03  0.10100000352E+00 0. -1.
       -3    1    3    3    0  502 -0.14265950056E+03 -0.51720678582E+03  0.78274698973E+03  0.94897178700E+03  0.10100000352E+00 0.  1.
</event>
<event>
 5   0  0.1476511E-04  0.1300872E+04  0.7818609E-02  0.9028874E-01
        1   -1    0    0  501    0  0.00000000000E+00  0.00000000000E+00  0.35130063012E+03  0.35130063016E+03  0.50400001928E-02 0.  1.
       -1   -1    0    0    0  501  0.00000000000E+00  0.00000000000E+00 -0.12042869891E+04  0.12042869892E+04  0.50400001928E-02 0. -1.
    10030    2    1    2    0    0  0.00000000000E+00  0.00000000000E+00 -0.85298635902E+03  0.15555876193E+04  0.13008716742E+04 0.  0.
        2    1    3    3  502    0  0.24474698880E+03 -0.53931416406E+03 -0.74804202542E+03  0.95411096204E+03  0.25500000920E-02 0. -1.
       -2    1    3    3    0  502 -0.24474698880E+03  0.53931416406E+03 -0.10494433360E+03  0.60147665727E+03  0.25500000920E-02 0.  1.
</event>
<event>
 5   0  0.1002887E-04  0.1297094E+04  0.7818609E-02  0.9031873E-01
        3   -1    0    0  501    0  0.00000000000E+00  0.00000000000E+00  0.11108974851E+04  0.11108974896E+04  0.10100000352E+00 0. -1.
       -3   -1    0    0    0  501  0.00000000000E+00  0.00000000000E+00 -0.37862474936E+03  0.37862476283E+03  0.10100000352E+00 0.  1.
    10030    2    1    2    0    0  0.00000000000E+00  0.00000000000E+00  0.73227273570E+03  0.14895222525E+04  0.12970941296E+04 0.  0.
        3    1    3    3  502    0 -0.61770765223E+03  0.14336375736E+02  0.59246688695E+03  0.85602879486E+03  0.10100000352E+00 0.  1.
       -3    1    3    3    0  502  0.61770765223E+03 -0.14336375736E+02  0.13980584875E+03  0.63349345761E+03  0.10100000352E+00 0. -1.
</event>
<event>
 5   0  0.1408341E-04  0.1301027E+04  0.7818609E-02  0.9028751E-01
        1   -1    0    0  501    0  0.00000000000E+00  0.00000000000E+00  0.32359576049E+03  0.32359576053E+03  0.50400001928E-02 0. -1.
       -1   -1    0    0    0  501  0.00000000000E+00  0.00000000000E+00 -0.13077057961E+04  0.13077057961E+04  0.50400001928E-02 0.  1.
    10030    2    1    2    0    0  0.00000000000E+00  0.00000000000E+00 -0.98411003564E+03  0.16313015567E+04  0.13010273658E+04 0.  0.
        5    1    3    3  502    0 -0.17364675729E+03  0.62125491908E+03 -0.38688724577E+03  0.75220655523E+03  0.46999998093E+01 0. -1.
       -5    1    3    3    0  502  0.17364675729E+03 -0.62125491908E+03 -0.59722278987E+03  0.87909500143E+03  0.46999998093E+01 0.  1.
</event>
<event>
 5   0  0.2661377E-04  0.1297116E+04  0.7818609E-02  0.9031856E-01
        2   -1    0    0  501    0  0.00000000000E+00  0.00000000000E+00  0.72507046851E+03  0.72507046851E+03  0.25500000920E-02 0.  1.
       -2   -1    0    0    0  501  0.00000000000E+00  0.00000000000E+00 -0.58011901525E+03  0.58011901525E+03  0.25500000920E-02 0. -1.
    10030    2    1    2    0    0  0.00000000000E+00  0.00000000000E+00  0.14495145326E+03  0.13051894838E+04  0.12971155171E+04 0.  0.
        5    1    3    3  502    0 -0.54708722116E+03 -0.29175546353E+03  0.26386851958E+03  0.67385040156E+03  0.46999998093E+01 0.  1.
       -5    1    3    3    0  502  0.54708722116E+03  0.29175546353E+03 -0.11891706632E+03  0.63133908220E+03  0.46999998093E+01 0. -1.
</event>
<event>
 5   0  0.2794825E-04  0.1300653E+04  0.7818609E-02  0.9029048E-01
        2   -1    0    0  501    0  0.00000000000E+00  0.00000000000E+00  0.11544745747E+04  0.11544745747E+04  0.25500000920E-02 0.  1.
       -2   -1    0    0    0  501  0.00000000000E+00  0.00000000000E+00 -0.36633490415E+03  0.36633490416E+03  0.25500000920E-02 0. -1.
    10030    2    1    2    0    0  0.00000000000E+00  0.00000000000E+00  0.78813967054E+03  0.15208094789E+04  0.13006526557E+04 0.  0.
        1    1    3    3  502    0 -0.17627182165E+03  0.20984782946E+03  0.10836560130E+04  0.11177737791E+04  0.50400001928E-02 0.  1.
       -1    1    3    3    0  502  0.17627182165E+03 -0.20984782946E+03 -0.29551634244E+03  0.40303569980E+03  0.50400001928E-02 0. -1.
</event>
<event>
 5   0  0.1408341E-04  0.1299504E+04  0.7818609E-02  0.9029958E-01
        1   -1    0    0  501    0  0.00000000000E+00  0.00000000000E+00  0.10517405398E+04  0.10517405398E+04  0.50400001928E-02 0.  1.
       -1   -1    0    0    0  501  0.00000000000E+00  0.00000000000E+00 -0.40140886038E+03  0.40140886042E+03  0.50400001928E-02 0. -1.
    10030    2    1    2    0    0  0.00000000000E+00  0.00000000000E+00  0.65033167943E+03  0.14531494002E+04  0.12995044772E+04 0.  0.
        5    1    3    3  502    0  0.16195003594E+03 -0.44358386951E+03 -0.17387385515E+03  0.50323818509E+03  0.46999998093E+01 0. -1.
       -5    1    3    3    0  502 -0.16195003594E+03  0.44358386951E+03  0.82420553459E+03  0.94991121515E+03  0.46999998093E+01 0.  1.
</event>
<event>
 5   0  0.1430636E-04  0.1296819E+04  0.7818609E-02  0.9032091E-01
       -1   -1    0    0    0  501  0.00000000000E+00  0.00000000000E+00  0.32500629397E+03  0.32500629401E+03  0.50400001928E-02 0.  1.
        1   -1    0    0  501    0  0.00000000000E+00  0.00000000000E+00 -0.12936215566E+04  0.12936215566E+04  0.50400001928E-02 0. -1.
    10030    2    1    2    0    0  0.00000000000E+00  0.00000000000E+00 -0.96861526260E+03  0.16186278506E+04  0.12968194137E+04 0.  0.
        4    1    3    3  502    0  0.33938169551E+03 -0.29052160799E+03 -0.10708737706E+04  0.11603253792E+04  0.12699999809E+01 0. -1.
       -4    1    3    3    0  502 -0.33938169551E+03  0.29052160799E+03  0.10225850804E+03  0.45830247144E+03  0.12699999809E+01 0.  1.
</event>
<event>
 5   0  0.2573071E-04  0.1299736E+04  0.7818609E-02  0.9029774E-01
        2   -1    0    0  501    0  0.00000000000E+00  0.00000000000E+00  0.12061120505E+04  0.12061120505E+04  0.25500000920E-02 0. -1.
       -2   -1    0    0    0  501  0.00000000000E+00  0.00000000000E+00 -0.35015702673E+03  0.35015702674E+03  0.25500000920E-02 0.  1.
    10030    2    1    2    0    0  0.00000000000E+00  0.00000000000E+00  0.85595502382E+03  0.15562690773E+04  0.12997362956E+04 0.  0.
        4    1    3    3  502    0  0.29948154298E+03  0.18573841612E+03 -0.22581338246E+03  0.41854659287E+03  0.12699999809E+01 0.  1.
       -4    1    3    3    0  502 -0.29948154298E+03 -0.18573841612E+03  0.10817684063E+04  0.11377224844E+04  0.12699999809E+01 0. -1.
</event>
<event>
 5   0  0.2756984E-04  0.1265151E+04  0.7818609E-02  0.9057667E-01
       -2   -1    0    0    0  501  0.00000000000E+00  0.00000000000E+00  0.25775975806E+03  0.25775975807E+03  0.25500000920E-02 0.  1.
        2   -1    0    0  501    0  0.00000000000E+00  0.00000000000E+00 -0.15524211318E+04  0.15524211318E+04  0.25500000920E-02 0. -1.
    10030    2    1    2    0    0  0.00000000000E+00  0.00000000000E+00 -0.12946613738E+04  0.18101808899E+04  0.12651508927E+04 0.  0.
        3    1    3    3  502    0  0.12191406226E+03  0.55829621245E+03 -0.10354817782E+04  0.11827003943E+04  0.10100000352E+00 0. -1.
       -3    1    3    3    0  502 -0.12191406226E+03 -0.55829621245E+03 -0.25917959552E+03  0.62748049559E+03  0.10100000352E+00 0.  1.
</event>
<event>
 5   0  0.2661377E-04  0.1298870E+04  0.7818609E-02  0.9030462E-01
       -2   -1    0    0    0  501  0.00000000000E+00  0.00000000000E+00  0.33896713668E+03  0.33896713669E+03  0.25500000920E-02 0.  1.
        2   -1    0    0  501    0  0.00000000000E+00  0.00000000000E+00 -0.12442676269E+04  0.12442676269E+04  0.25500000920E-02 0. -1.
    10030    2    1    2    0    0  0.00000000000E+00  0.00000000000E+00 -0.90530049027E+03  0.15832347636E+04  0.12988700239E+04 0.  0.
        5    1    3    3  502    0  0.61343312313E+03 -0.21313912725E+03 -0.45741199166E+03  0.79434016909E+03  0.46999998093E+01 0. -1.
       -5    1    3    3    0  502 -0.61343312313E+03  0.21313912725E+03 -0.44788849860E+03  0.78889459454E+03  0.46999998093E+01 0.  1.
</event>
<event>
 5   0  0.2661377E-04  0.1284539E+04  0.7818609E-02  0.9041917E-01
        2   -1    0    0  501    0  0.00000000000E+00  0.00000000000E+00  0.58079400203E+03  0.58079400204E+03  0.25500000920E-02 0. -1.
       -2   -1    0    0    0  501  0.00000000000E+00  0.00000000000E+00 -0.71025170680E+03  0.71025170681E+03  0.25500000920E-02 0.  1.
    10030    2    1    2    0    0  0.00000000000E+00  0.00000000000E+00 -0.12945770477E+03  0.12910457088E+04  0.12845387207E+04 0.  0.
        5    1    3    3  502    0 -0.29767663694E+03  0.48173512858E+03  0.23980391984E+03  0.61498627973E+03  0.46999998093E+01 0. -1.
       -5    1    3    3    0  502  0.29767663694E+03 -0.48173512858E+03 -0.36926162461E+03  0.67605942911E+03  0.46999998093E+01 0.  1.
</event>
<event>
 5   0  0.2661377E-04  0.1300970E+04  0.7818609E-02  0.9028797E-01
        2   -1    0    0  501    0  0.00000000000E+00  0.00000000000E+00  0.12040193141E+04  0.12040193141E+04  0.25500000920E-02 0.  1.
       -2   -1    0    0    0  501  0.00000000000E+00  0.00000000000E+00 -0.35143164037E+03  0.35143164038E+03  0.25500000920E-02 0. -1.
    10030    2    1    2    0    0  0.00000000000E+00  0.00000000000E+00  0.85258767375E+03  0.15554509545E+04  0.13009696116E+04 0.  0.
        5    1    3    3  502    0 -0.38783495348E+03 -0.10984053441E+03 -0.18408474695E+03  0.44315931469E+03  0.46999998093E+01 0. -1.
       -5    1    3    3    0  502  0.38783495348E+03  0.10984053441E+03  0.10366724207E+04  0.11122916398E+04  0.46999998093E+01 0.  1.
</event>
<event>
 5   0  0.1408341E-04  0.1300007E+04  0.7818609E-02  0.9029559E-01
        1   -1    0    0  501    0  0.00000000000E+00  0.00000000000E+00  0.13162525891E+04  0.13162525891E+04  0.50400001928E-02 0.  1.
       -1   -1    0    0    0  501  0.00000000000E+00  0.00000000000E+00 -0.32099059082E+03  0.32099059086E+03  0.50400001928E-02 0. -1.
    10030    2    1    2    0    0  0.00000000000E+00  0.00000000000E+00  0.99526199825E+03  0.16372431800E+04  0.13000072250E+04 0.  0.
        5    1    3    3  502    0 -0.14901715836E+03 -0.62510538365E+03  0.62051072796E+03  0.89331881636E+03  0.46999998093E+01 0. -1.
       -5    1    3    3    0  502  0.14901715836E+03  0.62510538365E+03  0.37475127029E+03  0.74392436359E+03  0.46999998093E+01 0.  1.
</event>
<event>
 5   0  0.2794825E-04  0.1300097E+04  0.7818609E-02  0.9029488E-01
       -2   -1    0    0    0  501  0.00000000000E+00  0.00000000000E+00  0.34691680402E+03  0.34691680403E+03  0.25500000920E-02 0.  1.
        2   -1    0    0  501    0  0.00000000000E+00  0.00000000000E+00 -0.12180530582E+04  0.12180530582E+04  0.25500000920E-02 0. -1.
    10030    2    1    2    0    0  0.00000000000E+00  0.00000000000E+00 -0.87113625422E+03  0.15649698623E+04  0.13000970334E+04 0.  0.
        1    1    3    3  502    0  0.37047161075E+03 -0.31032412250E+03  0.87762097027E+02  0.49117457291E+03  0.50400001928E-02 0.  1.
       -1    1    3    3    0  502 -0.37047161075E+03  0.31032412250E+03 -0.95889835124E+03  0.10737952893E+04  0.50400001928E-02 0. -1.
</event>
<event>
 5   0  0.1476511E-04  0.1296403E+04  0.7818609E-02  0.9032423E-01
        1   -1    0    0  501    0  0.00000000000E+00  0.00000000000E+00  0.67561084892E+03  0.67561084894E+03  0.50400001928E-02 0. -1.
       -1   -1    0    0    0  501  0.00000000000E+00  0.00000000000E+00 -0.62190371445E+03  0.62190371447E+03  0.50400001928E-02 0.  1.
    10030    2    1    2    0    0  0.00000000000E+00  0.00000000000E+00  0.53707134468E+02  0.12975145634E+04  0.12964025555E+04 0.  0.
        2    1    3    3  502    0  0.36147971004E+03 -0.48629188475E+03 -0.20359927093E+03  0.63921830471E+03  0.25500000920E-02 0. -1.
       -2    1    3    3    0  502 -0.36147971004E+03  0.48629188475E+03  0.25730640540E+03  0.65829625870E+03  0.25500000920E-02 0.  1.
</event>
<event>
 5   0  0.1476511E-04  0.1299721E+04  0.7818609E-02  0.9029787E-01
       -1   -1    0    0    0  501  0.00000000000E+00  0.00000000000E+00  0.61352604450E+03  0.61352604452E+03  0.50400001928E-02 0. -1.
        1   -1    0    0  501    0  0.00000000000E+00  0.00000000000E+00 -0.68834629542E+03  0.68834629544E+03  0.50400001928E-02 0.  1.
    10030    2    1    2    0    0  0.00000000000E+00  0.00000000000E+00 -0.74820250919E+02  0.13018723400E+04  0.12997205544E+04 0.  0.
        2    1    3    3  502    0 -0.62516654117E+03  0.14039298459E+03  0.71282130961E+02  0.64468948845E+03  0.25500000920E-02 0. -1.
       -2    1    3    3    0  502  0.62516654117E+03 -0.14039298459E+03 -0.14610238188E+03  0.65718285151E+03  0.25500000920E-02 0.  1.
</event>
<event>
 5   0  0.1475396E-04  0.1301563E+04  0.7818609E-02  0.9028326E-01
        1   -1    0    0  501    0  0.00000000000E+00  0.00000000000E+00  0.13849961939E+04  0.13849961939E+04  0.50400001928E-02 0. -1.
       -1   -1    0    0    0  501  0.00000000000E+00  0.00000000000E+00 -0.30578907028E+03  0.30578907032E+03  0.50400001928E-02 0.  1.
    10030    2    1    2    0    0  0.00000000000E+00  0.00000000000E+00  0.10792071236E+04  0.16907852642E+04  0.13015632117E+04 0.  0.
        3    1    3    3  502    0 -0.54162116786E+03  0.34273170364E+03  0.68598765848E+03  0.93882777331E+03  0.10100000352E+00 0. -1.
       -3    1    3    3    0  502  0.54162116786E+03 -0.34273170364E+03  0.39321946511E+03  0.75195749088E+03  0.10100000352E+00 0.  1.
</event>
<event>
 5   0  0.2794825E-04  0.1301768E+04  0.7818609E-02  0.9028164E-01
        2   -1    0    0  501    0  0.00000000000E+00  0.00000000000E+00  0.37149472808E+03  0.37149472809E+03  0.25500000920E-02 0. -1.
       -2   -1    0    0    0  501  0.00000000000E+00  0.00000000000E+00 -0.11403929090E+04  0.11403929090E+04  0.25500000920E-02 0.  1.
    10030    2    1    2    0    0  0.00000000000E+00  0.00000000000E+00 -0.76889818088E+03  0.15118876370E+04  0.13017679572E+04 0.  0.
        1    1    3    3  502    0  0.42110854818E+03 -0.43023845561E+03 -0.67179544876E+03  0.90207907804E+03  0.50400001928E-02 0.  1.
       -1    1    3    3    0  502 -0.42110854818E+03  0.43023845561E+03 -0.97102732124E+02  0.60980855901E+03  0.50400001928E-02 0. -1.
</event>
<event>
 5   0  0.1430636E-04  0.1299115E+04  0.7818609E-02  0.9030267E-01
        1   -1    0    0  501    0  0.00000000000E+00  0.00000000000E+00  0.12334847803E+04  0.12334847803E+04  0.50400001928E-02 0. -1.
       -1   -1    0    0    0  501  0.00000000000E+00  0.00000000000E+00 -0.34205935754E+03  0.34205935758E+03  0.50400001928E-02 0.  1.
    10030    2    1    2    0    0  0.00000000000E+00  0.00000000000E+00  0.89142542278E+03  0.15755441379E+04  0.12991151012E+04 0.  0.
        4    1    3    3  502    0  0.79198140685E+02  0.19823577831E+03 -0.29830109949E+03  0.36681729532E+03  0.12699999809E+01 0.  1.
       -4    1    3    3    0  502 -0.79198140685E+02 -0.19823577831E+03  0.11897265223E+04  0.12087268426E+04  0.12699999809E+01 0. -1.
</event>
<event>
 5   0  0.1430636E-04  0.1299759E+04  0.7818609E-02  0.9029757E-01
        1   -1    0    0  501    0  0.00000000000E+00  0.00000000000E+00  0.12804761031E+04  0.12804761031E+04  0.50400001928E-02 0.  1.
       -1   -1    0    0    0  501  0.00000000000E+00  0.00000000000E+00 -0.32983286952E+03  0.32983286956E+03  0.50400001928E-02 0. -1.
    10030    2    1    2    0    0  0.00000000000E+00  0.00000000000E+00  0.95064323353E+03  0.16103089726E+04  0.12997586045E+04 0.  0.
        4    1    3    3  502    0  0.58854150234E+03 -0.16279340801E+03  0.19979226907E+03  0.64249619248E+03  0.12699999809E+01 0. -1.
       -4    1    3    3    0  502 -0.58854150234E+03  0.16279340801E+03  0.75085096446E+03  0.96781278014E+03  0.12699999809E+01 0.  1.
</event>
<event>
 5   0  0.1408341E-04  0.1303674E+04  0.7818609E-02  0.9026657E-01
        1   -1    0    0  501    0  0.00000000000E+00  0.00000000000E+00  0.54567857205E+03  0.54567857207E+03  0.50400001928E-02 0.  1.
       -1   -1    0    0    0  501  0.00000000000E+00  0.00000000000E+00 -0.77864742734E+03  0.77864742735E+03  0.50400001928E-02 0. -1.
    10030    2    1    2    0    0  0.00000000000E+00  0.00000000000E+00 -0.23296885529E+03  0.13243259994E+04  0.13036736038E+04 0.  0.
        5    1    3    3  502    0  0.17380335820E+03 -0.61316186940E+03  0.22407698885E+02  0.63772978633E+03  0.46999998093E+01 0.  1.
       -5    1    3    3    0  502 -0.17380335820E+03  0.61316186940E+03 -0.25537655417E+03  0.68659621309E+03  0.46999998093E+01 0. -1.
</event>
<event>
 5   0  0.2723209E-04  0.1304322E+04  0.7818609E-02  0.9026144E-01
        2   -1    0    0  501    0  0.00000000000E+00  0.00000000000E+00  0.10132153203E+04  0.10132153203E+04  0.25500000920E-02 0. -1.
       -2   -1    0    0    0  501  0.00000000000E+00  0.00000000000E+00 -0.41976686151E+03  0.41976686152E+03  0.25500000920E-02 0.  1.
    10030    2    1    2    0    0  0.00000000000E+00  0.00000000000E+00  0.59344845881E+03  0.14329821818E+04  0.13043223759E+04 0.  0.
        2    1    3    3  502    0 -0.48511426760E+03  0.43476990007E+03  0.26279957927E+03  0.70244169688E+03  0.25500000920E-02 0.  1.
       -2    1    3    3    0  502  0.48511426760E+03 -0.43476990007E+03  0.33064887954E+03  0.73054048497E+03  0.25500000920E-02 0. -1.
</event>
<event>
 5   0  0.2573071E-04  0.1304264E+04  0.7818609E-02  0.9026191E-01
        2   -1    0    0  501    0  0.00000000000E+00  0.00000000000E+00  0.46581357971E+03  0.46581357972E+03  0.25500000920E-02 0. -1.
       -2   -1    0    0    0  501  0.00000000000E+00  0.00000000000E+00 -0.91297488690E+03  0.91297488690E+03  0.25500000920E-02 0.  1.
    10030    2    1    2    0    0  0.00000000000E+00  0.00000000000E+00 -0.44716130719E+03  0.13787884666E+04  0.13042639307E+04 0.  0.
        4    1    3    3  502    0 -0.25005269684E+03 -0.25423689895E+03 -0.80077450246E+03  0.87658665783E+03  0.12699999809E+01 0.  1.
       -4    1    3    3    0  502  0.25005269684E+03  0.25423689895E+03  0.35361319527E+03  0.50220180880E+03  0.12699999809E+01 0. -1.
</event>
<event>
 5   0  0.2661377E-04  0.1307019E+04  0.7818609E-02  0.9024017E-01
       -2   -1    0    0    0  501  0.00000000000E+00  0.00000000000E+00  0.27543200054E+03  0.27543200055E+03  0.25500000920E-02 0. -1.
        2   -1    0    0  501    0  0.00000000000E+00  0.00000000000E+00 -0.15505629590E+04  0.15505629590E+04  0.25500000920E-02 0.  1.
    10030    2    1    2    0    0  0.00000000000E+00  0.00000000000E+00 -0.12751309585E+04  0.18259949596E+04  0.13070189865E+04 0.  0.
        5    1    3    3  502    0 -0.23066193790E+02 -0.27131094866E+03 -0.14675121868E+04  0.14925668456E+04  0.46999998093E+01 0.  1.
       -5    1    3    3    0  502  0.23066193790E+02  0.27131094866E+03  0.19238122834E+03  0.33342811395E+03  0.46999998093E+01 0. -1.
</event>
<event>
 5   0  0.2756984E-04  0.1299593E+04  0.7818609E-02  0.9029888E-01
        2   -1    0    0  501    0  0.00000000000E+00  0.00000000000E+00  0.87902094599E+03  0.87902094599E+03  0.25500000920E-02 0. -1.
       -2   -1    0    0    0  501  0.00000000000E+00  0.00000000000E+00 -0.48034712028E+03  0.48034712029E+03  0.25500000920E-02 0.  1.
    10030    2    1    2    0    0  0.00000000000E+00  0.00000000000E+00  0.39867382571E+03  0.13593680663E+04  0.12995925209E+04 0.  0.
        3    1    3    3  502    0  0.24866545409E+03 -0.52776635015E+03  0.49861477570E+03  0.76745588352E+03  0.10100000352E+00 0. -1.
       -3    1    3    3    0  502 -0.24866545409E+03  0.52776635015E+03 -0.99940949991E+02  0.59191218275E+03  0.10100000352E+00 0.  1.
</event>
<event>
 5   0  0.2661377E-04  0.1300397E+04  0.7818609E-02  0.9029250E-01
       -2   -1    0    0    0  501  0.00000000000E+00  0.00000000000E+00  0.40728244413E+03  0.40728244414E+03  0.25500000920E-02 0. -1.
        2   -1    0    0  501    0  0.00000000000E+00  0.00000000000E+00 -0.10379971547E+04  0.10379971547E+04  0.25500000920E-02 0.  1.
    10030    2    1    2    0    0  0.00000000000E+00  0.00000000000E+00 -0.63071471061E+03  0.14452795989E+04  0.13003968905E+04 0.  0.
        5    1    3    3  502    0 -0.47995165174E+03  0.24849896247E+01 -0.80283149497E+03  0.93537172423E+03  0.46999998093E+01 0.  1.
       -5    1    3    3    0  502  0.47995165174E+03 -0.24849896247E+01  0.17211678436E+03  0.50990787465E+03  0.46999998093E+01 0. -1.
</event>
<event>
 5   0  0.2723209E-04  0.1300970E+04  0.7818609E-02  0.9028796E-01
        2   -1    0    0  501    0  0.00000000000E+00  0.00000000000E+00  0.12351978635E+04  0.12351978635E+04  0.25500000920E-02 0. -1.
       -2   -1    0    0    0  501  0.00000000000E+00  0.00000000000E+00 -0.34256127700E+03  0.34256127701E+03  0.25500000920E-02 0.  1.
    10030    2    1    2    0    0  0.00000000000E+00  0.00000000000E+00  0.89263658653E+03  0.15777591405E+04  0.13009703417E+04 0.  0.
        2    1    3    3  502    0  0.29273269086E+03 -0.36128033373E+03 -0.10533898021E+03  0.47677270118E+03  0.25500000920E-02 0.  1.
       -2    1    3    3    0  502 -0.29273269086E+03  0.36128033373E+03  0.99797556675E+03  0.11009864394E+04  0.25500000920E-02 0. -1.
</event>
<event>
 5   0  0.1479690E-04  0.1326192E+04  0.7818609E-02  0.9009049E-01
        1   -1    0    0  501    0  0.00000000000E+00  0.00000000000E+00  0.61555721034E+03  0.61555721036E+03  0.50400001928E-02 0.  1.
       -1   -1    0    0    0  501  0.00000000000E+00  0.00000000000E+00 -0.71430584409E+03  0.71430584411E+03  0.50400001928E-02 0. -1.
    10030    2    1    2    0    0  0.00000000000E+00  0.00000000000E+00 -0.98748633753E+02  0.13298630545E+04  0.13261917097E+04 0.  0.
        1    1    3    3  502    0 -0.64088324026E+03  0.54088317787E+01 -0.21994969003E+03  0.67759755702E+03  0.50400001928E-02 0. -1.
       -1    1    3    3    0  502  0.64088324026E+03 -0.54088317787E+01  0.12120105627E+03  0.65226549746E+03  0.50400001928E-02 0.  1.
</event>
<event>
 5   0  0.1430636E-04  0.1300187E+04  0.7818609E-02  0.9029417E-01
        1   -1    0    0  501    0  0.00000000000E+00  0.00000000000E+00  0.39043473054E+03  0.39043473058E+03  0.50400001928E-02 0.  1.
       -1   -1    0    0    0  501  0.00000000000E+00  0.00000000000E+00 -0.10824382098E+04  0.10824382099E+04  0.50400001928E-02 0. -1.
    10030    2    1    2    0    0  0.00000000000E+00  0.00000000000E+00 -0.69200347930E+03  0.14728729404E+04  0.13001868648E+04 0.  0.
        4    1    3    3  502    0  0.45758924795E+03 -0.46168999797E+03 -0.35576526703E+03  0.74102369206E+03  0.12699999809E+01 0. -1.
       -4    1    3    3    0  502 -0.45758924795E+03  0.46168999797E+03 -0.33623821227E+03  0.73184924838E+03  0.12699999809E+01 0.  1.
</event>
<event>
 5   0  0.2573071E-04  0.1299008E+04  0.7818609E-02  0.9030352E-01
        2   -1    0    0  501    0  0.00000000000E+00  0.00000000000E+00  0.54853895089E+03  0.54853895089E+03  0.25500000920E-02 0.  1.
       -2   -1    0    0    0  501  0.00000000000E+00  0.00000000000E+00 -0.76905272851E+03  0.76905272851E+03  0.25500000920E-02 0. -1.
    10030    2    1    2    0    0  0.00000000000E+00  0.00000000000E+00 -0.22051377762E+03  0.13175916794E+04  0.12990078936E+04 0.  0.
        4    1    3    3  502    0  0.47615050029E+03  0.96219286712E+02 -0.54755850177E+03  0.73198318001E+03  0.12699999809E+01 0. -1.
       -4    1    3    3    0  502 -0.47615050029E+03 -0.96219286712E+02  0.32704472415E+03  0.58560849939E+03  0.12699999809E+01 0.  1.
</event>
<event>
 5   0  0.2573071E-04  0.1300121E+04  0.7818609E-02  0.9029469E-01
        2   -1    0    0  501    0  0.00000000000E+00  0.00000000000E+00  0.82363191860E+03  0.82363191861E+03  0.25500000920E-02 0.  1.
       -2   -1    0    0    0  501  0.00000000000E+00  0.00000000000E+00 -0.51306758622E+03  0.51306758623E+03  0.25500000920E-02 0. -1.
    10030    2    1    2    0    0  0.00000000000E+00  0.00000000000E+00  0.31056433238E+03  0.13366995048E+04  0.13001212873E+04 0.  0.
        4    1    3    3  502    0 -0.53390047378E+02  0.46932271345E+03 -0.30389576322E+03  0.56166587427E+03  0.12699999809E+01 0. -1.
       -4    1    3    3    0  502  0.53390047378E+02 -0.46932271345E+03  0.61446009560E+03  0.77503363056E+03  0.12699999809E+01 0.  1.
</event>
<event>
 5   0  0.1476511E-04  0.1300560E+04  0.7818609E-02  0.9029121E-01
       -1   -1    0    0    0  501  0.00000000000E+00  0.00000000000E+00  0.39185374735E+03  0.39185374738E+03  0.50400001928E-02 0.  1.
        1   -1    0    0  501    0  0.00000000000E+00  0.00000000000E+00 -0.10791371828E+04  0.10791371828E+04  0.50400001928E-02 0. -1.
    10030    2    1    2    0    0  0.00000000000E+00  0.00000000000E+00 -0.68728343541E+03  0.14709909302E+04  0.13005598010E+04 0.  0.
        2    1    3    3  502    0  0.13453451833E+03  0.63281117331E+03 -0.26934982072E+03  0.70078444876E+03  0.25500000920E-02 0.  1.
       -2    1    3    3    0  502 -0.13453451833E+03 -0.63281117331E+03 -0.41793361469E+03  0.77020648140E+03  0.25500000920E-02 0. -1.
</event>
<event>
 5   0  0.1476511E-04  0.1298716E+04  0.7818609E-02  0.9030584E-01
        1   -1    0    0  501    0  0.00000000000E+00  0.00000000000E+00  0.39304962134E+03  0.39304962137E+03  0.50400001928E-02 0. -1.
       -1   -1    0    0    0  501  0.00000000000E+00  0.00000000000E+00 -0.10728063490E+04  0.10728063491E+04  0.50400001928E-02 0.  1.
    10030    2    1    2    0    0  0.00000000000E+00  0.00000000000E+00 -0.67975672770E+03  0.14658559704E+04  0.12987164884E+04 0.  0.
        2    1    3    3  502    0 -0.29909651615E+03  0.57289632799E+03 -0.26851835045E+03  0.69983643312E+03  0.25500000920E-02 0. -1.
       -2    1    3    3    0  502  0.29909651615E+03 -0.57289632799E+03 -0.41123837725E+03  0.76601953730E+03  0.25500000920E-02 0.  1.
</event>
<event>
 5   0  0.2723209E-04  0.1299800E+04  0.7818609E-02  0.9029724E-01
        2   -1    0    0  501    0  0.00000000000E+00  0.00000000000E+00  0.13526127725E+04  0.13526127725E+04  0.25500000920E-02 0.  1.
       -2   -1    0    0    0  501  0.00000000000E+00  0.00000000000E+00 -0.31226227412E+03  0.31226227413E+03  0.25500000920E-02 0. -1.
    10030    2    1    2    0    0  0.00000000000E+00  0.00000000000E+00  0.10403504984E+04  0.16648750466E+04  0.12997998928E+04 0.  0.
        2    1    3    3  502    0 -0.43302262509E+03 -0.25412370601E+03 -0.83796972489E+01  0.50215303557E+03  0.25500000920E-02 0. -1.
       -2    1    3    3    0  502  0.43302262509E+03  0.25412370601E+03  0.10487301956E+04  0.11627220110E+04  0.25500000920E-02 0.  1.
</event>
<event>
 5   0  0.2756984E-04  0.1297188E+04  0.7818609E-02  0.9031798E-01
       -2   -1    0    0    0  501  0.00000000000E+00  0.00000000000E+00  0.33815717970E+03  0.33815717971E+03  0.25500000920E-02 0.  1.
        2   -1    0    0  501    0  0.00000000000E+00  0.00000000000E+00 -0.12440204091E+04  0.12440204092E+04  0.25500000920E-02 0. -1.
    10030    2    1    2    0    0  0.00000000000E+00  0.00000000000E+00 -0.90586322945E+03  0.15821775889E+04  0.12971883950E+04 0.  0.
        3    1    3    3  502    0  0.27922740902E+03 -0.62391149676E+02 -0.11628897385E+04  0.11975696872E+04  0.10100000352E+00 0. -1.
       -3    1    3    3    0  502 -0.27922740902E+03  0.62391149676E+02  0.25702650903E+03  0.38460790171E+03  0.10100000352E+00 0.  1.
</event>
<event>
 5   0  0.2723209E-04  0.1300426E+04  0.7818609E-02  0.9029227E-01
        2   -1    0    0  501    0  0.00000000000E+00  0.00000000000E+00  0.62066812594E+03  0.62066812594E+03  0.25500000920E-02 0. -1.
       -2   -1    0    0    0  501  0.00000000000E+00  0.00000000000E+00 -0.68116441002E+03  0.68116441002E+03  0.25500000920E-02 0.  1.
    10030    2    1    2    0    0  0.00000000000E+00  0.00000000000E+00 -0.60496284078E+02  0.13018325360E+04  0.13004261422E+04 0.  0.
        2    1    3    3  502    0 -0.18719419539E+03  0.58405293505E+03 -0.24639260099E+03  0.66096052193E+03  0.25500000920E-02 0. -1.
       -2    1    3    3    0  502  0.18719419539E+03 -0.58405293505E+03  0.18589631691E+03  0.64087201403E+03  0.25500000920E-02 0.  1.
</event>
<event>
 5   0  0.2794825E-04  0.1308713E+04  0.7818609E-02  0.9022684E-01
       -2   -1    0    0    0  501  0.00000000000E+00  0.00000000000E+00  0.77362482676E+03  0.77362482676E+03  0.25500000920E-02 0.  1.
        2   -1    0    0  501    0  0.00000000000E+00  0.00000000000E+00 -0.55347529486E+03  0.55347529487E+03  0.25500000920E-02 0. -1.
    10030    2    1    2    0    0  0.00000000000E+00  0.00000000000E+00  0.22014953190E+03  0.13271001216E+04  0.13087126944E+04 0.  0.
        1    1    3    3  502    0  0.39652834444E+03  0.48493004235E+03  0.30191618489E+03  0.69537418462E+03  0.50400001928E-02 0.  1.
       -1    1    3    3    0  502 -0.39652834444E+03 -0.48493004235E+03 -0.81766652993E+02  0.63172593700E+03  0.50400001928E-02 0. -1.
</event>
<event>
 5   0  0.1408341E-04  0.1300313E+04  0.7818609E-02  0.9029317E-01
        1   -1    0    0  501    0  0.00000000000E+00  0.00000000000E+00  0.21998090289E+04  0.21998090289E+04  0.50400001928E-02 0.  1.
       -1   -1    0    0    0  501  0.00000000000E+00  0.00000000000E+00 -0.19215449285E+03  0.19215449292E+03  0.50400001928E-02 0. -1.
    10030    2    1    2    0    0  0.00000000000E+00  0.00000000000E+00  0.20076545361E+04  0.23919635219E+04  0.13003125600E+04 0.  0.
        5    1    3    3  502    0 -0.29005108918E+03  0.32612255548E+03  0.18902354053E+04  0.19399735908E+04  0.46999998093E+01 0.  1.
       -5    1    3    3    0  502  0.29005108918E+03 -0.32612255548E+03  0.11741913080E+03  0.45198993109E+03  0.46999998093E+01 0. -1.
</event>
<event>
 5   0  0.2661377E-04  0.1291308E+04  0.7818609E-02  0.9036487E-01
       -2   -1    0    0    0  501  0.00000000000E+00  0.00000000000E+00  0.86533890214E+03  0.86533890214E+03  0.25500000920E-02 0.  1.
        2   -1    0    0  501    0  0.00000000000E+00  0.00000000000E+00 -0.48174051247E+03  0.48174051248E+03  0.25500000920E-02 0. -1.
    10030    2    1    2    0    0  0.00000000000E+00  0.00000000000E+00  0.38359838966E+03  0.13470794146E+04  0.12913075640E+04 0.  0.
        5    1    3    3  502    0  0.32428660705E+03  0.55056874097E+03  0.28830964952E+03  0.70102231494E+03  0.46999998093E+01 0.  1.
       -5    1    3    3    0  502 -0.32428660705E+03 -0.55056874097E+03  0.95288740141E+02  0.64605709967E+03  0.46999998093E+01 0. -1.
</event>
<event>
 5   0  0.2573071E-04  0.1299947E+04  0.7818609E-02  0.9029607E-01
        2   -1    0    0  501    0  0.00000000000E+00  0.00000000000E+00  0.10443734874E+04  0.10443734874E+04  0.25500000920E-02 0.  1.
       -2   -1    0    0    0  501  0.00000000000E+00  0.00000000000E+00 -0.40451569004E+03  0.40451569005E+03  0.25500000920E-02 0. -1.
    10030    2    1    2    0    0  0.00000000000E+00  0.00000000000E+00  0.63985779734E+03  0.14488891774E+04  0.12999468634E+04 0.  0.
        4    1    3    3  502    0 -0.14522550758E+03  0.54680191293E+02  0.10234226224E+04  0.10351211757E+04  0.12699999809E+01 0.  1.
       -4    1    3    3    0  502  0.14522550758E+03 -0.54680191293E+02 -0.38356482505E+03  0.41376800177E+03  0.12699999809E+01 0. -1.
</event>
<event>
 5   0  0.2723209E-04  0.1298703E+04  0.7818609E-02  0.9030595E-01
       -2   -1    0    0    0  501  0.00000000000E+00  0.00000000000E+00  0.58653539039E+03  0.58653539040E+03  0.25500000920E-02 0.  1.
        2   -1    0    0  501    0  0.00000000000E+00  0.00000000000E+00 -0.71889465467E+03  0.71889465468E+03  0.25500000920E-02 0. -1.
    10030    2    1    2    0    0  0.00000000000E+00  0.00000000000E+00 -0.13235926428E+03  0.13054300451E+04  0.12987026710E+04 0.  0.
        2    1    3    3  502    0 -0.86532286394E+02 -0.31735756673E+03 -0.62894897194E+03  0.70977494395E+03  0.25500000920E-02 0. -1.
       -2    1    3    3    0  502  0.86532286394E+02  0.31735756673E+03  0.49658970765E+03  0.59565510113E+03  0.25500000920E-02 0.  1.
</event>
<event>
 5   0  0.1475396E-04  0.1305449E+04  0.7818609E-02  0.9025255E-01
       -1   -1    0    0    0  501  0.00000000000E+00  0.00000000000E+00  0.21361607110E+03  0.21361607116E+03  0.50400001928E-02 0. -1.
        1   -1    0    0  501    0  0.00000000000E+00  0.00000000000E+00 -0.19944624609E+04  0.19944624609E+04  0.50400001928E-02 0.  1.
    10030    2    1    2    0    0  0.00000000000E+00  0.00000000000E+00 -0.17808463898E+04  0.22080785321E+04  0.13054489418E+04 0.  0.
        3    1    3    3  502    0  0.68237982759E+02  0.55613874838E+03 -0.32410271930E+03  0.64729383791E+03  0.10100000352E+00 0. -1.
       -3    1    3    3    0  502 -0.68237982759E+02 -0.55613874838E+03 -0.14567436705E+04  0.15607846942E+04  0.10100000352E+00 0.  1.
</event>
<event>
 5   0  0.1408341E-04  0.1299111E+04  0.7818609E-02  0.9030270E-01
        1   -1    0    0  501    0  0.00000000000E+00  0.00000000000E+00  0.29478891423E+03  0.29478891428E+03  0.50400001928E-02 0. -1.
       -1   -1    0    0    0  501  0.00000000000E+00  0.00000000000E+00 -0.14312694990E+04  0.14312694990E+04  0.50400001928E-02 0.  1.
    10030    2    1    2    0    0  0.00000000000E+00  0.00000000000E+00 -0.11364805848E+04  0.17260584133E+04  0.12991110524E+04 0.  0.
        5    1    3    3  502    0 -0.22838271936E+02 -0.12552381248E+02 -0.14305520195E+04  0.14307970924E+04  0.46999998093E+01 0.  1.
       -5    1    3    3    0  502  0.22838271936E+02  0.12552381248E+02  0.29407143472E+03  0.29526132096E+03  0.46999998093E+01 0. -1.
</event>
<event>
 5   0  0.2794825E-04  0.1303915E+04  0.7818609E-02  0.9026466E-01
       -2   -1    0    0    0  501  0.00000000000E+00  0.00000000000E+00  0.43427062622E+03  0.43427062623E+03  0.25500000920E-02 0.  1.
        2   -1    0    0  501    0  0.00000000000E+00  0.00000000000E+00 -0.97876459717E+03  0.97876459717E+03  0.25500000920E-02 0. -1.
    10030    2    1    2    0    0  0.00000000000E+00  0.00000000000E+00 -0.54449397095E+03  0.14130352234E+04  0.13039152036E+04 0.  0.
        1    1    3    3  502    0  0.58346881107E+03 -0.14673969182E+03 -0.54442346718E+03  0.81139712983E+03  0.50400001928E-02 0. -1.
       -1    1    3    3    0  502 -0.58346881107E+03  0.14673969182E+03 -0.70503764998E-01  0.60163809358E+03  0.50400001928E-02 0.  1.
</event>
<event>
 5   0  0.2661377E-04  0.1291001E+04  0.7818609E-02  0.9036732E-01
       -2   -1    0    0    0  501  0.00000000000E+00  0.00000000000E+00  0.14069486012E+03  0.14069486015E+03  0.25500000920E-02 0. -1.
        2   -1    0    0  501    0  0.00000000000E+00  0.00000000000E+00 -0.29615233945E+04  0.29615233945E+04  0.25500000920E-02 0.  1.
    10030    2    1    2    0    0  0.00000000000E+00  0.00000000000E+00 -0.28208285344E+04  0.31022182547E+04  0.12910013474E+04 0.  0.
        5    1    3    3  502    0 -0.12893853577E+03 -0.57207320966E+03 -0.76225693483E+03  0.96174353542E+03  0.46999998093E+01 0. -1.
       -5    1    3    3    0  502  0.12893853577E+03  0.57207320966E+03 -0.20585715996E+04  0.21404747192E+04  0.46999998093E+01 0.  1.
</event>
<event>
 5   0  0.2661377E-04  0.1300716E+04  0.7818609E-02  0.9028998E-01
        2   -1    0    0  501    0  0.00000000000E+00  0.00000000000E+00  0.10570969186E+04  0.10570969186E+04  0.25500000920E-02 0. -1.
       -2   -1    0    0    0  501  0.00000000000E+00  0.00000000000E+00 -0.40011984855E+03  0.40011984855E+03  0.25500000920E-02 0.  1.
    10030    2    1    2    0    0  0.00000000000E+00  0.00000000000E+00  0.65697707006E+03  0.14572167672E+04  0.13007158936E+04 0.  0.
        5    1    3    3  502    0 -0.35208775165E+03 -0.39540681237E+03 -0.94617024963E+02  0.53785388680E+03  0.46999998093E+01 0.  1.
       -5    1    3    3    0  502  0.35208775165E+03  0.39540681237E+03  0.75159409502E+03  0.91936288037E+03  0.46999998093E+01 0. -1.
</event>
<event>
 5   0  0.1430636E-04  0.1299824E+04  0.7818609E-02  0.9029705E-01
        1   -1    0    0  501    0  0.00000000000E+00  0.00000000000E+00  0.21379248556E+04  0.21379248557E+04  0.50400001928E-02 0.  1.
       -1   -1    0    0    0  501  0.00000000000E+00  0.00000000000E+00 -0.19756812257E+03  0.19756812264E+03  0.50400001928E-02 0. -1.
    10030    2    1    2    0    0  0.00000000000E+00  0.00000000000E+00  0.19403567331E+04  0.23354929783E+04  0.12998242958E+04 0.  0.
        4    1    3    3  502    0  0.14161226555E+03 -0.48897719601E+03  0.24424653277E+03  0.56463325588E+03  0.12699999809E+01 0. -1.
       -4    1    3    3    0  502 -0.14161226555E+03  0.48897719601E+03  0.16961102003E+04  0.17708597224E+04  0.12699999809E+01 0.  1.
</event>
<event>
 5   0  0.1430636E-04  0.1299634E+04  0.7818609E-02  0.9029855E-01
        1   -1    0    0  501    0  0.00000000000E+00  0.00000000000E+00  0.57290836765E+03  0.57290836767E+03  0.50400001928E-02 0. -1.
       -1   -1    0    0    0  501  0.00000000000E+00  0.00000000000E+00 -0.73705013210E+03  0.73705013212E+03  0.50400001928E-02 0.  1.
    10030    2    1    2    0    0  0.00000000000E+00  0.00000000000E+00 -0.16414176445E+03  0.13099584998E+04  0.12996340840E+04 0.  0.
        4    1    3    3  502    0 -0.10068305090E+03 -0.58071715235E+03  0.19376547762E+03  0.62041611922E+03  0.12699999809E+01 0. -1.
       -4    1    3    3    0  502  0.10068305090E+03  0.58071715235E+03 -0.35790724207E+03  0.68954238057E+03  0.12699999809E+01 0.  1.
</event>
<event>
 5   0  0.1476511E-04  0.1305579E+04  0.7818609E-02  0.9025152E-01
        1   -1    0    0  501    0  0.00000000000E+00  0.00000000000E+00  0.30231380073E+03  0.30231380077E+03  0.50400001928E-02 0.  1.
       -1   -1    0    0    0  501  0.00000000000E+00  0.00000000000E+00 -0.14095764049E+04  0.14095764049E+04  0.50400001928E-02 0. -1.
    10030    2    1    2    0    0  0.00000000000E+00  0.00000000000E+00 -0.11072626042E+04  0.17118902057E+04  0.13055794123E+04 0.  0.
        2    1    3    3  502    0  0.60709570913E+03 -0.19986273911E+03 -0.37956050634E+03  0.74335489001E+03  0.25500000920E-02 0.  1.
       -2    1    3    3    0  502 -0.60709570913E+03  0.19986273911E+03 -0.72770209787E+03  0.96853531571E+03  0.25500000920E-02 0. -1.
</event>
<event>
 5   0  0.2794825E-04  0.1299089E+04  0.7818609E-02  0.9030288E-01
        2   -1    0    0  501    0  0.00000000000E+00  0.00000000000E+00  0.11766548976E+04  0.11766548976E+04  0.25500000920E-02 0.  1.
       -2   -1    0    0    0  501  0.00000000000E+00  0.00000000000E+00 -0.35856589278E+03  0.35856589279E+03  0.25500000920E-02 0. -1.
    10030    2    1    2    0    0  0.00000000000E+00  0.00000000000E+00  0.81808900479E+03  0.15352207904E+04  0.12990893947E+04 0.  0.
        1    1    3    3  502    0 -0.50440233463E+03 -0.24261130416E+03  0.19551726845E+02  0.56005734540E+03  0.50400001928E-02 0.  1.
       -1    1    3    3    0  502  0.50440233463E+03  0.24261130416E+03  0.79853727794E+03  0.97516344495E+03  0.50400001928E-02 0. -1.
</event>
<event>
 5   0  0.2661377E-04  0.1300086E+04  0.7818609E-02  0.9029497E-01
        2   -1    0    0  501    0  0.00000000000E+00  0.00000000000E+00  0.22522412132E+04  0.22522412132E+04  0.25500000920E-02 0. -1.
       -2   -1    0    0    0  501  0.00000000000E+00  0.00000000000E+00 -0.18761573401E+03  0.18761573402E+03  0.25500000920E-02 0.  1.
    10030    2    1    2    0    0  0.00000000000E+00  0.00000000000E+00  0.20646254792E+04  0.24398569472E+04  0.13000859793E+04 0.  0.
        5    1    3    3  502    0  0.39644717442E+02 -0.10198411022E+03  0.22348022954E+04  0.22374842685E+04  0.46999998093E+01 0. -1.
       -5    1    3    3    0  502 -0.39644717442E+02  0.10198411022E+03 -0.17017681615E+03  0.20237267876E+03  0.46999998093E+01 0.  1.
</event>
<event>
 5   0  0.2756984E-04  0.1298774E+04  0.7818609E-02  0.9030538E-01
       -2   -1    0    0    0  501  0.00000000000E+00  0.00000000000E+00  0.38704290633E+03  0.38704290633E+03  0.25500000920E-02 0.  1.
        2   -1    0    0  501    0  0.00000000000E+00  0.00000000000E+00 -0.10895519209E+04  0.10895519209E+04  0.25500000920E-02 0. -1.
    10030    2    1    2    0    0  0.00000000000E+00  0.00000000000E+00 -0.70250901453E+03  0.14765948272E+04  0.12987737941E+04 0.  0.
        3    1    3    3  502    0 -0.31420518608E+03 -0.16600930034E+03  0.26668689077E+03  0.44430383148E+03  0.10100000352E+00 0.  1.
       -3    1    3    3    0  502  0.31420518608E+03  0.16600930034E+03 -0.96919590531E+03  0.10322909957E+04  0.10100000352E+00 0. -1.
</event>
<event>
 5   0  0.1430636E-04  0.1301378E+04  0.7818609E-02  0.9028473E-01
        1   -1    0    0  501    0  0.00000000000E+00  0.00000000000E+00  0.46634785823E+03  0.46634785826E+03  0.50400001928E-02 0.  1.
       -1   -1    0    0    0  501  0.00000000000E+00  0.00000000000E+00 -0.90789774210E+03  0.90789774212E+03  0.50400001928E-02 0. -1.
    10030    2    1    2    0    0  0.00000000000E+00  0.00000000000E+00 -0.44154988387E+03  0.13742456004E+04  0.13013779890E+04 0.  0.
        4    1    3    3  502    0 -0.11393176031E+03 -0.64061861760E+03 -0.22571620094E+03  0.68871044386E+03  0.12699999809E+01 0.  1.
       -4    1    3    3    0  502  0.11393176031E+03  0.64061861760E+03 -0.21583368294E+03  0.68553515651E+03  0.12699999809E+01 0. -1.
</event>
<event>
 5   0  0.2794825E-04  0.1299608E+04  0.7818609E-02  0.9029876E-01
       -2   -1    0    0    0  501  0.00000000000E+00  0.00000000000E+00  0.19053455040E+03  0.19053455042E+03  0.25500000920E-02 0. -1.
        2   -1    0    0  501    0  0.00000000000E+00  0.00000000000E+00 -0.22161080674E+04  0.22161080674E+04  0.25500000920E-02 0.  1.
    10030    2    1    2    0    0  0.00000000000E+00  0.00000000000E+00 -0.20255735170E+04  0.24066426178E+04  0.12996078705E+04 0.  0.
        1    1    3    3  502    0 -0.37909991812E+03  0.29149598721E+02 -0.19886086564E+04  0.20246310369E+04  0.50400001928E-02 0.  1.
       -1    1    3    3    0  502  0.37909991812E+03 -0.29149598721E+02 -0.36964860551E+02  0.38201158093E+03  0.50400001928E-02 0. -1.
</event>
<event>
 5   0  0.1430636E-04  0.1305133E+04  0.7818609E-02  0.9025505E-01
        1   -1    0    0  501    0  0.00000000000E+00  0.00000000000E+00  0.11989793489E+04  0.11989793489E+04  0.50400001928E-02 0. -1.
       -1   -1    0    0    0  501  0.00000000000E+00  0.00000000000E+00 -0.35517105914E+03  0.35517105918E+03  0.50400001928E-02 0.  1.
    10030    2    1    2    0    0  0.00000000000E+00  0.00000000000E+00  0.84380828978E+03  0.15541504081E+04  0.13051325837E+04 0.  0.
        4    1    3    3  502    0 -0.47905059069E+03 -0.38768775894E+03  0.16636779215E+03  0.63833464737E+03  0.12699999809E+01 0. -1.
       -4    1    3    3    0  502  0.47905059069E+03  0.38768775894E+03  0.67744049763E+03  0.91581576073E+03  0.12699999809E+01 0.  1.
</event>
<event>
 5   0  0.2756984E-04  0.1299685E+04  0.7818609E-02  0.9029815E-01
        2   -1    0    0  501    0  0.00000000000E+00  0.00000000000E+00  0.24244745015E+04  0.24244745015E+04  0.25500000920E-02 0. -1.
       -2   -1    0    0    0  501  0.00000000000E+00  0.00000000000E+00 -0.17418006788E+03  0.17418006790E+03  0.25500000920E-02 0.  1.
    10030    2    1    2    0    0  0.00000000000E+00  0.00000000000E+00  0.22502944336E+04  0.25986545694E+04  0.12996847822E+04 0.  0.
        3    1    3    3  502    0  0.53365170632E+03 -0.27314340119E+03  0.62367314413E+03  0.86507783591E+03  0.10100000352E+00 0. -1.
       -3    1    3    3    0  502 -0.53365170632E+03  0.27314340119E+03  0.16266212895E+04  0.17335767335E+04  0.10100000352E+00 0.  1.
</event>
<event>
 5   0  0.2573071E-04  0.1302712E+04  0.7818609E-02  0.9027417E-01
        2   -1    0    0  501    0  0.00000000000E+00  0.00000000000E+00  0.11924547548E+04  0.11924547548E+04  0.25500000920E-02 0. -1.
       -2   -1    0    0    0  501  0.00000000000E+00  0.00000000000E+00 -0.35579095564E+03  0.35579095565E+03  0.25500000920E-02 0.  1.
    10030    2    1    2    0    0  0.00000000000E+00  0.00000000000E+00  0.83666379913E+03  0.15482457104E+04  0.13027119663E+04 0.  0.
        4    1    3    3  502    0 -0.16064571678E+03  0.52584445680E+03  0.33100836303E+01  0.54984725936E+03  0.12699999809E+01 0.  1.
       -4    1    3    3    0  502  0.16064571678E+03 -0.52584445680E+03  0.83335371550E+03  0.99839845108E+03  0.12699999809E+01 0. -1.
</event>
<event>
 5   0  0.1479690E-04  0.1299411E+04  0.7818609E-02  0.9030032E-01
       -1   -1    0    0    0  501  0.00000000000E+00  0.00000000000E+00  0.29864581065E+03  0.29864581070E+03  0.50400001928E-02 0.  1.
        1   -1    0    0  501    0  0.00000000000E+00  0.00000000000E+00 -0.14134377006E+04  0.14134377006E+04  0.50400001928E-02 0. -1.
    10030    2    1    2    0    0  0.00000000000E+00  0.00000000000E+00 -0.11147918899E+04  0.17120835113E+04  0.12994110172E+04 0.  0.
        1    1    3    3  502    0 -0.56758559931E+03  0.28698753819E+03 -0.73220312375E+03  0.96986425549E+03  0.50400001928E-02 0.  1.
       -1    1    3    3    0  502  0.56758559931E+03 -0.28698753819E+03 -0.38258876616E+03  0.74221925577E+03  0.50400001928E-02 0. -1.
</event>
<event>
 5   0  0.2756984E-04  0.1302499E+04  0.7818609E-02  0.9027586E-01
        2   -1    0    0  501    0  0.00000000000E+00  0.00000000000E+00  0.63218596947E+03  0.63218596947E+03  0.25500000920E-02 0.  1.
       -2   -1    0    0    0  501  0.00000000000E+00  0.00000000000E+00 -0.67088775407E+03  0.67088775407E+03  0.25500000920E-02 0. -1.
    10030    2    1    2    0    0  0.00000000000E+00  0.00000000000E+00 -0.38701784599E+02  0.13030737235E+04  0.13024988679E+04 0.  0.
        3    1    3    3  502    0  0.63900416698E+02 -0.63659272432E+03  0.10232620111E+03  0.64792300588E+03  0.10100000352E+00 0.  1.
       -3    1    3    3    0  502 -0.63900416698E+02  0.63659272432E+03 -0.14102798571E+03  0.65515071767E+03  0.10100000352E+00 0. -1.
</event>
<event>
 5   0  0.1408341E-04  0.1297818E+04  0.7818609E-02  0.9031298E-01
        1   -1    0    0  501    0  0.00000000000E+00  0.00000000000E+00  0.56367157447E+03  0.56367157449E+03  0.50400001928E-02 0.  1.
       -1   -1    0    0    0  501  0.00000000000E+00  0.00000000000E+00 -0.74703554089E+03  0.74703554091E+03  0.50400001928E-02 0. -1.
    10030    2    1    2    0    0  0.00000000000E+00  0.00000000000E+00 -0.18336396642E+03  0.13107071154E+04  0.12978177061E+04 0.  0.
        5    1    3    3  502    0  0.14603295453E+03  0.49370056608E+03  0.30720230950E+03  0.59955084999E+03  0.46999998093E+01 0.  1.
       -5    1    3    3    0  502 -0.14603295453E+03 -0.49370056608E+03 -0.49056627593E+03  0.71115626541E+03  0.46999998093E+01 0. -1.
</event>
<event>
 5   0  0.1408341E-04  0.1296095E+04  0.7818609E-02  0.9032668E-01
       -1   -1    0    0    0  501  0.00000000000E+00  0.00000000000E+00  0.12228123902E+04  0.12228123902E+04  0.50400001928E-02 0. -1.
        1   -1    0    0  501    0  0.00000000000E+00  0.00000000000E+00 -0.34344210930E+03  0.34344210934E+03  0.50400001928E-02 0.  1.
    10030    2    1    2    0    0  0.00000000000E+00  0.00000000000E+00  0.87937028089E+03  0.15662544995E+04  0.12960945438E+04 0.  0.
        5    1    3    3  502    0  0.52840535448E+03 -0.37514101326E+03  0.43917509827E+03  0.78284088767E+03  0.46999998093E+01 0.  1.
       -5    1    3    3    0  502 -0.52840535448E+03  0.37514101326E+03  0.44019518262E+03  0.78341361188E+03  0.46999998093E+01 0. -1.
</event>
<event>
 5   0  0.1430636E-04  0.1298705E+04  0.7818609E-02  0.9030593E-01
        1   -1    0    0  501    0  0.00000000000E+00  0.00000000000E+00  0.97768667500E+03  0.97768667501E+03  0.50400001928E-02 0. -1.
       -1   -1    0    0    0  501  0.00000000000E+00  0.00000000000E+00 -0.43128189500E+03  0.43128189503E+03  0.50400001928E-02 0.  1.
    10030    2    1    2    0    0  0.00000000000E+00  0.00000000000E+00  0.54640478000E+03  0.14089685700E+04  0.12987048347E+04 0.  0.
        4    1    3    3  502    0  0.18590850176E+03 -0.60380930090E+03  0.43597146755E+03  0.76760691522E+03  0.12699999809E+01 0.  1.
       -4    1    3    3    0  502 -0.18590850176E+03  0.60380930090E+03  0.11043331245E+03  0.64136165482E+03  0.12699999809E+01 0. -1.
</event>
<event>
 5   0  0.1475396E-04  0.1298921E+04  0.7818609E-02  0.9030421E-01
        1   -1    0    0  501    0  0.00000000000E+00  0.00000000000E+00  0.46329336839E+03  0.46329336842E+03  0.50400001928E-02 0. -1.
       -1   -1    0    0    0  501  0.00000000000E+00  0.00000000000E+00 -0.91043662501E+03  0.91043662502E+03  0.50400001928E-02 0.  1.
    10030    2    1    2    0    0  0.00000000000E+00  0.00000000000E+00 -0.44714325662E+03  0.13737299934E+04  0.12989214768E+04 0.  0.
        3    1    3    3  502    0 -0.49874801539E+03  0.83900431627E+02  0.20733790119E+03  0.54660578185E+03  0.10100000352E+00 0. -1.
       -3    1    3    3    0  502  0.49874801539E+03 -0.83900431627E+02 -0.65448115781E+03  0.82712421159E+03  0.10100000352E+00 0.  1.
</event>
<event>
 5   0  0.1475396E-04  0.1299795E+04  0.7818609E-02  0.9029727E-01
       -1   -1    0    0    0  501  0.00000000000E+00  0.00000000000E+00  0.19147420422E+03  0.19147420429E+03  0.50400001928E-02 0.  1.
        1   -1    0    0  501    0  0.00000000000E+00  0.00000000000E+00 -0.22058692227E+04  0.22058692227E+04  0.50400001928E-02 0. -1.
    10030    2    1    2    0    0  0.00000000000E+00  0.00000000000E+00 -0.20143950185E+04  0.23973434270E+04  0.12997954518E+04 0.  0.
        3    1    3    3  502    0 -0.26710501894E+03  0.24073200326E+03 -0.20056811708E+04  0.20376589405E+04  0.10100000352E+00 0. -1.
       -3    1    3    3    0  502  0.26710501894E+03 -0.24073200326E+03 -0.87138477255E+01  0.35968448658E+03  0.10100000352E+00 0.  1.
</event>
<event>
 5   0  0.1430636E-04  0.1299719E+04  0.7818609E-02  0.9029788E-01
       -1   -1    0    0    0  501  0.00000000000E+00  0.00000000000E+00  0.12905221029E+04  0.12905221029E+04  0.50400001928E-02 0. -1.
        1   -1    0    0  501    0  0.00000000000E+00  0.00000000000E+00 -0.32724557357E+03  0.32724557361E+03  0.50400001928E-02 0.  1.
    10030    2    1    2    0    0  0.00000000000E+00  0.00000000000E+00  0.96327652932E+03  0.16177676765E+04  0.12997194248E+04 0.  0.
        4    1    3    3  502    0  0.23730325350E+03 -0.27644652000E+03  0.11514476310E+04  0.12077122059E+04  0.12699999809E+01 0. -1.
       -4    1    3    3    0  502 -0.23730325350E+03  0.27644652000E+03 -0.18817110168E+03  0.41005547057E+03  0.12699999809E+01 0.  1.
</event>
<event>
 5   0  0.1475396E-04  0.1298719E+04  0.7818609E-02  0.9030582E-01
        1   -1    0    0  501    0  0.00000000000E+00  0.00000000000E+00  0.81546152490E+03  0.81546152492E+03  0.50400001928E-02 0. -1.
       -1   -1    0    0    0  501  0.00000000000E+00  0.00000000000E+00 -0.51709077467E+03  0.51709077469E+03  0.50400001928E-02 0.  1.
    10030    2    1    2    0    0  0.00000000000E+00  0.00000000000E+00  0.29837075023E+03  0.13325522996E+04  0.12987188020E+04 0.  0.
        3    1    3    3  502    0  0.16860392542E+02  0.45407663598E+03 -0.32679385866E+03  0.55970000933E+03  0.10100000352E+00 0.  1.
       -3    1    3    3    0  502 -0.16860392542E+02 -0.45407663598E+03  0.62516460889E+03  0.77285229028E+03  0.10100000352E+00 0. -1.
</event>
<event>
 5   0  0.1479690E-04  0.1296807E+04  0.7818609E-02  0.9032101E-01
        1   -1    0    0  501    0  0.00000000000E+00  0.00000000000E+00  0.11953775962E+04  0.11953775962E+04  0.50400001928E-02 0.  1.
       -1   -1    0    0    0  501  0.00000000000E+00  0.00000000000E+00 -0.35171091228E+03  0.35171091231E+03  0.50400001928E-02 0. -1.
    10030    2    1    2    0    0  0.00000000000E+00  0.00000000000E+00  0.84366668389E+03  0.15470885085E+04  0.12968073795E+04 0.  0.
        1    1    3    3  502    0  0.40260494706E+03  0.42244571682E+03  0.75900295954E+03  0.95741141609E+03  0.50400001928E-02 0.  1.
       -1    1    3    3    0  502 -0.40260494706E+03 -0.42244571682E+03  0.84663724355E+02  0.58967709240E+03  0.50400001928E-02 0. -1.
</event>
<event>
 5   0  0.1408341E-04  0.1303264E+04  0.7818609E-02  0.9026981E-01
        1   -1    0    0  501    0  0.00000000000E+00  0.00000000000E+00  0.11361853552E+04  0.11361853552E+04  0.50400001928E-02 0. -1.
       -1   -1    0    0    0  501  0.00000000000E+00  0.00000000000E+00 -0.37372797835E+03  0.37372797838E+03  0.50400001928E-02 0.  1.
    10030    2    1    2    0    0  0.00000000000E+00  0.00000000000E+00  0.76245737689E+03  0.15099133336E+04  0.13032639884E+04 0.  0.
        5    1    3    3  502    0  0.50677618925E+03  0.67996749430E+02  0.84920278869E+03  0.99126844510E+03  0.46999998093E+01 0. -1.
       -5    1    3    3    0  502 -0.50677618925E+03 -0.67996749430E+02 -0.86745411808E+02  0.51864488853E+03  0.46999998093E+01 0.  1.
</event>
<event>
 5   0  0.2756984E-04  0.1335711E+04  0.7818609E-02  0.9001716E-01
        2   -1    0    0  501    0  0.00000000000E+00  0.00000000000E+00  0.99360381029E+03  0.99360381029E+03  0.25500000920E-02 0.  1.
       -2   -1    0    0    0  501  0.00000000000E+00  0.00000000000E+00 -0.44890199137E+03  0.44890199138E+03  0.25500000920E-02 0. -1.
    10030    2    1    2    0    0  0.00000000000E+00  0.00000000000E+00  0.54470181892E+03  0.14425058017E+04  0.13357106409E+04 0.  0.
        3    1    3    3  502    0 -0.52287807726E+02 -0.51169883353E+03 -0.18769041172E+03  0.54753758951E+03  0.10100000352E+00 0. -1.
       -3    1    3    3    0  502  0.52287807726E+02  0.51169883353E+03  0.73239223065E+03  0.89496821216E+03  0.10100000352E+00 0.  1.
</event>
<event>
 5   0  0.2723209E-04  0.1300248E+04  0.7818609E-02  0.9029369E-01
       -2   -1    0    0    0  501  0.00000000000E+00  0.00000000000E+00  0.44011040664E+03  0.44011040665E+03  0.25500000920E-02 0. -1.
        2   -1    0    0  501    0  0.00000000000E+00  0.00000000000E+00 -0.96035244020E+03  0.96035244021E+03  0.25500000920E-02 0.  1.
    10030    2    1    2    0    0  0.00000000000E+00  0.00000000000E+00 -0.52024203356E+03  0.14004628469E+04  0.13002478271E+04 0.  0.
        2    1    3    3  502    0  0.43827032417E+03 -0.47896424922E+03 -0.22322477159E+03  0.68652525645E+03  0.25500000920E-02 0.  1.
       -2    1    3    3    0  502 -0.43827032417E+03  0.47896424922E+03 -0.29701726197E+03  0.71393759041E+03  0.25500000920E-02 0. -1.
</event>
<event>
 5   0  0.1408341E-04  0.1298956E+04  0.7818609E-02  0.9030393E-01
        1   -1    0    0  501    0  0.00000000000E+00  0.00000000000E+00  0.47961918381E+03  0.47961918383E+03  0.50400001928E-02 0.  1.
       -1   -1    0    0    0  501  0.00000000000E+00  0.00000000000E+00 -0.87949330480E+03  0.87949330481E+03  0.50400001928E-02 0. -1.
    10030    2    1    2    0    0  0.00000000000E+00  0.00000000000E+00 -0.39987412099E+03  0.13591124886E+04  0.12989562903E+04 0.  0.
        5    1    3    3  502    0  0.31104229956E+03  0.49400476315E+02 -0.79423080572E+03  0.85440762047E+03  0.46999998093E+01 0. -1.
       -5    1    3    3    0  502 -0.31104229956E+03 -0.49400476315E+02  0.39435668472E+03  0.50470486817E+03  0.46999998093E+01 0.  1.
</event>
<event>
 5   0  0.2756984E-04  0.1297899E+04  0.7818609E-02  0.9031233E-01
        2   -1    0    0  501    0  0.00000000000E+00  0.00000000000E+00  0.59590476450E+03  0.59590476450E+03  0.25500000920E-02 0. -1.
       -2   -1    0    0    0  501  0.00000000000E+00  0.00000000000E+00 -0.70671655780E+03  0.70671655780E+03  0.25500000920E-02 0.  1.
    10030    2    1    2    0    0  0.00000000000E+00  0.00000000000E+00 -0.11081179330E+03  0.13026213223E+04  0.12978994783E+04 0.  0.
        3    1    3    3  502    0 -0.44813541909E+02  0.56434342308E+03  0.26299264629E+03  0.62422503548E+03  0.10100000352E+00 0. -1.
       -3    1    3    3    0  502  0.44813541909E+02 -0.56434342308E+03 -0.37380443959E+03  0.67839628682E+03  0.10100000352E+00 0.  1.
</event>
<event>
 5   0  0.2794825E-04  0.1300482E+04  0.7818609E-02  0.9029183E-01
       -2   -1    0    0    0  501  0.00000000000E+00  0.00000000000E+00  0.15175243915E+03  0.15175243917E+03  0.25500000920E-02 0. -1.
        2   -1    0    0  501    0  0.00000000000E+00  0.00000000000E+00 -0.27862057934E+04  0.27862057934E+04  0.25500000920E-02 0.  1.
    10030    2    1    2    0    0  0.00000000000E+00  0.00000000000E+00 -0.26344533542E+04  0.29379582325E+04  0.13004822569E+04 0.  0.
        1    1    3    3  502    0  0.53176238948E+03  0.23481199633E+03 -0.65894860878E+03  0.87870426283E+03  0.50400001928E-02 0. -1.
       -1    1    3    3    0  502 -0.53176238948E+03 -0.23481199633E+03 -0.19755047454E+04  0.20592539697E+04  0.50400001928E-02 0.  1.
</event>
<event>
 5   0  0.2573071E-04  0.1300003E+04  0.7818609E-02  0.9029563E-01
        2   -1    0    0  501    0  0.00000000000E+00  0.00000000000E+00  0.71423784700E+03  0.71423784701E+03  0.25500000920E-02 0.  1.
       -2   -1    0    0    0  501  0.00000000000E+00  0.00000000000E+00 -0.59154243286E+03  0.59154243287E+03  0.25500000920E-02 0. -1.
    10030    2    1    2    0    0  0.00000000000E+00  0.00000000000E+00  0.12269541414E+03  0.13057802799E+04  0.13000030672E+04 0.  0.
        4    1    3    3  502    0  0.21438208899E+03 -0.56498931648E+03  0.30184393216E+03  0.67548795704E+03  0.12699999809E+01 0.  1.
       -4    1    3    3    0  502 -0.21438208899E+03  0.56498931648E+03 -0.17914851802E+03  0.63029232284E+03  0.12699999809E+01 0. -1.
</event>
<event>
 5   0  0.2723209E-04  0.1307139E+04  0.7818609E-02  0.9023923E-01
       -2   -1    0    0    0  501  0.00000000000E+00  0.00000000000E+00  0.40093778452E+03  0.40093778453E+03  0.25500000920E-02 0. -1.
        2   -1    0    0  501    0  0.00000000000E+00  0.00000000000E+00 -0.10653841721E+04  0.10653841721E+04  0.25500000920E-02 0.  1.
    10030    2    1    2    0    0  0.00000000000E+00  0.00000000000E+00 -0.66444638760E+03  0.14663219567E+04  0.13071385078E+04 0.  0.
        2    1    3    3  502    0 -0.12138291624E+03  0.10490202325E+03  0.37850618709E+03  0.41110239662E+03  0.25500000920E-02 0. -1.
       -2    1    3    3    0  502  0.12138291624E+03 -0.10490202325E+03 -0.10429525747E+04  0.10552195600E+04  0.25500000920E-02 0.  1.
</event>
<event>
 5   0  0.1408341E-04  0.1298783E+04  0.7818609E-02  0.9030531E-01
       -1   -1    0    0    0  501  0.00000000000E+00  0.00000000000E+00  0.64366815001E+03  0.64366815003E+03  0.50400001928E-02 0. -1.
        1   -1    0    0  501    0  0.00000000000E+00  0.00000000000E+00 -0.65516533396E+03  0.65516533398E+03  0.50400001928E-02 0.  1.
    10030    2    1    2    0    0  0.00000000000E+00  0.00000000000E+00 -0.11497183950E+02  0.12988334840E+04  0.12987825969E+04 0.  0.
        5    1    3    3  502    0  0.48300577648E+03 -0.42768689722E+03  0.68256377164E+02  0.64876165515E+03  0.46999998093E+01 0. -1.
       -5    1    3    3    0  502 -0.48300577648E+03  0.42768689722E+03 -0.79753561114E+02  0.65007182886E+03  0.46999998093E+01 0.  1.
</event>
<event>
 5   0  0.2723209E-04  0.1300398E+04  0.7818609E-02  0.9029250E-01
        2   -1    0    0  501    0  0.00000000000E+00  0.00000000000E+00  0.10407006542E+04  0.10407006542E+04  0.25500000920E-02 0.  1.
       -2   -1    0    0    0  501  0.00000000000E+00  0.00000000000E+00 -0.40622494070E+03  0.40622494071E+03  0.25500000920E-02 0. -1.
    10030    2    1    2    0    0  0.00000000000E+00  0.00000000000E+00  0.63447571351E+03  0.14469255949E+04  0.13003977262E+04 0.  0.
        2    1    3    3  502    0 -0.56121086448E+03 -0.85008957560E+02  0.67010703981E+03  0.87819565137E+03  0.25500000920E-02 0.  1.
       -2    1    3    3    0  502  0.56121086448E+03  0.85008957560E+02 -0.35631326302E+02  0.56872994355E+03  0.25500000920E-02 0. -1.
</event>
<event>
 5   0  0.1408341E-04  0.1285728E+04  0.7818609E-02  0.9040960E-01
        1   -1    0    0  501    0  0.00000000000E+00  0.00000000000E+00  0.66059897061E+03  0.66059897063E+03  0.50400001928E-02 0. -1.
       -1   -1    0    0    0  501  0.00000000000E+00  0.00000000000E+00 -0.62560513123E+03  0.62560513125E+03  0.50400001928E-02 0.  1.
    10030    2    1    2    0    0  0.00000000000E+00  0.00000000000E+00  0.34993839386E+02  0.12862041019E+04  0.12857279739E+04 0.  0.
        5    1    3    3  502    0 -0.26155544797E+03 -0.80858576572E+02  0.59935021679E+03  0.65893257177E+03  0.46999998093E+01 0. -1.
       -5    1    3    3    0  502  0.26155544797E+03  0.80858576572E+02 -0.56435637741E+03  0.62727153011E+03  0.46999998093E+01 0.  1.
</event>
<event>
 5   0  0.1430636E-04  0.1300756E+04  0.7818609E-02  0.9028966E-01
       -1   -1    0    0    0  501  0.00000000000E+00  0.00000000000E+00  0.75176600851E+03  0.75176600852E+03  0.50400001928E-02 0. -1.
        1   -1    0    0  501    0  0.00000000000E+00  0.00000000000E+00 -0.56266353859E+03  0.56266353862E+03  0.50400001928E-02 0.  1.
    10030    2    1    2    0    0  0.00000000000E+00  0.00000000000E+00  0.18910246991E+03  0.13144295471E+04  0.13007556612E+04 0.  0.
        4    1    3    3  502    0 -0.30234705417E+03 -0.13293807930E+03  0.66071180882E+03  0.73866635317E+03  0.12699999809E+01 0. -1.
       -4    1    3    3    0  502  0.30234705417E+03  0.13293807930E+03 -0.47160933890E+03  0.57576319397E+03  0.12699999809E+01 0.  1.
</event>
<event>
 5   0  0.1476511E-04  0.1291724E+04  0.7818609E-02  0.9036154E-01
       -1   -1    0    0    0  501  0.00000000000E+00  0.00000000000E+00  0.74634042389E+03  0.74634042391E+03  0.50400001928E-02 0.  1.
        1   -1    0    0  501    0  0.00000000000E+00  0.00000000000E+00 -0.55891063745E+03  0.55891063748E+03  0.50400001928E-02 0. -1.
    10030    2    1    2    0    0  0.00000000000E+00  0.00000000000E+00  0.18742978644E+03  0.13052510614E+04  0.12917238127E+04 0.  0.
        2    1    3    3  502    0 -0.18058690168E+03 -0.56678500325E+03 -0.16047608955E+03  0.61612453635E+03  0.25500000920E-02 0. -1.
       -2    1    3    3    0  502  0.18058690168E+03  0.56678500325E+03  0.34790587599E+03  0.68912652504E+03  0.25500000920E-02 0.  1.
</event>
<event>
 5   0  0.1430636E-04  0.1300935E+04  0.7818609E-02  0.9028824E-01
       -1   -1    0    0    0  501  0.00000000000E+00  0.00000000000E+00  0.53134049387E+03  0.53134049389E+03  0.50400001928E-02 0. -1.
        1   -1    0    0  501    0  0.00000000000E+00  0.00000000000E+00 -0.79630228991E+03  0.79630228992E+03  0.50400001928E-02 0.  1.
    10030    2    1    2    0    0  0.00000000000E+00  0.00000000000E+00 -0.26496179604E+03  0.13276427838E+04  0.13009345134E+04 0.  0.
        4    1    3    3  502    0 -0.64135243317E+03 -0.99867585541E+02 -0.89188755184E+02  0.65518144443E+03  0.12699999809E+01 0. -1.
       -4    1    3    3    0  502  0.64135243317E+03  0.99867585541E+02 -0.17577304085E+03  0.67246133939E+03  0.12699999809E+01 0.  1.
</event>
<event>
 5   0  0.2794825E-04  0.1298520E+04  0.7818609E-02  0.9030739E-01
        2   -1    0    0  501    0  0.00000000000E+00  0.00000000000E+00  0.77773484520E+03  0.77773484520E+03  0.25500000920E-02 0.  1.
       -2   -1    0    0    0  501  0.00000000000E+00  0.00000000000E+00 -0.54200846559E+03  0.54200846559E+03  0.25500000920E-02 0. -1.
    10030    2    1    2    0    0  0.00000000000E+00  0.00000000000E+00  0.23572637961E+03  0.13197433108E+04  0.12985204967E+04 0.  0.
        1    1    3    3  502    0 -0.30607552230E+03 -0.46859429292E+03 -0.21656804226E+03  0.60013711238E+03  0.50400001928E-02 0. -1.
       -1    1    3    3    0  502  0.30607552230E+03  0.46859429292E+03  0.45229442187E+03  0.71960619841E+03  0.50400001928E-02 0.  1.
</event>
<event>
 5   0  0.2573071E-04  0.1302534E+04  0.7818609E-02  0.9027558E-01
        2   -1    0    0  501    0  0.00000000000E+00  0.00000000000E+00  0.65688654733E+03  0.65688654733E+03  0.25500000920E-02 0.  1.
       -2   -1    0    0    0  501  0.00000000000E+00  0.00000000000E+00 -0.64569527486E+03  0.64569527487E+03  0.25500000920E-02 0. -1.
    10030    2    1    2    0    0  0.00000000000E+00  0.00000000000E+00  0.11191272467E+02  0.13025818222E+04  0.13025337458E+04 0.  0.
        4    1    3    3  502    0 -0.40439261743E+03 -0.25228076621E+03 -0.43823146210E+03  0.64747772263E+03  0.12699999809E+01 0. -1.
       -4    1    3    3    0  502  0.40439261743E+03  0.25228076621E+03  0.44942273457E+03  0.65510409957E+03  0.12699999809E+01 0.  1.
</event>
<event>
 5   0  0.1475396E-04  0.1301154E+04  0.7818609E-02  0.9028651E-01
        1   -1    0    0  501    0  0.00000000000E+00  0.00000000000E+00  0.10379385529E+04  0.10379385529E+04  0.50400001928E-02 0.  1.
       -1   -1    0    0    0  501  0.00000000000E+00  0.00000000000E+00 -0.40777981766E+03  0.40777981769E+03  0.50400001928E-02 0. -1.
    10030    2    1    2    0    0  0.00000000000E+00  0.00000000000E+00  0.63015873519E+03  0.14457183706E+04  0.13011539399E+04 0.  0.
        3    1    3    3  502    0  0.59275167542E+03  0.90313539481E+00  0.61300263390E+03  0.85271777496E+03  0.10100000352E+00 0.  1.
       -3    1    3    3    0  502 -0.59275167542E+03 -0.90313539481E+00  0.17156101297E+02  0.59300059560E+03  0.10100000352E+00 0. -1.
</event>
<event>
 5   0  0.2756984E-04  0.1303617E+04  0.7818609E-02  0.9026702E-01
       -2   -1    0    0    0  501  0.00000000000E+00  0.00000000000E+00  0.38244870005E+03  0.38244870006E+03  0.25500000920E-02 0. -1.
        2   -1    0    0  501    0  0.00000000000E+00  0.00000000000E+00 -0.11108796398E+04  0.11108796398E+04  0.25500000920E-02 0.  1.
    10030    2    1    2    0    0  0.00000000000E+00  0.00000000000E+00 -0.72843093972E+03  0.14933283398E+04  0.13036172355E+04 0.  0.
        3    1    3    3  502    0  0.39729139049E+03  0.46517136636E+02 -0.95374469851E+03  0.10342307543E+04  0.10100000352E+00 0.  1.
       -3    1    3    3    0  502 -0.39729139049E+03 -0.46517136636E+02  0.22531375879E+03  0.45909758555E+03  0.10100000352E+00 0. -1.
</event>
<event>
 5   0  0.1475396E-04  0.1296335E+04  0.7818609E-02  0.9032476E-01
        1   -1    0    0  501    0  0.00000000000E+00  0.00000000000E+00  0.86799684241E+03  0.86799684242E+03  0.50400001928E-02 0. -1.
       -1   -1    0    0    0  501  0.00000000000E+00  0.00000000000E+00 -0.48401261459E+03  0.48401261461E+03  0.50400001928E-02 0.  1.
    10030    2    1    2    0    0  0.00000000000E+00  0.00000000000E+00  0.38398422782E+03  0.13520094570E+04  0.12963354831E+04 0.  0.
        3    1    3    3  502    0 -0.41413448915E+03 -0.38308633498E+03  0.52485226256E+03  0.77054034473E+03  0.10100000352E+00 0. -1.
       -3    1    3    3    0  502  0.41413448915E+03  0.38308633498E+03 -0.14086803473E+03  0.58146911230E+03  0.10100000352E+00 0.  1.
</event>
<event>
 5   0  0.1476511E-04  0.1298798E+04  0.7818609E-02  0.9030519E-01
        1   -1    0    0  501    0  0.00000000000E+00  0.00000000000E+00  0.73748024022E+03  0.73748024024E+03  0.50400001928E-02 0.  1.
       -1   -1    0    0    0  501  0.00000000000E+00  0.00000000000E+00 -0.57183759349E+03  0.57183759351E+03  0.50400001928E-02 0. -1.
    10030    2    1    2    0    0  0.00000000000E+00  0.00000000000E+00  0.16564264673E+03  0.13093178338E+04  0.12987977916E+04 0.  0.
        2    1    3    3  502    0 -0.19055810433E+03 -0.54568043123E+03 -0.21561607391E+03  0.61690340855E+03  0.25500000920E-02 0.  1.
       -2    1    3    3    0  502  0.19055810433E+03  0.54568043123E+03  0.38125872064E+03  0.69241442520E+03  0.25500000920E-02 0. -1.
</event>
<event>
 5   0  0.2723209E-04  0.1302270E+04  0.7818609E-02  0.9027767E-01
        2   -1    0    0  501    0  0.00000000000E+00  0.00000000000E+00  0.14785973519E+04  0.14785973519E+04  0.25500000920E-02 0.  1.
       -2   -1    0    0    0  501  0.00000000000E+00  0.00000000000E+00 -0.28674262488E+03  0.28674262489E+03  0.25500000920E-02 0. -1.
    10030    2    1    2    0    0  0.00000000000E+00  0.00000000000E+00  0.11918547270E+04  0.17653399768E+04  0.13022701499E+04 0.  0.
        2    1    3    3  502    0  0.11636261367E+03 -0.44167499940E+03 -0.33158046250E+02  0.45794816191E+03  0.25500000920E-02 0. -1.
       -2    1    3    3    0  502 -0.11636261367E+03  0.44167499940E+03  0.12250127733E+04  0.13073918149E+04  0.25500000920E-02 0.  1.
</event>
<event>
 5   0  0.1408341E-04  0.1296698E+04  0.7818609E-02  0.9032188E-01
        1   -1    0    0  501    0  0.00000000000E+00  0.00000000000E+00  0.12266442869E+04  0.12266442869E+04  0.50400001928E-02 0. -1.
       -1   -1    0    0    0  501  0.00000000000E+00  0.00000000000E+00 -0.34268798454E+03  0.34268798457E+03  0.50400001928E-02 0.  1.
    10030    2    1    2    0    0  0.00000000000E+00  0.00000000000E+00  0.88395630234E+03  0.15693322715E+04  0.12966977419E+04 0.  0.
        5    1    3    3  502    0 -0.49939741637E+03  0.41336124533E+03  0.43193452231E+03  0.77900887041E+03  0.46999998093E+01 0.  1.
       -5    1    3    3    0  502  0.49939741637E+03 -0.41336124533E+03  0.45202178003E+03  0.79032340105E+03  0.46999998093E+01 0. -1.
</event>
<event>
 5   0  0.1479690E-04  0.1305133E+04  0.7818609E-02  0.9025504E-01
        1   -1    0    0  501    0  0.00000000000E+00  0.00000000000E+00  0.96134183644E+03  0.96134183645E+03  0.50400001928E-02 0. -1.
       -1   -1    0    0    0  501  0.00000000000E+00  0.00000000000E+00 -0.44296749784E+03  0.44296749786E+03  0.50400001928E-02 0.  1.
    10030    2    1    2    0    0  0.00000000000E+00  0.00000000000E+00  0.51837433861E+03  0.14043093343E+04  0.13051332313E+04 0.  0.
        1    1    3    3  502    0  0.35742249591E+03  0.39293827910E+03 -0.14868494304E+03  0.55159635974E+03  0.50400001928E-02 0.  1.
       -1    1    3    3    0  502 -0.35742249591E+03 -0.39293827910E+03  0.66705928164E+03  0.85271297458E+03  0.50400001928E-02 0. -1.
</event>
<event>
 5   0  0.2573071E-04  0.1293188E+04  0.7818609E-02  0.9034985E-01
       -2   -1    0    0    0  501  0.00000000000E+00  0.00000000000E+00  0.40881422221E+03  0.40881422222E+03  0.25500000920E-02 0.  1.
        2   -1    0    0  501    0  0.00000000000E+00  0.00000000000E+00 -0.10226738619E+04  0.10226738619E+04  0.25500000920E-02 0. -1.
    10030    2    1    2    0    0  0.00000000000E+00  0.00000000000E+00 -0.61385963973E+03  0.14314880842E+04  0.12931877195E+04 0.  0.
        4    1    3    3  502    0 -0.42672277198E+03  0.38478868080E+03 -0.63516729740E+03  0.85650088241E+03  0.12699999809E+01 0. -1.
       -4    1    3    3    0  502  0.42672277198E+03 -0.38478868080E+03  0.21307657669E+02  0.57498720174E+03  0.12699999809E+01 0.  1.
</event>
<event>
 5   0  0.1479690E-04  0.1301759E+04  0.7818609E-02  0.9028171E-01
       -1   -1    0    0    0  501  0.00000000000E+00  0.00000000000E+00  0.15321121357E+04  0.15321121357E+04  0.50400001928E-02 0.  1.
        1   -1    0    0  501    0  0.00000000000E+00  0.00000000000E+00 -0.27651001117E+03  0.27651001122E+03  0.50400001928E-02 0. -1.
    10030    2    1    2    0    0  0.00000000000E+00  0.00000000000E+00  0.12556021246E+04  0.18086221470E+04  0.13017593385E+04 0.  0.
        1    1    3    3  502    0  0.13130350473E+03  0.46275401434E+03  0.12370073613E+04  0.13272411613E+04  0.50400001928E-02 0.  1.
       -1    1    3    3    0  502 -0.13130350473E+03 -0.46275401434E+03  0.18594763223E+02  0.48138098569E+03  0.50400001928E-02 0. -1.
</event>
<event>
 5   0  0.2573071E-04  0.1299805E+04  0.7818609E-02  0.9029720E-01
       -2   -1    0    0    0  501  0.00000000000E+00  0.00000000000E+00  0.29271368976E+03  0.29271368977E+03  0.25500000920E-02 0. -1.
        2   -1    0    0  501    0  0.00000000000E+00  0.00000000000E+00 -0.14429566506E+04  0.14429566506E+04  0.25500000920E-02 0.  1.
    10030    2    1    2    0    0  0.00000000000E+00  0.00000000000E+00 -0.11502429608E+04  0.17356703403E+04  0.12998048551E+04 0.  0.
        4    1    3    3  502    0 -0.53257789602E+03 -0.32701657518E+03 -0.33702586123E+03  0.71004725181E+03  0.12699999809E+01 0.  1.
       -4    1    3    3    0  502  0.53257789602E+03  0.32701657518E+03 -0.81321709957E+03  0.10256230885E+04  0.12699999809E+01 0. -1.
</event>
<event>
 5   0  0.2661377E-04  0.1299636E+04  0.7818609E-02  0.9029854E-01
        2   -1    0    0  501    0  0.00000000000E+00  0.00000000000E+00  0.71548510098E+03  0.71548510099E+03  0.25500000920E-02 0. -1.
       -2   -1    0    0    0  501  0.00000000000E+00  0.00000000000E+00 -0.59017771356E+03  0.59017771356E+03  0.25500000920E-02 0.  1.
    10030    2    1    2    0    0  0.00000000000E+00  0.00000000000E+00  0.12530738742E+03  0.13056628145E+04  0.12996358890E+04 0.  0.
        5    1    3    3  502    0  0.53712597399E+02 -0.25221537991E+03  0.66186211172E+03  0.71033878249E+03  0.46999998093E+01 0. -1.
       -5    1    3    3    0  502 -0.53712597399E+02  0.25221537991E+03 -0.53655472430E+03  0.59532403206E+03  0.46999998093E+01 0.  1.
</event>
<event>
 5   0  0.1430636E-04  0.1300676E+04  0.7818609E-02  0.9029029E-01
        1   -1    0    0  501    0  0.00000000000E+00  0.00000000000E+00  0.22462253844E+04  0.22462253845E+04  0.50400001928E-02 0. -1.
       -1   -1    0    0    0  501  0.00000000000E+00  0.00000000000E+00 -0.18828892835E+03  0.18828892842E+03  0.50400001928E-02 0.  1.
    10030    2    1    2    0    0  0.00000000000E+00  0.00000000000E+00  0.20579364561E+04  0.24345143129E+04  0.13006757791E+04 0.  0.
        4    1    3    3  502    0  0.46978083387E+03 -0.48989537275E+02  0.19223201430E+03  0.50994976896E+03  0.12699999809E+01 0.  1.
       -4    1    3    3    0  502 -0.46978083387E+03  0.48989537275E+02  0.18657044418E+04  0.19245645439E+04  0.12699999809E+01 0. -1.
</event>
<event>
 5   0  0.2661377E-04  0.1300370E+04  0.7818609E-02  0.9029272E-01
        2   -1    0    0  501    0  0.00000000000E+00  0.00000000000E+00  0.91701274855E+03  0.91701274856E+03  0.25500000920E-02 0. -1.
       -2   -1    0    0    0  501  0.00000000000E+00  0.00000000000E+00 -0.46099765576E+03  0.46099765577E+03  0.25500000920E-02 0.  1.
    10030    2    1    2    0    0  0.00000000000E+00  0.00000000000E+00  0.45601509279E+03  0.13780104043E+04  0.13003702971E+04 0.  0.
        5    1    3    3  502    0  0.58033664041E+03 -0.25443433928E+03  0.73744071486E+02  0.63795589760E+03  0.46999998093E+01 0. -1.
       -5    1    3    3    0  502 -0.58033664041E+03  0.25443433928E+03  0.38227102130E+03  0.74005450673E+03  0.46999998093E+01 0.  1.
</event>
<event>
 5   0  0.1476511E-04  0.1306910E+04  0.7818609E-02  0.9024103E-01
        1   -1    0    0  501    0  0.00000000000E+00  0.00000000000E+00  0.17684019535E+04  0.17684019535E+04  0.50400001928E-02 0. -1.
       -1   -1    0    0    0  501  0.00000000000E+00  0.00000000000E+00 -0.24146287326E+03  0.24146287332E+03  0.50400001928E-02 0.  1.
    10030    2    1    2    0    0  0.00000000000E+00  0.00000000000E+00  0.15269390802E+04  0.20098648268E+04  0.13069099691E+04 0.  0.
        2    1    3    3  502    0 -0.24450198221E+03 -0.47185276810E+03  0.13482206140E+04  0.14491808300E+04  0.25500000920E-02 0. -1.
       -2    1    3    3    0  502  0.24450198221E+03  0.47185276810E+03  0.17871846620E+03  0.56068399677E+03  0.25500000920E-02 0.  1.
</event>
<event>
 5   0  0.2723209E-04  0.1302061E+04  0.7818609E-02  0.9027932E-01
        2   -1    0    0  501    0  0.00000000000E+00  0.00000000000E+00  0.40117417530E+03  0.40117417531E+03  0.25500000920E-02 0.  1.
       -2   -1    0    0    0  501  0.00000000000E+00  0.00000000000E+00 -0.10565010650E+04  0.10565010650E+04  0.25500000920E-02 0. -1.
    10030    2    1    2    0    0  0.00000000000E+00  0.00000000000E+00 -0.65532688967E+03  0.14576752403E+04  0.13020613556E+04 0.  0.
        2    1    3    3  502    0  0.34857204552E+03 -0.38058255742E+02  0.28642826539E+03  0.45276048079E+03  0.25500000920E-02 0.  1.
       -2    1    3    3    0  502 -0.34857204552E+03  0.38058255742E+02 -0.94175515506E+03  0.10049147595E+04  0.25500000920E-02 0. -1.
</event>
<event>
 5   0  0.1408341E-04  0.1301761E+04  0.7818609E-02  0.9028170E-01
       -1   -1    0    0    0  501  0.00000000000E+00  0.00000000000E+00  0.39272272082E+03  0.39272272085E+03  0.50400001928E-02 0.  1.
        1   -1    0    0  501    0  0.00000000000E+00  0.00000000000E+00 -0.10787392247E+04  0.10787392247E+04  0.50400001928E-02 0. -1.
    10030    2    1    2    0    0  0.00000000000E+00  0.00000000000E+00 -0.68601650390E+03  0.14714619456E+04  0.13017609664E+04 0.  0.
        5    1    3    3  502    0  0.16653937741E+03  0.17699084898E+03 -0.10255097381E+04  0.10539228804E+04  0.46999998093E+01 0. -1.
       -5    1    3    3    0  502 -0.16653937741E+03 -0.17699084898E+03  0.33949323424E+03  0.41753906517E+03  0.46999998093E+01 0.  1.
</event>
</LesHouchesEvents>
