<LesHouchesEvents version="3.0">
<header>
<!--
#*********************************************************************
#                                                                    *
#                        MadGraph5_aMC@NLO                           *
#                                                                    *
#                           Going Beyond                             *
#                                                                    *
#                   http://madgraph.hep.uiuc.edu                     *
#                   http://madgraph.phys.ucl.ac.be                   *
#                   http://amcatnlo.cern.ch                          *
#                                                                    *
#                     The MadGraph5_aMC@NLO team                     *
#                                                                    *
#....................................................................*
#                                                                    *
# This file contains all the information necessary to reproduce      *
# the events generated:                                              *
#                                                                    *
# 1. software version                                                *
# 2. proc_card          : code generation info including model       *
# 3. param_card         : model primary parameters in the LH format  *
# 4. run_card           : running parameters (collider and cuts)     *
# 5. pythia_card        : present only if pythia has been run        *
# 6. pgs_card           : present only if pgs has been run           *
# 7. delphes_cards      : present only if delphes has been run       *
#                                                                    *
#                                                                    *
#*********************************************************************
-->
<MGVersion>
#5.2.2.3
</MGVersion>
<MG5ProcCard>
#************************************************************
#*                     MadGraph5_aMC@NLO                    *
#*                                                          *
#*                *                       *                 *
#*                  *        * *        *                   *
#*                    * * * * 5 * * * *                     *
#*                  *        * *        *                   *
#*                *                       *                 *
#*                                                          *
#*                                                          *
#*         VERSION 2.2.3                 2015-02-10         *
#*                                                          *
#*    The MadGraph5_aMC@NLO Development Team - Find us at   *
#*    https://server06.fynu.ucl.ac.be/projects/madgraph     *
#*                                                          *
#************************************************************
#*                                                          *
#*               Command File for MadGraph5_aMC@NLO         *
#*                                                          *
#*     run as ./bin/mg5_aMC  filename                       *
#*                                                          *
#************************************************************
set group_subprocesses Auto
set ignore_six_quark_processes False
set loop_optimized_output True
set gauge unitary
set complex_mass_scheme False
import model sm
define p = g u c d s u~ c~ d~ s~
define j = g u c d s u~ c~ d~ s~
define l+ = e+ mu+
define l- = e- mu-
define vl = ve vm vt
define vl~ = ve~ vm~ vt~
import model Zprime_UFO
generate p p > zph, zph > j j
add process p p > zph, zph > b b~
output Dijet_signal
</MG5ProcCard>
<MGProcCard>
#*********************************************************************
#                        MadGraph/MadEvent                           *
#                   http://madgraph.hep.uiuc.edu                     *
#                                                                    *
#                          proc_card.dat                             *
#*********************************************************************
#                                                                    *
#            This Files is generated by MADGRAPH 5                   *
#                                                                    *
# WARNING: This Files is generated for MADEVENT (compatibility issue)*
#          This files is NOT a valid MG4 proc_card.dat               *
#          Running this in MG4 will NEVER reproduce the result of MG5*
#                                                                    *
#*********************************************************************
#*********************************************************************
# Process(es) requested : mg2 input                                  *
#*********************************************************************
# Begin PROCESS # This is TAG. Do not modify this line
p p > zph , zph > j j           #Process
# Be carefull the coupling are here in MG5 convention
          
end_coup           # End the couplings input

done               # this tells MG there are no more procs
# End PROCESS  # This is TAG. Do not modify this line
#*********************************************************************
# Model information                                                  *
#*********************************************************************
# Begin MODEL  # This is TAG. Do not modify this line
Zprime_UFO
# End   MODEL  # This is TAG. Do not modify this line
#*********************************************************************
# Start multiparticle definitions                                    *
#*********************************************************************
# Begin MULTIPARTICLES # This is TAG. Do not modify this line

# End  MULTIPARTICLES # This is TAG. Do not modify this line
</MGProcCard>
<MGRunCard>
#*********************************************************************
#                       MadGraph5_aMC@NLO                            *
#                                                                    *
#                     run_card.dat MadEvent                          *
#                                                                    *
#  This file is used to set the parameters of the run.               *
#                                                                    *
#  Some notation/conventions:                                        *
#                                                                    *
#   Lines starting with a '# ' are info or comments                  *
#                                                                    *
#   mind the format:   value    = variable     ! comment             *
#*********************************************************************
#
#*******************                                                 
# Running parameters
#*******************                                                 
#                                                                    
#*********************************************************************
# Tag name for the run (one word)                                    *
#*********************************************************************
  tag_1     = run_tag ! name of the run 
#*********************************************************************
# Run to generate the grid pack                                      *
#*********************************************************************
  .false.     = gridpack  !True = setting up the grid pack
#*********************************************************************
# Number of events and rnd seed                                      *
# Warning: Do not generate more than 1M events in a single run       *
# If you want to run Pythia, avoid more than 50k events in a run.    *
#*********************************************************************
  2000 = nevents ! Number of unweighted events requested 
 1632 = iseed   ! rnd seed (0=assigned automatically=default))
#*********************************************************************
# Collider type and energy                                           *
# lpp: 0=No PDF, 1=proton, -1=antiproton, 2=photon from proton,      *
#                                         3=photon from electron     *
#*********************************************************************
        1     = lpp1    ! beam 1 type 
        1     = lpp2    ! beam 2 type
     4000     = ebeam1  ! beam 1 total energy in GeV
     4000     = ebeam2  ! beam 2 total energy in GeV
#*********************************************************************
# Beam polarization from -100 (left-handed) to 100 (right-handed)    *
#*********************************************************************
        0     = polbeam1 ! beam polarization for beam 1
        0     = polbeam2 ! beam polarization for beam 2
#*********************************************************************
# PDF CHOICE: this automatically fixes also alpha_s and its evol.    *
#*********************************************************************
 'nn23lo1'    = pdlabel     ! PDF set                                     
 230000    = lhaid     ! if pdlabel=lhapdf, this is the lhapdf number
#*********************************************************************
# Renormalization and factorization scales                           *
#*********************************************************************
 F        = fixed_ren_scale  ! if .true. use fixed ren scale
 F        = fixed_fac_scale  ! if .true. use fixed fac scale
 91.1880  = scale            ! fixed ren scale
 91.1880  = dsqrt_q2fact1    ! fixed fact scale for pdf1
 91.1880  = dsqrt_q2fact2    ! fixed fact scale for pdf2
 1        = scalefact        ! scale factor for event-by-event scales
#*********************************************************************
# Matching - Warning! ickkw > 1 is still beta
#*********************************************************************
 0        = ickkw            ! 0 no matching, 1 MLM, 2 CKKW matching
 1        = highestmult      ! for ickkw=2, highest mult group
 1        = ktscheme         ! for ickkw=1, 1 Durham kT, 2 Pythia pTE
 1        = alpsfact         ! scale factor for QCD emission vx
 F        = chcluster        ! cluster only according to channel diag
 T        = pdfwgt           ! for ickkw=1, perform pdf reweighting
 5        = asrwgtflavor     ! highest quark flavor for a_s reweight
 T        = clusinfo         ! include clustering tag in output
 3.0      = lhe_version       ! Change the way clustering information pass to shower.        
#*********************************************************************
#**********************************************************
#
#**********************************************************
# Automatic ptj and mjj cuts if xqcut > 0
# (turn off for VBF and single top processes)
#**********************************************************
   T  = auto_ptj_mjj  ! Automatic setting of ptj and mjj
#**********************************************************
#                                                                    
#**********************************
# BW cutoff (M+/-bwcutoff*Gamma)
#**********************************
  15  = bwcutoff      ! (M+/-bwcutoff*Gamma)
#**********************************************************
# Apply pt/E/eta/dr/mij cuts on decay products or not
# (note that etmiss/ptll/ptheavy/ht/sorted cuts always apply)
#**********************************************************
   T  = cut_decays    ! Cut decay products 
#*************************************************************
# Number of helicities to sum per event (0 = all helicities)
# 0 gives more stable result, but longer run time (needed for
# long decay chains e.g.).
# Use >=2 if most helicities contribute, e.g. pure QCD.
#*************************************************************
   0  = nhel          ! Number of helicities used per event
#*******************                                                 
# Standard Cuts
#*******************                                                 
#                                                                    
#*********************************************************************
# Minimum and maximum pt's (for max, -1 means no cut)                *
#*********************************************************************
 20  = ptj       ! minimum pt for the jets 
  0  = ptb       ! minimum pt for the b 
 10  = pta       ! minimum pt for the photons 
 10  = ptl       ! minimum pt for the charged leptons 
  0  = misset    ! minimum missing Et (sum of neutrino's momenta)
  0  = ptheavy   ! minimum pt for one heavy final state
 1.0 = ptonium   ! minimum pt for the quarkonium states
 -1  = ptjmax    ! maximum pt for the jets
 -1  = ptbmax    ! maximum pt for the b
 -1  = ptamax    ! maximum pt for the photons
 -1  = ptlmax    ! maximum pt for the charged leptons
 -1  = missetmax ! maximum missing Et (sum of neutrino's momenta)
#*********************************************************************
# Minimum and maximum E's (in the center of mass frame)              *
#*********************************************************************
  0  = ej     ! minimum E for the jets 
  0  = eb     ! minimum E for the b 
  0  = ea     ! minimum E for the photons 
  0  = el     ! minimum E for the charged leptons 
 -1   = ejmax ! maximum E for the jets
 -1   = ebmax ! maximum E for the b
 -1   = eamax ! maximum E for the photons
 -1   = elmax ! maximum E for the charged leptons
#*********************************************************************
# Maximum and minimum absolute rapidity (for max, -1 means no cut)   *
#*********************************************************************
   5  = etaj    ! max rap for the jets 
  -1  = etab    ! max rap for the b
 2.5  = etaa    ! max rap for the photons 
 2.5  = etal    ! max rap for the charged leptons 
 0.6  = etaonium ! max rap for the quarkonium states
   0  = etajmin ! min rap for the jets
   0  = etabmin ! min rap for the b
   0  = etaamin ! min rap for the photons
   0  = etalmin ! main rap for the charged leptons
#*********************************************************************
# Minimum and maximum DeltaR distance                                *
#*********************************************************************
 0.4 = drjj    ! min distance between jets 
 0   = drbb    ! min distance between b's 
 0.4 = drll    ! min distance between leptons 
 0.4 = draa    ! min distance between gammas 
 0   = drbj    ! min distance between b and jet 
 0.4 = draj    ! min distance between gamma and jet 
 0.4 = drjl    ! min distance between jet and lepton 
 0   = drab    ! min distance between gamma and b 
 0   = drbl    ! min distance between b and lepton 
 0.4 = dral    ! min distance between gamma and lepton 
 -1  = drjjmax ! max distance between jets
 -1  = drbbmax ! max distance between b's
 -1  = drllmax ! max distance between leptons
 -1  = draamax ! max distance between gammas
 -1  = drbjmax ! max distance between b and jet
 -1  = drajmax ! max distance between gamma and jet
 -1  = drjlmax ! max distance between jet and lepton
 -1  = drabmax ! max distance between gamma and b
 -1  = drblmax ! max distance between b and lepton
 -1  = dralmax ! maxdistance between gamma and lepton
#*********************************************************************
# Minimum and maximum invariant mass for pairs                       *
# WARNING: for four lepton final state mmll cut require to have      *
#          different lepton masses for each flavor!                  *           
#*********************************************************************
 0   = mmjj    ! min invariant mass of a jet pair 
 0   = mmbb    ! min invariant mass of a b pair 
 0   = mmaa    ! min invariant mass of gamma gamma pair
 0   = mmll    ! min invariant mass of l+l- (same flavour) lepton pair
 -1  = mmjjmax ! max invariant mass of a jet pair
 -1  = mmbbmax ! max invariant mass of a b pair
 -1  = mmaamax ! max invariant mass of gamma gamma pair
 -1  = mmllmax ! max invariant mass of l+l- (same flavour) lepton pair
#*********************************************************************
# Minimum and maximum invariant mass for all letpons                 *
#*********************************************************************
 0   = mmnl    ! min invariant mass for all letpons (l+- and vl) 
 -1  = mmnlmax ! max invariant mass for all letpons (l+- and vl) 
#*********************************************************************
# Minimum and maximum pt for 4-momenta sum of leptons                *
#*********************************************************************
 0   = ptllmin  ! Minimum pt for 4-momenta sum of leptons(l and vl)
 -1  = ptllmax  ! Maximum pt for 4-momenta sum of leptons(l and vl)
#*********************************************************************
# Inclusive cuts                                                     *
#*********************************************************************
 0  = xptj ! minimum pt for at least one jet  
 0  = xptb ! minimum pt for at least one b 
 0  = xpta ! minimum pt for at least one photon 
 0  = xptl ! minimum pt for at least one charged lepton 
#*********************************************************************
# Control the pt's of the jets sorted by pt                          *
#*********************************************************************
 0   = ptj1min ! minimum pt for the leading jet in pt
 0   = ptj2min ! minimum pt for the second jet in pt
 0   = ptj3min ! minimum pt for the third jet in pt
 0   = ptj4min ! minimum pt for the fourth jet in pt
 -1  = ptj1max ! maximum pt for the leading jet in pt 
 -1  = ptj2max ! maximum pt for the second jet in pt
 -1  = ptj3max ! maximum pt for the third jet in pt
 -1  = ptj4max ! maximum pt for the fourth jet in pt
 0   = cutuse  ! reject event if fails any (0) / all (1) jet pt cuts
#*********************************************************************
# Control the pt's of leptons sorted by pt                           *
#*********************************************************************
 0   = ptl1min ! minimum pt for the leading lepton in pt
 0   = ptl2min ! minimum pt for the second lepton in pt
 0   = ptl3min ! minimum pt for the third lepton in pt
 0   = ptl4min ! minimum pt for the fourth lepton in pt
 -1  = ptl1max ! maximum pt for the leading lepton in pt 
 -1  = ptl2max ! maximum pt for the second lepton in pt
 -1  = ptl3max ! maximum pt for the third lepton in pt
 -1  = ptl4max ! maximum pt for the fourth lepton in pt
#*********************************************************************
# Control the Ht(k)=Sum of k leading jets                            *
#*********************************************************************
 0   = htjmin ! minimum jet HT=Sum(jet pt)
 -1  = htjmax ! maximum jet HT=Sum(jet pt)
 0   = ihtmin  !inclusive Ht for all partons (including b)
 -1  = ihtmax  !inclusive Ht for all partons (including b)
 0   = ht2min ! minimum Ht for the two leading jets
 0   = ht3min ! minimum Ht for the three leading jets
 0   = ht4min ! minimum Ht for the four leading jets
 -1  = ht2max ! maximum Ht for the two leading jets
 -1  = ht3max ! maximum Ht for the three leading jets
 -1  = ht4max ! maximum Ht for the four leading jets
#***********************************************************************
# Photon-isolation cuts, according to hep-ph/9801442                   *
# When ptgmin=0, all the other parameters are ignored                  *
# When ptgmin>0, pta and draj are not going to be used                 *
#***********************************************************************
   0 = ptgmin ! Min photon transverse momentum
 0.4 = R0gamma ! Radius of isolation code
 1.0 = xn ! n parameter of eq.(3.4) in hep-ph/9801442
 1.0 = epsgamma ! epsilon_gamma parameter of eq.(3.4) in hep-ph/9801442
 .true. = isoEM ! isolate photons from EM energy (photons and leptons)
#*********************************************************************
# WBF cuts                                                           *
#*********************************************************************
 0   = xetamin ! minimum rapidity for two jets in the WBF case  
 0   = deltaeta ! minimum rapidity for two jets in the WBF case 
#*********************************************************************
# KT DURHAM CUT                                                      *
#*********************************************************************
 -1    =  ktdurham        
 0.4  =  dparameter 
#*********************************************************************
# maximal pdg code for quark to be considered as a light jet         *
# (otherwise b cuts are applied)                                     *
#*********************************************************************
 4 = maxjetflavor    ! Maximum jet pdg code
#*********************************************************************
# Jet measure cuts                                                   *
#*********************************************************************
 0   = xqcut   ! minimum kt jet measure between partons
#*********************************************************************
#
#*********************************************************************
# Store info for systematics studies                                 *
# WARNING: If use_syst is T, matched Pythia output is                *
#          meaningful ONLY if plotted taking matchscale              *
#          reweighting into account!                                 *
#*********************************************************************
   F  = use_syst      ! Enable systematics studies
#
#**************************************
# Parameter of the systematics study
#  will be used by SysCalc (if installed)
#**************************************                                  
#
0.5 1 2 = sys_scalefact  # factorization/renormalization scale factor
0.5 1 2 = sys_alpsfact  # \alpha_s emission scale factors
30 50 = sys_matchscale # variation of merging scale
# PDF sets and number of members (0 or none for all members).
CT10nlo.LHgrid = sys_pdf # matching scales
# MSTW2008nlo68cl.LHgrid 1  = sys_pdf
</MGRunCard>
<slha>
######################################################################
## PARAM_CARD AUTOMATICALY GENERATED BY MG5 FOLLOWING UFO MODEL   ####
######################################################################
##                                                                  ##
##  Width set on Auto will be computed following the information    ##
##        present in the decay.py files of the model.               ##
##        See  arXiv:1402.1178 for more details.                    ##
##                                                                  ##
######################################################################

###################################
## INFORMATION FOR CKMBLOCK
###################################
Block ckmblock 
    1 2.277360e-01 # cabi 

###################################
## INFORMATION FOR FRBLOCK
###################################
Block frblock 
    1 8.000000e-01 # gz 

###################################
## INFORMATION FOR MASS
###################################
Block mass 
    1 5.040000e-03 # MD 
    2 2.550000e-03 # MU 
    3 1.010000e-01 # MS 
    4 1.270000e+00 # MC 
    5 4.700000e+00 # MB 
    6 1.720000e+02 # MT 
   11 5.110000e-04 # Me 
   13 1.056600e-01 # MM 
   15 1.777000e+00 # MTA 
   23 9.118760e+01 # MZ 
   25 1.200000e+02 # MH 
  10030 2.300000e+03 # MZph 
  10031 3.000000e+02 # MZpl 
## Dependent parameters, given by model restrictions.
## Those values should be edited following the 
## analytical expression. MG5 ignores those values 
## but they are important for interfacing the output of MG5
## to external program such as Pythia.
  12 0.000000 # ve : 0.0 
  14 0.000000 # vm : 0.0 
  16 0.000000 # vt : 0.0 
  21 0.000000 # g : 0.0 
  22 0.000000 # a : 0.0 
  24 79.824360 # w+ : cmath.sqrt(MZ__exp__2/2. + cmath.sqrt(MZ__exp__4/4. - (aEW*cmath.pi*MZ__exp__2)/(Gf*sqrt__2))) 

###################################
## INFORMATION FOR SMINPUTS
###################################
Block sminputs 
    1 1.279000e+02 # aEWM1 
    2 1.166370e-05 # Gf 
    3 1.184000e-01 # aS 

###################################
## INFORMATION FOR YUKAWA
###################################
Block yukawa 
    1 5.040000e-03 # ymdo 
    2 2.550000e-03 # ymup 
    3 1.010000e-01 # yms 
    4 1.270000e+00 # ymc 
    5 4.700000e+00 # ymb 
    6 1.720000e+02 # ymt 
   11 5.110000e-04 # yme 
   13 1.056600e-01 # ymm 
   15 1.777000e+00 # ymtau 

###################################
## INFORMATION FOR DECAY
###################################
DECAY   6 1.508336e+00 # WT 
DECAY  23 2.495200e+00 # WZ 
DECAY  24 2.085000e+00 # WW 
DECAY  25 5.753088e-03 # WH 
## Dependent parameters, given by model restrictions.
## Those values should be edited following the 
## analytical expression. MG5 ignores those values 
## but they are important for interfacing the output of MG5
## to external program such as Pythia.
DECAY  1 0.000000 # d : 0.0 
DECAY  2 0.000000 # u : 0.0 
DECAY  3 0.000000 # s : 0.0 
DECAY  4 0.000000 # c : 0.0 
DECAY  5 0.000000 # b : 0.0 
DECAY  11 0.000000 # e- : 0.0 
DECAY  12 0.000000 # ve : 0.0 
DECAY  13 0.000000 # mu- : 0.0 
DECAY  14 0.000000 # vm : 0.0 
DECAY  15 0.000000 # ta- : 0.0 
DECAY  16 0.000000 # vt : 0.0 
DECAY  21 0.000000 # g : 0.0 
DECAY  22 0.000000 # a : 0.0 
DECAY  10030 0.308725 # zph : (gz__exp__2*MZph*(5 + cmath.sqrt(1 - (4*MT__exp__2)/MZph__exp__2)))/(144.*cmath.pi) 
DECAY  10031 0.132629 # zpl : (5*gz__exp__2*MZpl)/(144.*cmath.pi) 
#===========================================================
# QUANTUM NUMBERS OF NEW STATE(S) (NON SM PDG CODE)
#===========================================================

Block QNUMBERS 10030  # zph 
        1 0  # 3 times electric charge
        2 3  # number of spin states (2S+1)
        3 1  # colour rep (1: singlet, 3: triplet, 8: octet)
        4 0  # Particle/Antiparticle distinction (0=own anti)
Block QNUMBERS 10031  # zpl 
        1 0  # 3 times electric charge
        2 3  # number of spin states (2S+1)
        3 1  # colour rep (1: singlet, 3: triplet, 8: octet)
        4 0  # Particle/Antiparticle distinction (0=own anti)
</slha>
## END BANNER##
<MGGenerationInfo>
#  Number of Events        :         3900
#  Integrated weight (pb)  :  0.81376E-02
#  Max wgt                 :  0.29942E-05
#  Average wgt             :  0.20866E-05
</MGGenerationInfo>
</header>
<init>
     2212     2212  0.40000000000E+04  0.40000000000E+04 0 0  247000  247000 2   1
  0.81434562340E-02  0.18046978191E-04  0.29941570000E-05   0
</init>
<event>
 5   0  0.2816178E-05  0.2287177E+04  0.7818609E-02  0.8482994E-01
        2   -1    0    0  501    0  0.00000000000E+00  0.00000000000E+00  0.19766273264E+04  0.19766273264E+04  0.25500000920E-02 0. -1.
       -2   -1    0    0    0  501  0.00000000000E+00  0.00000000000E+00 -0.66162961369E+03  0.66162961369E+03  0.25500000920E-02 0.  1.
    10030    2    1    2    0    0  0.00000000000E+00  0.00000000000E+00  0.13149977127E+04  0.26382569401E+04  0.22871774521E+04 0.  0.
        1    1    3    3  502    0 -0.10633015849E+04  0.40044079317E+03  0.80715211784E+03  0.13937207865E+04  0.50400001928E-02 0.  1.
       -1    1    3    3    0  502  0.10633015849E+04 -0.40044079317E+03  0.50784559486E+03  0.12445361536E+04  0.50400001928E-02 0. -1.
</event>
<event>
 5   0  0.2816178E-05  0.2234378E+04  0.7818609E-02  0.8504254E-01
       -2   -1    0    0    0  501  0.00000000000E+00  0.00000000000E+00  0.58620420916E+03  0.58620420916E+03  0.25500000920E-02 0.  1.
        2   -1    0    0  501    0  0.00000000000E+00  0.00000000000E+00 -0.21291413923E+04  0.21291413923E+04  0.25500000920E-02 0. -1.
    10030    2    1    2    0    0  0.00000000000E+00  0.00000000000E+00 -0.15429371831E+04  0.27153456015E+04  0.22343783440E+04 0.  0.
        1    1    3    3  502    0  0.10207055466E+04 -0.29976140953E+03 -0.35682711589E+03  0.11220616321E+04  0.50400001928E-02 0.  1.
       -1    1    3    3    0  502 -0.10207055466E+04  0.29976140953E+03 -0.11861100673E+04  0.15932839694E+04  0.50400001928E-02 0. -1.
</event>
<event>
 5   0  0.2871888E-05  0.2296096E+04  0.7818609E-02  0.8479462E-01
        2   -1    0    0  501    0  0.00000000000E+00  0.00000000000E+00  0.13340819058E+04  0.13340819058E+04  0.25500000920E-02 0.  1.
       -2   -1    0    0    0  501  0.00000000000E+00  0.00000000000E+00 -0.98795575428E+03  0.98795575428E+03  0.25500000920E-02 0. -1.
    10030    2    1    2    0    0  0.00000000000E+00  0.00000000000E+00  0.34612615157E+03  0.23220376601E+04  0.22960957259E+04 0.  0.
        3    1    3    3  502    0  0.28399428780E+02  0.93485274865E+03 -0.50023505903E+03  0.10606560770E+04  0.10100000352E+00 0. -1.
       -3    1    3    3    0  502 -0.28399428780E+02 -0.93485274865E+03  0.84636121060E+03  0.12613815831E+04  0.10100000352E+00 0.  1.
</event>
<event>
 5   0  0.2816178E-05  0.2284095E+04  0.7818609E-02  0.8484219E-01
        2   -1    0    0  501    0  0.00000000000E+00  0.00000000000E+00  0.11753358361E+04  0.11753358361E+04  0.25500000920E-02 0.  1.
       -2   -1    0    0    0  501  0.00000000000E+00  0.00000000000E+00 -0.11097016988E+04  0.11097016988E+04  0.25500000920E-02 0. -1.
    10030    2    1    2    0    0  0.00000000000E+00  0.00000000000E+00  0.65634137304E+02  0.22850375350E+04  0.22840947214E+04 0.  0.
        1    1    3    3  502    0 -0.59317822702E+03  0.26449621773E+02  0.10087771230E+04  0.11705516970E+04  0.50400001928E-02 0.  1.
       -1    1    3    3    0  502  0.59317822702E+03 -0.26449621773E+02 -0.94314298570E+03  0.11144858380E+04  0.50400001928E-02 0. -1.
</event>
<event>
 5   0  0.2871888E-05  0.2318250E+04  0.7818609E-02  0.8470760E-01
       -2   -1    0    0    0  501  0.00000000000E+00  0.00000000000E+00  0.14191983300E+04  0.14191983300E+04  0.25500000920E-02 0.  1.
        2   -1    0    0  501    0  0.00000000000E+00  0.00000000000E+00 -0.94671083281E+03  0.94671083281E+03  0.25500000920E-02 0. -1.
    10030    2    1    2    0    0  0.00000000000E+00  0.00000000000E+00  0.47248749718E+03  0.23659091628E+04  0.23182497130E+04 0.  0.
        3    1    3    3  502    0  0.84825362472E+03 -0.40504504015E+03 -0.45591360358E+03  0.10447262419E+04  0.10100000352E+00 0. -1.
       -3    1    3    3    0  502 -0.84825362472E+03  0.40504504015E+03  0.92840110075E+03  0.13211829209E+04  0.10100000352E+00 0.  1.
</event>
<event>
 5   0  0.1327820E-05  0.2308157E+04  0.7818609E-02  0.8474712E-01
       -1   -1    0    0    0  501  0.00000000000E+00  0.00000000000E+00  0.69713691004E+03  0.69713691006E+03  0.50400001928E-02 0. -1.
        1   -1    0    0  501    0  0.00000000000E+00  0.00000000000E+00 -0.19105237910E+04  0.19105237910E+04  0.50400001928E-02 0.  1.
    10030    2    1    2    0    0  0.00000000000E+00  0.00000000000E+00 -0.12133868809E+04  0.26076607011E+04  0.23081565391E+04 0.  0.
        1    1    3    3  502    0  0.36344162118E+03  0.86858068812E+03  0.14726683019E+03  0.95300038986E+03  0.50400001928E-02 0. -1.
       -1    1    3    3    0  502 -0.36344162118E+03 -0.86858068812E+03 -0.13606537111E+04  0.16546603112E+04  0.50400001928E-02 0.  1.
</event>
<event>
 5   0  0.1371753E-05  0.2285662E+04  0.7818609E-02  0.8483596E-01
       -1   -1    0    0    0  501  0.00000000000E+00  0.00000000000E+00  0.64091724360E+03  0.64091724362E+03  0.50400001928E-02 0.  1.
        1   -1    0    0  501    0  0.00000000000E+00  0.00000000000E+00 -0.20378026813E+04  0.20378026813E+04  0.50400001928E-02 0. -1.
    10030    2    1    2    0    0  0.00000000000E+00  0.00000000000E+00 -0.13968854377E+04  0.26787199249E+04  0.22856621601E+04 0.  0.
        3    1    3    3  502    0  0.72386286582E+03 -0.88431095417E+03 -0.68798951468E+03  0.13339088780E+04  0.10100000352E+00 0.  1.
       -3    1    3    3    0  502 -0.72386286582E+03  0.88431095417E+03 -0.70889592301E+03  0.13448110470E+04  0.10100000352E+00 0. -1.
</event>
<event>
 5   0  0.2816178E-05  0.2274185E+04  0.7818609E-02  0.8488170E-01
        2   -1    0    0  501    0  0.00000000000E+00  0.00000000000E+00  0.15283940282E+04  0.15283940282E+04  0.25500000920E-02 0.  1.
       -2   -1    0    0    0  501  0.00000000000E+00  0.00000000000E+00 -0.84597232758E+03  0.84597232759E+03  0.25500000920E-02 0. -1.
    10030    2    1    2    0    0  0.00000000000E+00  0.00000000000E+00  0.68242170061E+03  0.23743663558E+04  0.22741847361E+04 0.  0.
        1    1    3    3  502    0  0.68398971922E+02  0.50692227629E+03 -0.71906997533E+03  0.88244560343E+03  0.50400001928E-02 0. -1.
       -1    1    3    3    0  502 -0.68398971922E+02 -0.50692227629E+03  0.14014916759E+04  0.14919207524E+04  0.50400001928E-02 0.  1.
</event>
<event>
 5   0  0.1303224E-05  0.2277686E+04  0.7818609E-02  0.8486772E-01
       -1   -1    0    0    0  501  0.00000000000E+00  0.00000000000E+00  0.14685413795E+04  0.14685413795E+04  0.50400001928E-02 0.  1.
        1   -1    0    0  501    0  0.00000000000E+00  0.00000000000E+00 -0.88316405384E+03  0.88316405385E+03  0.50400001928E-02 0. -1.
    10030    2    1    2    0    0  0.00000000000E+00  0.00000000000E+00  0.58537732569E+03  0.23517054334E+04  0.22776856306E+04 0.  0.
        2    1    3    3  502    0  0.66565172011E+02 -0.49602062032E+03 -0.76353973510E+03  0.91294047176E+03  0.25500000920E-02 0. -1.
       -2    1    3    3    0  502 -0.66565172011E+02  0.49602062032E+03  0.13489170608E+04  0.14387649616E+04  0.25500000920E-02 0.  1.
</event>
<event>
 5   0  0.2816178E-05  0.2350429E+04  0.7818609E-02  0.8458299E-01
        2   -1    0    0  501    0  0.00000000000E+00  0.00000000000E+00  0.17331736861E+04  0.17331736861E+04  0.25500000920E-02 0. -1.
       -2   -1    0    0    0  501  0.00000000000E+00  0.00000000000E+00 -0.79687847687E+03  0.79687847687E+03  0.25500000920E-02 0.  1.
    10030    2    1    2    0    0  0.00000000000E+00  0.00000000000E+00  0.93629520923E+03  0.25300521630E+04  0.23504287329E+04 0.  0.
        1    1    3    3  502    0  0.11334476526E+04 -0.27696956243E+03  0.61928074668E+03  0.13209558520E+04  0.50400001928E-02 0. -1.
       -1    1    3    3    0  502 -0.11334476526E+04  0.27696956243E+03  0.31701446255E+03  0.12090963110E+04  0.50400001928E-02 0.  1.
</event>
<event>
 5   0  0.1017200E-05  0.2301698E+04  0.7818609E-02  0.8477252E-01
       -4   -1    0    0    0  501  0.00000000000E+00  0.00000000000E+00  0.11115593189E+04  0.11115600444E+04  0.12699999809E+01 0. -1.
        4   -1    0    0  501    0  0.00000000000E+00  0.00000000000E+00 -0.11915254634E+04  0.11915261402E+04  0.12699999809E+01 0.  1.
    10030    2    1    2    0    0  0.00000000000E+00  0.00000000000E+00 -0.79966144523E+02  0.23030861846E+04  0.23016975018E+04 0.  0.
        4    1    3    3  502    0 -0.65459106529E+03  0.91156167719E+03  0.21515523843E+03  0.11426843587E+04  0.12699999809E+01 0. -1.
       -4    1    3    3    0  502  0.65459106529E+03 -0.91156167719E+03 -0.29512138295E+03  0.11604018259E+04  0.12699999809E+01 0.  1.
</event>
<event>
 5   0  0.2910126E-05  0.2304812E+04  0.7818609E-02  0.8476026E-01
       -2   -1    0    0    0  501  0.00000000000E+00  0.00000000000E+00  0.11685892827E+04  0.11685892827E+04  0.25500000920E-02 0.  1.
        2   -1    0    0  501    0  0.00000000000E+00  0.00000000000E+00 -0.11364470200E+04  0.11364470200E+04  0.25500000920E-02 0. -1.
    10030    2    1    2    0    0  0.00000000000E+00  0.00000000000E+00  0.32142262688E+02  0.23050363027E+04  0.23048121901E+04 0.  0.
        5    1    3    3  502    0 -0.32038108684E+03 -0.31279870207E+03  0.10780268436E+04  0.11673264472E+04  0.46999998093E+01 0.  1.
       -5    1    3    3    0  502  0.32038108684E+03  0.31279870207E+03 -0.10458845809E+04  0.11377098555E+04  0.46999998093E+01 0. -1.
</event>
<event>
 5   0  0.1308224E-05  0.2304019E+04  0.7818609E-02  0.8476338E-01
       -1   -1    0    0    0  501  0.00000000000E+00  0.00000000000E+00  0.53210460240E+03  0.53210460243E+03  0.50400001928E-02 0. -1.
        1   -1    0    0  501    0  0.00000000000E+00  0.00000000000E+00 -0.24941075416E+04  0.24941075416E+04  0.50400001928E-02 0.  1.
    10030    2    1    2    0    0  0.00000000000E+00  0.00000000000E+00 -0.19620029392E+04  0.30262121440E+04  0.23040191855E+04 0.  0.
        5    1    3    3  502    0  0.98832589199E+03 -0.34262939422E+03 -0.16148969277E+04  0.19240834565E+04  0.46999998093E+01 0.  1.
       -5    1    3    3    0  502 -0.98832589199E+03  0.34262939422E+03 -0.34710601145E+03  0.11021286875E+04  0.46999998093E+01 0. -1.
</event>
<event>
 5   0  0.1327820E-05  0.2304741E+04  0.7818609E-02  0.8476054E-01
        1   -1    0    0  501    0  0.00000000000E+00  0.00000000000E+00  0.12758724525E+04  0.12758724525E+04  0.50400001928E-02 0.  1.
       -1   -1    0    0    0  501  0.00000000000E+00  0.00000000000E+00 -0.10408229872E+04  0.10408229872E+04  0.50400001928E-02 0. -1.
    10030    2    1    2    0    0  0.00000000000E+00  0.00000000000E+00  0.23504946531E+03  0.23166954396E+04  0.23047406598E+04 0.  0.
        1    1    3    3  502    0  0.73794680347E+03 -0.68971449392E+03 -0.44004682721E+03  0.11017771000E+04  0.50400001928E-02 0. -1.
       -1    1    3    3    0  502 -0.73794680347E+03  0.68971449392E+03  0.67509629252E+03  0.12149183397E+04  0.50400001928E-02 0.  1.
</event>
<event>
 5   0  0.1371753E-05  0.2301089E+04  0.7818609E-02  0.8477492E-01
        1   -1    0    0  501    0  0.00000000000E+00  0.00000000000E+00  0.15116778379E+04  0.15116778379E+04  0.50400001928E-02 0.  1.
       -1   -1    0    0    0  501  0.00000000000E+00  0.00000000000E+00 -0.87568446957E+03  0.87568446958E+03  0.50400001928E-02 0. -1.
    10030    2    1    2    0    0  0.00000000000E+00  0.00000000000E+00  0.63599336836E+03  0.23873623075E+04  0.23010891384E+04 0.  0.
        3    1    3    3  502    0  0.87870043454E+03  0.73930075276E+03  0.39189016760E+03  0.12133663793E+04  0.10100000352E+00 0.  1.
       -3    1    3    3    0  502 -0.87870043454E+03 -0.73930075276E+03  0.24410320076E+03  0.11739959282E+04  0.10100000352E+00 0. -1.
</event>
<event>
 5   0  0.1371753E-05  0.2164433E+04  0.7818609E-02  0.8533379E-01
       -1   -1    0    0    0  501  0.00000000000E+00  0.00000000000E+00  0.98701910329E+03  0.98701910330E+03  0.50400001928E-02 0. -1.
        1   -1    0    0  501    0  0.00000000000E+00  0.00000000000E+00 -0.11865960147E+04  0.11865960147E+04  0.50400001928E-02 0.  1.
    10030    2    1    2    0    0  0.00000000000E+00  0.00000000000E+00 -0.19957691138E+03  0.21736151180E+04  0.21644333525E+04 0.  0.
        3    1    3    3  502    0 -0.49721337630E+03 -0.16504362628E+03  0.85118819855E+03  0.99949082022E+03  0.10100000352E+00 0. -1.
       -3    1    3    3    0  502  0.49721337630E+03  0.16504362628E+03 -0.10507651099E+04  0.11741242978E+04  0.10100000352E+00 0.  1.
</event>
<event>
 5   0  0.2816178E-05  0.2286647E+04  0.7818609E-02  0.8483205E-01
        2   -1    0    0  501    0  0.00000000000E+00  0.00000000000E+00  0.16082940697E+04  0.16082940697E+04  0.25500000920E-02 0.  1.
       -2   -1    0    0    0  501  0.00000000000E+00  0.00000000000E+00 -0.81277946339E+03  0.81277946339E+03  0.25500000920E-02 0. -1.
    10030    2    1    2    0    0  0.00000000000E+00  0.00000000000E+00  0.79551460633E+03  0.24210735331E+04  0.22866467947E+04 0.  0.
        1    1    3    3  502    0  0.90793238845E+03  0.65270603644E+03  0.14537020688E+03  0.11276075953E+04  0.50400001928E-02 0. -1.
       -1    1    3    3    0  502 -0.90793238845E+03 -0.65270603644E+03  0.65014439945E+03  0.12934659378E+04  0.50400001928E-02 0.  1.
</event>
<event>
 5   0  0.1284837E-05  0.2289925E+04  0.7818609E-02  0.8481904E-01
       -1   -1    0    0    0  501  0.00000000000E+00  0.00000000000E+00  0.65829553788E+03  0.65829553790E+03  0.50400001928E-02 0. -1.
        1   -1    0    0  501    0  0.00000000000E+00  0.00000000000E+00 -0.19914140596E+04  0.19914140596E+04  0.50400001928E-02 0.  1.
    10030    2    1    2    0    0  0.00000000000E+00  0.00000000000E+00 -0.13331185217E+04  0.26497095975E+04  0.22899248805E+04 0.  0.
        4    1    3    3  502    0  0.10684637334E+04 -0.65199224634E+02 -0.11366842532E+04  0.15613834868E+04  0.12699999809E+01 0.  1.
       -4    1    3    3    0  502 -0.10684637334E+04  0.65199224634E+02 -0.19643426852E+03  0.10883261107E+04  0.12699999809E+01 0. -1.
</event>
<event>
 5   0  0.1327820E-05  0.2299017E+04  0.7818609E-02  0.8478309E-01
       -1   -1    0    0    0  501  0.00000000000E+00  0.00000000000E+00  0.10013505971E+04  0.10013505971E+04  0.50400001928E-02 0.  1.
        1   -1    0    0  501    0  0.00000000000E+00  0.00000000000E+00 -0.13195873993E+04  0.13195873993E+04  0.50400001928E-02 0. -1.
    10030    2    1    2    0    0  0.00000000000E+00  0.00000000000E+00 -0.31823680220E+03  0.23209379964E+04  0.22990168596E+04 0.  0.
        1    1    3    3  502    0 -0.93604897190E+03 -0.65179042705E+03 -0.15100557555E+02  0.11407219054E+04  0.50400001928E-02 0.  1.
       -1    1    3    3    0  502  0.93604897190E+03  0.65179042705E+03 -0.30313624465E+03  0.11802160910E+04  0.50400001928E-02 0. -1.
</event>
<event>
 5   0  0.2938972E-05  0.2298098E+04  0.7818609E-02  0.8478672E-01
       -2   -1    0    0    0  501  0.00000000000E+00  0.00000000000E+00  0.15694922186E+04  0.15694922186E+04  0.25500000920E-02 0. -1.
        2   -1    0    0  501    0  0.00000000000E+00  0.00000000000E+00 -0.84123598765E+03  0.84123598765E+03  0.25500000920E-02 0.  1.
    10030    2    1    2    0    0  0.00000000000E+00  0.00000000000E+00  0.72825623093E+03  0.24107282062E+04  0.22980977669E+04 0.  0.
        2    1    3    3  502    0 -0.46647257447E+03 -0.45393762653E+03 -0.62920060844E+03  0.90528969793E+03  0.25500000920E-02 0.  1.
       -2    1    3    3    0  502  0.46647257447E+03  0.45393762653E+03  0.13574568394E+04  0.15054385083E+04  0.25500000920E-02 0. -1.
</event>
<event>
 5   0  0.1371753E-05  0.2276678E+04  0.7818609E-02  0.8487174E-01
       -1   -1    0    0    0  501  0.00000000000E+00  0.00000000000E+00  0.90015097395E+03  0.90015097397E+03  0.50400001928E-02 0.  1.
        1   -1    0    0  501    0  0.00000000000E+00  0.00000000000E+00 -0.14395535511E+04  0.14395535512E+04  0.50400001928E-02 0. -1.
    10030    2    1    2    0    0  0.00000000000E+00  0.00000000000E+00 -0.53940257719E+03  0.23397045251E+04  0.22766778702E+04 0.  0.
        3    1    3    3  502    0  0.18851902052E+03  0.35064963144E+03  0.82627446358E+03  0.91718268872E+03  0.10100000352E+00 0.  1.
       -3    1    3    3    0  502 -0.18851902052E+03 -0.35064963144E+03 -0.13656770408E+04  0.14225218364E+04  0.10100000352E+00 0. -1.
</event>
<event>
 5   0  0.2871888E-05  0.2290889E+04  0.7818609E-02  0.8481522E-01
       -2   -1    0    0    0  501  0.00000000000E+00  0.00000000000E+00  0.14823865060E+04  0.14823865060E+04  0.25500000920E-02 0. -1.
        2   -1    0    0  501    0  0.00000000000E+00  0.00000000000E+00 -0.88508858347E+03  0.88508858347E+03  0.25500000920E-02 0.  1.
    10030    2    1    2    0    0  0.00000000000E+00  0.00000000000E+00  0.59729792248E+03  0.23674750894E+04  0.22908892358E+04 0.  0.
        3    1    3    3  502    0  0.98910218793E+03  0.29093623742E+03 -0.21711091800E+03  0.10536148221E+04  0.10100000352E+00 0.  1.
       -3    1    3    3    0  502 -0.98910218793E+03 -0.29093623742E+03  0.81440884049E+03  0.13138602673E+04  0.10100000352E+00 0. -1.
</event>
<event>
 5   0  0.1327820E-05  0.2319752E+04  0.7818609E-02  0.8470174E-01
        1   -1    0    0  501    0  0.00000000000E+00  0.00000000000E+00  0.10077078242E+04  0.10077078242E+04  0.50400001928E-02 0. -1.
       -1   -1    0    0    0  501  0.00000000000E+00  0.00000000000E+00 -0.13350221109E+04  0.13350221109E+04  0.50400001928E-02 0.  1.
    10030    2    1    2    0    0  0.00000000000E+00  0.00000000000E+00 -0.32731428669E+03  0.23427299350E+04  0.23197519062E+04 0.  0.
        1    1    3    3  502    0  0.10686665948E+04 -0.39989348899E+03 -0.37392403526E+03  0.12007423860E+04  0.50400001928E-02 0.  1.
       -1    1    3    3    0  502 -0.10686665948E+04  0.39989348899E+03  0.46609748569E+02  0.11419875490E+04  0.50400001928E-02 0. -1.
</event>
<event>
 5   0  0.2938972E-05  0.2290233E+04  0.7818609E-02  0.8481782E-01
        2   -1    0    0  501    0  0.00000000000E+00  0.00000000000E+00  0.95689152717E+03  0.95689152717E+03  0.25500000920E-02 0.  1.
       -2   -1    0    0    0  501  0.00000000000E+00  0.00000000000E+00 -0.13703666169E+04  0.13703666169E+04  0.25500000920E-02 0. -1.
    10030    2    1    2    0    0  0.00000000000E+00  0.00000000000E+00 -0.41347508970E+03  0.23272581440E+04  0.22902333548E+04 0.  0.
        2    1    3    3  502    0 -0.92404771195E+03  0.67552667020E+03 -0.17316176074E+03  0.11576637904E+04  0.25500000920E-02 0.  1.
       -2    1    3    3    0  502  0.92404771195E+03 -0.67552667020E+03 -0.24031332896E+03  0.11695943537E+04  0.25500000920E-02 0. -1.
</event>
<event>
 5   0  0.1303224E-05  0.2302777E+04  0.7818609E-02  0.8476827E-01
        1   -1    0    0  501    0  0.00000000000E+00  0.00000000000E+00  0.12316547327E+04  0.12316547327E+04  0.50400001928E-02 0. -1.
       -1   -1    0    0    0  501  0.00000000000E+00  0.00000000000E+00 -0.10763527525E+04  0.10763527525E+04  0.50400001928E-02 0.  1.
    10030    2    1    2    0    0  0.00000000000E+00  0.00000000000E+00  0.15530198019E+03  0.23080074852E+04  0.23027765516E+04 0.  0.
        2    1    3    3  502    0  0.39557476270E+03  0.87958601021E+03  0.70800254091E+03  0.11964190487E+04  0.25500000920E-02 0. -1.
       -2    1    3    3    0  502 -0.39557476270E+03 -0.87958601021E+03 -0.55270056072E+03  0.11115884365E+04  0.25500000920E-02 0.  1.
</event>
<event>
 5   0  0.2871888E-05  0.2288142E+04  0.7818609E-02  0.8482611E-01
       -2   -1    0    0    0  501  0.00000000000E+00  0.00000000000E+00  0.10042724988E+04  0.10042724989E+04  0.25500000920E-02 0. -1.
        2   -1    0    0  501    0  0.00000000000E+00  0.00000000000E+00 -0.13033298959E+04  0.13033298959E+04  0.25500000920E-02 0.  1.
    10030    2    1    2    0    0  0.00000000000E+00  0.00000000000E+00 -0.29905739706E+03  0.23076023948E+04  0.22881419286E+04 0.  0.
        3    1    3    3  502    0  0.35312462928E+03  0.87339083608E+03  0.50513767409E+03  0.10689586691E+04  0.10100000352E+00 0. -1.
       -3    1    3    3    0  502 -0.35312462928E+03 -0.87339083608E+03 -0.80419507114E+03  0.12386437256E+04  0.10100000352E+00 0.  1.
</event>
<event>
 5   0  0.2910126E-05  0.2240558E+04  0.7818609E-02  0.8501734E-01
        2   -1    0    0  501    0  0.00000000000E+00  0.00000000000E+00  0.10970719961E+04  0.10970719961E+04  0.25500000920E-02 0.  1.
       -2   -1    0    0    0  501  0.00000000000E+00  0.00000000000E+00 -0.11439773197E+04  0.11439773197E+04  0.25500000920E-02 0. -1.
    10030    2    1    2    0    0  0.00000000000E+00  0.00000000000E+00 -0.46905323616E+02  0.22410493158E+04  0.22405583962E+04 0.  0.
        5    1    3    3  502    0  0.72266670423E+02  0.32495573677E+03  0.10464473987E+04  0.10981315726E+04  0.46999998093E+01 0.  1.
       -5    1    3    3    0  502 -0.72266670423E+02 -0.32495573677E+03 -0.10933527223E+04  0.11429177433E+04  0.46999998093E+01 0. -1.
</event>
<event>
 5   0  0.1303224E-05  0.2352007E+04  0.7818609E-02  0.8457693E-01
       -1   -1    0    0    0  501  0.00000000000E+00  0.00000000000E+00  0.95866343582E+03  0.95866343583E+03  0.50400001928E-02 0. -1.
        1   -1    0    0  501    0  0.00000000000E+00  0.00000000000E+00 -0.14426167239E+04  0.14426167239E+04  0.50400001928E-02 0.  1.
    10030    2    1    2    0    0  0.00000000000E+00  0.00000000000E+00 -0.48395328812E+03  0.24012801598E+04  0.23520067221E+04 0.  0.
        2    1    3    3  502    0  0.37634075331E+03  0.19093277824E+02 -0.13793102925E+04  0.14298579646E+04  0.25500000920E-02 0.  1.
       -2    1    3    3    0  502 -0.37634075331E+03 -0.19093277824E+02  0.89535700442E+03  0.97142219516E+03  0.25500000920E-02 0. -1.
</event>
<event>
 5   0  0.2871888E-05  0.2317640E+04  0.7818609E-02  0.8470998E-01
        2   -1    0    0  501    0  0.00000000000E+00  0.00000000000E+00  0.15760800986E+04  0.15760800986E+04  0.25500000920E-02 0. -1.
       -2   -1    0    0    0  501  0.00000000000E+00  0.00000000000E+00 -0.85202742670E+03  0.85202742670E+03  0.25500000920E-02 0.  1.
    10030    2    1    2    0    0  0.00000000000E+00  0.00000000000E+00  0.72405267187E+03  0.24281075253E+04  0.23176397224E+04 0.  0.
        3    1    3    3  502    0 -0.48668560454E+03 -0.26681474297E+03  0.14277691120E+04  0.15318543116E+04  0.10100000352E+00 0. -1.
       -3    1    3    3    0  502  0.48668560454E+03  0.26681474297E+03 -0.70371644010E+03  0.89625321366E+03  0.10100000352E+00 0.  1.
</event>
<event>
 5   0  0.2816178E-05  0.2317063E+04  0.7818609E-02  0.8471224E-01
        2   -1    0    0  501    0  0.00000000000E+00  0.00000000000E+00  0.14058974568E+04  0.14058974568E+04  0.25500000920E-02 0.  1.
       -2   -1    0    0    0  501  0.00000000000E+00  0.00000000000E+00 -0.95468905721E+03  0.95468905721E+03  0.25500000920E-02 0. -1.
    10030    2    1    2    0    0  0.00000000000E+00  0.00000000000E+00  0.45120839959E+03  0.23605865140E+04  0.23170627247E+04 0.  0.
        1    1    3    3  502    0 -0.29761353710E+03 -0.63023467822E+01 -0.91506153974E+03  0.96226355983E+03  0.50400001928E-02 0. -1.
       -1    1    3    3    0  502  0.29761353710E+03  0.63023467822E+01  0.13662699393E+04  0.13983229542E+04  0.50400001928E-02 0.  1.
</event>
<event>
 5   0  0.1308224E-05  0.2327447E+04  0.7818609E-02  0.8467177E-01
        1   -1    0    0  501    0  0.00000000000E+00  0.00000000000E+00  0.85445966384E+03  0.85445966385E+03  0.50400001928E-02 0. -1.
       -1   -1    0    0    0  501  0.00000000000E+00  0.00000000000E+00 -0.15849230352E+04  0.15849230352E+04  0.50400001928E-02 0.  1.
    10030    2    1    2    0    0  0.00000000000E+00  0.00000000000E+00 -0.73046337133E+03  0.24393826990E+04  0.23274473604E+04 0.  0.
        5    1    3    3  502    0  0.44862768860E+02  0.12392178844E+03 -0.15770660667E+04  0.15825702975E+04  0.46999998093E+01 0.  1.
       -5    1    3    3    0  502 -0.44862768860E+02 -0.12392178844E+03  0.84660269536E+03  0.85681240157E+03  0.46999998093E+01 0. -1.
</event>
<event>
 5   0  0.2871888E-05  0.2298380E+04  0.7818609E-02  0.8478560E-01
        2   -1    0    0  501    0  0.00000000000E+00  0.00000000000E+00  0.12096487741E+04  0.12096487741E+04  0.25500000920E-02 0. -1.
       -2   -1    0    0    0  501  0.00000000000E+00  0.00000000000E+00 -0.10917527095E+04  0.10917527095E+04  0.25500000920E-02 0.  1.
    10030    2    1    2    0    0  0.00000000000E+00  0.00000000000E+00  0.11789606458E+03  0.23014014836E+04  0.22983797133E+04 0.  0.
        3    1    3    3  502    0 -0.62888330248E+03 -0.36925489959E+03 -0.83036035503E+03  0.11051433022E+04  0.10100000352E+00 0.  1.
       -3    1    3    3    0  502  0.62888330248E+03  0.36925489959E+03  0.94825641961E+03  0.11962581814E+04  0.10100000352E+00 0. -1.
</event>
<event>
 5   0  0.1284837E-05  0.2300379E+04  0.7818609E-02  0.8477772E-01
        1   -1    0    0  501    0  0.00000000000E+00  0.00000000000E+00  0.14943582647E+04  0.14943582647E+04  0.50400001928E-02 0.  1.
       -1   -1    0    0    0  501  0.00000000000E+00  0.00000000000E+00 -0.88528715382E+03  0.88528715383E+03  0.50400001928E-02 0. -1.
    10030    2    1    2    0    0  0.00000000000E+00  0.00000000000E+00  0.60907111085E+03  0.23796454185E+04  0.23003792513E+04 0.  0.
        4    1    3    3  502    0 -0.19276562318E+03 -0.48451420230E+03 -0.75598405512E+03  0.91838232899E+03  0.12699999809E+01 0. -1.
       -4    1    3    3    0  502  0.19276562318E+03  0.48451420230E+03  0.13650551660E+04  0.14612630895E+04  0.12699999809E+01 0.  1.
</event>
<event>
 5   0  0.1327820E-05  0.2320915E+04  0.7818609E-02  0.8469720E-01
        1   -1    0    0  501    0  0.00000000000E+00  0.00000000000E+00  0.10519378376E+04  0.10519378376E+04  0.50400001928E-02 0. -1.
       -1   -1    0    0    0  501  0.00000000000E+00  0.00000000000E+00 -0.12801727193E+04  0.12801727193E+04  0.50400001928E-02 0.  1.
    10030    2    1    2    0    0  0.00000000000E+00  0.00000000000E+00 -0.22823488170E+03  0.23321105568E+04  0.23209154418E+04 0.  0.
        1    1    3    3  502    0 -0.39657706664E+03  0.67500056609E+03  0.74661409996E+03  0.10818187225E+04  0.50400001928E-02 0. -1.
       -1    1    3    3    0  502  0.39657706664E+03 -0.67500056609E+03 -0.97484898167E+03  0.12502918344E+04  0.50400001928E-02 0.  1.
</event>
<event>
 5   0  0.1371753E-05  0.2276964E+04  0.7818609E-02  0.8487060E-01
        1   -1    0    0  501    0  0.00000000000E+00  0.00000000000E+00  0.14263825354E+04  0.14263825354E+04  0.50400001928E-02 0. -1.
       -1   -1    0    0    0  501  0.00000000000E+00  0.00000000000E+00 -0.90869144434E+03  0.90869144435E+03  0.50400001928E-02 0.  1.
    10030    2    1    2    0    0  0.00000000000E+00  0.00000000000E+00  0.51769109102E+03  0.23350739797E+04  0.22769643003E+04 0.  0.
        3    1    3    3  502    0  0.26502491906E+03 -0.10153806581E+04  0.71159348080E+03  0.12679122134E+04  0.10100000352E+00 0. -1.
       -3    1    3    3    0  502 -0.26502491906E+03  0.10153806581E+04 -0.19390238978E+03  0.10671617664E+04  0.10100000352E+00 0.  1.
</event>
<event>
 5   0  0.2994157E-05  0.2303155E+04  0.7818609E-02  0.8476678E-01
        2   -1    0    0  501    0  0.00000000000E+00  0.00000000000E+00  0.17101412908E+04  0.17101412908E+04  0.25500000920E-02 0. -1.
       -2   -1    0    0    0  501  0.00000000000E+00  0.00000000000E+00 -0.77545126930E+03  0.77545126931E+03  0.25500000920E-02 0.  1.
    10030    2    1    2    0    0  0.00000000000E+00  0.00000000000E+00  0.93469002149E+03  0.24855925601E+04  0.23031554308E+04 0.  0.
        4    1    3    3  502    0 -0.46201060601E+02  0.12252704231E+03 -0.76738943589E+03  0.77848286643E+03  0.12699999809E+01 0.  1.
       -4    1    3    3    0  502  0.46201060601E+02 -0.12252704231E+03  0.17020794574E+04  0.17071096937E+04  0.12699999809E+01 0. -1.
</event>
<event>
 5   0  0.2994157E-05  0.2299080E+04  0.7818609E-02  0.8478284E-01
        2   -1    0    0  501    0  0.00000000000E+00  0.00000000000E+00  0.17717573701E+04  0.17717573701E+04  0.25500000920E-02 0. -1.
       -2   -1    0    0    0  501  0.00000000000E+00  0.00000000000E+00 -0.74583684835E+03  0.74583684835E+03  0.25500000920E-02 0.  1.
    10030    2    1    2    0    0  0.00000000000E+00  0.00000000000E+00  0.10259205218E+04  0.25175942185E+04  0.22990797576E+04 0.  0.
        4    1    3    3  502    0  0.87399601557E+03 -0.74512061035E+03  0.56623122211E+03  0.12805050445E+04  0.12699999809E+01 0.  1.
       -4    1    3    3    0  502 -0.87399601557E+03  0.74512061035E+03  0.45968929966E+03  0.12370891740E+04  0.12699999809E+01 0. -1.
</event>
<event>
 5   0  0.1303224E-05  0.2290935E+04  0.7818609E-02  0.8481504E-01
       -1   -1    0    0    0  501  0.00000000000E+00  0.00000000000E+00  0.10924109952E+04  0.10924109952E+04  0.50400001928E-02 0.  1.
        1   -1    0    0  501    0  0.00000000000E+00  0.00000000000E+00 -0.12011005369E+04  0.12011005369E+04  0.50400001928E-02 0. -1.
    10030    2    1    2    0    0  0.00000000000E+00  0.00000000000E+00 -0.10868954171E+03  0.22935115322E+04  0.22909346852E+04 0.  0.
        2    1    3    3  502    0 -0.22275452237E+03  0.10948214677E+04 -0.30729834168E+03  0.11587432391E+04  0.25500000920E-02 0. -1.
       -2    1    3    3    0  502  0.22275452237E+03 -0.10948214677E+04  0.19860879997E+03  0.11347682930E+04  0.25500000920E-02 0.  1.
</event>
<event>
 5   0  0.1308224E-05  0.2296884E+04  0.7818609E-02  0.8479151E-01
        1   -1    0    0  501    0  0.00000000000E+00  0.00000000000E+00  0.11271861266E+04  0.11271861266E+04  0.50400001928E-02 0. -1.
       -1   -1    0    0    0  501  0.00000000000E+00  0.00000000000E+00 -0.11700990851E+04  0.11700990851E+04  0.50400001928E-02 0.  1.
    10030    2    1    2    0    0  0.00000000000E+00  0.00000000000E+00 -0.42912958469E+02  0.22972852117E+04  0.22968843728E+04 0.  0.
        5    1    3    3  502    0  0.32781148741E+03 -0.84973526038E+03  0.67822759688E+03  0.11355726076E+04  0.46999998093E+01 0. -1.
       -5    1    3    3    0  502 -0.32781148741E+03  0.84973526038E+03 -0.72114055535E+03  0.11617126041E+04  0.46999998093E+01 0.  1.
</event>
<event>
 5   0  0.1308224E-05  0.2303745E+04  0.7818609E-02  0.8476446E-01
        1   -1    0    0  501    0  0.00000000000E+00  0.00000000000E+00  0.72331371250E+03  0.72331371252E+03  0.50400001928E-02 0.  1.
       -1   -1    0    0    0  501  0.00000000000E+00  0.00000000000E+00 -0.18343500005E+04  0.18343500005E+04  0.50400001928E-02 0. -1.
    10030    2    1    2    0    0  0.00000000000E+00  0.00000000000E+00 -0.11110362880E+04  0.25576637130E+04  0.23037452194E+04 0.  0.
        5    1    3    3  502    0 -0.10788524328E+04  0.19233939235E+03 -0.16163033846E+03  0.11077289695E+04  0.46999998093E+01 0.  1.
       -5    1    3    3    0  502  0.10788524328E+04 -0.19233939235E+03 -0.94940594954E+03  0.14499347435E+04  0.46999998093E+01 0. -1.
</event>
<event>
 5   0  0.2938972E-05  0.2303526E+04  0.7818609E-02  0.8476532E-01
       -2   -1    0    0    0  501  0.00000000000E+00  0.00000000000E+00  0.87538963574E+03  0.87538963575E+03  0.25500000920E-02 0. -1.
        2   -1    0    0  501    0  0.00000000000E+00  0.00000000000E+00 -0.15153910005E+04  0.15153910005E+04  0.25500000920E-02 0.  1.
    10030    2    1    2    0    0  0.00000000000E+00  0.00000000000E+00 -0.64000136480E+03  0.23907806363E+04  0.23035256248E+04 0.  0.
        2    1    3    3  502    0  0.19992746652E+03 -0.65840092217E+03  0.63861677081E+03  0.93877268077E+03  0.25500000920E-02 0. -1.
       -2    1    3    3    0  502 -0.19992746652E+03  0.65840092217E+03 -0.12786181356E+04  0.14520079555E+04  0.25500000920E-02 0.  1.
</event>
<event>
 5   0  0.2871888E-05  0.2282923E+04  0.7818609E-02  0.8484685E-01
       -2   -1    0    0    0  501  0.00000000000E+00  0.00000000000E+00  0.59674689952E+03  0.59674689952E+03  0.25500000920E-02 0.  1.
        2   -1    0    0  501    0  0.00000000000E+00  0.00000000000E+00 -0.21833960171E+04  0.21833960171E+04  0.25500000920E-02 0. -1.
    10030    2    1    2    0    0  0.00000000000E+00  0.00000000000E+00 -0.15866491176E+04  0.27801429166E+04  0.22829233922E+04 0.  0.
        3    1    3    3  502    0 -0.23583750474E+03 -0.11150680649E+04 -0.71689684223E+03  0.13464535679E+04  0.10100000352E+00 0. -1.
       -3    1    3    3    0  502  0.23583750474E+03  0.11150680649E+04 -0.86975227533E+03  0.14336893487E+04  0.10100000352E+00 0.  1.
</event>
<event>
 5   0  0.2816178E-05  0.2238889E+04  0.7818609E-02  0.8502414E-01
        2   -1    0    0  501    0  0.00000000000E+00  0.00000000000E+00  0.86819942722E+03  0.86819942722E+03  0.25500000920E-02 0. -1.
       -2   -1    0    0    0  501  0.00000000000E+00  0.00000000000E+00 -0.14433967450E+04  0.14433967450E+04  0.25500000920E-02 0.  1.
    10030    2    1    2    0    0  0.00000000000E+00  0.00000000000E+00 -0.57519731780E+03  0.23115961722E+04  0.22388892132E+04 0.  0.
        1    1    3    3  502    0  0.62411864908E+03 -0.18763903654E+03  0.65213683025E+03  0.92196254889E+03  0.50400001928E-02 0. -1.
       -1    1    3    3    0  502 -0.62411864908E+03  0.18763903654E+03 -0.12273341480E+04  0.13896336233E+04  0.50400001928E-02 0.  1.
</event>
<event>
 5   0  0.2938972E-05  0.2299678E+04  0.7818609E-02  0.8478048E-01
       -2   -1    0    0    0  501  0.00000000000E+00  0.00000000000E+00  0.88247584683E+03  0.88247584684E+03  0.25500000920E-02 0. -1.
        2   -1    0    0  501    0  0.00000000000E+00  0.00000000000E+00 -0.14982051113E+04  0.14982051113E+04  0.25500000920E-02 0.  1.
    10030    2    1    2    0    0  0.00000000000E+00  0.00000000000E+00 -0.61572926443E+03  0.23806809581E+04  0.22996780856E+04 0.  0.
        2    1    3    3  502    0 -0.39480897061E+03  0.83416324926E+03  0.40217149160E+03  0.10066997359E+04  0.25500000920E-02 0. -1.
       -2    1    3    3    0  502  0.39480897061E+03 -0.83416324926E+03 -0.10179007560E+04  0.13739812222E+04  0.25500000920E-02 0.  1.
</event>
<event>
 5   0  0.2871888E-05  0.2294152E+04  0.7818609E-02  0.8480230E-01
        2   -1    0    0  501    0  0.00000000000E+00  0.00000000000E+00  0.17587214065E+04  0.17587214065E+04  0.25500000920E-02 0. -1.
       -2   -1    0    0    0  501  0.00000000000E+00  0.00000000000E+00 -0.74814774292E+03  0.74814774292E+03  0.25500000920E-02 0.  1.
    10030    2    1    2    0    0  0.00000000000E+00  0.00000000000E+00  0.10105736636E+04  0.25068691494E+04  0.22941520880E+04 0.  0.
        3    1    3    3  502    0  0.10195102790E+04  0.39511925197E+03  0.88423123012E+03  0.14061953317E+04  0.10100000352E+00 0. -1.
       -3    1    3    3    0  502 -0.10195102790E+04 -0.39511925197E+03  0.12634243343E+03  0.11006738177E+04  0.10100000352E+00 0.  1.
</event>
<event>
 5   0  0.1308224E-05  0.2358607E+04  0.7818609E-02  0.8455165E-01
       -1   -1    0    0    0  501  0.00000000000E+00  0.00000000000E+00  0.11523892843E+04  0.11523892843E+04  0.50400001928E-02 0.  1.
        1   -1    0    0  501    0  0.00000000000E+00  0.00000000000E+00 -0.12068463671E+04  0.12068463671E+04  0.50400001928E-02 0. -1.
    10030    2    1    2    0    0  0.00000000000E+00  0.00000000000E+00 -0.54457082824E+02  0.23592356514E+04  0.23586070645E+04 0.  0.
        5    1    3    3  502    0 -0.88636573634E+03  0.60532964846E+03 -0.51589382484E+03  0.11908974475E+04  0.46999998093E+01 0. -1.
       -5    1    3    3    0  502  0.88636573634E+03 -0.60532964846E+03  0.46143674201E+03  0.11683382039E+04  0.46999998093E+01 0.  1.
</event>
<event>
 5   0  0.2910126E-05  0.2304089E+04  0.7818609E-02  0.8476311E-01
        2   -1    0    0  501    0  0.00000000000E+00  0.00000000000E+00  0.18192563700E+04  0.18192563700E+04  0.25500000920E-02 0. -1.
       -2   -1    0    0    0  501  0.00000000000E+00  0.00000000000E+00 -0.72953225506E+03  0.72953225506E+03  0.25500000920E-02 0.  1.
    10030    2    1    2    0    0  0.00000000000E+00  0.00000000000E+00  0.10897241150E+04  0.25487886251E+04  0.23040887154E+04 0.  0.
        5    1    3    3  502    0 -0.10329684368E+04  0.27782036862E+03  0.10180480524E+04  0.14767030425E+04  0.46999998093E+01 0. -1.
       -5    1    3    3    0  502  0.10329684368E+04 -0.27782036862E+03  0.71676062572E+02  0.10720855826E+04  0.46999998093E+01 0.  1.
</event>
<event>
 5   0  0.1308224E-05  0.2293711E+04  0.7818609E-02  0.8480405E-01
       -1   -1    0    0    0  501  0.00000000000E+00  0.00000000000E+00  0.13029999450E+04  0.13029999450E+04  0.50400001928E-02 0. -1.
        1   -1    0    0  501    0  0.00000000000E+00  0.00000000000E+00 -0.10094221391E+04  0.10094221391E+04  0.50400001928E-02 0.  1.
    10030    2    1    2    0    0  0.00000000000E+00  0.00000000000E+00  0.29357780590E+03  0.23124220841E+04  0.22937105237E+04 0.  0.
        5    1    3    3  502    0 -0.77089808512E+02  0.11087446745E+04  0.43193418645E+03  0.11924121868E+04  0.46999998093E+01 0. -1.
       -5    1    3    3    0  502  0.77089808512E+02 -0.11087446745E+04 -0.13835638055E+03  0.11200098972E+04  0.46999998093E+01 0.  1.
</event>
<event>
 5   0  0.1371753E-05  0.2290120E+04  0.7818609E-02  0.8481827E-01
        1   -1    0    0  501    0  0.00000000000E+00  0.00000000000E+00  0.11459150248E+04  0.11459150248E+04  0.50400001928E-02 0. -1.
       -1   -1    0    0    0  501  0.00000000000E+00  0.00000000000E+00 -0.11442056477E+04  0.11442056477E+04  0.50400001928E-02 0.  1.
    10030    2    1    2    0    0  0.00000000000E+00  0.00000000000E+00  0.17093771036E+01  0.22901206725E+04  0.22901200346E+04 0.  0.
        3    1    3    3  502    0  0.81101858504E+03  0.25782904434E+03 -0.76526266449E+03  0.11444884959E+04  0.10100000352E+00 0.  1.
       -3    1    3    3    0  502 -0.81101858504E+03 -0.25782904434E+03  0.76697204160E+03  0.11456321766E+04  0.10100000352E+00 0. -1.
</event>
<event>
 5   0  0.2871888E-05  0.2492747E+04  0.7818609E-02  0.8405574E-01
        2   -1    0    0  501    0  0.00000000000E+00  0.00000000000E+00  0.12221858888E+04  0.12221858888E+04  0.25500000920E-02 0.  1.
       -2   -1    0    0    0  501  0.00000000000E+00  0.00000000000E+00 -0.12710399626E+04  0.12710399626E+04  0.25500000920E-02 0. -1.
    10030    2    1    2    0    0  0.00000000000E+00  0.00000000000E+00 -0.48854073799E+02  0.24932258515E+04  0.24927471645E+04 0.  0.
        3    1    3    3  502    0 -0.11013340882E+04  0.20480449735E+03 -0.57094338580E+03  0.12573217631E+04  0.10100000352E+00 0. -1.
       -3    1    3    3    0  502  0.11013340882E+04 -0.20480449735E+03  0.52208931200E+03  0.12359040884E+04  0.10100000352E+00 0.  1.
</event>
<event>
 5   0  0.1327820E-05  0.2291365E+04  0.7818609E-02  0.8481334E-01
        1   -1    0    0  501    0  0.00000000000E+00  0.00000000000E+00  0.13284235336E+04  0.13284235337E+04  0.50400001928E-02 0. -1.
       -1   -1    0    0    0  501  0.00000000000E+00  0.00000000000E+00 -0.98807959332E+03  0.98807959334E+03  0.50400001928E-02 0.  1.
    10030    2    1    2    0    0  0.00000000000E+00  0.00000000000E+00  0.34034394032E+03  0.23165031270E+04  0.22913648203E+04 0.  0.
        1    1    3    3  502    0  0.18834786771E+03 -0.61802567722E+03 -0.78633553911E+03  0.10177201173E+04  0.50400001928E-02 0.  1.
       -1    1    3    3    0  502 -0.18834786771E+03  0.61802567722E+03  0.11266794794E+04  0.12987830097E+04  0.50400001928E-02 0. -1.
</event>
<event>
 5   0  0.1371753E-05  0.2293456E+04  0.7818609E-02  0.8480506E-01
       -1   -1    0    0    0  501  0.00000000000E+00  0.00000000000E+00  0.12960453804E+04  0.12960453804E+04  0.50400001928E-02 0.  1.
        1   -1    0    0  501    0  0.00000000000E+00  0.00000000000E+00 -0.10146135084E+04  0.10146135084E+04  0.50400001928E-02 0. -1.
    10030    2    1    2    0    0  0.00000000000E+00  0.00000000000E+00  0.28143187202E+03  0.23106588888E+04  0.22934560388E+04 0.  0.
        3    1    3    3  502    0  0.10534628917E+04  0.24832385606E+03  0.52241961802E+03  0.12018198988E+04  0.10100000352E+00 0.  1.
       -3    1    3    3    0  502 -0.10534628917E+04 -0.24832385606E+03 -0.24098774600E+03  0.11088389900E+04  0.10100000352E+00 0. -1.
</event>
<event>
 5   0  0.1303224E-05  0.2309673E+04  0.7818609E-02  0.8474117E-01
        1   -1    0    0  501    0  0.00000000000E+00  0.00000000000E+00  0.30539701683E+04  0.30539701683E+04  0.50400001928E-02 0. -1.
       -1   -1    0    0    0  501  0.00000000000E+00  0.00000000000E+00 -0.43669280678E+03  0.43669280680E+03  0.50400001928E-02 0.  1.
    10030    2    1    2    0    0  0.00000000000E+00  0.00000000000E+00  0.26172773615E+04  0.34906629751E+04  0.23096725349E+04 0.  0.
        2    1    3    3  502    0  0.59810625112E+03  0.76047956625E+03  0.35568158192E+03  0.10308101891E+04  0.25500000920E-02 0.  1.
       -2    1    3    3    0  502 -0.59810625112E+03 -0.76047956625E+03  0.22615957796E+04  0.24598527859E+04  0.25500000920E-02 0. -1.
</event>
<event>
 5   0  0.1308224E-05  0.2301367E+04  0.7818609E-02  0.8477382E-01
        1   -1    0    0  501    0  0.00000000000E+00  0.00000000000E+00  0.75936563028E+03  0.75936563030E+03  0.50400001928E-02 0.  1.
       -1   -1    0    0    0  501  0.00000000000E+00  0.00000000000E+00 -0.17436557745E+04  0.17436557745E+04  0.50400001928E-02 0. -1.
    10030    2    1    2    0    0  0.00000000000E+00  0.00000000000E+00 -0.98429014426E+03  0.25030214048E+04  0.23013667819E+04 0.  0.
        5    1    3    3  502    0  0.10012539206E+04  0.56596786872E+03 -0.45413834853E+03  0.12365649080E+04  0.46999998093E+01 0. -1.
       -5    1    3    3    0  502 -0.10012539206E+04 -0.56596786872E+03 -0.53015179573E+03  0.12664564969E+04  0.46999998093E+01 0.  1.
</event>
<event>
 5   0  0.2994157E-05  0.2265271E+04  0.7818609E-02  0.8491741E-01
       -2   -1    0    0    0  501  0.00000000000E+00  0.00000000000E+00  0.93121726021E+03  0.93121726022E+03  0.25500000920E-02 0.  1.
        2   -1    0    0  501    0  0.00000000000E+00  0.00000000000E+00 -0.13776198019E+04  0.13776198019E+04  0.25500000920E-02 0. -1.
    10030    2    1    2    0    0  0.00000000000E+00  0.00000000000E+00 -0.44640254164E+03  0.23088370621E+04  0.22652711427E+04 0.  0.
        4    1    3    3  502    0  0.80383549012E+03 -0.22503132712E+03 -0.10034772860E+04  0.13052811458E+04  0.12699999809E+01 0. -1.
       -4    1    3    3    0  502 -0.80383549012E+03  0.22503132712E+03  0.55707474431E+03  0.10035559162E+04  0.12699999809E+01 0.  1.
</event>
<event>
 5   0  0.2816178E-05  0.2300279E+04  0.7818609E-02  0.8477811E-01
        2   -1    0    0  501    0  0.00000000000E+00  0.00000000000E+00  0.29019807345E+04  0.29019807345E+04  0.25500000920E-02 0.  1.
       -2   -1    0    0    0  501  0.00000000000E+00  0.00000000000E+00 -0.45583376307E+03  0.45583376308E+03  0.25500000920E-02 0. -1.
    10030    2    1    2    0    0  0.00000000000E+00  0.00000000000E+00  0.24461469714E+04  0.33578144975E+04  0.23002789384E+04 0.  0.
        1    1    3    3  502    0  0.12203080780E+03 -0.11430334017E+04  0.11683784588E+04  0.16390622619E+04  0.50400001928E-02 0. -1.
       -1    1    3    3    0  502 -0.12203080780E+03  0.11430334017E+04  0.12777685126E+04  0.17187522356E+04  0.50400001928E-02 0.  1.
</event>
<event>
 5   0  0.1284837E-05  0.2318139E+04  0.7818609E-02  0.8470803E-01
       -1   -1    0    0    0  501  0.00000000000E+00  0.00000000000E+00  0.13589871105E+04  0.13589871105E+04  0.50400001928E-02 0.  1.
        1   -1    0    0  501    0  0.00000000000E+00  0.00000000000E+00 -0.98856132044E+03  0.98856132045E+03  0.50400001928E-02 0. -1.
    10030    2    1    2    0    0  0.00000000000E+00  0.00000000000E+00  0.37042579009E+03  0.23475484310E+04  0.23181389885E+04 0.  0.
        4    1    3    3  502    0 -0.25018486524E+03  0.63787108897E+03  0.11319359993E+04  0.13231601235E+04  0.12699999809E+01 0.  1.
       -4    1    3    3    0  502  0.25018486524E+03 -0.63787108897E+03 -0.76151020921E+03  0.10243883075E+04  0.12699999809E+01 0. -1.
</event>
<event>
 5   0  0.2938972E-05  0.2308677E+04  0.7818609E-02  0.8474508E-01
        2   -1    0    0  501    0  0.00000000000E+00  0.00000000000E+00  0.22483505923E+04  0.22483505923E+04  0.25500000920E-02 0.  1.
       -2   -1    0    0    0  501  0.00000000000E+00  0.00000000000E+00 -0.59265546763E+03  0.59265546764E+03  0.25500000920E-02 0. -1.
    10030    2    1    2    0    0  0.00000000000E+00  0.00000000000E+00  0.16556951246E+04  0.28410060599E+04  0.23086769126E+04 0.  0.
        2    1    3    3  502    0 -0.76237371371E+03  0.67322145456E+03  0.14996758308E+04  0.18120343274E+04  0.25500000920E-02 0.  1.
       -2    1    3    3    0  502  0.76237371371E+03 -0.67322145456E+03  0.15601929385E+03  0.10289717325E+04  0.25500000920E-02 0. -1.
</event>
<event>
 5   0  0.1308224E-05  0.2296729E+04  0.7818609E-02  0.8479212E-01
       -1   -1    0    0    0  501  0.00000000000E+00  0.00000000000E+00  0.74108105680E+03  0.74108105682E+03  0.50400001928E-02 0.  1.
        1   -1    0    0  501    0  0.00000000000E+00  0.00000000000E+00 -0.17794827695E+04  0.17794827695E+04  0.50400001928E-02 0. -1.
    10030    2    1    2    0    0  0.00000000000E+00  0.00000000000E+00 -0.10384017127E+04  0.25205638263E+04  0.22967289534E+04 0.  0.
        5    1    3    3  502    0  0.41446404927E+03 -0.10589461014E+04 -0.34370502688E+03  0.11879825458E+04  0.46999998093E+01 0.  1.
       -5    1    3    3    0  502 -0.41446404927E+03  0.10589461014E+04 -0.69469668578E+03  0.13325812804E+04  0.46999998093E+01 0. -1.
</event>
<event>
 5   0  0.2938972E-05  0.2318423E+04  0.7818609E-02  0.8470692E-01
       -2   -1    0    0    0  501  0.00000000000E+00  0.00000000000E+00  0.11415010961E+04  0.11415010961E+04  0.25500000920E-02 0. -1.
        2   -1    0    0  501    0  0.00000000000E+00  0.00000000000E+00 -0.11771971360E+04  0.11771971360E+04  0.25500000920E-02 0.  1.
    10030    2    1    2    0    0  0.00000000000E+00  0.00000000000E+00 -0.35696039863E+02  0.23186982321E+04  0.23184234480E+04 0.  0.
        2    1    3    3  502    0  0.10499371309E+04  0.37297353462E+03 -0.33772117352E+03  0.11642735192E+04  0.25500000920E-02 0.  1.
       -2    1    3    3    0  502 -0.10499371309E+04 -0.37297353462E+03  0.30202513366E+03  0.11544247129E+04  0.25500000920E-02 0. -1.
</event>
<event>
 5   0  0.1284837E-05  0.2299308E+04  0.7818609E-02  0.8478194E-01
       -1   -1    0    0    0  501  0.00000000000E+00  0.00000000000E+00  0.13805576062E+04  0.13805576063E+04  0.50400001928E-02 0.  1.
        1   -1    0    0  501    0  0.00000000000E+00  0.00000000000E+00 -0.95737029147E+03  0.95737029149E+03  0.50400001928E-02 0. -1.
    10030    2    1    2    0    0  0.00000000000E+00  0.00000000000E+00  0.42318731477E+03  0.23379278977E+04  0.22993084507E+04 0.  0.
        4    1    3    3  502    0 -0.83519966713E+03  0.13923336369E+03  0.10023177658E+04  0.13120925768E+04  0.12699999809E+01 0.  1.
       -4    1    3    3    0  502  0.83519966713E+03 -0.13923336369E+03 -0.57913045102E+03  0.10258353210E+04  0.12699999809E+01 0. -1.
</event>
<event>
 5   0  0.1284837E-05  0.2312290E+04  0.7818609E-02  0.8473091E-01
        1   -1    0    0  501    0  0.00000000000E+00  0.00000000000E+00  0.82429988205E+03  0.82429988206E+03  0.50400001928E-02 0. -1.
       -1   -1    0    0    0  501  0.00000000000E+00  0.00000000000E+00 -0.16215838754E+04  0.16215838754E+04  0.50400001928E-02 0.  1.
    10030    2    1    2    0    0  0.00000000000E+00  0.00000000000E+00 -0.79728399336E+03  0.24458837575E+04  0.23122901178E+04 0.  0.
        4    1    3    3  502    0  0.10765320425E+04  0.42003146269E+03 -0.43710368095E+03  0.12354792224E+04  0.12699999809E+01 0. -1.
       -4    1    3    3    0  502 -0.10765320425E+04 -0.42003146269E+03 -0.36018031241E+03  0.12104045351E+04  0.12699999809E+01 0.  1.
</event>
<event>
 5   0  0.1303224E-05  0.2303033E+04  0.7818609E-02  0.8476726E-01
        1   -1    0    0  501    0  0.00000000000E+00  0.00000000000E+00  0.12463335543E+04  0.12463335543E+04  0.50400001928E-02 0. -1.
       -1   -1    0    0    0  501  0.00000000000E+00  0.00000000000E+00 -0.10639127111E+04  0.10639127111E+04  0.50400001928E-02 0.  1.
    10030    2    1    2    0    0  0.00000000000E+00  0.00000000000E+00  0.18242084317E+03  0.23102462654E+04  0.23030328792E+04 0.  0.
        2    1    3    3  502    0 -0.37286340171E+03 -0.93737882698E+03 -0.46576185853E+03  0.11111436858E+04  0.25500000920E-02 0.  1.
       -2    1    3    3    0  502  0.37286340171E+03  0.93737882698E+03  0.64818270170E+03  0.11991025796E+04  0.25500000920E-02 0. -1.
</event>
<event>
 5   0  0.2938972E-05  0.2290358E+04  0.7818609E-02  0.8481732E-01
       -2   -1    0    0    0  501  0.00000000000E+00  0.00000000000E+00  0.11000635642E+04  0.11000635642E+04  0.25500000920E-02 0. -1.
        2   -1    0    0  501    0  0.00000000000E+00  0.00000000000E+00 -0.11921449776E+04  0.11921449776E+04  0.25500000920E-02 0.  1.
    10030    2    1    2    0    0  0.00000000000E+00  0.00000000000E+00 -0.92081413429E+02  0.22922085419E+04  0.22903582717E+04 0.  0.
        2    1    3    3  502    0 -0.12159446570E+03  0.35574984603E+03  0.10365411017E+04  0.11026153557E+04  0.25500000920E-02 0. -1.
       -2    1    3    3    0  502  0.12159446570E+03 -0.35574984603E+03 -0.11286225151E+04  0.11895931862E+04  0.25500000920E-02 0.  1.
</event>
<event>
 5   0  0.1017200E-05  0.2289198E+04  0.7818609E-02  0.8482192E-01
       -3   -1    0    0    0  501  0.00000000000E+00  0.00000000000E+00  0.90091346991E+03  0.90091347557E+03  0.10100000352E+00 0. -1.
        3   -1    0    0  501    0  0.00000000000E+00  0.00000000000E+00 -0.14541980268E+04  0.14541980303E+04  0.10100000352E+00 0.  1.
    10030    2    1    2    0    0  0.00000000000E+00  0.00000000000E+00 -0.55328455685E+03  0.23551115058E+04  0.22891977643E+04 0.  0.
        1    1    3    3  502    0 -0.15964783540E+03 -0.11217363567E+04 -0.10971531105E+03  0.11383397273E+04  0.50400001928E-02 0.  1.
       -1    1    3    3    0  502  0.15964783540E+03  0.11217363567E+04 -0.44356924580E+03  0.12167717785E+04  0.50400001928E-02 0. -1.
</event>
<event>
 5   0  0.2910126E-05  0.2313146E+04  0.7818609E-02  0.8472756E-01
       -2   -1    0    0    0  501  0.00000000000E+00  0.00000000000E+00  0.13979297400E+04  0.13979297400E+04  0.25500000920E-02 0.  1.
        2   -1    0    0  501    0  0.00000000000E+00  0.00000000000E+00 -0.95688718828E+03  0.95688718828E+03  0.25500000920E-02 0. -1.
    10030    2    1    2    0    0  0.00000000000E+00  0.00000000000E+00  0.44104255169E+03  0.23548169283E+04  0.23131459602E+04 0.  0.
        5    1    3    3  502    0 -0.46536688393E+03 -0.35457041814E+03  0.12361677294E+04  0.13676327224E+04  0.46999998093E+01 0.  1.
       -5    1    3    3    0  502  0.46536688393E+03  0.35457041814E+03 -0.79512517772E+03  0.98718420588E+03  0.46999998093E+01 0. -1.
</event>
<event>
 5   0  0.2910126E-05  0.2088579E+04  0.7818609E-02  0.8566291E-01
        2   -1    0    0  501    0  0.00000000000E+00  0.00000000000E+00  0.11228145223E+04  0.11228145223E+04  0.25500000920E-02 0.  1.
       -2   -1    0    0    0  501  0.00000000000E+00  0.00000000000E+00 -0.97125650925E+03  0.97125650926E+03  0.25500000920E-02 0. -1.
    10030    2    1    2    0    0  0.00000000000E+00  0.00000000000E+00  0.15155801305E+03  0.20940710316E+04  0.20885793387E+04 0.  0.
        5    1    3    3  502    0 -0.90464387999E+03  0.31431382756E+03  0.49322106764E+03  0.10772478096E+04  0.46999998093E+01 0. -1.
       -5    1    3    3    0  502  0.90464387999E+03 -0.31431382756E+03 -0.34166305459E+03  0.10168232219E+04  0.46999998093E+01 0.  1.
</event>
<event>
 5   0  0.2994157E-05  0.2311867E+04  0.7818609E-02  0.8473257E-01
       -2   -1    0    0    0  501  0.00000000000E+00  0.00000000000E+00  0.15132716536E+04  0.15132716536E+04  0.25500000920E-02 0. -1.
        2   -1    0    0  501    0  0.00000000000E+00  0.00000000000E+00 -0.88297591485E+03  0.88297591485E+03  0.25500000920E-02 0.  1.
    10030    2    1    2    0    0  0.00000000000E+00  0.00000000000E+00  0.63029573875E+03  0.23962475684E+04  0.23118671439E+04 0.  0.
        4    1    3    3  502    0  0.21181653690E+03  0.94771341237E+03 -0.33475743292E+03  0.10271762795E+04  0.12699999809E+01 0.  1.
       -4    1    3    3    0  502 -0.21181653690E+03 -0.94771341237E+03  0.96505317167E+03  0.13690712890E+04  0.12699999809E+01 0. -1.
</event>
<event>
 5   0  0.1284837E-05  0.2299734E+04  0.7818609E-02  0.8478026E-01
       -1   -1    0    0    0  501  0.00000000000E+00  0.00000000000E+00  0.11246360898E+04  0.11246360898E+04  0.50400001928E-02 0. -1.
        1   -1    0    0  501    0  0.00000000000E+00  0.00000000000E+00 -0.11756640726E+04  0.11756640726E+04  0.50400001928E-02 0.  1.
    10030    2    1    2    0    0  0.00000000000E+00  0.00000000000E+00 -0.51027982855E+02  0.23003001624E+04  0.22997341112E+04 0.  0.
        4    1    3    3  502    0  0.61446436747E+03 -0.70037455997E+03  0.64852252097E+03  0.11351978049E+04  0.12699999809E+01 0. -1.
       -4    1    3    3    0  502 -0.61446436747E+03  0.70037455997E+03 -0.69955050383E+03  0.11651023575E+04  0.12699999809E+01 0.  1.
</event>
<event>
 5   0  0.1303224E-05  0.2312841E+04  0.7818609E-02  0.8472875E-01
       -1   -1    0    0    0  501  0.00000000000E+00  0.00000000000E+00  0.91172545330E+03  0.91172545331E+03  0.50400001928E-02 0.  1.
        1   -1    0    0  501    0  0.00000000000E+00  0.00000000000E+00 -0.14667885766E+04  0.14667885766E+04  0.50400001928E-02 0. -1.
    10030    2    1    2    0    0  0.00000000000E+00  0.00000000000E+00 -0.55506312332E+03  0.23785140299E+04  0.23128410926E+04 0.  0.
        2    1    3    3  502    0 -0.40427908593E+03 -0.96033357794E+03 -0.79339880926E+03  0.13096426348E+04  0.25500000920E-02 0. -1.
       -2    1    3    3    0  502  0.40427908593E+03  0.96033357794E+03  0.23833568593E+03  0.10688713952E+04  0.25500000920E-02 0.  1.
</event>
<event>
 5   0  0.2938972E-05  0.2305498E+04  0.7818609E-02  0.8475757E-01
        2   -1    0    0  501    0  0.00000000000E+00  0.00000000000E+00  0.89770176553E+03  0.89770176554E+03  0.25500000920E-02 0.  1.
       -2   -1    0    0    0  501  0.00000000000E+00  0.00000000000E+00 -0.14802576552E+04  0.14802576552E+04  0.25500000920E-02 0. -1.
    10030    2    1    2    0    0  0.00000000000E+00  0.00000000000E+00 -0.58255588966E+03  0.23779594207E+04  0.23054976994E+04 0.  0.
        2    1    3    3  502    0 -0.96192230029E+03  0.57194842843E+03 -0.61656370893E+01  0.11191324907E+04  0.25500000920E-02 0.  1.
       -2    1    3    3    0  502  0.96192230029E+03 -0.57194842843E+03 -0.57639025257E+03  0.12588269301E+04  0.25500000920E-02 0. -1.
</event>
<event>
 5   0  0.1303224E-05  0.2524177E+04  0.7818609E-02  0.8394423E-01
       -1   -1    0    0    0  501  0.00000000000E+00  0.00000000000E+00  0.70079729371E+03  0.70079729373E+03  0.50400001928E-02 0.  1.
        1   -1    0    0  501    0  0.00000000000E+00  0.00000000000E+00 -0.22729363405E+04  0.22729363405E+04  0.50400001928E-02 0. -1.
    10030    2    1    2    0    0  0.00000000000E+00  0.00000000000E+00 -0.15721390468E+04  0.29737336342E+04  0.25241772016E+04 0.  0.
        2    1    3    3  502    0 -0.94058177121E+03  0.42593761313E+03  0.68967249588E+02  0.10348301311E+04  0.25500000920E-02 0.  1.
       -2    1    3    3    0  502  0.94058177121E+03 -0.42593761313E+03 -0.16411062964E+04  0.19389035032E+04  0.25500000920E-02 0. -1.
</event>
<event>
 5   0  0.2871888E-05  0.2303996E+04  0.7818609E-02  0.8476347E-01
       -2   -1    0    0    0  501  0.00000000000E+00  0.00000000000E+00  0.73317133120E+03  0.73317133120E+03  0.25500000920E-02 0.  1.
        2   -1    0    0  501    0  0.00000000000E+00  0.00000000000E+00 -0.18100802452E+04  0.18100802452E+04  0.25500000920E-02 0. -1.
    10030    2    1    2    0    0  0.00000000000E+00  0.00000000000E+00 -0.10769089140E+04  0.25432515764E+04  0.23039956102E+04 0.  0.
        3    1    3    3  502    0  0.33625130638E+03  0.84996548060E+02 -0.17510809417E+04  0.17850977085E+04  0.10100000352E+00 0. -1.
       -3    1    3    3    0  502 -0.33625130638E+03 -0.84996548060E+02  0.67417202773E+03  0.75815386789E+03  0.10100000352E+00 0.  1.
</event>
<event>
 5   0  0.2910126E-05  0.2298699E+04  0.7818609E-02  0.8478434E-01
        2   -1    0    0  501    0  0.00000000000E+00  0.00000000000E+00  0.14727727085E+04  0.14727727085E+04  0.25500000920E-02 0. -1.
       -2   -1    0    0    0  501  0.00000000000E+00  0.00000000000E+00 -0.89695017492E+03  0.89695017492E+03  0.25500000920E-02 0.  1.
    10030    2    1    2    0    0  0.00000000000E+00  0.00000000000E+00  0.57582253354E+03  0.23697228834E+04  0.22986985348E+04 0.  0.
        5    1    3    3  502    0 -0.86450815020E+03  0.42229838140E+03 -0.36022038426E+03  0.10273709554E+04  0.46999998093E+01 0.  1.
       -5    1    3    3    0  502  0.86450815020E+03 -0.42229838140E+03  0.93604291779E+03  0.13423519280E+04  0.46999998093E+01 0. -1.
</event>
<event>
 5   0  0.1308224E-05  0.2278535E+04  0.7818609E-02  0.8486433E-01
       -1   -1    0    0    0  501  0.00000000000E+00  0.00000000000E+00  0.12264657695E+04  0.12264657695E+04  0.50400001928E-02 0.  1.
        1   -1    0    0  501    0  0.00000000000E+00  0.00000000000E+00 -0.10582688408E+04  0.10582688408E+04  0.50400001928E-02 0. -1.
    10030    2    1    2    0    0  0.00000000000E+00  0.00000000000E+00  0.16819692873E+03  0.22847346104E+04  0.22785350629E+04 0.  0.
        5    1    3    3  502    0  0.10074242981E+04 -0.69624214266E+02 -0.44474260498E+03  0.11034352370E+04  0.46999998093E+01 0. -1.
       -5    1    3    3    0  502 -0.10074242981E+04  0.69624214266E+02  0.61293953370E+03  0.11812993734E+04  0.46999998093E+01 0.  1.
</event>
<event>
 5   0  0.1371753E-05  0.2302403E+04  0.7818609E-02  0.8476974E-01
        1   -1    0    0  501    0  0.00000000000E+00  0.00000000000E+00  0.41379456017E+03  0.41379456020E+03  0.50400001928E-02 0. -1.
       -1   -1    0    0    0  501  0.00000000000E+00  0.00000000000E+00 -0.32027113158E+04  0.32027113158E+04  0.50400001928E-02 0.  1.
    10030    2    1    2    0    0  0.00000000000E+00  0.00000000000E+00 -0.27889167556E+04  0.36165058760E+04  0.23024026757E+04 0.  0.
        3    1    3    3  502    0 -0.94816743806E+03  0.19793072650E+01 -0.24199557168E+04  0.25990788925E+04  0.10100000352E+00 0.  1.
       -3    1    3    3    0  502  0.94816743806E+03 -0.19793072650E+01 -0.36896103883E+03  0.10174269834E+04  0.10100000352E+00 0. -1.
</event>
<event>
 5   0  0.2871888E-05  0.2303023E+04  0.7818609E-02  0.8476730E-01
        2   -1    0    0  501    0  0.00000000000E+00  0.00000000000E+00  0.68520987635E+03  0.68520987635E+03  0.25500000920E-02 0. -1.
       -2   -1    0    0    0  501  0.00000000000E+00  0.00000000000E+00 -0.19351430095E+04  0.19351430095E+04  0.25500000920E-02 0.  1.
    10030    2    1    2    0    0  0.00000000000E+00  0.00000000000E+00 -0.12499331331E+04  0.26203528858E+04  0.23030233192E+04 0.  0.
        3    1    3    3  502    0 -0.75647430064E+02  0.49790165269E+03 -0.18031958885E+04  0.18722029836E+04  0.10100000352E+00 0.  1.
       -3    1    3    3    0  502  0.75647430064E+02 -0.49790165269E+03  0.55326275539E+03  0.74814990218E+03  0.10100000352E+00 0. -1.
</event>
<event>
 5   0  0.2816178E-05  0.2301007E+04  0.7818609E-02  0.8477524E-01
        2   -1    0    0  501    0  0.00000000000E+00  0.00000000000E+00  0.10502277404E+04  0.10502277404E+04  0.25500000920E-02 0. -1.
       -2   -1    0    0    0  501  0.00000000000E+00  0.00000000000E+00 -0.12603533467E+04  0.12603533467E+04  0.25500000920E-02 0.  1.
    10030    2    1    2    0    0  0.00000000000E+00  0.00000000000E+00 -0.21012560632E+03  0.23105810870E+04  0.23010067773E+04 0.  0.
        1    1    3    3  502    0 -0.47181478208E+03  0.11690587110E+03  0.94205214969E+03  0.10600652923E+04  0.50400001928E-02 0. -1.
       -1    1    3    3    0  502  0.47181478208E+03 -0.11690587110E+03 -0.11521777560E+04  0.12505157947E+04  0.50400001928E-02 0.  1.
</event>
<event>
 5   0  0.2816178E-05  0.2280933E+04  0.7818609E-02  0.8485477E-01
        2   -1    0    0  501    0  0.00000000000E+00  0.00000000000E+00  0.15159331698E+04  0.15159331698E+04  0.25500000920E-02 0.  1.
       -2   -1    0    0    0  501  0.00000000000E+00  0.00000000000E+00 -0.85799560137E+03  0.85799560137E+03  0.25500000920E-02 0. -1.
    10030    2    1    2    0    0  0.00000000000E+00  0.00000000000E+00  0.65793756844E+03  0.23739287712E+04  0.22809331351E+04 0.  0.
        1    1    3    3  502    0 -0.47416799339E+03  0.54934011125E+03 -0.58670504289E+03  0.93318414644E+03  0.50400001928E-02 0. -1.
       -1    1    3    3    0  502  0.47416799339E+03 -0.54934011125E+03  0.12446426113E+04  0.14407446248E+04  0.50400001928E-02 0.  1.
</event>
<event>
 5   0  0.2938972E-05  0.2297665E+04  0.7818609E-02  0.8478842E-01
       -2   -1    0    0    0  501  0.00000000000E+00  0.00000000000E+00  0.14217331589E+04  0.14217331589E+04  0.25500000920E-02 0.  1.
        2   -1    0    0  501    0  0.00000000000E+00  0.00000000000E+00 -0.92831461230E+03  0.92831461230E+03  0.25500000920E-02 0. -1.
    10030    2    1    2    0    0  0.00000000000E+00  0.00000000000E+00  0.49341854661E+03  0.23500477712E+04  0.22976646110E+04 0.  0.
        2    1    3    3  502    0 -0.11409850004E+04 -0.13404345294E+03  0.24785180832E+03  0.11752637735E+04  0.25500000920E-02 0. -1.
       -2    1    3    3    0  502  0.11409850004E+04  0.13404345294E+03  0.24556673829E+03  0.11747839977E+04  0.25500000920E-02 0.  1.
</event>
<event>
 5   0  0.1327820E-05  0.2289002E+04  0.7818609E-02  0.8482270E-01
        1   -1    0    0  501    0  0.00000000000E+00  0.00000000000E+00  0.23372748904E+04  0.23372748904E+04  0.50400001928E-02 0. -1.
       -1   -1    0    0    0  501  0.00000000000E+00  0.00000000000E+00 -0.56043154522E+03  0.56043154525E+03  0.50400001928E-02 0.  1.
    10030    2    1    2    0    0  0.00000000000E+00  0.00000000000E+00  0.17768433452E+04  0.28977064356E+04  0.22890020345E+04 0.  0.
        1    1    3    3  502    0 -0.80587011376E+03 -0.57917854808E+03  0.16672395655E+03  0.10063157102E+04  0.50400001928E-02 0.  1.
       -1    1    3    3    0  502  0.80587011376E+03  0.57917854808E+03  0.16101193886E+04  0.18913907255E+04  0.50400001928E-02 0. -1.
</event>
<event>
 5   0  0.2816178E-05  0.2268615E+04  0.7818609E-02  0.8490400E-01
        2   -1    0    0  501    0  0.00000000000E+00  0.00000000000E+00  0.15226620819E+04  0.15226620819E+04  0.25500000920E-02 0. -1.
       -2   -1    0    0    0  501  0.00000000000E+00  0.00000000000E+00 -0.84500271561E+03  0.84500271561E+03  0.25500000920E-02 0.  1.
    10030    2    1    2    0    0  0.00000000000E+00  0.00000000000E+00  0.67765936631E+03  0.23676647975E+04  0.22686150790E+04 0.  0.
        1    1    3    3  502    0  0.93203650414E+02  0.15267472894E+03  0.15078496450E+04  0.15184225516E+04  0.50400001928E-02 0. -1.
       -1    1    3    3    0  502 -0.93203650414E+02 -0.15267472894E+03 -0.83019027871E+03  0.84924224589E+03  0.50400001928E-02 0.  1.
</event>
<event>
 5   0  0.2994157E-05  0.2269251E+04  0.7818609E-02  0.8490145E-01
        2   -1    0    0  501    0  0.00000000000E+00  0.00000000000E+00  0.29521126331E+04  0.29521126331E+04  0.25500000920E-02 0.  1.
       -2   -1    0    0    0  501  0.00000000000E+00  0.00000000000E+00 -0.43608607548E+03  0.43608607548E+03  0.25500000920E-02 0. -1.
    10030    2    1    2    0    0  0.00000000000E+00  0.00000000000E+00  0.25160265577E+04  0.33881987086E+04  0.22692511651E+04 0.  0.
        4    1    3    3  502    0  0.62505714903E+03 -0.56783851997E+03  0.23894538067E+04  0.25342904592E+04  0.12699999809E+01 0.  1.
       -4    1    3    3    0  502 -0.62505714903E+03  0.56783851997E+03  0.12657275100E+03  0.85390824946E+03  0.12699999809E+01 0. -1.
</event>
<event>
 5   0  0.2871888E-05  0.2262892E+04  0.7818609E-02  0.8492698E-01
        2   -1    0    0  501    0  0.00000000000E+00  0.00000000000E+00  0.75887948543E+03  0.75887948543E+03  0.25500000920E-02 0. -1.
       -2   -1    0    0    0  501  0.00000000000E+00  0.00000000000E+00 -0.16869208926E+04  0.16869208926E+04  0.25500000920E-02 0.  1.
    10030    2    1    2    0    0  0.00000000000E+00  0.00000000000E+00 -0.92804140713E+03  0.24458003780E+04  0.22628916535E+04 0.  0.
        3    1    3    3  502    0  0.46945924383E+03  0.44720058995E+03  0.53817668112E+03  0.84262358119E+03  0.10100000352E+00 0. -1.
       -3    1    3    3    0  502 -0.46945924383E+03 -0.44720058995E+03 -0.14662180883E+04  0.16031767968E+04  0.10100000352E+00 0.  1.
</event>
<event>
 5   0  0.1308224E-05  0.2316016E+04  0.7818609E-02  0.8471633E-01
        1   -1    0    0  501    0  0.00000000000E+00  0.00000000000E+00  0.15095610903E+04  0.15095610904E+04  0.50400001928E-02 0. -1.
       -1   -1    0    0    0  501  0.00000000000E+00  0.00000000000E+00 -0.88832628720E+03  0.88832628722E+03  0.50400001928E-02 0.  1.
    10030    2    1    2    0    0  0.00000000000E+00  0.00000000000E+00  0.62123480314E+03  0.23978873776E+04  0.23160162337E+04 0.  0.
        5    1    3    3  502    0  0.24724364530E+03 -0.26567654997E+03 -0.82791327906E+03  0.90397784098E+03  0.46999998093E+01 0.  1.
       -5    1    3    3    0  502 -0.24724364530E+03  0.26567654997E+03  0.14491480822E+04  0.14939095366E+04  0.46999998093E+01 0. -1.
</event>
<event>
 5   0  0.1303224E-05  0.2230356E+04  0.7818609E-02  0.8505898E-01
       -1   -1    0    0    0  501  0.00000000000E+00  0.00000000000E+00  0.56100336903E+03  0.56100336905E+03  0.50400001928E-02 0.  1.
        1   -1    0    0  501    0  0.00000000000E+00  0.00000000000E+00 -0.22167825781E+04  0.22167825781E+04  0.50400001928E-02 0. -1.
    10030    2    1    2    0    0  0.00000000000E+00  0.00000000000E+00 -0.16557792091E+04  0.27777859472E+04  0.22303564691E+04 0.  0.
        2    1    3    3  502    0  0.68791101975E+01 -0.71631956587E+03 -0.18923344113E+04  0.20233859165E+04  0.25500000920E-02 0. -1.
       -2    1    3    3    0  502 -0.68791101975E+01  0.71631956587E+03  0.23655520226E+03  0.75440003071E+03  0.25500000920E-02 0.  1.
</event>
<event>
 5   0  0.2816178E-05  0.2301765E+04  0.7818609E-02  0.8477226E-01
        2   -1    0    0  501    0  0.00000000000E+00  0.00000000000E+00  0.10488424750E+04  0.10488424750E+04  0.25500000920E-02 0.  1.
       -2   -1    0    0    0  501  0.00000000000E+00  0.00000000000E+00 -0.12628495285E+04  0.12628495285E+04  0.25500000920E-02 0. -1.
    10030    2    1    2    0    0  0.00000000000E+00  0.00000000000E+00 -0.21400705354E+03  0.23116920035E+04  0.23017647361E+04 0.  0.
        1    1    3    3  502    0  0.36507323704E+03  0.10911597113E+04 -0.81951183163E+02  0.11535267576E+04  0.50400001928E-02 0.  1.
       -1    1    3    3    0  502 -0.36507323704E+03 -0.10911597113E+04 -0.13205587037E+03  0.11581652459E+04  0.50400001928E-02 0. -1.
</event>
<event>
 5   0  0.2994157E-05  0.2313171E+04  0.7818609E-02  0.8472746E-01
        2   -1    0    0  501    0  0.00000000000E+00  0.00000000000E+00  0.58623163758E+03  0.58623163758E+03  0.25500000920E-02 0.  1.
       -2   -1    0    0    0  501  0.00000000000E+00  0.00000000000E+00 -0.22818459411E+04  0.22818459411E+04  0.25500000920E-02 0. -1.
    10030    2    1    2    0    0  0.00000000000E+00  0.00000000000E+00 -0.16956143035E+04  0.28680775787E+04  0.23131712282E+04 0.  0.
        4    1    3    3  502    0  0.53808766055E+03 -0.36175700480E+03 -0.20353098298E+04  0.21360932042E+04  0.12699999809E+01 0. -1.
       -4    1    3    3    0  502 -0.53808766055E+03  0.36175700480E+03  0.33969552629E+03  0.73198437445E+03  0.12699999809E+01 0.  1.
</event>
<event>
 5   0  0.2871888E-05  0.2304541E+04  0.7818609E-02  0.8476133E-01
       -2   -1    0    0    0  501  0.00000000000E+00  0.00000000000E+00  0.12466204679E+04  0.12466204679E+04  0.25500000920E-02 0. -1.
        2   -1    0    0  501    0  0.00000000000E+00  0.00000000000E+00 -0.10650617678E+04  0.10650617678E+04  0.25500000920E-02 0.  1.
    10030    2    1    2    0    0  0.00000000000E+00  0.00000000000E+00  0.18155870009E+03  0.23116822357E+04  0.23045414288E+04 0.  0.
        3    1    3    3  502    0 -0.60043039211E+03 -0.54490945689E+03 -0.73046672477E+03  0.10913407434E+04  0.10100000352E+00 0.  1.
       -3    1    3    3    0  502  0.60043039211E+03  0.54490945689E+03  0.91202542486E+03  0.12203414923E+04  0.10100000352E+00 0. -1.
</event>
<event>
 5   0  0.1327820E-05  0.2255499E+04  0.7818609E-02  0.8495677E-01
       -1   -1    0    0    0  501  0.00000000000E+00  0.00000000000E+00  0.12181172110E+04  0.12181172110E+04  0.50400001928E-02 0. -1.
        1   -1    0    0  501    0  0.00000000000E+00  0.00000000000E+00 -0.10440861874E+04  0.10440861874E+04  0.50400001928E-02 0.  1.
    10030    2    1    2    0    0  0.00000000000E+00  0.00000000000E+00  0.17403102368E+03  0.22622033984E+04  0.22554993723E+04 0.  0.
        1    1    3    3  502    0  0.11044046906E+04 -0.10223272011E+03  0.29172534037E+03  0.11468500006E+04  0.50400001928E-02 0. -1.
       -1    1    3    3    0  502 -0.11044046906E+04  0.10223272011E+03 -0.11769431668E+03  0.11153533978E+04  0.50400001928E-02 0.  1.
</event>
<event>
 5   0  0.2938972E-05  0.2294600E+04  0.7818609E-02  0.8480053E-01
       -2   -1    0    0    0  501  0.00000000000E+00  0.00000000000E+00  0.55756317557E+03  0.55756317557E+03  0.25500000920E-02 0. -1.
        2   -1    0    0  501    0  0.00000000000E+00  0.00000000000E+00 -0.23608033293E+04  0.23608033293E+04  0.25500000920E-02 0.  1.
    10030    2    1    2    0    0  0.00000000000E+00  0.00000000000E+00 -0.18032401537E+04  0.29183665048E+04  0.22945997482E+04 0.  0.
        2    1    3    3  502    0 -0.33563399533E+03  0.23095162733E+03  0.46246039731E+03  0.61632657907E+03  0.25500000920E-02 0. -1.
       -2    1    3    3    0  502  0.33563399533E+03 -0.23095162733E+03 -0.22657005510E+04  0.23020399258E+04  0.25500000920E-02 0.  1.
</event>
<event>
 5   0  0.1327820E-05  0.2294298E+04  0.7818609E-02  0.8480173E-01
       -1   -1    0    0    0  501  0.00000000000E+00  0.00000000000E+00  0.10999675134E+04  0.10999675134E+04  0.50400001928E-02 0. -1.
        1   -1    0    0  501    0  0.00000000000E+00  0.00000000000E+00 -0.11963547382E+04  0.11963547382E+04  0.50400001928E-02 0.  1.
    10030    2    1    2    0    0  0.00000000000E+00  0.00000000000E+00 -0.96387224863E+02  0.22963222516E+04  0.22942984518E+04 0.  0.
        1    1    3    3  502    0  0.82675813990E+02 -0.11263244829E+04 -0.24964016447E+03  0.11566167657E+04  0.50400001928E-02 0.  1.
       -1    1    3    3    0  502 -0.82675813990E+02  0.11263244829E+04  0.15325293961E+03  0.11397054859E+04  0.50400001928E-02 0. -1.
</event>
<event>
 5   0  0.1303224E-05  0.2287164E+04  0.7818609E-02  0.8482999E-01
       -1   -1    0    0    0  501  0.00000000000E+00  0.00000000000E+00  0.39386539139E+03  0.39386539142E+03  0.50400001928E-02 0.  1.
        1   -1    0    0  501    0  0.00000000000E+00  0.00000000000E+00 -0.33203721470E+04  0.33203721471E+04  0.50400001928E-02 0. -1.
    10030    2    1    2    0    0  0.00000000000E+00  0.00000000000E+00 -0.29265067557E+04  0.37142375385E+04  0.22871638991E+04 0.  0.
        2    1    3    3  502    0  0.87149440910E+03 -0.63481791237E+03 -0.20822387238E+04  0.23448271557E+04  0.25500000920E-02 0. -1.
       -2    1    3    3    0  502 -0.87149440910E+03  0.63481791237E+03 -0.84426803185E+03  0.13694103828E+04  0.25500000920E-02 0.  1.
</event>
<event>
 5   0  0.2910126E-05  0.2127657E+04  0.7818609E-02  0.8549157E-01
       -2   -1    0    0    0  501  0.00000000000E+00  0.00000000000E+00  0.79076146335E+03  0.79076146336E+03  0.25500000920E-02 0. -1.
        2   -1    0    0  501    0  0.00000000000E+00  0.00000000000E+00 -0.14311912513E+04  0.14311912513E+04  0.25500000920E-02 0.  1.
    10030    2    1    2    0    0  0.00000000000E+00  0.00000000000E+00 -0.64042978791E+03  0.22219527146E+04  0.21276568221E+04 0.  0.
        5    1    3    3  502    0 -0.69085844145E+03 -0.71008194214E+03  0.84527211986E+02  0.99431820372E+03  0.46999998093E+01 0. -1.
       -5    1    3    3    0  502  0.69085844145E+03  0.71008194214E+03 -0.72495699990E+03  0.12276345109E+04  0.46999998093E+01 0.  1.
</event>
<event>
 5   0  0.1327820E-05  0.2281036E+04  0.7818609E-02  0.8485436E-01
        1   -1    0    0  501    0  0.00000000000E+00  0.00000000000E+00  0.17827587762E+04  0.17827587762E+04  0.50400001928E-02 0. -1.
       -1   -1    0    0    0  501  0.00000000000E+00  0.00000000000E+00 -0.72964501547E+03  0.72964501549E+03  0.50400001928E-02 0.  1.
    10030    2    1    2    0    0  0.00000000000E+00  0.00000000000E+00  0.10531137607E+04  0.25124037917E+04  0.22810357778E+04 0.  0.
        1    1    3    3  502    0  0.38764761491E+03  0.17419378788E+03  0.16922888631E+04  0.17448368822E+04  0.50400001928E-02 0. -1.
       -1    1    3    3    0  502 -0.38764761491E+03 -0.17419378788E+03 -0.63917510239E+03  0.76756690954E+03  0.50400001928E-02 0.  1.
</event>
<event>
 5   0  0.2994157E-05  0.2304491E+04  0.7818609E-02  0.8476153E-01
        2   -1    0    0  501    0  0.00000000000E+00  0.00000000000E+00  0.10506390193E+04  0.10506390193E+04  0.25500000920E-02 0. -1.
       -2   -1    0    0    0  501  0.00000000000E+00  0.00000000000E+00 -0.12636782150E+04  0.12636782150E+04  0.25500000920E-02 0.  1.
    10030    2    1    2    0    0  0.00000000000E+00  0.00000000000E+00 -0.21303919572E+03  0.23143172343E+04  0.23044909551E+04 0.  0.
        4    1    3    3  502    0 -0.74921202005E+03 -0.33968858522E+03 -0.91678142789E+03  0.12317454223E+04  0.12699999809E+01 0.  1.
       -4    1    3    3    0  502  0.74921202005E+03  0.33968858522E+03  0.70374223217E+03  0.10825718120E+04  0.12699999809E+01 0. -1.
</event>
<event>
 5   0  0.1017200E-05  0.2322304E+04  0.7818609E-02  0.8469179E-01
       -3   -1    0    0    0  501  0.00000000000E+00  0.00000000000E+00  0.95621004336E+03  0.95621004869E+03  0.10100000352E+00 0.  1.
        3   -1    0    0  501    0  0.00000000000E+00  0.00000000000E+00 -0.14100181764E+04  0.14100181800E+04  0.10100000352E+00 0. -1.
    10030    2    1    2    0    0  0.00000000000E+00  0.00000000000E+00 -0.45380813300E+03  0.23662282287E+04  0.23223036426E+04 0.  0.
        3    1    3    3  502    0 -0.21075846759E+03  0.34041354886E+03  0.88365309640E+03  0.97012541503E+03  0.10100000352E+00 0.  1.
       -3    1    3    3    0  502  0.21075846759E+03 -0.34041354886E+03 -0.13374612294E+04  0.13961028136E+04  0.10100000352E+00 0. -1.
</event>
<event>
 5   0  0.2871888E-05  0.2306588E+04  0.7818609E-02  0.8475328E-01
        2   -1    0    0  501    0  0.00000000000E+00  0.00000000000E+00  0.13586697287E+04  0.13586697287E+04  0.25500000920E-02 0.  1.
       -2   -1    0    0    0  501  0.00000000000E+00  0.00000000000E+00 -0.97896281496E+03  0.97896281496E+03  0.25500000920E-02 0. -1.
    10030    2    1    2    0    0  0.00000000000E+00  0.00000000000E+00  0.37970691371E+03  0.23376325436E+04  0.23065880796E+04 0.  0.
        3    1    3    3  502    0 -0.58883337469E+03  0.99063938850E+03  0.14457564097E+03  0.11614616943E+04  0.10100000352E+00 0.  1.
       -3    1    3    3    0  502  0.58883337469E+03 -0.99063938850E+03  0.23513127275E+03  0.11761708493E+04  0.10100000352E+00 0. -1.
</event>
<event>
 5   0  0.2871888E-05  0.2310490E+04  0.7818609E-02  0.8473796E-01
        2   -1    0    0  501    0  0.00000000000E+00  0.00000000000E+00  0.13957470126E+04  0.13957470126E+04  0.25500000920E-02 0.  1.
       -2   -1    0    0    0  501  0.00000000000E+00  0.00000000000E+00 -0.95618408776E+03  0.95618408776E+03  0.25500000920E-02 0. -1.
    10030    2    1    2    0    0  0.00000000000E+00  0.00000000000E+00  0.43956292483E+03  0.23519311004E+04  0.23104900640E+04 0.  0.
        3    1    3    3  502    0 -0.11245136907E+04  0.32039986798E+02 -0.47673308386E+02  0.11259797316E+04  0.10100000352E+00 0.  1.
       -3    1    3    3    0  502  0.11245136907E+04 -0.32039986798E+02  0.48723623322E+03  0.12259513688E+04  0.10100000352E+00 0. -1.
</event>
<event>
 5   0  0.1371753E-05  0.2299403E+04  0.7818609E-02  0.8478156E-01
       -1   -1    0    0    0  501  0.00000000000E+00  0.00000000000E+00  0.59985977601E+03  0.59985977603E+03  0.50400001928E-02 0. -1.
        1   -1    0    0  501    0  0.00000000000E+00  0.00000000000E+00 -0.22035383301E+04  0.22035383301E+04  0.50400001928E-02 0.  1.
    10030    2    1    2    0    0  0.00000000000E+00  0.00000000000E+00 -0.16036785541E+04  0.28033981061E+04  0.22994034088E+04 0.  0.
        3    1    3    3  502    0 -0.63784986029E+03  0.87211429417E+03 -0.32280939147E+03  0.11276709182E+04  0.10100000352E+00 0. -1.
       -3    1    3    3    0  502  0.63784986029E+03 -0.87211429417E+03 -0.12808691626E+04  0.16757271879E+04  0.10100000352E+00 0.  1.
</event>
<event>
 5   0  0.2938972E-05  0.2303325E+04  0.7818609E-02  0.8476611E-01
       -2   -1    0    0    0  501  0.00000000000E+00  0.00000000000E+00  0.15271162505E+04  0.15271162505E+04  0.25500000920E-02 0. -1.
        2   -1    0    0  501    0  0.00000000000E+00  0.00000000000E+00 -0.86851697108E+03  0.86851697109E+03  0.25500000920E-02 0.  1.
    10030    2    1    2    0    0  0.00000000000E+00  0.00000000000E+00  0.65859927941E+03  0.23956332216E+04  0.23033248841E+04 0.  0.
        2    1    3    3  502    0 -0.10857323058E+04  0.24108622700E+03  0.64026182823E+03  0.12833052705E+04  0.25500000920E-02 0.  1.
       -2    1    3    3    0  502  0.10857323058E+04 -0.24108622700E+03  0.18337451181E+02  0.11123279511E+04  0.25500000920E-02 0. -1.
</event>
<event>
 5   0  0.2994157E-05  0.2300451E+04  0.7818609E-02  0.8477743E-01
        2   -1    0    0  501    0  0.00000000000E+00  0.00000000000E+00  0.98249353124E+03  0.98249353124E+03  0.25500000920E-02 0.  1.
       -2   -1    0    0    0  501  0.00000000000E+00  0.00000000000E+00 -0.13465926930E+04  0.13465926930E+04  0.25500000920E-02 0. -1.
    10030    2    1    2    0    0  0.00000000000E+00  0.00000000000E+00 -0.36409916175E+03  0.23290862242E+04  0.23004509211E+04 0.  0.
        4    1    3    3  502    0  0.38718278168E+03  0.23359874512E+02 -0.12783770135E+04  0.13359287375E+04  0.12699999809E+01 0. -1.
       -4    1    3    3    0  502 -0.38718278168E+03 -0.23359874512E+02  0.91427785179E+03  0.99315748668E+03  0.12699999809E+01 0.  1.
</event>
<event>
 5   0  0.2994157E-05  0.2295029E+04  0.7818609E-02  0.8479884E-01
        2   -1    0    0  501    0  0.00000000000E+00  0.00000000000E+00  0.54630803845E+03  0.54630803846E+03  0.25500000920E-02 0.  1.
       -2   -1    0    0    0  501  0.00000000000E+00  0.00000000000E+00 -0.24103417986E+04  0.24103417986E+04  0.25500000920E-02 0. -1.
    10030    2    1    2    0    0  0.00000000000E+00  0.00000000000E+00 -0.18640337602E+04  0.29566498371E+04  0.22950286273E+04 0.  0.
        4    1    3    3  502    0 -0.11215722238E+04  0.17335260562E+03 -0.71334179584E+03  0.13404601858E+04  0.12699999809E+01 0. -1.
       -4    1    3    3    0  502  0.11215722238E+04 -0.17335260562E+03 -0.11506919643E+04  0.16161896513E+04  0.12699999809E+01 0.  1.
</event>
<event>
 5   0  0.1284837E-05  0.2248745E+04  0.7818609E-02  0.8498409E-01
       -1   -1    0    0    0  501  0.00000000000E+00  0.00000000000E+00  0.15820436722E+04  0.15820436722E+04  0.50400001928E-02 0. -1.
        1   -1    0    0  501    0  0.00000000000E+00  0.00000000000E+00 -0.79910144059E+03  0.79910144061E+03  0.50400001928E-02 0.  1.
    10030    2    1    2    0    0  0.00000000000E+00  0.00000000000E+00  0.78294223165E+03  0.23811451129E+04  0.22487448744E+04 0.  0.
        4    1    3    3  502    0  0.94041162477E+02 -0.25271300729E+03  0.15472997737E+04  0.15706195615E+04  0.12699999809E+01 0. -1.
       -4    1    3    3    0  502 -0.94041162477E+02  0.25271300729E+03 -0.76435754210E+03  0.81052555133E+03  0.12699999809E+01 0.  1.
</event>
<event>
 5   0  0.1308224E-05  0.2309599E+04  0.7818609E-02  0.8474146E-01
        1   -1    0    0  501    0  0.00000000000E+00  0.00000000000E+00  0.10500251564E+04  0.10500251564E+04  0.50400001928E-02 0.  1.
       -1   -1    0    0    0  501  0.00000000000E+00  0.00000000000E+00 -0.12700287817E+04  0.12700287817E+04  0.50400001928E-02 0. -1.
    10030    2    1    2    0    0  0.00000000000E+00  0.00000000000E+00 -0.22000362529E+03  0.23200539381E+04  0.23095992468E+04 0.  0.
        5    1    3    3  502    0 -0.14068775828E+03  0.59890669467E+03  0.87169251546E+03  0.10669358958E+04  0.46999998093E+01 0.  1.
       -5    1    3    3    0  502  0.14068775828E+03 -0.59890669467E+03 -0.10916961408E+04  0.12531180423E+04  0.46999998093E+01 0. -1.
</event>
<event>
 5   0  0.1327820E-05  0.2296519E+04  0.7818609E-02  0.8479295E-01
       -1   -1    0    0    0  501  0.00000000000E+00  0.00000000000E+00  0.84608380487E+03  0.84608380489E+03  0.50400001928E-02 0. -1.
        1   -1    0    0  501    0  0.00000000000E+00  0.00000000000E+00 -0.15583558681E+04  0.15583558681E+04  0.50400001928E-02 0.  1.
    10030    2    1    2    0    0  0.00000000000E+00  0.00000000000E+00 -0.71227206324E+03  0.24044396730E+04  0.22965188110E+04 0.  0.
        1    1    3    3  502    0  0.41857274089E+03 -0.50547500991E+03  0.63036916760E+03  0.90998539139E+03  0.50400001928E-02 0. -1.
       -1    1    3    3    0  502 -0.41857274089E+03  0.50547500991E+03 -0.13426412308E+04  0.14944542816E+04  0.50400001928E-02 0.  1.
</event>
<event>
 5   0  0.1284837E-05  0.2247228E+04  0.7818609E-02  0.8499024E-01
       -1   -1    0    0    0  501  0.00000000000E+00  0.00000000000E+00  0.87727987059E+03  0.87727987060E+03  0.50400001928E-02 0. -1.
        1   -1    0    0  501    0  0.00000000000E+00  0.00000000000E+00 -0.14391173543E+04  0.14391173543E+04  0.50400001928E-02 0.  1.
    10030    2    1    2    0    0  0.00000000000E+00  0.00000000000E+00 -0.56183748374E+03  0.23163972249E+04  0.22472282362E+04 0.  0.
        4    1    3    3  502    0  0.77942932359E+03  0.79084039914E+02 -0.11111557738E+04  0.13595709332E+04  0.12699999809E+01 0.  1.
       -4    1    3    3    0  502 -0.77942932359E+03 -0.79084039914E+02  0.54931829007E+03  0.95682629173E+03  0.12699999809E+01 0. -1.
</event>
<event>
 5   0  0.1327820E-05  0.2311284E+04  0.7818609E-02  0.8473485E-01
       -1   -1    0    0    0  501  0.00000000000E+00  0.00000000000E+00  0.87999577586E+03  0.87999577587E+03  0.50400001928E-02 0. -1.
        1   -1    0    0  501    0  0.00000000000E+00  0.00000000000E+00 -0.15176300451E+04  0.15176300451E+04  0.50400001928E-02 0.  1.
    10030    2    1    2    0    0  0.00000000000E+00  0.00000000000E+00 -0.63763426927E+03  0.23976258210E+04  0.23112836512E+04 0.  0.
        1    1    3    3  502    0  0.10907632331E+04  0.24541907466E+03 -0.15466837651E+02  0.11181387105E+04  0.50400001928E-02 0.  1.
       -1    1    3    3    0  502 -0.10907632331E+04 -0.24541907466E+03 -0.62216743162E+03  0.12794871105E+04  0.50400001928E-02 0. -1.
</event>
<event>
 5   0  0.2938972E-05  0.2332160E+04  0.7818609E-02  0.8465348E-01
       -2   -1    0    0    0  501  0.00000000000E+00  0.00000000000E+00  0.63122387118E+03  0.63122387119E+03  0.25500000920E-02 0. -1.
        2   -1    0    0  501    0  0.00000000000E+00  0.00000000000E+00 -0.21541370839E+04  0.21541370839E+04  0.25500000920E-02 0.  1.
    10030    2    1    2    0    0  0.00000000000E+00  0.00000000000E+00 -0.15229132127E+04  0.27853609551E+04  0.23321601567E+04 0.  0.
        2    1    3    3  502    0 -0.75433808241E+03  0.88920144247E+03 -0.75413300678E+03  0.13886762545E+04  0.25500000920E-02 0. -1.
       -2    1    3    3    0  502  0.75433808241E+03 -0.88920144247E+03 -0.76878020595E+03  0.13966847006E+04  0.25500000920E-02 0.  1.
</event>
<event>
 5   0  0.1284837E-05  0.2290631E+04  0.7818609E-02  0.8481624E-01
       -1   -1    0    0    0  501  0.00000000000E+00  0.00000000000E+00  0.13303256697E+04  0.13303256697E+04  0.50400001928E-02 0.  1.
        1   -1    0    0  501    0  0.00000000000E+00  0.00000000000E+00 -0.98603510760E+03  0.98603510761E+03  0.50400001928E-02 0. -1.
    10030    2    1    2    0    0  0.00000000000E+00  0.00000000000E+00  0.34429056208E+03  0.23163607773E+04  0.22906311924E+04 0.  0.
        4    1    3    3  502    0 -0.59289872540E+03  0.41520149294E+03  0.10697102986E+04  0.12915892978E+04  0.12699999809E+01 0.  1.
       -4    1    3    3    0  502  0.59289872540E+03 -0.41520149294E+03 -0.72541973648E+03  0.10247714795E+04  0.12699999809E+01 0. -1.
</event>
<event>
 5   0  0.2994157E-05  0.2280323E+04  0.7818609E-02  0.8485720E-01
        2   -1    0    0  501    0  0.00000000000E+00  0.00000000000E+00  0.18614392278E+04  0.18614392278E+04  0.25500000920E-02 0. -1.
       -2   -1    0    0    0  501  0.00000000000E+00  0.00000000000E+00 -0.69836750285E+03  0.69836750286E+03  0.25500000920E-02 0.  1.
    10030    2    1    2    0    0  0.00000000000E+00  0.00000000000E+00  0.11630717250E+04  0.25598067307E+04  0.22803233677E+04 0.  0.
        4    1    3    3  502    0 -0.53903925956E+03  0.68426005402E+03  0.14073577437E+04  0.16551231304E+04  0.12699999809E+01 0. -1.
       -4    1    3    3    0  502  0.53903925956E+03 -0.68426005402E+03 -0.24428601875E+03  0.90468360034E+03  0.12699999809E+01 0.  1.
</event>
<event>
 5   0  0.1327820E-05  0.2301648E+04  0.7818609E-02  0.8477271E-01
       -1   -1    0    0    0  501  0.00000000000E+00  0.00000000000E+00  0.12400465356E+04  0.12400465357E+04  0.50400001928E-02 0.  1.
        1   -1    0    0  501    0  0.00000000000E+00  0.00000000000E+00 -0.10680214147E+04  0.10680214147E+04  0.50400001928E-02 0. -1.
    10030    2    1    2    0    0  0.00000000000E+00  0.00000000000E+00  0.17202512093E+03  0.23080679504E+04  0.23016483270E+04 0.  0.
        1    1    3    3  502    0 -0.35181989551E+03 -0.15957757870E+03 -0.10010562032E+04  0.10730124717E+04  0.50400001928E-02 0. -1.
       -1    1    3    3    0  502  0.35181989551E+03  0.15957757870E+03  0.11730813241E+04  0.12350554787E+04  0.50400001928E-02 0.  1.
</event>
<event>
 5   0  0.1371753E-05  0.2305739E+04  0.7818609E-02  0.8475662E-01
        1   -1    0    0  501    0  0.00000000000E+00  0.00000000000E+00  0.83006456633E+03  0.83006456634E+03  0.50400001928E-02 0. -1.
       -1   -1    0    0    0  501  0.00000000000E+00  0.00000000000E+00 -0.16012104863E+04  0.16012104863E+04  0.50400001928E-02 0.  1.
    10030    2    1    2    0    0  0.00000000000E+00  0.00000000000E+00 -0.77114591993E+03  0.24312750526E+04  0.23057390034E+04 0.  0.
        3    1    3    3  502    0  0.11276964384E+04  0.55765894067E+02 -0.63128124783E+03  0.12935706847E+04  0.10100000352E+00 0.  1.
       -3    1    3    3    0  502 -0.11276964384E+04 -0.55765894067E+02 -0.13986467210E+03  0.11377043680E+04  0.10100000352E+00 0. -1.
</event>
<event>
 5   0  0.2938972E-05  0.2364450E+04  0.7818609E-02  0.8452934E-01
        2   -1    0    0  501    0  0.00000000000E+00  0.00000000000E+00  0.22283537585E+04  0.22283537585E+04  0.25500000920E-02 0.  1.
       -2   -1    0    0    0  501  0.00000000000E+00  0.00000000000E+00 -0.62721435232E+03  0.62721435233E+03  0.25500000920E-02 0. -1.
    10030    2    1    2    0    0  0.00000000000E+00  0.00000000000E+00  0.16011394062E+04  0.28555681108E+04  0.23644495845E+04 0.  0.
        2    1    3    3  502    0 -0.44050131716E+03 -0.52332888740E+03 -0.36394087795E+03  0.77483385152E+03  0.25500000920E-02 0. -1.
       -2    1    3    3    0  502  0.44050131716E+03  0.52332888740E+03  0.19650802841E+04  0.20807342593E+04  0.25500000920E-02 0.  1.
</event>
<event>
 5   0  0.2816178E-05  0.2283920E+04  0.7818609E-02  0.8484288E-01
       -2   -1    0    0    0  501  0.00000000000E+00  0.00000000000E+00  0.43424824384E+03  0.43424824385E+03  0.25500000920E-02 0.  1.
        2   -1    0    0  501    0  0.00000000000E+00  0.00000000000E+00 -0.30030574606E+04  0.30030574606E+04  0.25500000920E-02 0. -1.
    10030    2    1    2    0    0  0.00000000000E+00  0.00000000000E+00 -0.25688092168E+04  0.34373057045E+04  0.22839198133E+04 0.  0.
        1    1    3    3  502    0 -0.97182102746E+03 -0.47851678698E+03 -0.74039657160E+03  0.13120981320E+04  0.50400001928E-02 0.  1.
       -1    1    3    3    0  502  0.97182102746E+03  0.47851678698E+03 -0.18284126452E+04  0.21252075724E+04  0.50400001928E-02 0. -1.
</event>
<event>
 5   0  0.2910126E-05  0.2292088E+04  0.7818609E-02  0.8481047E-01
        2   -1    0    0  501    0  0.00000000000E+00  0.00000000000E+00  0.52362727791E+03  0.52362727791E+03  0.25500000920E-02 0. -1.
       -2   -1    0    0    0  501  0.00000000000E+00  0.00000000000E+00 -0.25083044206E+04  0.25083044206E+04  0.25500000920E-02 0.  1.
    10030    2    1    2    0    0  0.00000000000E+00  0.00000000000E+00 -0.19846771427E+04  0.30319316985E+04  0.22920877958E+04 0.  0.
        5    1    3    3  502    0  0.37037239714E+03  0.19976670787E+03 -0.24023965678E+04  0.24389780256E+04  0.46999998093E+01 0.  1.
       -5    1    3    3    0  502 -0.37037239714E+03 -0.19976670787E+03  0.41771942512E+03  0.59295367295E+03  0.46999998093E+01 0. -1.
</event>
<event>
 5   0  0.1284837E-05  0.2270638E+04  0.7818609E-02  0.8489589E-01
        1   -1    0    0  501    0  0.00000000000E+00  0.00000000000E+00  0.17518196878E+04  0.17518196878E+04  0.50400001928E-02 0. -1.
       -1   -1    0    0    0  501  0.00000000000E+00  0.00000000000E+00 -0.73577739274E+03  0.73577739276E+03  0.50400001928E-02 0.  1.
    10030    2    1    2    0    0  0.00000000000E+00  0.00000000000E+00  0.10160422951E+04  0.24875970806E+04  0.22706380799E+04 0.  0.
        4    1    3    3  502    0 -0.66586614259E+03  0.75961077077E+03 -0.59724706556E+02  0.10119065650E+04  0.12699999809E+01 0.  1.
       -4    1    3    3    0  502  0.66586614259E+03 -0.75961077077E+03  0.10757670016E+04  0.14756905155E+04  0.12699999809E+01 0. -1.
</event>
<event>
 5   0  0.1327820E-05  0.2298800E+04  0.7818609E-02  0.8478394E-01
        1   -1    0    0  501    0  0.00000000000E+00  0.00000000000E+00  0.15932615895E+04  0.15932615895E+04  0.50400001928E-02 0. -1.
       -1   -1    0    0    0  501  0.00000000000E+00  0.00000000000E+00 -0.82919222262E+03  0.82919222263E+03  0.50400001928E-02 0.  1.
    10030    2    1    2    0    0  0.00000000000E+00  0.00000000000E+00  0.76406936688E+03  0.24224538121E+04  0.22987997900E+04 0.  0.
        1    1    3    3  502    0 -0.43975182404E+03 -0.53668960984E+03  0.13476788807E+04  0.15158020219E+04  0.50400001928E-02 0. -1.
       -1    1    3    3    0  502  0.43975182404E+03  0.53668960984E+03 -0.58360951384E+03  0.90665179023E+03  0.50400001928E-02 0.  1.
</event>
<event>
 5   0  0.1308224E-05  0.2306110E+04  0.7818609E-02  0.8475516E-01
       -1   -1    0    0    0  501  0.00000000000E+00  0.00000000000E+00  0.10181652901E+04  0.10181652901E+04  0.50400001928E-02 0.  1.
        1   -1    0    0  501    0  0.00000000000E+00  0.00000000000E+00 -0.13058148943E+04  0.13058148943E+04  0.50400001928E-02 0. -1.
    10030    2    1    2    0    0  0.00000000000E+00  0.00000000000E+00 -0.28764960418E+03  0.23239801844E+04  0.23061096251E+04 0.  0.
        5    1    3    3  502    0  0.15860168295E+03 -0.75695678683E+03  0.71800716521E+03  0.10553172273E+04  0.46999998093E+01 0.  1.
       -5    1    3    3    0  502 -0.15860168295E+03  0.75695678683E+03 -0.10056567694E+04  0.12686629571E+04  0.46999998093E+01 0. -1.
</event>
<event>
 5   0  0.2871888E-05  0.2295473E+04  0.7818609E-02  0.8479708E-01
       -2   -1    0    0    0  501  0.00000000000E+00  0.00000000000E+00  0.12565570817E+04  0.12565570817E+04  0.25500000920E-02 0. -1.
        2   -1    0    0  501    0  0.00000000000E+00  0.00000000000E+00 -0.10483399798E+04  0.10483399798E+04  0.25500000920E-02 0.  1.
    10030    2    1    2    0    0  0.00000000000E+00  0.00000000000E+00  0.20821710192E+03  0.23048970615E+04  0.22954729583E+04 0.  0.
        3    1    3    3  502    0  0.59851247499E+03 -0.50590950087E+03 -0.73786695124E+03  0.10763871300E+04  0.10100000352E+00 0.  1.
       -3    1    3    3    0  502 -0.59851247499E+03  0.50590950087E+03  0.94608405316E+03  0.12285099314E+04  0.10100000352E+00 0. -1.
</event>
<event>
 5   0  0.2938972E-05  0.2297567E+04  0.7818609E-02  0.8478881E-01
       -2   -1    0    0    0  501  0.00000000000E+00  0.00000000000E+00  0.18123350158E+04  0.18123350158E+04  0.25500000920E-02 0.  1.
        2   -1    0    0  501    0  0.00000000000E+00  0.00000000000E+00 -0.72817878798E+03  0.72817878799E+03  0.25500000920E-02 0. -1.
    10030    2    1    2    0    0  0.00000000000E+00  0.00000000000E+00  0.10841562278E+04  0.25405138038E+04  0.22975673355E+04 0.  0.
        2    1    3    3  502    0  0.92473917221E+03  0.93807189387E+02 -0.20440875290E+03  0.95169599330E+03  0.25500000920E-02 0. -1.
       -2    1    3    3    0  502 -0.92473917221E+03 -0.93807189387E+02  0.12885649807E+04  0.15888178105E+04  0.25500000920E-02 0.  1.
</event>
<event>
 5   0  0.1303224E-05  0.2297288E+04  0.7818609E-02  0.8478991E-01
       -1   -1    0    0    0  501  0.00000000000E+00  0.00000000000E+00  0.60568954552E+03  0.60568954554E+03  0.50400001928E-02 0.  1.
        1   -1    0    0  501    0  0.00000000000E+00  0.00000000000E+00 -0.21783153111E+04  0.21783153111E+04  0.50400001928E-02 0. -1.
    10030    2    1    2    0    0  0.00000000000E+00  0.00000000000E+00 -0.15726257656E+04  0.27840048567E+04  0.22972878016E+04 0.  0.
        2    1    3    3  502    0 -0.63294404170E+03  0.48590406788E+03 -0.17875971924E+04  0.19576068669E+04  0.25500000920E-02 0. -1.
       -2    1    3    3    0  502  0.63294404170E+03 -0.48590406788E+03  0.21497142681E+03  0.82639798975E+03  0.25500000920E-02 0.  1.
</event>
<event>
 5   0  0.1303224E-05  0.2283732E+04  0.7818609E-02  0.8484363E-01
        1   -1    0    0  501    0  0.00000000000E+00  0.00000000000E+00  0.12691087996E+04  0.12691087996E+04  0.50400001928E-02 0. -1.
       -1   -1    0    0    0  501  0.00000000000E+00  0.00000000000E+00 -0.10273804120E+04  0.10273804120E+04  0.50400001928E-02 0.  1.
    10030    2    1    2    0    0  0.00000000000E+00  0.00000000000E+00  0.24172838757E+03  0.22964892116E+04  0.22837316141E+04 0.  0.
        2    1    3    3  502    0  0.91172861377E+03 -0.12106220751E+03 -0.55963797611E+03  0.10766149672E+04  0.25500000920E-02 0.  1.
       -2    1    3    3    0  502 -0.91172861377E+03  0.12106220751E+03  0.80136636368E+03  0.12198742444E+04  0.25500000920E-02 0. -1.
</event>
<event>
 5   0  0.2816178E-05  0.2364174E+04  0.7818609E-02  0.8453039E-01
        2   -1    0    0  501    0  0.00000000000E+00  0.00000000000E+00  0.13867636086E+04  0.13867636086E+04  0.25500000920E-02 0. -1.
       -2   -1    0    0    0  501  0.00000000000E+00  0.00000000000E+00 -0.10076191467E+04  0.10076191467E+04  0.25500000920E-02 0.  1.
    10030    2    1    2    0    0  0.00000000000E+00  0.00000000000E+00  0.37914446190E+03  0.23943827553E+04  0.23641739056E+04 0.  0.
        1    1    3    3  502    0 -0.36796150467E+03  0.11045602309E+04  0.39683464853E+03  0.12300108580E+04  0.50400001928E-02 0.  1.
       -1    1    3    3    0  502  0.36796150467E+03 -0.11045602309E+04 -0.17690186638E+02  0.11643718973E+04  0.50400001928E-02 0. -1.
</event>
<event>
 5   0  0.1371753E-05  0.2305550E+04  0.7818609E-02  0.8475736E-01
       -1   -1    0    0    0  501  0.00000000000E+00  0.00000000000E+00  0.99732538148E+03  0.99732538149E+03  0.50400001928E-02 0.  1.
        1   -1    0    0  501    0  0.00000000000E+00  0.00000000000E+00 -0.13324538969E+04  0.13324538969E+04  0.50400001928E-02 0. -1.
    10030    2    1    2    0    0  0.00000000000E+00  0.00000000000E+00 -0.33512851541E+03  0.23297792784E+04  0.23055499049E+04 0.  0.
        3    1    3    3  502    0  0.72769482807E+02  0.88649225556E+03  0.57344022493E+03  0.10582993993E+04  0.10100000352E+00 0.  1.
       -3    1    3    3    0  502 -0.72769482807E+02 -0.88649225556E+03 -0.90856874034E+03  0.12714798791E+04  0.10100000352E+00 0. -1.
</event>
<event>
 5   0  0.2816178E-05  0.2311287E+04  0.7818609E-02  0.8473484E-01
        2   -1    0    0  501    0  0.00000000000E+00  0.00000000000E+00  0.15252194658E+04  0.15252194658E+04  0.25500000920E-02 0. -1.
       -2   -1    0    0    0  501  0.00000000000E+00  0.00000000000E+00 -0.87561968904E+03  0.87561968904E+03  0.25500000920E-02 0.  1.
    10030    2    1    2    0    0  0.00000000000E+00  0.00000000000E+00  0.64959977677E+03  0.24008391549E+04  0.23112872555E+04 0.  0.
        1    1    3    3  502    0 -0.52790443035E+03 -0.67353531774E+03 -0.48193780469E+03  0.98213897155E+03  0.50400001928E-02 0.  1.
       -1    1    3    3    0  502  0.52790443035E+03  0.67353531774E+03  0.11315375815E+04  0.14187001833E+04  0.50400001928E-02 0. -1.
</event>
<event>
 5   0  0.1303224E-05  0.2326263E+04  0.7818609E-02  0.8467637E-01
       -1   -1    0    0    0  501  0.00000000000E+00  0.00000000000E+00  0.90985898482E+03  0.90985898484E+03  0.50400001928E-02 0.  1.
        1   -1    0    0  501    0  0.00000000000E+00  0.00000000000E+00 -0.14869063992E+04  0.14869063992E+04  0.50400001928E-02 0. -1.
    10030    2    1    2    0    0  0.00000000000E+00  0.00000000000E+00 -0.57704741438E+03  0.23967653840E+04  0.23262632241E+04 0.  0.
        2    1    3    3  502    0  0.11211759040E+04  0.28837535583E+03 -0.40453917803E+03  0.12263146823E+04  0.25500000920E-02 0. -1.
       -2    1    3    3    0  502 -0.11211759040E+04 -0.28837535583E+03 -0.17250823634E+03  0.11704507017E+04  0.25500000920E-02 0.  1.
</event>
<event>
 5   0  0.1284837E-05  0.2296745E+04  0.7818609E-02  0.8479205E-01
       -1   -1    0    0    0  501  0.00000000000E+00  0.00000000000E+00  0.13275734323E+04  0.13275734323E+04  0.50400001928E-02 0.  1.
        1   -1    0    0  501    0  0.00000000000E+00  0.00000000000E+00 -0.99336114610E+03  0.99336114611E+03  0.50400001928E-02 0. -1.
    10030    2    1    2    0    0  0.00000000000E+00  0.00000000000E+00  0.33421228621E+03  0.23209345784E+04  0.22967454071E+04 0.  0.
        4    1    3    3  502    0 -0.11910566748E+03 -0.11402614478E+04  0.10025867958E+03  0.11508413205E+04  0.12699999809E+01 0. -1.
       -4    1    3    3    0  502  0.11910566748E+03  0.11402614478E+04  0.23395360663E+03  0.11700932579E+04  0.12699999809E+01 0.  1.
</event>
<event>
 5   0  0.2994157E-05  0.2265911E+04  0.7818609E-02  0.8491484E-01
        2   -1    0    0  501    0  0.00000000000E+00  0.00000000000E+00  0.81959354383E+03  0.81959354383E+03  0.25500000920E-02 0. -1.
       -2   -1    0    0    0  501  0.00000000000E+00  0.00000000000E+00 -0.15661277367E+04  0.15661277367E+04  0.25500000920E-02 0.  1.
    10030    2    1    2    0    0  0.00000000000E+00  0.00000000000E+00 -0.74653419290E+03  0.23857212806E+04  0.22659110149E+04 0.  0.
        4    1    3    3  502    0 -0.83216225707E+03  0.45715245505E+03 -0.10240973730E+04  0.13965168926E+04  0.12699999809E+01 0.  1.
       -4    1    3    3    0  502  0.83216225707E+03 -0.45715245505E+03  0.27756318006E+03  0.98920438792E+03  0.12699999809E+01 0. -1.
</event>
<event>
 5   0  0.2938972E-05  0.2300186E+04  0.7818609E-02  0.8477848E-01
       -2   -1    0    0    0  501  0.00000000000E+00  0.00000000000E+00  0.88411498967E+03  0.88411498967E+03  0.25500000920E-02 0.  1.
        2   -1    0    0  501    0  0.00000000000E+00  0.00000000000E+00 -0.14960876169E+04  0.14960876169E+04  0.25500000920E-02 0. -1.
    10030    2    1    2    0    0  0.00000000000E+00  0.00000000000E+00 -0.61197262722E+03  0.23802026066E+04  0.23001856342E+04 0.  0.
        2    1    3    3  502    0 -0.36151677579E+03  0.61386606112E+03  0.62829962714E+03  0.94988754158E+03  0.25500000920E-02 0.  1.
       -2    1    3    3    0  502  0.36151677579E+03 -0.61386606112E+03 -0.12402722544E+04  0.14303150650E+04  0.25500000920E-02 0. -1.
</event>
<event>
 5   0  0.1308224E-05  0.2294090E+04  0.7818609E-02  0.8480255E-01
        1   -1    0    0  501    0  0.00000000000E+00  0.00000000000E+00  0.14210543141E+04  0.14210543141E+04  0.50400001928E-02 0. -1.
       -1   -1    0    0    0  501  0.00000000000E+00  0.00000000000E+00 -0.92587074465E+03  0.92587074466E+03  0.50400001928E-02 0.  1.
    10030    2    1    2    0    0  0.00000000000E+00  0.00000000000E+00  0.49518356946E+03  0.23469250588E+04  0.22940903348E+04 0.  0.
        5    1    3    3  502    0 -0.83603311528E+03  0.70281449214E+03 -0.11089395063E+03  0.10978247303E+04  0.46999998093E+01 0. -1.
       -5    1    3    3    0  502  0.83603311528E+03 -0.70281449214E+03  0.60607752009E+03  0.12491003285E+04  0.46999998093E+01 0.  1.
</event>
<event>
 5   0  0.2910126E-05  0.2284542E+04  0.7818609E-02  0.8484041E-01
        2   -1    0    0  501    0  0.00000000000E+00  0.00000000000E+00  0.13750756744E+04  0.13750756744E+04  0.25500000920E-02 0. -1.
       -2   -1    0    0    0  501  0.00000000000E+00  0.00000000000E+00 -0.94888090682E+03  0.94888090683E+03  0.25500000920E-02 0.  1.
    10030    2    1    2    0    0  0.00000000000E+00  0.00000000000E+00  0.42619476755E+03  0.23239565812E+04  0.22845420135E+04 0.  0.
        5    1    3    3  502    0 -0.95645511530E+03 -0.36656727168E+03  0.72737171880E+03  0.12562920280E+04  0.46999998093E+01 0.  1.
       -5    1    3    3    0  502  0.95645511530E+03  0.36656727168E+03 -0.30117695125E+03  0.10676645532E+04  0.46999998093E+01 0. -1.
</event>
<event>
 5   0  0.2938972E-05  0.2304730E+04  0.7818609E-02  0.8476058E-01
        2   -1    0    0  501    0  0.00000000000E+00  0.00000000000E+00  0.41573934596E+03  0.41573934597E+03  0.25500000920E-02 0.  1.
       -2   -1    0    0    0  501  0.00000000000E+00  0.00000000000E+00 -0.31941772564E+04  0.31941772564E+04  0.25500000920E-02 0. -1.
    10030    2    1    2    0    0  0.00000000000E+00  0.00000000000E+00 -0.27784379104E+04  0.36099166023E+04  0.23047300609E+04 0.  0.
        2    1    3    3  502    0  0.37647044547E+03 -0.54440823595E+03 -0.28667336374E+04  0.29421543249E+04  0.25500000920E-02 0. -1.
       -2    1    3    3    0  502 -0.37647044547E+03  0.54440823595E+03  0.88295727044E+02  0.66776227739E+03  0.25500000920E-02 0.  1.
</event>
<event>
 5   0  0.2910126E-05  0.2296380E+04  0.7818609E-02  0.8479350E-01
       -2   -1    0    0    0  501  0.00000000000E+00  0.00000000000E+00  0.10062590332E+04  0.10062590332E+04  0.25500000920E-02 0. -1.
        2   -1    0    0  501    0  0.00000000000E+00  0.00000000000E+00 -0.13101402072E+04  0.13101402072E+04  0.25500000920E-02 0.  1.
    10030    2    1    2    0    0  0.00000000000E+00  0.00000000000E+00 -0.30388117401E+03  0.23163992404E+04  0.22963801238E+04 0.  0.
        5    1    3    3  502    0 -0.19293687757E+03 -0.17317962370E+03 -0.12802184880E+04  0.13062148704E+04  0.46999998093E+01 0.  1.
       -5    1    3    3    0  502  0.19293687757E+03  0.17317962370E+03  0.97633731394E+03  0.10101843700E+04  0.46999998093E+01 0. -1.
</event>
<event>
 5   0  0.1371753E-05  0.2308903E+04  0.7818609E-02  0.8474419E-01
       -1   -1    0    0    0  501  0.00000000000E+00  0.00000000000E+00  0.11471462111E+04  0.11471462111E+04  0.50400001928E-02 0.  1.
        1   -1    0    0  501    0  0.00000000000E+00  0.00000000000E+00 -0.11618034001E+04  0.11618034001E+04  0.50400001928E-02 0. -1.
    10030    2    1    2    0    0  0.00000000000E+00  0.00000000000E+00 -0.14657189001E+02  0.23089496113E+04  0.23089030890E+04 0.  0.
        3    1    3    3  502    0  0.58486530325E+03 -0.98707439492E+03  0.12063911307E+03  0.11536624679E+04  0.10100000352E+00 0.  1.
       -3    1    3    3    0  502 -0.58486530325E+03  0.98707439492E+03 -0.13529630207E+03  0.11552871434E+04  0.10100000352E+00 0. -1.
</event>
<event>
 5   0  0.2816178E-05  0.2313169E+04  0.7818609E-02  0.8472747E-01
        2   -1    0    0  501    0  0.00000000000E+00  0.00000000000E+00  0.28108107249E+04  0.28108107249E+04  0.25500000920E-02 0. -1.
       -2   -1    0    0    0  501  0.00000000000E+00  0.00000000000E+00 -0.47590821478E+03  0.47590821478E+03  0.25500000920E-02 0.  1.
    10030    2    1    2    0    0  0.00000000000E+00  0.00000000000E+00  0.23349025101E+04  0.32867189397E+04  0.23131691803E+04 0.  0.
        1    1    3    3  502    0  0.67147330334E+03 -0.31546719035E+03 -0.93281628803E+02  0.74772816423E+03  0.50400001928E-02 0.  1.
       -1    1    3    3    0  502 -0.67147330334E+03  0.31546719035E+03  0.24281841390E+04  0.25389907755E+04  0.50400001928E-02 0. -1.
</event>
<event>
 5   0  0.1371753E-05  0.2366962E+04  0.7818609E-02  0.8451977E-01
        1   -1    0    0  501    0  0.00000000000E+00  0.00000000000E+00  0.19143961593E+04  0.19143961593E+04  0.50400001928E-02 0. -1.
       -1   -1    0    0    0  501  0.00000000000E+00  0.00000000000E+00 -0.73162876000E+03  0.73162876002E+03  0.50400001928E-02 0.  1.
    10030    2    1    2    0    0  0.00000000000E+00  0.00000000000E+00  0.11827673993E+04  0.26460249193E+04  0.23669620092E+04 0.  0.
        3    1    3    3  502    0 -0.55839651241E+03 -0.10349258633E+04  0.44245086744E+03  0.12564398067E+04  0.10100000352E+00 0.  1.
       -3    1    3    3    0  502  0.55839651241E+03  0.10349258633E+04  0.74031653187E+03  0.13895851126E+04  0.10100000352E+00 0. -1.
</event>
<event>
 5   0  0.2938972E-05  0.2297409E+04  0.7818609E-02  0.8478944E-01
        2   -1    0    0  501    0  0.00000000000E+00  0.00000000000E+00  0.18001851291E+04  0.18001851291E+04  0.25500000920E-02 0.  1.
       -2   -1    0    0    0  501  0.00000000000E+00  0.00000000000E+00 -0.73299212162E+03  0.73299212163E+03  0.25500000920E-02 0. -1.
    10030    2    1    2    0    0  0.00000000000E+00  0.00000000000E+00  0.10671930075E+04  0.25331772508E+04  0.22974085550E+04 0.  0.
        2    1    3    3  502    0 -0.64002226546E+03 -0.65473553001E+03 -0.23128939388E+03  0.94435263449E+03  0.25500000920E-02 0. -1.
       -2    1    3    3    0  502  0.64002226546E+03  0.65473553001E+03  0.12984824014E+04  0.15888246163E+04  0.25500000920E-02 0.  1.
</event>
<event>
 5   0  0.2871888E-05  0.2302414E+04  0.7818609E-02  0.8476970E-01
       -2   -1    0    0    0  501  0.00000000000E+00  0.00000000000E+00  0.92306015953E+03  0.92306015954E+03  0.25500000920E-02 0.  1.
        2   -1    0    0  501    0  0.00000000000E+00  0.00000000000E+00 -0.14357428630E+04  0.14357428630E+04  0.25500000920E-02 0. -1.
    10030    2    1    2    0    0  0.00000000000E+00  0.00000000000E+00 -0.51268270347E+03  0.23588030225E+04  0.23024135477E+04 0.  0.
        3    1    3    3  502    0 -0.82508502821E+03 -0.25580159412E+02 -0.10784007177E+04  0.13580750224E+04  0.10100000352E+00 0. -1.
       -3    1    3    3    0  502  0.82508502821E+03  0.25580159412E+02  0.56571801427E+03  0.10007280001E+04  0.10100000352E+00 0.  1.
</event>
<event>
 5   0  0.2816178E-05  0.2276151E+04  0.7818609E-02  0.8487384E-01
       -2   -1    0    0    0  501  0.00000000000E+00  0.00000000000E+00  0.63983255925E+03  0.63983255926E+03  0.25500000920E-02 0. -1.
        2   -1    0    0  501    0  0.00000000000E+00  0.00000000000E+00 -0.20243046386E+04  0.20243046386E+04  0.25500000920E-02 0.  1.
    10030    2    1    2    0    0  0.00000000000E+00  0.00000000000E+00 -0.13844720793E+04  0.26641371978E+04  0.22761511528E+04 0.  0.
        1    1    3    3  502    0  0.34043561295E+03 -0.88972421907E+03  0.36565408311E+02  0.95333237733E+03  0.50400001928E-02 0. -1.
       -1    1    3    3    0  502 -0.34043561295E+03  0.88972421907E+03 -0.14210374876E+04  0.17108048205E+04  0.50400001928E-02 0.  1.
</event>
<event>
 5   0  0.2910126E-05  0.2291767E+04  0.7818609E-02  0.8481175E-01
        2   -1    0    0  501    0  0.00000000000E+00  0.00000000000E+00  0.27210672432E+04  0.27210672432E+04  0.25500000920E-02 0.  1.
       -2   -1    0    0    0  501  0.00000000000E+00  0.00000000000E+00 -0.48254908232E+03  0.48254908232E+03  0.25500000920E-02 0. -1.
    10030    2    1    2    0    0  0.00000000000E+00  0.00000000000E+00  0.22385181609E+04  0.32036163256E+04  0.22917665685E+04 0.  0.
        5    1    3    3  502    0  0.48851063126E+03  0.13350709809E+03  0.25561279131E+04  0.26058163366E+04  0.46999998093E+01 0.  1.
       -5    1    3    3    0  502 -0.48851063126E+03 -0.13350709809E+03 -0.31760975218E+03  0.59779998894E+03  0.46999998093E+01 0. -1.
</event>
<event>
 5   0  0.1284837E-05  0.2295823E+04  0.7818609E-02  0.8479570E-01
        1   -1    0    0  501    0  0.00000000000E+00  0.00000000000E+00  0.90551572572E+03  0.90551572574E+03  0.50400001928E-02 0. -1.
       -1   -1    0    0    0  501  0.00000000000E+00  0.00000000000E+00 -0.14551933569E+04  0.14551933569E+04  0.50400001928E-02 0.  1.
    10030    2    1    2    0    0  0.00000000000E+00  0.00000000000E+00 -0.54967763114E+03  0.23607090826E+04  0.22958227010E+04 0.  0.
        4    1    3    3  502    0 -0.62526724727E+03 -0.16437531322E+03  0.70050543581E+03  0.95325120121E+03  0.12699999809E+01 0. -1.
       -4    1    3    3    0  502  0.62526724727E+03  0.16437531322E+03 -0.12501830670E+04  0.14074578814E+04  0.12699999809E+01 0.  1.
</event>
<event>
 5   0  0.1308224E-05  0.2350949E+04  0.7818609E-02  0.8458099E-01
        1   -1    0    0  501    0  0.00000000000E+00  0.00000000000E+00  0.20242921411E+04  0.20242921412E+04  0.50400001928E-02 0.  1.
       -1   -1    0    0    0  501  0.00000000000E+00  0.00000000000E+00 -0.68257948852E+03  0.68257948853E+03  0.50400001928E-02 0. -1.
    10030    2    1    2    0    0  0.00000000000E+00  0.00000000000E+00  0.13417126526E+04  0.27068716297E+04  0.23509489951E+04 0.  0.
        5    1    3    3  502    0 -0.57137601541E+03  0.77930595092E+03 -0.99744506859E+02  0.97147278540E+03  0.46999998093E+01 0. -1.
       -5    1    3    3    0  502  0.57137601541E+03 -0.77930595092E+03  0.14414571595E+04  0.17353988443E+04  0.46999998093E+01 0.  1.
</event>
<event>
 5   0  0.2994157E-05  0.2287852E+04  0.7818609E-02  0.8482726E-01
        2   -1    0    0  501    0  0.00000000000E+00  0.00000000000E+00  0.11683522112E+04  0.11683522112E+04  0.25500000920E-02 0.  1.
       -2   -1    0    0    0  501  0.00000000000E+00  0.00000000000E+00 -0.11200104265E+04  0.11200104265E+04  0.25500000920E-02 0. -1.
    10030    2    1    2    0    0  0.00000000000E+00  0.00000000000E+00  0.48341784696E+02  0.22883626377E+04  0.22878519693E+04 0.  0.
        4    1    3    3  502    0 -0.92044133652E+03  0.18008650314E+03 -0.63089638836E+03  0.11303429870E+04  0.12699999809E+01 0. -1.
       -4    1    3    3    0  502  0.92044133652E+03 -0.18008650314E+03  0.67923817306E+03  0.11580196506E+04  0.12699999809E+01 0.  1.
</event>
<event>
 5   0  0.1284837E-05  0.2280509E+04  0.7818609E-02  0.8485646E-01
       -1   -1    0    0    0  501  0.00000000000E+00  0.00000000000E+00  0.13556431212E+04  0.13556431212E+04  0.50400001928E-02 0. -1.
        1   -1    0    0  501    0  0.00000000000E+00  0.00000000000E+00 -0.95908733415E+03  0.95908733416E+03  0.50400001928E-02 0.  1.
    10030    2    1    2    0    0  0.00000000000E+00  0.00000000000E+00  0.39655578708E+03  0.23147304554E+04  0.22805088443E+04 0.  0.
        4    1    3    3  502    0  0.79151607715E+03 -0.76338103728E+03  0.50434932860E+03  0.12098008789E+04  0.12699999809E+01 0.  1.
       -4    1    3    3    0  502 -0.79151607715E+03  0.76338103728E+03 -0.10779354153E+03  0.11049295765E+04  0.12699999809E+01 0. -1.
</event>
<event>
 5   0  0.1327820E-05  0.2306317E+04  0.7818609E-02  0.8475435E-01
       -1   -1    0    0    0  501  0.00000000000E+00  0.00000000000E+00  0.55679136843E+03  0.55679136845E+03  0.50400001928E-02 0.  1.
        1   -1    0    0  501    0  0.00000000000E+00  0.00000000000E+00 -0.23882817492E+04  0.23882817492E+04  0.50400001928E-02 0. -1.
    10030    2    1    2    0    0  0.00000000000E+00  0.00000000000E+00 -0.18314903808E+04  0.29450731177E+04  0.23063171190E+04 0.  0.
        1    1    3    3  502    0 -0.23676056816E+03 -0.24148150465E+01 -0.23569074976E+04  0.23687706411E+04  0.50400001928E-02 0. -1.
       -1    1    3    3    0  502  0.23676056816E+03  0.24148150465E+01  0.52541711674E+03  0.57630247662E+03  0.50400001928E-02 0.  1.
</event>
<event>
 5   0  0.2816178E-05  0.2317938E+04  0.7818609E-02  0.8470882E-01
        2   -1    0    0  501    0  0.00000000000E+00  0.00000000000E+00  0.22821777855E+04  0.22821777855E+04  0.25500000920E-02 0. -1.
       -2   -1    0    0    0  501  0.00000000000E+00  0.00000000000E+00 -0.58856484897E+03  0.58856484898E+03  0.25500000920E-02 0.  1.
    10030    2    1    2    0    0  0.00000000000E+00  0.00000000000E+00  0.16936129366E+04  0.28707426345E+04  0.23179384148E+04 0.  0.
        1    1    3    3  502    0 -0.31686944413E+03  0.10216531858E+04  0.13993285202E+04  0.17613352277E+04  0.50400001928E-02 0.  1.
       -1    1    3    3    0  502  0.31686944413E+03 -0.10216531858E+04  0.29428441635E+03  0.11094074069E+04  0.50400001928E-02 0. -1.
</event>
<event>
 5   0  0.1308224E-05  0.2298401E+04  0.7818609E-02  0.8478552E-01
        1   -1    0    0  501    0  0.00000000000E+00  0.00000000000E+00  0.27962837281E+04  0.27962837281E+04  0.50400001928E-02 0.  1.
       -1   -1    0    0    0  501  0.00000000000E+00  0.00000000000E+00 -0.47229173784E+03  0.47229173786E+03  0.50400001928E-02 0. -1.
    10030    2    1    2    0    0  0.00000000000E+00  0.00000000000E+00  0.23239919902E+04  0.32685754659E+04  0.22984009236E+04 0.  0.
        5    1    3    3  502    0 -0.73702906615E+03 -0.23434438421E+03  0.23707969753E+04  0.24937581124E+04  0.46999998093E+01 0.  1.
       -5    1    3    3    0  502  0.73702906615E+03  0.23434438421E+03 -0.46804985100E+02  0.77481735357E+03  0.46999998093E+01 0. -1.
</event>
<event>
 5   0  0.2994157E-05  0.2522518E+04  0.7818609E-02  0.8395007E-01
       -2   -1    0    0    0  501  0.00000000000E+00  0.00000000000E+00  0.15210236259E+04  0.15210236259E+04  0.25500000920E-02 0.  1.
        2   -1    0    0  501    0  0.00000000000E+00  0.00000000000E+00 -0.10458577246E+04  0.10458577246E+04  0.25500000920E-02 0. -1.
    10030    2    1    2    0    0  0.00000000000E+00  0.00000000000E+00  0.47516590124E+03  0.25668813505E+04  0.25225180344E+04 0.  0.
        4    1    3    3  502    0 -0.93436026429E+03  0.22613872939E+03  0.10684006786E+04  0.14372367416E+04  0.12699999809E+01 0.  1.
       -4    1    3    3    0  502  0.93436026429E+03 -0.22613872939E+03 -0.59323477736E+03  0.11296446089E+04  0.12699999809E+01 0. -1.
</event>
<event>
 5   0  0.2816178E-05  0.2294013E+04  0.7818609E-02  0.8480285E-01
        2   -1    0    0  501    0  0.00000000000E+00  0.00000000000E+00  0.81009688911E+03  0.81009688911E+03  0.25500000920E-02 0.  1.
       -2   -1    0    0    0  501  0.00000000000E+00  0.00000000000E+00 -0.16240330540E+04  0.16240330540E+04  0.25500000920E-02 0. -1.
    10030    2    1    2    0    0  0.00000000000E+00  0.00000000000E+00 -0.81393616490E+03  0.24341299431E+04  0.22940131864E+04 0.  0.
        1    1    3    3  502    0  0.11496884338E+03  0.58355067615E+03  0.63368780231E+03  0.86908541434E+03  0.50400001928E-02 0.  1.
       -1    1    3    3    0  502 -0.11496884338E+03 -0.58355067615E+03 -0.14476239672E+04  0.15650445288E+04  0.50400001928E-02 0. -1.
</event>
<event>
 5   0  0.2871888E-05  0.2290799E+04  0.7818609E-02  0.8481558E-01
       -2   -1    0    0    0  501  0.00000000000E+00  0.00000000000E+00  0.56269784807E+03  0.56269784807E+03  0.25500000920E-02 0.  1.
        2   -1    0    0  501    0  0.00000000000E+00  0.00000000000E+00 -0.23315174180E+04  0.23315174180E+04  0.25500000920E-02 0. -1.
    10030    2    1    2    0    0  0.00000000000E+00  0.00000000000E+00 -0.17688195699E+04  0.28942152660E+04  0.22907988422E+04 0.  0.
        3    1    3    3  502    0 -0.22347875332E+03 -0.42824636961E+03  0.42771309730E+03  0.64519470710E+03  0.10100000352E+00 0.  1.
       -3    1    3    3    0  502  0.22347875332E+03  0.42824636961E+03 -0.21965326672E+04  0.22490205589E+04  0.10100000352E+00 0. -1.
</event>
<event>
 5   0  0.2938972E-05  0.2299071E+04  0.7818609E-02  0.8478287E-01
        2   -1    0    0  501    0  0.00000000000E+00  0.00000000000E+00  0.99548689528E+03  0.99548689528E+03  0.25500000920E-02 0. -1.
       -2   -1    0    0    0  501  0.00000000000E+00  0.00000000000E+00 -0.13274230110E+04  0.13274230110E+04  0.25500000920E-02 0.  1.
    10030    2    1    2    0    0  0.00000000000E+00  0.00000000000E+00 -0.33193611573E+03  0.23229099063E+04  0.22990713012E+04 0.  0.
        2    1    3    3  502    0 -0.10410534271E+04 -0.18536910498E+03  0.28957077265E+03  0.10963599662E+04  0.25500000920E-02 0. -1.
       -2    1    3    3    0  502  0.10410534271E+04  0.18536910498E+03 -0.62150688837E+03  0.12265499401E+04  0.25500000920E-02 0.  1.
</event>
<event>
 5   0  0.2816178E-05  0.2314914E+04  0.7818609E-02  0.8472064E-01
        2   -1    0    0  501    0  0.00000000000E+00  0.00000000000E+00  0.11306833069E+04  0.11306833069E+04  0.25500000920E-02 0.  1.
       -2   -1    0    0    0  501  0.00000000000E+00  0.00000000000E+00 -0.11848646848E+04  0.11848646848E+04  0.25500000920E-02 0. -1.
    10030    2    1    2    0    0  0.00000000000E+00  0.00000000000E+00 -0.54181377906E+02  0.23155479917E+04  0.23149140114E+04 0.  0.
        1    1    3    3  502    0 -0.36880312263E+03  0.50032624662E+03  0.94958064106E+03  0.11349209180E+04  0.50400001928E-02 0.  1.
       -1    1    3    3    0  502  0.36880312263E+03 -0.50032624662E+03 -0.10037620190E+04  0.11806270737E+04  0.50400001928E-02 0. -1.
</event>
<event>
 5   0  0.2910126E-05  0.2308024E+04  0.7818609E-02  0.8474764E-01
        2   -1    0    0  501    0  0.00000000000E+00  0.00000000000E+00  0.18723748462E+04  0.18723748462E+04  0.25500000920E-02 0. -1.
       -2   -1    0    0    0  501  0.00000000000E+00  0.00000000000E+00 -0.71125935868E+03  0.71125935868E+03  0.25500000920E-02 0.  1.
    10030    2    1    2    0    0  0.00000000000E+00  0.00000000000E+00  0.11611154875E+04  0.25836342049E+04  0.23080243780E+04 0.  0.
        5    1    3    3  502    0  0.99235802855E+03  0.57109917974E+03  0.41913955370E+03  0.12192738763E+04  0.46999998093E+01 0. -1.
       -5    1    3    3    0  502 -0.99235802855E+03 -0.57109917974E+03  0.74197593385E+03  0.13643603286E+04  0.46999998093E+01 0.  1.
</event>
<event>
 5   0  0.2938972E-05  0.2306332E+04  0.7818609E-02  0.8475429E-01
       -2   -1    0    0    0  501  0.00000000000E+00  0.00000000000E+00  0.59282397758E+03  0.59282397759E+03  0.25500000920E-02 0.  1.
        2   -1    0    0  501    0  0.00000000000E+00  0.00000000000E+00 -0.22431473347E+04  0.22431473347E+04  0.25500000920E-02 0. -1.
    10030    2    1    2    0    0  0.00000000000E+00  0.00000000000E+00 -0.16503233571E+04  0.28359713123E+04  0.23063317413E+04 0.  0.
        2    1    3    3  502    0 -0.84014699072E+03  0.32385294640E+03 -0.17110733841E+04  0.19335200600E+04  0.25500000920E-02 0. -1.
       -2    1    3    3    0  502  0.84014699072E+03 -0.32385294640E+03  0.60750026947E+02  0.90245125225E+03  0.25500000920E-02 0.  1.
</event>
<event>
 5   0  0.1371753E-05  0.2306920E+04  0.7818609E-02  0.8475198E-01
        1   -1    0    0  501    0  0.00000000000E+00  0.00000000000E+00  0.23547210252E+04  0.23547210252E+04  0.50400001928E-02 0. -1.
       -1   -1    0    0    0  501  0.00000000000E+00  0.00000000000E+00 -0.56502233221E+03  0.56502233223E+03  0.50400001928E-02 0.  1.
    10030    2    1    2    0    0  0.00000000000E+00  0.00000000000E+00  0.17896986930E+04  0.29197433574E+04  0.23069199946E+04 0.  0.
        3    1    3    3  502    0 -0.39643842833E+03 -0.10758867773E+04  0.10538084510E+04  0.15573079485E+04  0.10100000352E+00 0.  1.
       -3    1    3    3    0  502  0.39643842833E+03  0.10758867773E+04  0.73589024199E+03  0.13624354089E+04  0.10100000352E+00 0. -1.
</event>
<event>
 5   0  0.1327820E-05  0.2303011E+04  0.7818609E-02  0.8476735E-01
        1   -1    0    0  501    0  0.00000000000E+00  0.00000000000E+00  0.60155594959E+03  0.60155594962E+03  0.50400001928E-02 0.  1.
       -1   -1    0    0    0  501  0.00000000000E+00  0.00000000000E+00 -0.22042249403E+04  0.22042249403E+04  0.50400001928E-02 0. -1.
    10030    2    1    2    0    0  0.00000000000E+00  0.00000000000E+00 -0.16026689907E+04  0.28057808899E+04  0.23030107487E+04 0.  0.
        1    1    3    3  502    0  0.10260381280E+04 -0.45087210421E+02 -0.16690314028E+03  0.10405016843E+04  0.50400001928E-02 0.  1.
       -1    1    3    3    0  502 -0.10260381280E+04  0.45087210421E+02 -0.14357658504E+04  0.17652792057E+04  0.50400001928E-02 0. -1.
</event>
<event>
 5   0  0.2938972E-05  0.2291880E+04  0.7818609E-02  0.8481130E-01
        2   -1    0    0  501    0  0.00000000000E+00  0.00000000000E+00  0.18479590180E+04  0.18479590180E+04  0.25500000920E-02 0.  1.
       -2   -1    0    0    0  501  0.00000000000E+00  0.00000000000E+00 -0.71061013807E+03  0.71061013807E+03  0.25500000920E-02 0. -1.
    10030    2    1    2    0    0  0.00000000000E+00  0.00000000000E+00  0.11373488800E+04  0.25585691561E+04  0.22918799384E+04 0.  0.
        2    1    3    3  502    0 -0.48630270796E+03 -0.66615787243E+03  0.14568121630E+04  0.16740843208E+04  0.25500000920E-02 0.  1.
       -2    1    3    3    0  502  0.48630270796E+03  0.66615787243E+03 -0.31946328301E+03  0.88448483535E+03  0.25500000920E-02 0. -1.
</event>
<event>
 5   0  0.2910126E-05  0.2297544E+04  0.7818609E-02  0.8478890E-01
       -2   -1    0    0    0  501  0.00000000000E+00  0.00000000000E+00  0.11794392751E+04  0.11794392752E+04  0.25500000920E-02 0. -1.
        2   -1    0    0  501    0  0.00000000000E+00  0.00000000000E+00 -0.11189018526E+04  0.11189018526E+04  0.25500000920E-02 0.  1.
    10030    2    1    2    0    0  0.00000000000E+00  0.00000000000E+00  0.60537422565E+02  0.22983411277E+04  0.22975437232E+04 0.  0.
        5    1    3    3  502    0 -0.11360385559E+04  0.56334465996E+01  0.20073725544E+03  0.11536606399E+04  0.46999998093E+01 0. -1.
       -5    1    3    3    0  502  0.11360385559E+04 -0.56334465996E+01 -0.14019983287E+03  0.11446804879E+04  0.46999998093E+01 0.  1.
</event>
<event>
 5   0  0.2910126E-05  0.2293511E+04  0.7818609E-02  0.8480484E-01
        2   -1    0    0  501    0  0.00000000000E+00  0.00000000000E+00  0.22003499149E+04  0.22003499149E+04  0.25500000920E-02 0.  1.
       -2   -1    0    0    0  501  0.00000000000E+00  0.00000000000E+00 -0.59765423521E+03  0.59765423522E+03  0.25500000920E-02 0. -1.
    10030    2    1    2    0    0  0.00000000000E+00  0.00000000000E+00  0.16026956797E+04  0.27980041501E+04  0.22935112344E+04 0.  0.
        5    1    3    3  502    0 -0.83579509579E+03 -0.22284613608E+02  0.17588273463E+04  0.19474459608E+04  0.46999998093E+01 0.  1.
       -5    1    3    3    0  502  0.83579509579E+03  0.22284613608E+02 -0.15613166659E+03  0.85055818934E+03  0.46999998093E+01 0. -1.
</event>
<event>
 5   0  0.1284837E-05  0.2286744E+04  0.7818609E-02  0.8483166E-01
       -1   -1    0    0    0  501  0.00000000000E+00  0.00000000000E+00  0.88278983908E+03  0.88278983909E+03  0.50400001928E-02 0.  1.
        1   -1    0    0  501    0  0.00000000000E+00  0.00000000000E+00 -0.14808734863E+04  0.14808734864E+04  0.50400001928E-02 0. -1.
    10030    2    1    2    0    0  0.00000000000E+00  0.00000000000E+00 -0.59808364727E+03  0.23636633254E+04  0.22867444691E+04 0.  0.
        4    1    3    3  502    0  0.37596594715E+03  0.94705733054E+03  0.23708645739E+03  0.10461737819E+04  0.12699999809E+01 0.  1.
       -4    1    3    3    0  502 -0.37596594715E+03 -0.94705733054E+03 -0.83517010466E+03  0.13174895436E+04  0.12699999809E+01 0. -1.
</event>
<event>
 5   0  0.1308224E-05  0.2379461E+04  0.7818609E-02  0.8447233E-01
        1   -1    0    0  501    0  0.00000000000E+00  0.00000000000E+00  0.14635002782E+04  0.14635002782E+04  0.50400001928E-02 0. -1.
       -1   -1    0    0    0  501  0.00000000000E+00  0.00000000000E+00 -0.96717331582E+03  0.96717331583E+03  0.50400001928E-02 0.  1.
    10030    2    1    2    0    0  0.00000000000E+00  0.00000000000E+00  0.49632696234E+03  0.24306735940E+04  0.23794607933E+04 0.  0.
        5    1    3    3  502    0 -0.55628472031E+03 -0.23667002907E+03  0.12948984380E+04  0.14290729328E+04  0.46999998093E+01 0. -1.
       -5    1    3    3    0  502  0.55628472031E+03  0.23667002907E+03 -0.79857147564E+03  0.10016006612E+04  0.46999998093E+01 0.  1.
</event>
<event>
 5   0  0.2816178E-05  0.2295955E+04  0.7818609E-02  0.8479518E-01
       -2   -1    0    0    0  501  0.00000000000E+00  0.00000000000E+00  0.97244947237E+03  0.97244947237E+03  0.25500000920E-02 0. -1.
        2   -1    0    0  501    0  0.00000000000E+00  0.00000000000E+00 -0.13551886721E+04  0.13551886721E+04  0.25500000920E-02 0.  1.
    10030    2    1    2    0    0  0.00000000000E+00  0.00000000000E+00 -0.38273919976E+03  0.23276381445E+04  0.22959551469E+04 0.  0.
        1    1    3    3  502    0 -0.61218560864E+03 -0.71629265553E+00  0.79315486439E+03  0.10019313207E+04  0.50400001928E-02 0. -1.
       -1    1    3    3    0  502  0.61218560864E+03  0.71629265553E+00 -0.11758940641E+04  0.13257068238E+04  0.50400001928E-02 0.  1.
</event>
<event>
 5   0  0.2994157E-05  0.2289710E+04  0.7818609E-02  0.8481990E-01
        2   -1    0    0  501    0  0.00000000000E+00  0.00000000000E+00  0.16463481511E+04  0.16463481511E+04  0.25500000920E-02 0.  1.
       -2   -1    0    0    0  501  0.00000000000E+00  0.00000000000E+00 -0.79612106021E+03  0.79612106021E+03  0.25500000920E-02 0. -1.
    10030    2    1    2    0    0  0.00000000000E+00  0.00000000000E+00  0.85022709088E+03  0.24424692113E+04  0.22897095323E+04 0.  0.
        4    1    3    3  502    0  0.67851257684E+03 -0.69188867921E+03  0.10753741909E+04  0.14475912837E+04  0.12699999809E+01 0.  1.
       -4    1    3    3    0  502 -0.67851257684E+03  0.69188867921E+03 -0.22514709997E+03  0.99487792763E+03  0.12699999809E+01 0. -1.
</event>
<event>
 5   0  0.2938972E-05  0.2293544E+04  0.7818609E-02  0.8480471E-01
        2   -1    0    0  501    0  0.00000000000E+00  0.00000000000E+00  0.93531643756E+03  0.93531643756E+03  0.25500000920E-02 0. -1.
       -2   -1    0    0    0  501  0.00000000000E+00  0.00000000000E+00 -0.14060327799E+04  0.14060327799E+04  0.25500000920E-02 0.  1.
    10030    2    1    2    0    0  0.00000000000E+00  0.00000000000E+00 -0.47071634239E+03  0.23413492175E+04  0.22935436083E+04 0.  0.
        2    1    3    3  502    0  0.29050308227E+03 -0.17306115740E+03  0.88326623467E+03  0.94578086591E+03  0.25500000920E-02 0. -1.
       -2    1    3    3    0  502 -0.29050308227E+03  0.17306115740E+03 -0.13539825771E+04  0.13955683516E+04  0.25500000920E-02 0.  1.
</event>
<event>
 5   0  0.2938972E-05  0.2340447E+04  0.7818609E-02  0.8462142E-01
        2   -1    0    0  501    0  0.00000000000E+00  0.00000000000E+00  0.16899991363E+04  0.16899991363E+04  0.25500000920E-02 0. -1.
       -2   -1    0    0    0  501  0.00000000000E+00  0.00000000000E+00 -0.81031000350E+03  0.81031000351E+03  0.25500000920E-02 0.  1.
    10030    2    1    2    0    0  0.00000000000E+00  0.00000000000E+00  0.87968913277E+03  0.25003091398E+04  0.23404471419E+04 0.  0.
        2    1    3    3  502    0 -0.66414796496E+02  0.89705797795E+03 -0.35981455903E+03  0.96880878294E+03  0.25500000920E-02 0.  1.
       -2    1    3    3    0  502  0.66414796496E+02 -0.89705797795E+03  0.12395036918E+04  0.15315003568E+04  0.25500000920E-02 0. -1.
</event>
<event>
 5   0  0.1303224E-05  0.2290914E+04  0.7818609E-02  0.8481512E-01
       -1   -1    0    0    0  501  0.00000000000E+00  0.00000000000E+00  0.11130767060E+04  0.11130767060E+04  0.50400001928E-02 0. -1.
        1   -1    0    0  501    0  0.00000000000E+00  0.00000000000E+00 -0.11787795574E+04  0.11787795574E+04  0.50400001928E-02 0.  1.
    10030    2    1    2    0    0  0.00000000000E+00  0.00000000000E+00 -0.65702851411E+02  0.22918562634E+04  0.22909142863E+04 0.  0.
        2    1    3    3  502    0 -0.58378157014E+03 -0.65694188380E+03  0.70209239780E+03  0.11248587891E+04  0.25500000920E-02 0. -1.
       -2    1    3    3    0  502  0.58378157014E+03  0.65694188380E+03 -0.76779524921E+03  0.11669974743E+04  0.25500000920E-02 0.  1.
</event>
<event>
 5   0  0.1371753E-05  0.2283591E+04  0.7818609E-02  0.8484419E-01
       -1   -1    0    0    0  501  0.00000000000E+00  0.00000000000E+00  0.84210824263E+03  0.84210824265E+03  0.50400001928E-02 0. -1.
        1   -1    0    0  501    0  0.00000000000E+00  0.00000000000E+00 -0.15481351975E+04  0.15481351975E+04  0.50400001928E-02 0.  1.
    10030    2    1    2    0    0  0.00000000000E+00  0.00000000000E+00 -0.70602695482E+03  0.23902434401E+04  0.22835913912E+04 0.  0.
        3    1    3    3  502    0  0.89552980072E+03  0.90328660780E+02  0.38233923649E+03  0.97791420529E+03  0.10100000352E+00 0. -1.
       -3    1    3    3    0  502 -0.89552980072E+03 -0.90328660780E+02 -0.10883661913E+04  0.14123292348E+04  0.10100000352E+00 0.  1.
</event>
<event>
 5   0  0.2910126E-05  0.2282989E+04  0.7818609E-02  0.8484659E-01
        2   -1    0    0  501    0  0.00000000000E+00  0.00000000000E+00  0.10859338512E+04  0.10859338512E+04  0.25500000920E-02 0. -1.
       -2   -1    0    0    0  501  0.00000000000E+00  0.00000000000E+00 -0.11998981514E+04  0.11998981514E+04  0.25500000920E-02 0.  1.
    10030    2    1    2    0    0  0.00000000000E+00  0.00000000000E+00 -0.11396430028E+03  0.22858320026E+04  0.22829892865E+04 0.  0.
        5    1    3    3  502    0  0.85499505053E+02  0.10790209218E+04  0.30594901389E+03  0.11248214099E+04  0.46999998093E+01 0. -1.
       -5    1    3    3    0  502 -0.85499505053E+02 -0.10790209218E+04 -0.41991331417E+03  0.11610105927E+04  0.46999998093E+01 0.  1.
</event>
<event>
 5   0  0.2816178E-05  0.2292713E+04  0.7818609E-02  0.8480800E-01
        2   -1    0    0  501    0  0.00000000000E+00  0.00000000000E+00  0.21252411023E+04  0.21252411023E+04  0.25500000920E-02 0. -1.
       -2   -1    0    0    0  501  0.00000000000E+00  0.00000000000E+00 -0.61834537468E+03  0.61834537468E+03  0.25500000920E-02 0.  1.
    10030    2    1    2    0    0  0.00000000000E+00  0.00000000000E+00  0.15068957276E+04  0.27435864770E+04  0.22927128086E+04 0.  0.
        1    1    3    3  502    0  0.23452755185E+03 -0.85419210746E+03 -0.11730739196E+03  0.89353699043E+03  0.50400001928E-02 0.  1.
       -1    1    3    3    0  502 -0.23452755185E+03  0.85419210746E+03  0.16242031195E+04  0.18500494865E+04  0.50400001928E-02 0. -1.
</event>
<event>
 5   0  0.1284837E-05  0.2301461E+04  0.7818609E-02  0.8477345E-01
        1   -1    0    0  501    0  0.00000000000E+00  0.00000000000E+00  0.16895345572E+04  0.16895345572E+04  0.50400001928E-02 0. -1.
       -1   -1    0    0    0  501  0.00000000000E+00  0.00000000000E+00 -0.78375475078E+03  0.78375475080E+03  0.50400001928E-02 0.  1.
    10030    2    1    2    0    0  0.00000000000E+00  0.00000000000E+00  0.90577980640E+03  0.24732893080E+04  0.23014610454E+04 0.  0.
        4    1    3    3  502    0  0.54082036072E+02 -0.10891622832E+04  0.58063993183E+02  0.10920496262E+04  0.12699999809E+01 0.  1.
       -4    1    3    3    0  502 -0.54082036072E+02  0.10891622832E+04  0.84771581322E+03  0.13812396818E+04  0.12699999809E+01 0. -1.
</event>
<event>
 5   0  0.1371753E-05  0.2333733E+04  0.7818609E-02  0.8464738E-01
       -1   -1    0    0    0  501  0.00000000000E+00  0.00000000000E+00  0.12316715420E+04  0.12316715420E+04  0.50400001928E-02 0.  1.
        1   -1    0    0  501    0  0.00000000000E+00  0.00000000000E+00 -0.11054713203E+04  0.11054713203E+04  0.50400001928E-02 0. -1.
    10030    2    1    2    0    0  0.00000000000E+00  0.00000000000E+00  0.12620022173E+03  0.23371428623E+04  0.23337331173E+04 0.  0.
        3    1    3    3  502    0  0.90263271592E+03 -0.25906272004E+03  0.75672902436E+03  0.12060257623E+04  0.10100000352E+00 0. -1.
       -3    1    3    3    0  502 -0.90263271592E+03  0.25906272004E+03 -0.63052880263E+03  0.11311171000E+04  0.10100000352E+00 0.  1.
</event>
<event>
 5   0  0.2910126E-05  0.2304149E+04  0.7818609E-02  0.8476287E-01
       -2   -1    0    0    0  501  0.00000000000E+00  0.00000000000E+00  0.10833790004E+04  0.10833790004E+04  0.25500000920E-02 0.  1.
        2   -1    0    0  501    0  0.00000000000E+00  0.00000000000E+00 -0.12251253753E+04  0.12251253753E+04  0.25500000920E-02 0. -1.
    10030    2    1    2    0    0  0.00000000000E+00  0.00000000000E+00 -0.14174637484E+03  0.23085043757E+04  0.23041485234E+04 0.  0.
        5    1    3    3  502    0  0.52981895584E+03  0.79034601672E+03 -0.72163790319E+03  0.11942103271E+04  0.46999998093E+01 0. -1.
       -5    1    3    3    0  502 -0.52981895584E+03 -0.79034601672E+03  0.57989152835E+03  0.11142940486E+04  0.46999998093E+01 0.  1.
</event>
<event>
 5   0  0.2910126E-05  0.2324157E+04  0.7818609E-02  0.8468457E-01
        2   -1    0    0  501    0  0.00000000000E+00  0.00000000000E+00  0.88929763613E+03  0.88929763614E+03  0.25500000920E-02 0.  1.
       -2   -1    0    0    0  501  0.00000000000E+00  0.00000000000E+00 -0.15185319140E+04  0.15185319140E+04  0.25500000920E-02 0. -1.
    10030    2    1    2    0    0  0.00000000000E+00  0.00000000000E+00 -0.62923427783E+03  0.24078295501E+04  0.23241573454E+04 0.  0.
        5    1    3    3  502    0 -0.30132968657E+02  0.88673749479E+03  0.46286242212E+03  0.10007372743E+04  0.46999998093E+01 0. -1.
       -5    1    3    3    0  502  0.30132968657E+02 -0.88673749479E+03 -0.10920966999E+04  0.14070922758E+04  0.46999998093E+01 0.  1.
</event>
<event>
 5   0  0.2938972E-05  0.2319292E+04  0.7818609E-02  0.8470353E-01
        2   -1    0    0  501    0  0.00000000000E+00  0.00000000000E+00  0.11940265185E+04  0.11940265185E+04  0.25500000920E-02 0.  1.
       -2   -1    0    0    0  501  0.00000000000E+00  0.00000000000E+00 -0.11262556036E+04  0.11262556036E+04  0.25500000920E-02 0. -1.
    10030    2    1    2    0    0  0.00000000000E+00  0.00000000000E+00  0.67770914838E+02  0.23202821221E+04  0.23192921828E+04 0.  0.
        2    1    3    3  502    0  0.84860891502E+03 -0.10422803308E+03 -0.74988909662E+03  0.11372485352E+04  0.25500000920E-02 0. -1.
       -2    1    3    3    0  502 -0.84860891502E+03  0.10422803308E+03  0.81766001146E+03  0.11830335870E+04  0.25500000920E-02 0.  1.
</event>
<event>
 5   0  0.2994157E-05  0.2330799E+04  0.7818609E-02  0.8465876E-01
       -2   -1    0    0    0  501  0.00000000000E+00  0.00000000000E+00  0.57432162893E+03  0.57432162894E+03  0.25500000920E-02 0. -1.
        2   -1    0    0  501    0  0.00000000000E+00  0.00000000000E+00 -0.23647997094E+04  0.23647997094E+04  0.25500000920E-02 0.  1.
    10030    2    1    2    0    0  0.00000000000E+00  0.00000000000E+00 -0.17904780804E+04  0.29391213383E+04  0.23307986796E+04 0.  0.
        4    1    3    3  502    0  0.97050216798E+03 -0.14381344360E+03 -0.16883599156E+04  0.19527205592E+04  0.12699999809E+01 0.  1.
       -4    1    3    3    0  502 -0.97050216798E+03  0.14381344360E+03 -0.10211816481E+03  0.98640077914E+03  0.12699999809E+01 0. -1.
</event>
<event>
 5   0  0.1327820E-05  0.2312498E+04  0.7818609E-02  0.8473010E-01
       -1   -1    0    0    0  501  0.00000000000E+00  0.00000000000E+00  0.74892865053E+03  0.74892865055E+03  0.50400001928E-02 0. -1.
        1   -1    0    0  501    0  0.00000000000E+00  0.00000000000E+00 -0.17850987965E+04  0.17850987965E+04  0.50400001928E-02 0.  1.
    10030    2    1    2    0    0  0.00000000000E+00  0.00000000000E+00 -0.10361701459E+04  0.25340274470E+04  0.23124978986E+04 0.  0.
        1    1    3    3  502    0  0.17415895121E+03 -0.98693248853E+03 -0.11499945792E+04  0.15254030973E+04  0.50400001928E-02 0. -1.
       -1    1    3    3    0  502 -0.17415895121E+03  0.98693248853E+03  0.11382443323E+03  0.10086243497E+04  0.50400001928E-02 0.  1.
</event>
<event>
 5   0  0.1327820E-05  0.2304407E+04  0.7818609E-02  0.8476186E-01
       -1   -1    0    0    0  501  0.00000000000E+00  0.00000000000E+00  0.49698915993E+03  0.49698915995E+03  0.50400001928E-02 0. -1.
        1   -1    0    0  501    0  0.00000000000E+00  0.00000000000E+00 -0.26712302780E+04  0.26712302780E+04  0.50400001928E-02 0.  1.
    10030    2    1    2    0    0  0.00000000000E+00  0.00000000000E+00 -0.21742411181E+04  0.31682194380E+04  0.23044066411E+04 0.  0.
        1    1    3    3  502    0  0.76603155773E+03 -0.83674734534E+03 -0.81002030887E+03  0.13939452529E+04  0.50400001928E-02 0. -1.
       -1    1    3    3    0  502 -0.76603155773E+03  0.83674734534E+03 -0.13642208092E+04  0.17742741851E+04  0.50400001928E-02 0.  1.
</event>
<event>
 5   0  0.1308224E-05  0.2301742E+04  0.7818609E-02  0.8477234E-01
       -1   -1    0    0    0  501  0.00000000000E+00  0.00000000000E+00  0.10548179307E+04  0.10548179307E+04  0.50400001928E-02 0.  1.
        1   -1    0    0  501    0  0.00000000000E+00  0.00000000000E+00 -0.12556710590E+04  0.12556710590E+04  0.50400001928E-02 0. -1.
    10030    2    1    2    0    0  0.00000000000E+00  0.00000000000E+00 -0.20085312828E+03  0.23104889897E+04  0.23017422515E+04 0.  0.
        5    1    3    3  502    0 -0.57559005180E+03  0.86656962659E+03 -0.59447104058E+03  0.11981922774E+04  0.46999998093E+01 0. -1.
       -5    1    3    3    0  502  0.57559005180E+03 -0.86656962659E+03  0.39361791230E+03  0.11122967124E+04  0.46999998093E+01 0.  1.
</event>
<event>
 5   0  0.2816178E-05  0.2288446E+04  0.7818609E-02  0.8482491E-01
       -2   -1    0    0    0  501  0.00000000000E+00  0.00000000000E+00  0.14014348640E+04  0.14014348640E+04  0.25500000920E-02 0. -1.
        2   -1    0    0  501    0  0.00000000000E+00  0.00000000000E+00 -0.93421835956E+03  0.93421835957E+03  0.25500000920E-02 0.  1.
    10030    2    1    2    0    0  0.00000000000E+00  0.00000000000E+00  0.46721650443E+03  0.23356532236E+04  0.22884459178E+04 0.  0.
        1    1    3    3  502    0 -0.20035483399E+03  0.28582729822E+03  0.13457688114E+04  0.13902996072E+04  0.50400001928E-02 0. -1.
       -1    1    3    3    0  502  0.20035483399E+03 -0.28582729822E+03 -0.87855230698E+03  0.94535361640E+03  0.50400001928E-02 0.  1.
</event>
<event>
 5   0  0.2994157E-05  0.2292267E+04  0.7818609E-02  0.8480976E-01
       -2   -1    0    0    0  501  0.00000000000E+00  0.00000000000E+00  0.90262281128E+03  0.90262281128E+03  0.25500000920E-02 0. -1.
        2   -1    0    0  501    0  0.00000000000E+00  0.00000000000E+00 -0.14553389896E+04  0.14553389896E+04  0.25500000920E-02 0.  1.
    10030    2    1    2    0    0  0.00000000000E+00  0.00000000000E+00 -0.55271617832E+03  0.23579618009E+04  0.22922671486E+04 0.  0.
        4    1    3    3  502    0  0.21714974938E+03 -0.10930040502E+04 -0.70679456745E+00  0.11143670759E+04  0.12699999809E+01 0. -1.
       -4    1    3    3    0  502 -0.21714974938E+03  0.10930040502E+04 -0.55200938375E+03  0.12435947250E+04  0.12699999809E+01 0.  1.
</event>
<event>
 5   0  0.1284837E-05  0.2284373E+04  0.7818609E-02  0.8484108E-01
        1   -1    0    0  501    0  0.00000000000E+00  0.00000000000E+00  0.12128593598E+04  0.12128593598E+04  0.50400001928E-02 0. -1.
       -1   -1    0    0    0  501  0.00000000000E+00  0.00000000000E+00 -0.10756319524E+04  0.10756319524E+04  0.50400001928E-02 0.  1.
    10030    2    1    2    0    0  0.00000000000E+00  0.00000000000E+00  0.13722740745E+03  0.22884913122E+04  0.22843732455E+04 0.  0.
        4    1    3    3  502    0  0.42613451748E+03 -0.93610762510E+03  0.56619868872E+03  0.11740829105E+04  0.12699999809E+01 0.  1.
       -4    1    3    3    0  502 -0.42613451748E+03  0.93610762510E+03 -0.42897128127E+03  0.11144084017E+04  0.12699999809E+01 0. -1.
</event>
<event>
 5   0  0.1308224E-05  0.2316320E+04  0.7818609E-02  0.8471514E-01
        1   -1    0    0  501    0  0.00000000000E+00  0.00000000000E+00  0.10093515788E+04  0.10093515788E+04  0.50400001928E-02 0.  1.
       -1   -1    0    0    0  501  0.00000000000E+00  0.00000000000E+00 -0.13289071652E+04  0.13289071652E+04  0.50400001928E-02 0. -1.
    10030    2    1    2    0    0  0.00000000000E+00  0.00000000000E+00 -0.31955558642E+03  0.23382587440E+04  0.23163199652E+04 0.  0.
        5    1    3    3  502    0  0.12705609435E+03 -0.94915631621E+03  0.49775276627E+03  0.10792686737E+04  0.46999998093E+01 0.  1.
       -5    1    3    3    0  502 -0.12705609435E+03  0.94915631621E+03 -0.81730835269E+03  0.12589900703E+04  0.46999998093E+01 0. -1.
</event>
<event>
 5   0  0.2816178E-05  0.2280425E+04  0.7818609E-02  0.8485680E-01
        2   -1    0    0  501    0  0.00000000000E+00  0.00000000000E+00  0.25142572241E+04  0.25142572241E+04  0.25500000920E-02 0.  1.
       -2   -1    0    0    0  501  0.00000000000E+00  0.00000000000E+00 -0.51708471624E+03  0.51708471625E+03  0.25500000920E-02 0. -1.
    10030    2    1    2    0    0  0.00000000000E+00  0.00000000000E+00  0.19971725079E+04  0.30313419404E+04  0.22804245072E+04 0.  0.
        1    1    3    3  502    0  0.47393630353E+03 -0.10066266314E+04  0.13300330406E+04  0.17340417192E+04  0.50400001928E-02 0.  1.
       -1    1    3    3    0  502 -0.47393630353E+03  0.10066266314E+04  0.66713946730E+03  0.12973002211E+04  0.50400001928E-02 0. -1.
</event>
<event>
 5   0  0.1371753E-05  0.2305740E+04  0.7818609E-02  0.8475661E-01
       -1   -1    0    0    0  501  0.00000000000E+00  0.00000000000E+00  0.96963138331E+03  0.96963138332E+03  0.50400001928E-02 0. -1.
        1   -1    0    0  501    0  0.00000000000E+00  0.00000000000E+00 -0.13707371329E+04  0.13707371329E+04  0.50400001928E-02 0.  1.
    10030    2    1    2    0    0  0.00000000000E+00  0.00000000000E+00 -0.40110574963E+03  0.23403685163E+04  0.23057404385E+04 0.  0.
        3    1    3    3  502    0  0.41712575243E+03  0.48874646264E+03  0.77102832508E+03  0.10036691120E+04  0.10100000352E+00 0. -1.
       -3    1    3    3    0  502 -0.41712575243E+03 -0.48874646264E+03 -0.11721340747E+04  0.13366994043E+04  0.10100000352E+00 0.  1.
</event>
<event>
 5   0  0.2938972E-05  0.2320589E+04  0.7818609E-02  0.8469847E-01
       -2   -1    0    0    0  501  0.00000000000E+00  0.00000000000E+00  0.75054237813E+03  0.75054237813E+03  0.25500000920E-02 0.  1.
        2   -1    0    0  501    0  0.00000000000E+00  0.00000000000E+00 -0.17937469656E+04  0.17937469656E+04  0.25500000920E-02 0. -1.
    10030    2    1    2    0    0  0.00000000000E+00  0.00000000000E+00 -0.10432045875E+04  0.25442893437E+04  0.23205888161E+04 0.  0.
        2    1    3    3  502    0  0.72777659161E+03  0.67175436701E+02  0.46644154957E+03  0.86702884944E+03  0.25500000920E-02 0.  1.
       -2    1    3    3    0  502 -0.72777659161E+03 -0.67175436701E+02 -0.15096461371E+04  0.16772604943E+04  0.25500000920E-02 0. -1.
</event>
<event>
 5   0  0.2938972E-05  0.2291482E+04  0.7818609E-02  0.8481287E-01
        2   -1    0    0  501    0  0.00000000000E+00  0.00000000000E+00  0.16329810063E+04  0.16329810063E+04  0.25500000920E-02 0.  1.
       -2   -1    0    0    0  501  0.00000000000E+00  0.00000000000E+00 -0.80388129134E+03  0.80388129134E+03  0.25500000920E-02 0. -1.
    10030    2    1    2    0    0  0.00000000000E+00  0.00000000000E+00  0.82909971495E+03  0.24368622976E+04  0.22914823849E+04 0.  0.
        2    1    3    3  502    0 -0.82794398756E+03  0.53678924227E+03  0.10338073642E+04  0.14291226691E+04  0.25500000920E-02 0.  1.
       -2    1    3    3    0  502  0.82794398756E+03 -0.53678924227E+03 -0.20470764927E+03  0.10077396285E+04  0.25500000920E-02 0. -1.
</event>
<event>
 5   0  0.2994157E-05  0.2304923E+04  0.7818609E-02  0.8475982E-01
        2   -1    0    0  501    0  0.00000000000E+00  0.00000000000E+00  0.12498035099E+04  0.12498035099E+04  0.25500000920E-02 0. -1.
       -2   -1    0    0    0  501  0.00000000000E+00  0.00000000000E+00 -0.10627015103E+04  0.10627015103E+04  0.25500000920E-02 0.  1.
    10030    2    1    2    0    0  0.00000000000E+00  0.00000000000E+00  0.18710199955E+03  0.23125050202E+04  0.23049234934E+04 0.  0.
        4    1    3    3  502    0  0.39170130443E+03  0.77305971638E+03 -0.66862880373E+03  0.10945854590E+04  0.12699999809E+01 0.  1.
       -4    1    3    3    0  502 -0.39170130443E+03 -0.77305971638E+03  0.85573080328E+03  0.12179195612E+04  0.12699999809E+01 0. -1.
</event>
<event>
 5   0  0.2871888E-05  0.2330024E+04  0.7818609E-02  0.8466176E-01
        2   -1    0    0  501    0  0.00000000000E+00  0.00000000000E+00  0.90956748305E+03  0.90956748305E+03  0.25500000920E-02 0.  1.
       -2   -1    0    0    0  501  0.00000000000E+00  0.00000000000E+00 -0.14921963945E+04  0.14921963945E+04  0.25500000920E-02 0. -1.
    10030    2    1    2    0    0  0.00000000000E+00  0.00000000000E+00 -0.58262891148E+03  0.24017638776E+04  0.23300243079E+04 0.  0.
        3    1    3    3  502    0 -0.88092627534E+03 -0.40794514656E+02 -0.10760409480E+04  0.13912438417E+04  0.10100000352E+00 0. -1.
       -3    1    3    3    0  502  0.88092627534E+03  0.40794514656E+02  0.49341203651E+03  0.10105200359E+04  0.10100000352E+00 0.  1.
</event>
<event>
 5   0  0.2816178E-05  0.2284430E+04  0.7818609E-02  0.8484086E-01
       -2   -1    0    0    0  501  0.00000000000E+00  0.00000000000E+00  0.53829293156E+03  0.53829293156E+03  0.25500000920E-02 0.  1.
        2   -1    0    0  501    0  0.00000000000E+00  0.00000000000E+00 -0.24236891409E+04  0.24236891409E+04  0.25500000920E-02 0. -1.
    10030    2    1    2    0    0  0.00000000000E+00  0.00000000000E+00 -0.18853962094E+04  0.29619820725E+04  0.22844296731E+04 0.  0.
        1    1    3    3  502    0 -0.46296805022E+03  0.10428045663E+04 -0.10122076631E+04  0.15252360907E+04  0.50400001928E-02 0. -1.
       -1    1    3    3    0  502  0.46296805022E+03 -0.10428045663E+04 -0.87318854627E+03  0.14367459818E+04  0.50400001928E-02 0.  1.
</event>
<event>
 5   0  0.2910126E-05  0.2292085E+04  0.7818609E-02  0.8481048E-01
       -2   -1    0    0    0  501  0.00000000000E+00  0.00000000000E+00  0.73789168713E+03  0.73789168714E+03  0.25500000920E-02 0. -1.
        2   -1    0    0  501    0  0.00000000000E+00  0.00000000000E+00 -0.17799545698E+04  0.17799545698E+04  0.25500000920E-02 0.  1.
    10030    2    1    2    0    0  0.00000000000E+00  0.00000000000E+00 -0.10420628827E+04  0.25178462569E+04  0.22920852345E+04 0.  0.
        5    1    3    3  502    0  0.27497071833E+03  0.10951288794E+04 -0.73650312104E+03  0.13481005511E+04  0.46999998093E+01 0.  1.
       -5    1    3    3    0  502 -0.27497071833E+03 -0.10951288794E+04 -0.30555976161E+03  0.11697457059E+04  0.46999998093E+01 0. -1.
</event>
<event>
 5   0  0.1284837E-05  0.2301979E+04  0.7818609E-02  0.8477141E-01
       -1   -1    0    0    0  501  0.00000000000E+00  0.00000000000E+00  0.87815317771E+03  0.87815317773E+03  0.50400001928E-02 0. -1.
        1   -1    0    0  501    0  0.00000000000E+00  0.00000000000E+00 -0.15085937975E+04  0.15085937975E+04  0.50400001928E-02 0.  1.
    10030    2    1    2    0    0  0.00000000000E+00  0.00000000000E+00 -0.63044061978E+03  0.23867469752E+04  0.23019786595E+04 0.  0.
        4    1    3    3  502    0 -0.42544952627E+03  0.98842732280E+03 -0.73864454184E+03  0.13052176998E+04  0.12699999809E+01 0. -1.
       -4    1    3    3    0  502  0.42544952627E+03 -0.98842732280E+03  0.10820392206E+03  0.10815292754E+04  0.12699999809E+01 0.  1.
</event>
<event>
 5   0  0.1308224E-05  0.2260538E+04  0.7818609E-02  0.8493645E-01
        1   -1    0    0  501    0  0.00000000000E+00  0.00000000000E+00  0.19301005930E+04  0.19301005930E+04  0.50400001928E-02 0. -1.
       -1   -1    0    0    0  501  0.00000000000E+00  0.00000000000E+00 -0.66188660625E+03  0.66188660627E+03  0.50400001928E-02 0.  1.
    10030    2    1    2    0    0  0.00000000000E+00  0.00000000000E+00  0.12682139868E+04  0.25919871993E+04  0.22605377513E+04 0.  0.
        5    1    3    3  502    0  0.11034857212E+03  0.58999305347E+03  0.17322455575E+04  0.18332935858E+04  0.46999998093E+01 0. -1.
       -5    1    3    3    0  502 -0.11034857212E+03 -0.58999305347E+03 -0.46403157070E+03  0.75869361347E+03  0.46999998093E+01 0.  1.
</event>
<event>
 5   0  0.2994157E-05  0.2323239E+04  0.7818609E-02  0.8468814E-01
       -2   -1    0    0    0  501  0.00000000000E+00  0.00000000000E+00  0.11317848771E+04  0.11317848771E+04  0.25500000920E-02 0.  1.
        2   -1    0    0  501    0  0.00000000000E+00  0.00000000000E+00 -0.11922401864E+04  0.11922401864E+04  0.25500000920E-02 0. -1.
    10030    2    1    2    0    0  0.00000000000E+00  0.00000000000E+00 -0.60455309377E+02  0.23240250635E+04  0.23232386127E+04 0.  0.
        4    1    3    3  502    0 -0.10580562766E+04  0.42316424155E+03 -0.25570746243E+03  0.11678779812E+04  0.12699999809E+01 0. -1.
       -4    1    3    3    0  502  0.10580562766E+04 -0.42316424155E+03  0.19525215305E+03  0.11561470823E+04  0.12699999809E+01 0.  1.
</event>
<event>
 5   0  0.2938972E-05  0.2301519E+04  0.7818609E-02  0.8477323E-01
       -2   -1    0    0    0  501  0.00000000000E+00  0.00000000000E+00  0.72049267501E+03  0.72049267501E+03  0.25500000920E-02 0. -1.
        2   -1    0    0  501    0  0.00000000000E+00  0.00000000000E+00 -0.18379741058E+04  0.18379741058E+04  0.25500000920E-02 0.  1.
    10030    2    1    2    0    0  0.00000000000E+00  0.00000000000E+00 -0.11174814308E+04  0.25584667808E+04  0.23015185249E+04 0.  0.
        2    1    3    3  502    0  0.22327282851E+03  0.44795779962E+03 -0.17106355690E+04  0.17823554629E+04  0.25500000920E-02 0.  1.
       -2    1    3    3    0  502 -0.22327282851E+03 -0.44795779962E+03  0.59315413818E+03  0.77611131794E+03  0.25500000920E-02 0. -1.
</event>
<event>
 5   0  0.1308224E-05  0.2297434E+04  0.7818609E-02  0.8478934E-01
        1   -1    0    0  501    0  0.00000000000E+00  0.00000000000E+00  0.10571042833E+04  0.10571042833E+04  0.50400001928E-02 0. -1.
       -1   -1    0    0    0  501  0.00000000000E+00  0.00000000000E+00 -0.12482689399E+04  0.12482689399E+04  0.50400001928E-02 0.  1.
    10030    2    1    2    0    0  0.00000000000E+00  0.00000000000E+00 -0.19116465667E+03  0.23053732232E+04  0.22974337362E+04 0.  0.
        5    1    3    3  502    0  0.34887164282E+03 -0.19174357400E+03  0.98566229512E+03  0.10630283493E+04  0.46999998093E+01 0. -1.
       -5    1    3    3    0  502 -0.34887164282E+03  0.19174357400E+03 -0.11768269518E+04  0.12423448739E+04  0.46999998093E+01 0.  1.
</event>
<event>
 5   0  0.1303224E-05  0.2317791E+04  0.7818609E-02  0.8470939E-01
        1   -1    0    0  501    0  0.00000000000E+00  0.00000000000E+00  0.10822295794E+04  0.10822295794E+04  0.50400001928E-02 0.  1.
       -1   -1    0    0    0  501  0.00000000000E+00  0.00000000000E+00 -0.12409919644E+04  0.12409919644E+04  0.50400001928E-02 0. -1.
    10030    2    1    2    0    0  0.00000000000E+00  0.00000000000E+00 -0.15876238495E+03  0.23232215438E+04  0.23177905096E+04 0.  0.
        2    1    3    3  502    0  0.38029988386E+03 -0.72315847808E+03  0.74440346701E+03  0.11053156598E+04  0.25500000920E-02 0.  1.
       -2    1    3    3    0  502 -0.38029988386E+03  0.72315847808E+03 -0.90316585196E+03  0.12179058840E+04  0.25500000920E-02 0. -1.
</event>
<event>
 5   0  0.2910126E-05  0.2273998E+04  0.7818609E-02  0.8488244E-01
       -2   -1    0    0    0  501  0.00000000000E+00  0.00000000000E+00  0.19266498457E+04  0.19266498457E+04  0.25500000920E-02 0. -1.
        2   -1    0    0  501    0  0.00000000000E+00  0.00000000000E+00 -0.67099228058E+03  0.67099228059E+03  0.25500000920E-02 0.  1.
    10030    2    1    2    0    0  0.00000000000E+00  0.00000000000E+00  0.12556575651E+04  0.25976421263E+04  0.22739983939E+04 0.  0.
        5    1    3    3  502    0 -0.91880768797E+03  0.43107067840E+03  0.12133357735E+04  0.15818455318E+04  0.46999998093E+01 0. -1.
       -5    1    3    3    0  502  0.91880768797E+03 -0.43107067840E+03  0.42321791577E+02  0.10157965944E+04  0.46999998093E+01 0.  1.
</event>
<event>
 5   0  0.1303224E-05  0.2329186E+04  0.7818609E-02  0.8466502E-01
        1   -1    0    0  501    0  0.00000000000E+00  0.00000000000E+00  0.16563015923E+04  0.16563015923E+04  0.50400001928E-02 0. -1.
       -1   -1    0    0    0  501  0.00000000000E+00  0.00000000000E+00 -0.81885873443E+03  0.81885873445E+03  0.50400001928E-02 0.  1.
    10030    2    1    2    0    0  0.00000000000E+00  0.00000000000E+00  0.83744285784E+03  0.24751603267E+04  0.23291861460E+04 0.  0.
        2    1    3    3  502    0  0.74602590973E+03  0.62684085968E+03 -0.25905400156E+03  0.10082624148E+04  0.25500000920E-02 0.  1.
       -2    1    3    3    0  502 -0.74602590973E+03 -0.62684085968E+03  0.10964968594E+04  0.14668979119E+04  0.25500000920E-02 0. -1.
</event>
<event>
 5   0  0.1371753E-05  0.2298602E+04  0.7818609E-02  0.8478473E-01
        1   -1    0    0  501    0  0.00000000000E+00  0.00000000000E+00  0.12905688894E+04  0.12905688894E+04  0.50400001928E-02 0. -1.
       -1   -1    0    0    0  501  0.00000000000E+00  0.00000000000E+00 -0.10234961750E+04  0.10234961750E+04  0.50400001928E-02 0.  1.
    10030    2    1    2    0    0  0.00000000000E+00  0.00000000000E+00  0.26707271440E+03  0.23140650644E+04  0.22986015939E+04 0.  0.
        3    1    3    3  502    0  0.82029288867E+03  0.77556859751E+03  0.35063784659E+03  0.11820888217E+04  0.10100000352E+00 0. -1.
       -3    1    3    3    0  502 -0.82029288867E+03 -0.77556859751E+03 -0.83565132187E+02  0.11319762428E+04  0.10100000352E+00 0.  1.
</event>
<event>
 5   0  0.1327820E-05  0.2310426E+04  0.7818609E-02  0.8473822E-01
        1   -1    0    0  501    0  0.00000000000E+00  0.00000000000E+00  0.10367339833E+04  0.10367339834E+04  0.50400001928E-02 0.  1.
       -1   -1    0    0    0  501  0.00000000000E+00  0.00000000000E+00 -0.12872319777E+04  0.12872319777E+04  0.50400001928E-02 0. -1.
    10030    2    1    2    0    0  0.00000000000E+00  0.00000000000E+00 -0.25049799433E+03  0.23239659610E+04  0.23104260523E+04 0.  0.
        1    1    3    3  502    0 -0.45258929505E+03 -0.10543853414E+04 -0.26001783514E+03  0.11765095804E+04  0.50400001928E-02 0. -1.
       -1    1    3    3    0  502  0.45258929505E+03  0.10543853414E+04  0.95198408115E+01  0.11474563807E+04  0.50400001928E-02 0.  1.
</event>
<event>
 5   0  0.2816178E-05  0.2302407E+04  0.7818609E-02  0.8476973E-01
       -2   -1    0    0    0  501  0.00000000000E+00  0.00000000000E+00  0.10736633984E+04  0.10736633984E+04  0.25500000920E-02 0. -1.
        2   -1    0    0  501    0  0.00000000000E+00  0.00000000000E+00 -0.12343438603E+04  0.12343438603E+04  0.25500000920E-02 0.  1.
    10030    2    1    2    0    0  0.00000000000E+00  0.00000000000E+00 -0.16068046190E+03  0.23080072587E+04  0.23024072827E+04 0.  0.
        1    1    3    3  502    0  0.20968675601E+03 -0.10926506725E+04 -0.37672097115E+03  0.11746372708E+04  0.50400001928E-02 0.  1.
       -1    1    3    3    0  502 -0.20968675601E+03  0.10926506725E+04  0.21604050924E+03  0.11333699879E+04  0.50400001928E-02 0. -1.
</event>
<event>
 5   0  0.2871888E-05  0.2310492E+04  0.7818609E-02  0.8473796E-01
       -2   -1    0    0    0  501  0.00000000000E+00  0.00000000000E+00  0.95574570704E+03  0.95574570704E+03  0.25500000920E-02 0. -1.
        2   -1    0    0  501    0  0.00000000000E+00  0.00000000000E+00 -0.13963895439E+04  0.13963895439E+04  0.25500000920E-02 0.  1.
    10030    2    1    2    0    0  0.00000000000E+00  0.00000000000E+00 -0.44064383685E+03  0.23521352509E+04  0.23104919926E+04 0.  0.
        3    1    3    3  502    0  0.16776739407E+03  0.35989448384E+03  0.88409211154E+03  0.96916913379E+03  0.10100000352E+00 0. -1.
       -3    1    3    3    0  502 -0.16776739407E+03 -0.35989448384E+03 -0.13247359484E+04  0.13829661171E+04  0.10100000352E+00 0.  1.
</event>
<event>
 5   0  0.2910126E-05  0.2316725E+04  0.7818609E-02  0.8471356E-01
        2   -1    0    0  501    0  0.00000000000E+00  0.00000000000E+00  0.16743364733E+04  0.16743364733E+04  0.25500000920E-02 0.  1.
       -2   -1    0    0    0  501  0.00000000000E+00  0.00000000000E+00 -0.80139450244E+03  0.80139450244E+03  0.25500000920E-02 0. -1.
    10030    2    1    2    0    0  0.00000000000E+00  0.00000000000E+00  0.87294197091E+03  0.24757309758E+04  0.23167253139E+04 0.  0.
        5    1    3    3  502    0  0.35950541718E+03 -0.65930377396E+03 -0.50602303896E+03  0.90554238846E+03  0.46999998093E+01 0. -1.
       -5    1    3    3    0  502 -0.35950541718E+03  0.65930377396E+03  0.13789650099E+04  0.15701885873E+04  0.46999998093E+01 0.  1.
</event>
<event>
 5   0  0.2994157E-05  0.2301711E+04  0.7818609E-02  0.8477247E-01
       -2   -1    0    0    0  501  0.00000000000E+00  0.00000000000E+00  0.63273033909E+03  0.63273033909E+03  0.25500000920E-02 0. -1.
        2   -1    0    0  501    0  0.00000000000E+00  0.00000000000E+00 -0.20932597429E+04  0.20932597429E+04  0.25500000920E-02 0.  1.
    10030    2    1    2    0    0  0.00000000000E+00  0.00000000000E+00 -0.14605294038E+04  0.27259900820E+04  0.23017114910E+04 0.  0.
        4    1    3    3  502    0 -0.19775311899E+03  0.80607764812E+03  0.21393809605E+03  0.85711060705E+03  0.12699999809E+01 0. -1.
       -4    1    3    3    0  502  0.19775311899E+03 -0.80607764812E+03 -0.16744674998E+04  0.18688794749E+04  0.12699999809E+01 0.  1.
</event>
<event>
 5   0  0.2816178E-05  0.2267349E+04  0.7818609E-02  0.8490907E-01
       -2   -1    0    0    0  501  0.00000000000E+00  0.00000000000E+00  0.63860603214E+03  0.63860603214E+03  0.25500000920E-02 0. -1.
        2   -1    0    0  501    0  0.00000000000E+00  0.00000000000E+00 -0.20125356823E+04  0.20125356823E+04  0.25500000920E-02 0.  1.
    10030    2    1    2    0    0  0.00000000000E+00  0.00000000000E+00 -0.13739296502E+04  0.26511417144E+04  0.22673486072E+04 0.  0.
        1    1    3    3  502    0  0.25277956483E+03  0.10991110028E+04 -0.82168437658E+03  0.13953880176E+04  0.50400001928E-02 0. -1.
       -1    1    3    3    0  502 -0.25277956483E+03 -0.10991110028E+04 -0.55224527358E+03  0.12557536968E+04  0.50400001928E-02 0.  1.
</event>
<event>
 5   0  0.1303224E-05  0.2310230E+04  0.7818609E-02  0.8473898E-01
       -1   -1    0    0    0  501  0.00000000000E+00  0.00000000000E+00  0.12675153438E+04  0.12675153438E+04  0.50400001928E-02 0.  1.
        1   -1    0    0  501    0  0.00000000000E+00  0.00000000000E+00 -0.10526823310E+04  0.10526823310E+04  0.50400001928E-02 0. -1.
    10030    2    1    2    0    0  0.00000000000E+00  0.00000000000E+00  0.21483301276E+03  0.23201976749E+04  0.23102302974E+04 0.  0.
        2    1    3    3  502    0  0.69851052100E+03  0.46149729249E+02  0.10302084000E+04  0.12455424894E+04  0.25500000920E-02 0.  1.
       -2    1    3    3    0  502 -0.69851052100E+03 -0.46149729249E+02 -0.81537538725E+03  0.10746551854E+04  0.25500000920E-02 0. -1.
</event>
<event>
 5   0  0.1371753E-05  0.2357756E+04  0.7818609E-02  0.8455491E-01
       -1   -1    0    0    0  501  0.00000000000E+00  0.00000000000E+00  0.11445180808E+04  0.11445180808E+04  0.50400001928E-02 0. -1.
        1   -1    0    0  501    0  0.00000000000E+00  0.00000000000E+00 -0.12142690058E+04  0.12142690058E+04  0.50400001928E-02 0.  1.
    10030    2    1    2    0    0  0.00000000000E+00  0.00000000000E+00 -0.69750924965E+02  0.23587870866E+04  0.23577555701E+04 0.  0.
        3    1    3    3  502    0 -0.37012909168E+03 -0.77896356331E+03  0.76920064935E+03  0.11556164704E+04  0.10100000352E+00 0. -1.
       -3    1    3    3    0  502  0.37012909168E+03  0.77896356331E+03 -0.83895157432E+03  0.12031706162E+04  0.10100000352E+00 0.  1.
</event>
<event>
 5   0  0.2871888E-05  0.2274878E+04  0.7818609E-02  0.8487893E-01
        2   -1    0    0  501    0  0.00000000000E+00  0.00000000000E+00  0.99178637587E+03  0.99178637588E+03  0.25500000920E-02 0. -1.
       -2   -1    0    0    0  501  0.00000000000E+00  0.00000000000E+00 -0.13044824794E+04  0.13044824794E+04  0.25500000920E-02 0.  1.
    10030    2    1    2    0    0  0.00000000000E+00  0.00000000000E+00 -0.31269610350E+03  0.22962688553E+04  0.22748784149E+04 0.  0.
        3    1    3    3  502    0 -0.30398127271E+03  0.67913694636E+03  0.71205313429E+03  0.10298792562E+04  0.10100000352E+00 0. -1.
       -3    1    3    3    0  502  0.30398127271E+03 -0.67913694636E+03 -0.10247492378E+04  0.12663895991E+04  0.10100000352E+00 0.  1.
</event>
<event>
 5   0  0.2871888E-05  0.2306994E+04  0.7818609E-02  0.8475169E-01
       -2   -1    0    0    0  501  0.00000000000E+00  0.00000000000E+00  0.64351448522E+03  0.64351448522E+03  0.25500000920E-02 0.  1.
        2   -1    0    0  501    0  0.00000000000E+00  0.00000000000E+00 -0.20676379387E+04  0.20676379387E+04  0.25500000920E-02 0. -1.
    10030    2    1    2    0    0  0.00000000000E+00  0.00000000000E+00 -0.14241234535E+04  0.27111524239E+04  0.23069936833E+04 0.  0.
        3    1    3    3  502    0 -0.18724825445E+03 -0.11283069204E+04 -0.53611070160E+03  0.12631520534E+04  0.10100000352E+00 0. -1.
       -3    1    3    3    0  502  0.18724825445E+03  0.11283069204E+04 -0.88801275185E+03  0.14480003705E+04  0.10100000352E+00 0.  1.
</event>
<event>
 5   0  0.1303224E-05  0.2301503E+04  0.7818609E-02  0.8477329E-01
        1   -1    0    0  501    0  0.00000000000E+00  0.00000000000E+00  0.91355782514E+03  0.91355782516E+03  0.50400001928E-02 0. -1.
       -1   -1    0    0    0  501  0.00000000000E+00  0.00000000000E+00 -0.14495294107E+04  0.14495294108E+04  0.50400001928E-02 0.  1.
    10030    2    1    2    0    0  0.00000000000E+00  0.00000000000E+00 -0.53597158560E+03  0.23630872359E+04  0.23015029316E+04 0.  0.
        2    1    3    3  502    0 -0.28533712874E+03 -0.84393699998E+03 -0.10158874194E+04  0.13511751130E+04  0.25500000920E-02 0.  1.
       -2    1    3    3    0  502  0.28533712874E+03  0.84393699998E+03  0.47991583383E+03  0.10119121229E+04  0.25500000920E-02 0. -1.
</event>
<event>
 5   0  0.1327820E-05  0.2233124E+04  0.7818609E-02  0.8504766E-01
        1   -1    0    0  501    0  0.00000000000E+00  0.00000000000E+00  0.24343547498E+04  0.24343547498E+04  0.50400001928E-02 0.  1.
       -1   -1    0    0    0  501  0.00000000000E+00  0.00000000000E+00 -0.51213203813E+03  0.51213203815E+03  0.50400001928E-02 0. -1.
    10030    2    1    2    0    0  0.00000000000E+00  0.00000000000E+00  0.19222227117E+04  0.29464867880E+04  0.22331243222E+04 0.  0.
        1    1    3    3  502    0 -0.21705980449E+03  0.10945805117E+04  0.10120358885E+04  0.15064654310E+04  0.50400001928E-02 0.  1.
       -1    1    3    3    0  502  0.21705980449E+03 -0.10945805117E+04  0.91018682322E+03  0.14400213569E+04  0.50400001928E-02 0. -1.
</event>
<event>
 5   0  0.2910126E-05  0.2300592E+04  0.7818609E-02  0.8477688E-01
       -2   -1    0    0    0  501  0.00000000000E+00  0.00000000000E+00  0.95337841420E+03  0.95337841421E+03  0.25500000920E-02 0.  1.
        2   -1    0    0  501    0  0.00000000000E+00  0.00000000000E+00 -0.13878858356E+04  0.13878858356E+04  0.25500000920E-02 0. -1.
    10030    2    1    2    0    0  0.00000000000E+00  0.00000000000E+00 -0.43450742139E+03  0.23412642498E+04  0.23005915735E+04 0.  0.
        5    1    3    3  502    0  0.49690012751E+03 -0.71221563935E+03  0.55040126681E+03  0.10281655986E+04  0.46999998093E+01 0.  1.
       -5    1    3    3    0  502 -0.49690012751E+03  0.71221563935E+03 -0.98490868820E+03  0.13130986512E+04  0.46999998093E+01 0. -1.
</event>
<event>
 5   0  0.1284837E-05  0.2304017E+04  0.7818609E-02  0.8476339E-01
        1   -1    0    0  501    0  0.00000000000E+00  0.00000000000E+00  0.13734967473E+04  0.13734967473E+04  0.50400001928E-02 0.  1.
       -1   -1    0    0    0  501  0.00000000000E+00  0.00000000000E+00 -0.96623695594E+03  0.96623695595E+03  0.50400001928E-02 0. -1.
    10030    2    1    2    0    0  0.00000000000E+00  0.00000000000E+00  0.40725979139E+03  0.23397337033E+04  0.23040167674E+04 0.  0.
        4    1    3    3  502    0  0.58111682325E+03 -0.87876344629E+03  0.67690150493E+03  0.12522456696E+04  0.12699999809E+01 0. -1.
       -4    1    3    3    0  502 -0.58111682325E+03  0.87876344629E+03 -0.26964171354E+03  0.10874880337E+04  0.12699999809E+01 0.  1.
</event>
<event>
 5   0  0.1327820E-05  0.2306810E+04  0.7818609E-02  0.8475241E-01
       -1   -1    0    0    0  501  0.00000000000E+00  0.00000000000E+00  0.89876505322E+03  0.89876505324E+03  0.50400001928E-02 0.  1.
        1   -1    0    0  501    0  0.00000000000E+00  0.00000000000E+00 -0.14801896249E+04  0.14801896249E+04  0.50400001928E-02 0. -1.
    10030    2    1    2    0    0  0.00000000000E+00  0.00000000000E+00 -0.58142457170E+03  0.23789546782E+04  0.23068096645E+04 0.  0.
        1    1    3    3  502    0  0.88436708853E+03 -0.59819538646E+03  0.15928272102E+03  0.10794970370E+04  0.50400001928E-02 0. -1.
       -1    1    3    3    0  502 -0.88436708853E+03  0.59819538646E+03 -0.74070729272E+03  0.12994576412E+04  0.50400001928E-02 0.  1.
</event>
<event>
 5   0  0.2994157E-05  0.2281916E+04  0.7818609E-02  0.8485086E-01
       -2   -1    0    0    0  501  0.00000000000E+00  0.00000000000E+00  0.93704570385E+03  0.93704570385E+03  0.25500000920E-02 0. -1.
        2   -1    0    0  501    0  0.00000000000E+00  0.00000000000E+00 -0.13892435400E+04  0.13892435400E+04  0.25500000920E-02 0.  1.
    10030    2    1    2    0    0  0.00000000000E+00  0.00000000000E+00 -0.45219783614E+03  0.23262892438E+04  0.22819155907E+04 0.  0.
        4    1    3    3  502    0  0.83322174095E+03 -0.13160914695E+02  0.56838325175E+03  0.10087084876E+04  0.12699999809E+01 0. -1.
       -4    1    3    3    0  502 -0.83322174095E+03  0.13160914695E+02 -0.10205810879E+04  0.13175807562E+04  0.12699999809E+01 0.  1.
</event>
<event>
 5   0  0.1371753E-05  0.2298703E+04  0.7818609E-02  0.8478433E-01
       -1   -1    0    0    0  501  0.00000000000E+00  0.00000000000E+00  0.10925815787E+04  0.10925815788E+04  0.50400001928E-02 0.  1.
        1   -1    0    0  501    0  0.00000000000E+00  0.00000000000E+00 -0.12090712484E+04  0.12090712484E+04  0.50400001928E-02 0. -1.
    10030    2    1    2    0    0  0.00000000000E+00  0.00000000000E+00 -0.11648966965E+03  0.23016528272E+04  0.22987030895E+04 0.  0.
        3    1    3    3  502    0  0.56455377876E+03  0.65963178939E+03  0.69583105406E+03  0.11126616434E+04  0.10100000352E+00 0.  1.
       -3    1    3    3    0  502 -0.56455377876E+03 -0.65963178939E+03 -0.81232072371E+03  0.11889911838E+04  0.10100000352E+00 0. -1.
</event>
<event>
 5   0  0.1327820E-05  0.2290282E+04  0.7818609E-02  0.8481763E-01
        1   -1    0    0  501    0  0.00000000000E+00  0.00000000000E+00  0.12615740187E+04  0.12615740187E+04  0.50400001928E-02 0. -1.
       -1   -1    0    0    0  501  0.00000000000E+00  0.00000000000E+00 -0.10394541206E+04  0.10394541206E+04  0.50400001928E-02 0.  1.
    10030    2    1    2    0    0  0.00000000000E+00  0.00000000000E+00  0.22211989806E+03  0.23010281393E+04  0.22902823513E+04 0.  0.
        1    1    3    3  502    0 -0.14108406843E+02 -0.73189613519E+03 -0.77368369514E+03  0.10651091306E+04  0.50400001928E-02 0.  1.
       -1    1    3    3    0  502  0.14108406843E+02  0.73189613519E+03  0.99580359321E+03  0.12359190087E+04  0.50400001928E-02 0. -1.
</event>
<event>
 5   0  0.1327820E-05  0.2283714E+04  0.7818609E-02  0.8484370E-01
        1   -1    0    0  501    0  0.00000000000E+00  0.00000000000E+00  0.22203439623E+04  0.22203439623E+04  0.50400001928E-02 0.  1.
       -1   -1    0    0    0  501  0.00000000000E+00  0.00000000000E+00 -0.58722341125E+03  0.58722341127E+03  0.50400001928E-02 0. -1.
    10030    2    1    2    0    0  0.00000000000E+00  0.00000000000E+00  0.16331205511E+04  0.28075673736E+04  0.22837144793E+04 0.  0.
        1    1    3    3  502    0 -0.25275391653E+03 -0.10596056257E+04  0.39570534492E+03  0.11589785780E+04  0.50400001928E-02 0. -1.
       -1    1    3    3    0  502  0.25275391653E+03  0.10596056257E+04  0.12374152061E+04  0.16485887955E+04  0.50400001928E-02 0.  1.
</event>
<event>
 5   0  0.1308224E-05  0.2327752E+04  0.7818609E-02  0.8467059E-01
        1   -1    0    0  501    0  0.00000000000E+00  0.00000000000E+00  0.11770080300E+04  0.11770080300E+04  0.50400001928E-02 0. -1.
       -1   -1    0    0    0  501  0.00000000000E+00  0.00000000000E+00 -0.11508903524E+04  0.11508903525E+04  0.50400001928E-02 0.  1.
    10030    2    1    2    0    0  0.00000000000E+00  0.00000000000E+00  0.26117677539E+02  0.23278983825E+04  0.23277518652E+04 0.  0.
        5    1    3    3  502    0  0.11176814741E+04  0.31830768727E+03 -0.50611762041E+02  0.11632348438E+04  0.46999998093E+01 0. -1.
       -5    1    3    3    0  502 -0.11176814741E+04 -0.31830768727E+03  0.76729439580E+02  0.11646635387E+04  0.46999998093E+01 0.  1.
</event>
<event>
 5   0  0.1308224E-05  0.2308967E+04  0.7818609E-02  0.8474394E-01
       -1   -1    0    0    0  501  0.00000000000E+00  0.00000000000E+00  0.16612522795E+04  0.16612522795E+04  0.50400001928E-02 0.  1.
        1   -1    0    0  501    0  0.00000000000E+00  0.00000000000E+00 -0.80230570165E+03  0.80230570166E+03  0.50400001928E-02 0. -1.
    10030    2    1    2    0    0  0.00000000000E+00  0.00000000000E+00  0.85894657787E+03  0.24635579812E+04  0.23089670208E+04 0.  0.
        5    1    3    3  502    0  0.57026977433E+03  0.24394766586E+03 -0.60941846880E+03  0.86955795626E+03  0.46999998093E+01 0. -1.
       -5    1    3    3    0  502 -0.57026977433E+03 -0.24394766586E+03  0.14683650467E+04  0.15940000249E+04  0.46999998093E+01 0.  1.
</event>
<event>
 5   0  0.1303224E-05  0.2300563E+04  0.7818609E-02  0.8477699E-01
        1   -1    0    0  501    0  0.00000000000E+00  0.00000000000E+00  0.10639745029E+04  0.10639745029E+04  0.50400001928E-02 0. -1.
       -1   -1    0    0    0  501  0.00000000000E+00  0.00000000000E+00 -0.12435899908E+04  0.12435899908E+04  0.50400001928E-02 0.  1.
    10030    2    1    2    0    0  0.00000000000E+00  0.00000000000E+00 -0.17961548783E+03  0.23075644937E+04  0.23005634460E+04 0.  0.
        2    1    3    3  502    0  0.72935406730E+03 -0.54042630184E+03  0.61883364300E+03  0.10986232388E+04  0.25500000920E-02 0. -1.
       -2    1    3    3    0  502 -0.72935406730E+03  0.54042630184E+03 -0.79844913082E+03  0.12089412549E+04  0.25500000920E-02 0.  1.
</event>
<event>
 5   0  0.1303224E-05  0.2306189E+04  0.7818609E-02  0.8475485E-01
       -1   -1    0    0    0  501  0.00000000000E+00  0.00000000000E+00  0.93787591507E+03  0.93787591509E+03  0.50400001928E-02 0.  1.
        1   -1    0    0  501    0  0.00000000000E+00  0.00000000000E+00 -0.14177006357E+04  0.14177006357E+04  0.50400001928E-02 0. -1.
    10030    2    1    2    0    0  0.00000000000E+00  0.00000000000E+00 -0.47982472064E+03  0.23555765508E+04  0.23061893080E+04 0.  0.
        2    1    3    3  502    0  0.62502246879E+03 -0.18368757338E+03 -0.12117248441E+04  0.13757439111E+04  0.25500000920E-02 0. -1.
       -2    1    3    3    0  502 -0.62502246879E+03  0.18368757338E+03  0.73190012346E+03  0.97983263971E+03  0.25500000920E-02 0.  1.
</event>
<event>
 5   0  0.1303224E-05  0.2312349E+04  0.7818609E-02  0.8473068E-01
       -1   -1    0    0    0  501  0.00000000000E+00  0.00000000000E+00  0.92943403908E+03  0.92943403909E+03  0.50400001928E-02 0.  1.
        1   -1    0    0  501    0  0.00000000000E+00  0.00000000000E+00 -0.14382293651E+04  0.14382293652E+04  0.50400001928E-02 0. -1.
    10030    2    1    2    0    0  0.00000000000E+00  0.00000000000E+00 -0.50879532607E+03  0.23676634043E+04  0.23123488733E+04 0.  0.
        2    1    3    3  502    0 -0.44774302599E+03 -0.51626063960E+03 -0.12093054627E+04  0.13890351210E+04  0.25500000920E-02 0. -1.
       -2    1    3    3    0  502  0.44774302599E+03  0.51626063960E+03  0.70051013659E+03  0.97862828326E+03  0.25500000920E-02 0.  1.
</event>
<event>
 5   0  0.2910126E-05  0.2339920E+04  0.7818609E-02  0.8462345E-01
        2   -1    0    0  501    0  0.00000000000E+00  0.00000000000E+00  0.13568194279E+04  0.13568194279E+04  0.25500000920E-02 0.  1.
       -2   -1    0    0    0  501  0.00000000000E+00  0.00000000000E+00 -0.10088345995E+04  0.10088345996E+04  0.25500000920E-02 0. -1.
    10030    2    1    2    0    0  0.00000000000E+00  0.00000000000E+00  0.34798482838E+03  0.23656540275E+04  0.23399199852E+04 0.  0.
        5    1    3    3  502    0  0.24087479252E+03 -0.94217825282E+03 -0.48359446665E+03  0.10860967839E+04  0.46999998093E+01 0.  1.
       -5    1    3    3    0  502 -0.24087479252E+03  0.94217825282E+03  0.83157929503E+03  0.12795572436E+04  0.46999998093E+01 0. -1.
</event>
<event>
 5   0  0.1327820E-05  0.2291906E+04  0.7818609E-02  0.8481119E-01
       -1   -1    0    0    0  501  0.00000000000E+00  0.00000000000E+00  0.65542566947E+03  0.65542566949E+03  0.50400001928E-02 0.  1.
        1   -1    0    0  501    0  0.00000000000E+00  0.00000000000E+00 -0.20035953299E+04  0.20035953299E+04  0.50400001928E-02 0. -1.
    10030    2    1    2    0    0  0.00000000000E+00  0.00000000000E+00 -0.13481696604E+04  0.26590209994E+04  0.22919055918E+04 0.  0.
        1    1    3    3  502    0  0.85161652320E+03 -0.65335588104E+03 -0.20844495096E+03  0.10934230231E+04  0.50400001928E-02 0.  1.
       -1    1    3    3    0  502 -0.85161652320E+03  0.65335588104E+03 -0.11397247094E+04  0.15655979762E+04  0.50400001928E-02 0. -1.
</event>
<event>
 5   0  0.1017200E-05  0.2300230E+04  0.7818609E-02  0.8477831E-01
       -3   -1    0    0    0  501  0.00000000000E+00  0.00000000000E+00  0.10466915976E+04  0.10466916025E+04  0.10100000352E+00 0.  1.
        3   -1    0    0  501    0  0.00000000000E+00  0.00000000000E+00 -0.12637573766E+04  0.12637573806E+04  0.10100000352E+00 0. -1.
    10030    2    1    2    0    0  0.00000000000E+00  0.00000000000E+00 -0.21706577898E+03  0.23104489831E+04  0.23002297605E+04 0.  0.
        5    1    3    3  502    0  0.99032888522E+03  0.57048411019E+03  0.20641436276E+02  0.11430886141E+04  0.46999998093E+01 0.  1.
       -5    1    3    3    0  502 -0.99032888522E+03 -0.57048411019E+03 -0.23770721526E+03  0.11673603690E+04  0.46999998093E+01 0. -1.
</event>
<event>
 5   0  0.2871888E-05  0.2300680E+04  0.7818609E-02  0.8477653E-01
       -2   -1    0    0    0  501  0.00000000000E+00  0.00000000000E+00  0.64323086250E+03  0.64323086251E+03  0.25500000920E-02 0. -1.
        2   -1    0    0  501    0  0.00000000000E+00  0.00000000000E+00 -0.20572436245E+04  0.20572436245E+04  0.25500000920E-02 0.  1.
    10030    2    1    2    0    0  0.00000000000E+00  0.00000000000E+00 -0.14140127620E+04  0.27004744871E+04  0.23006804133E+04 0.  0.
        3    1    3    3  502    0  0.15060871980E+03  0.66639628679E+03  0.37929771694E+03  0.78143058924E+03  0.10100000352E+00 0. -1.
       -3    1    3    3    0  502 -0.15060871980E+03 -0.66639628679E+03 -0.17933104790E+04  0.19190438978E+04  0.10100000352E+00 0.  1.
</event>
<event>
 5   0  0.1284837E-05  0.2308236E+04  0.7818609E-02  0.8474681E-01
        1   -1    0    0  501    0  0.00000000000E+00  0.00000000000E+00  0.23192792352E+04  0.23192792352E+04  0.50400001928E-02 0.  1.
       -1   -1    0    0    0  501  0.00000000000E+00  0.00000000000E+00 -0.57431153950E+03  0.57431153952E+03  0.50400001928E-02 0. -1.
    10030    2    1    2    0    0  0.00000000000E+00  0.00000000000E+00  0.17449676957E+04  0.28935907747E+04  0.23082364074E+04 0.  0.
        4    1    3    3  502    0 -0.40024771272E+03  0.26007567921E+03 -0.44477398270E+03  0.65242861605E+03  0.12699999809E+01 0. -1.
       -4    1    3    3    0  502  0.40024771272E+03 -0.26007567921E+03  0.21897416784E+04  0.22411621586E+04  0.12699999809E+01 0.  1.
</event>
<event>
 5   0  0.2994157E-05  0.2308572E+04  0.7818609E-02  0.8474549E-01
       -2   -1    0    0    0  501  0.00000000000E+00  0.00000000000E+00  0.99766055161E+03  0.99766055161E+03  0.25500000920E-02 0.  1.
        2   -1    0    0  501    0  0.00000000000E+00  0.00000000000E+00 -0.13354999875E+04  0.13354999875E+04  0.25500000920E-02 0. -1.
    10030    2    1    2    0    0  0.00000000000E+00  0.00000000000E+00 -0.33783943588E+03  0.23331605391E+04  0.23085715533E+04 0.  0.
        4    1    3    3  502    0 -0.29470071232E+03 -0.58405329374E+03  0.79221288155E+03  0.10274091796E+04  0.12699999809E+01 0.  1.
       -4    1    3    3    0  502  0.29470071232E+03  0.58405329374E+03 -0.11300523174E+04  0.13057513595E+04  0.12699999809E+01 0. -1.
</event>
<event>
 5   0  0.2816178E-05  0.2299399E+04  0.7818609E-02  0.8478158E-01
        2   -1    0    0  501    0  0.00000000000E+00  0.00000000000E+00  0.92196286519E+03  0.92196286519E+03  0.25500000920E-02 0.  1.
       -2   -1    0    0    0  501  0.00000000000E+00  0.00000000000E+00 -0.14336896449E+04  0.14336896449E+04  0.25500000920E-02 0. -1.
    10030    2    1    2    0    0  0.00000000000E+00  0.00000000000E+00 -0.51172677969E+03  0.23556525101E+04  0.22993987151E+04 0.  0.
        1    1    3    3  502    0  0.38326919681E+03 -0.65076617876E+03  0.63218650751E+03  0.98491201483E+03  0.50400001928E-02 0.  1.
       -1    1    3    3    0  502 -0.38326919681E+03  0.65076617876E+03 -0.11439132872E+04  0.13707404952E+04  0.50400001928E-02 0. -1.
</event>
<event>
 5   0  0.1371753E-05  0.2327981E+04  0.7818609E-02  0.8466970E-01
       -1   -1    0    0    0  501  0.00000000000E+00  0.00000000000E+00  0.63279335293E+03  0.63279335295E+03  0.50400001928E-02 0. -1.
        1   -1    0    0  501    0  0.00000000000E+00  0.00000000000E+00 -0.21411001555E+04  0.21411001555E+04  0.50400001928E-02 0.  1.
    10030    2    1    2    0    0  0.00000000000E+00  0.00000000000E+00 -0.15083068026E+04  0.27738935085E+04  0.23279810535E+04 0.  0.
        3    1    3    3  502    0 -0.18778180619E+03  0.11413555383E+04 -0.90914339140E+03  0.14712226847E+04  0.10100000352E+00 0. -1.
       -3    1    3    3    0  502  0.18778180619E+03 -0.11413555383E+04 -0.59916341121E+03  0.13026708238E+04  0.10100000352E+00 0.  1.
</event>
<event>
 5   0  0.2871888E-05  0.2289351E+04  0.7818609E-02  0.8482132E-01
       -2   -1    0    0    0  501  0.00000000000E+00  0.00000000000E+00  0.13269374687E+04  0.13269374687E+04  0.25500000920E-02 0. -1.
        2   -1    0    0  501    0  0.00000000000E+00  0.00000000000E+00 -0.98744784985E+03  0.98744784985E+03  0.25500000920E-02 0.  1.
    10030    2    1    2    0    0  0.00000000000E+00  0.00000000000E+00  0.33948961881E+03  0.23143853185E+04  0.22893506069E+04 0.  0.
        3    1    3    3  502    0  0.79020025141E+03  0.82734773700E+03  0.13245205373E+03  0.11517223068E+04  0.10100000352E+00 0. -1.
       -3    1    3    3    0  502 -0.79020025141E+03 -0.82734773700E+03  0.20703756508E+03  0.11626630117E+04  0.10100000352E+00 0.  1.
</event>
<event>
 5   0  0.1284837E-05  0.2297765E+04  0.7818609E-02  0.8478803E-01
       -1   -1    0    0    0  501  0.00000000000E+00  0.00000000000E+00  0.17923410952E+04  0.17923410952E+04  0.50400001928E-02 0.  1.
        1   -1    0    0  501    0  0.00000000000E+00  0.00000000000E+00 -0.73642863277E+03  0.73642863279E+03  0.50400001928E-02 0. -1.
    10030    2    1    2    0    0  0.00000000000E+00  0.00000000000E+00  0.10559124624E+04  0.25287697280E+04  0.22977652641E+04 0.  0.
        4    1    3    3  502    0  0.28164011006E+03  0.99468756733E+03 -0.23635720010E+02  0.10340622652E+04  0.12699999809E+01 0. -1.
       -4    1    3    3    0  502 -0.28164011006E+03 -0.99468756733E+03  0.10795481824E+04  0.14947074628E+04  0.12699999809E+01 0.  1.
</event>
<event>
 5   0  0.2938972E-05  0.2300633E+04  0.7818609E-02  0.8477671E-01
        2   -1    0    0  501    0  0.00000000000E+00  0.00000000000E+00  0.17002834248E+04  0.17002834248E+04  0.25500000920E-02 0.  1.
       -2   -1    0    0    0  501  0.00000000000E+00  0.00000000000E+00 -0.77824002732E+03  0.77824002732E+03  0.25500000920E-02 0. -1.
    10030    2    1    2    0    0  0.00000000000E+00  0.00000000000E+00  0.92204339752E+03  0.24785234522E+04  0.23006334945E+04 0.  0.
        2    1    3    3  502    0  0.66442318285E+03  0.12762886081E+03 -0.54122456386E+03  0.86641290420E+03  0.25500000920E-02 0. -1.
       -2    1    3    3    0  502 -0.66442318285E+03 -0.12762886081E+03  0.14632679614E+04  0.16121105480E+04  0.25500000920E-02 0.  1.
</event>
<event>
 5   0  0.1284837E-05  0.2315579E+04  0.7818609E-02  0.8471804E-01
        1   -1    0    0  501    0  0.00000000000E+00  0.00000000000E+00  0.15453488333E+04  0.15453488333E+04  0.50400001928E-02 0.  1.
       -1   -1    0    0    0  501  0.00000000000E+00  0.00000000000E+00 -0.86742652226E+03  0.86742652227E+03  0.50400001928E-02 0. -1.
    10030    2    1    2    0    0  0.00000000000E+00  0.00000000000E+00  0.67792231107E+03  0.24127753556E+04  0.23155790327E+04 0.  0.
        4    1    3    3  502    0 -0.23693603693E+03 -0.41008969978E+03 -0.76187081307E+03  0.89708472073E+03  0.12699999809E+01 0. -1.
       -4    1    3    3    0  502  0.23693603693E+03  0.41008969978E+03  0.14397931241E+04  0.15156906349E+04  0.12699999809E+01 0.  1.
</event>
<event>
 5   0  0.1284837E-05  0.2293905E+04  0.7818609E-02  0.8480328E-01
        1   -1    0    0  501    0  0.00000000000E+00  0.00000000000E+00  0.14772674018E+04  0.14772674018E+04  0.50400001928E-02 0. -1.
       -1   -1    0    0    0  501  0.00000000000E+00  0.00000000000E+00 -0.89049520428E+03  0.89049520429E+03  0.50400001928E-02 0.  1.
    10030    2    1    2    0    0  0.00000000000E+00  0.00000000000E+00  0.58677219754E+03  0.23677626061E+04  0.22939045636E+04 0.  0.
        4    1    3    3  502    0 -0.42435815775E+03 -0.16735792657E+03  0.13796038987E+04  0.14530647101E+04  0.12699999809E+01 0. -1.
       -4    1    3    3    0  502  0.42435815775E+03  0.16735792657E+03 -0.79283170116E+03  0.91469789598E+03  0.12699999809E+01 0.  1.
</event>
<event>
 5   0  0.1303224E-05  0.2301025E+04  0.7818609E-02  0.8477517E-01
        1   -1    0    0  501    0  0.00000000000E+00  0.00000000000E+00  0.14250924798E+04  0.14250924799E+04  0.50400001928E-02 0.  1.
       -1   -1    0    0    0  501  0.00000000000E+00  0.00000000000E+00 -0.92883687069E+03  0.92883687071E+03  0.50400001928E-02 0. -1.
    10030    2    1    2    0    0  0.00000000000E+00  0.00000000000E+00  0.49625560915E+03  0.23539293506E+04  0.23010245018E+04 0.  0.
        2    1    3    3  502    0  0.52100007482E+03 -0.97026444048E+03 -0.92429056536E+02  0.11051684455E+04  0.25500000920E-02 0.  1.
       -2    1    3    3    0  502 -0.52100007482E+03  0.97026444048E+03  0.58868466569E+03  0.12487609051E+04  0.25500000920E-02 0. -1.
</event>
<event>
 5   0  0.2938972E-05  0.2301575E+04  0.7818609E-02  0.8477300E-01
       -2   -1    0    0    0  501  0.00000000000E+00  0.00000000000E+00  0.66268088892E+03  0.66268088893E+03  0.25500000920E-02 0. -1.
        2   -1    0    0  501    0  0.00000000000E+00  0.00000000000E+00 -0.19984152525E+04  0.19984152525E+04  0.25500000920E-02 0.  1.
    10030    2    1    2    0    0  0.00000000000E+00  0.00000000000E+00 -0.13357343636E+04  0.26610961415E+04  0.23015747618E+04 0.  0.
        2    1    3    3  502    0  0.55231092959E+03 -0.54678432525E+03 -0.16491394230E+04  0.18230966232E+04  0.25500000920E-02 0.  1.
       -2    1    3    3    0  502 -0.55231092959E+03  0.54678432525E+03  0.31340505937E+03  0.83799951821E+03  0.25500000920E-02 0. -1.
</event>
<event>
 5   0  0.2816178E-05  0.2274575E+04  0.7818609E-02  0.8488014E-01
        2   -1    0    0  501    0  0.00000000000E+00  0.00000000000E+00  0.18030452149E+04  0.18030452149E+04  0.25500000920E-02 0. -1.
       -2   -1    0    0    0  501  0.00000000000E+00  0.00000000000E+00 -0.71735457837E+03  0.71735457838E+03  0.25500000920E-02 0.  1.
    10030    2    1    2    0    0  0.00000000000E+00  0.00000000000E+00  0.10856906365E+04  0.25203997933E+04  0.22745748965E+04 0.  0.
        1    1    3    3  502    0 -0.82773350747E+03  0.66300232608E+03  0.87713814057E+02  0.10641468681E+04  0.50400001928E-02 0. -1.
       -1    1    3    3    0  502  0.82773350747E+03 -0.66300232608E+03  0.99797682248E+03  0.14562529251E+04  0.50400001928E-02 0.  1.
</event>
<event>
 5   0  0.2910126E-05  0.2328007E+04  0.7818609E-02  0.8466959E-01
       -2   -1    0    0    0  501  0.00000000000E+00  0.00000000000E+00  0.12281740348E+04  0.12281740348E+04  0.25500000920E-02 0.  1.
        2   -1    0    0  501    0  0.00000000000E+00  0.00000000000E+00 -0.11031860205E+04  0.11031860205E+04  0.25500000920E-02 0. -1.
    10030    2    1    2    0    0  0.00000000000E+00  0.00000000000E+00  0.12498801431E+03  0.23313600553E+04  0.23280072387E+04 0.  0.
        5    1    3    3  502    0 -0.66014079736E+03 -0.68959522355E+03  0.72945235262E+03  0.12014367522E+04  0.46999998093E+01 0.  1.
       -5    1    3    3    0  502  0.66014079736E+03  0.68959522355E+03 -0.60446433831E+03  0.11299233031E+04  0.46999998093E+01 0. -1.
</event>
<event>
 5   0  0.2816178E-05  0.2296957E+04  0.7818609E-02  0.8479122E-01
        2   -1    0    0  501    0  0.00000000000E+00  0.00000000000E+00  0.12245262505E+04  0.12245262505E+04  0.25500000920E-02 0.  1.
       -2   -1    0    0    0  501  0.00000000000E+00  0.00000000000E+00 -0.10771540257E+04  0.10771540258E+04  0.25500000920E-02 0. -1.
    10030    2    1    2    0    0  0.00000000000E+00  0.00000000000E+00  0.14737222472E+03  0.23016802762E+04  0.22969574487E+04 0.  0.
        1    1    3    3  502    0 -0.27019819202E+03  0.24128646215E+03  0.11657788806E+04  0.12207647677E+04  0.50400001928E-02 0.  1.
       -1    1    3    3    0  502  0.27019819202E+03 -0.24128646215E+03 -0.10184066558E+04  0.10809155085E+04  0.50400001928E-02 0. -1.
</event>
<event>
 5   0  0.1327820E-05  0.2302703E+04  0.7818609E-02  0.8476856E-01
       -1   -1    0    0    0  501  0.00000000000E+00  0.00000000000E+00  0.12896357170E+04  0.12896357170E+04  0.50400001928E-02 0.  1.
        1   -1    0    0  501    0  0.00000000000E+00  0.00000000000E+00 -0.10278950903E+04  0.10278950903E+04  0.50400001928E-02 0. -1.
    10030    2    1    2    0    0  0.00000000000E+00  0.00000000000E+00  0.26174062666E+03  0.23175308073E+04  0.23027029524E+04 0.  0.
        1    1    3    3  502    0  0.24846844668E+03  0.12085230524E+03  0.12557743387E+04  0.12858114319E+04  0.50400001928E-02 0.  1.
       -1    1    3    3    0  502 -0.24846844668E+03 -0.12085230524E+03 -0.99403371206E+03  0.10317193753E+04  0.50400001928E-02 0. -1.
</event>
<event>
 5   0  0.2910126E-05  0.2296384E+04  0.7818609E-02  0.8479348E-01
       -2   -1    0    0    0  501  0.00000000000E+00  0.00000000000E+00  0.15010074038E+04  0.15010074038E+04  0.25500000920E-02 0. -1.
        2   -1    0    0  501    0  0.00000000000E+00  0.00000000000E+00 -0.87830675944E+03  0.87830675944E+03  0.25500000920E-02 0.  1.
    10030    2    1    2    0    0  0.00000000000E+00  0.00000000000E+00  0.62270064438E+03  0.23793141633E+04  0.22963840696E+04 0.  0.
        5    1    3    3  502    0 -0.61757515120E+03 -0.63664043380E+03 -0.44409834327E+03  0.99194533005E+03  0.46999998093E+01 0.  1.
       -5    1    3    3    0  502  0.61757515120E+03  0.63664043380E+03  0.10667989876E+04  0.13873688332E+04  0.46999998093E+01 0. -1.
</event>
<event>
 5   0  0.2994157E-05  0.2282425E+04  0.7818609E-02  0.8484883E-01
        2   -1    0    0  501    0  0.00000000000E+00  0.00000000000E+00  0.13201944116E+04  0.13201944116E+04  0.25500000920E-02 0. -1.
       -2   -1    0    0    0  501  0.00000000000E+00  0.00000000000E+00 -0.98649581959E+03  0.98649581959E+03  0.25500000920E-02 0.  1.
    10030    2    1    2    0    0  0.00000000000E+00  0.00000000000E+00  0.33369859206E+03  0.23066902312E+04  0.22824252611E+04 0.  0.
        4    1    3    3  502    0 -0.45273649127E+03  0.10260274460E+04  0.38042990384E+03  0.11842428700E+04  0.12699999809E+01 0. -1.
       -4    1    3    3    0  502  0.45273649127E+03 -0.10260274460E+04 -0.46731311785E+02  0.11224473613E+04  0.12699999809E+01 0.  1.
</event>
<event>
 5   0  0.2994157E-05  0.2305689E+04  0.7818609E-02  0.8475681E-01
        2   -1    0    0  501    0  0.00000000000E+00  0.00000000000E+00  0.20417806838E+04  0.20417806838E+04  0.25500000920E-02 0.  1.
       -2   -1    0    0    0  501  0.00000000000E+00  0.00000000000E+00 -0.65092739039E+03  0.65092739039E+03  0.25500000920E-02 0. -1.
    10030    2    1    2    0    0  0.00000000000E+00  0.00000000000E+00  0.13908532934E+04  0.26927080742E+04  0.23056894607E+04 0.  0.
        4    1    3    3  502    0  0.29435421956E+03  0.23216393306E+03  0.19686041007E+04  0.20039830879E+04  0.12699999809E+01 0.  1.
       -4    1    3    3    0  502 -0.29435421956E+03 -0.23216393306E+03 -0.57775080734E+03  0.68872498624E+03  0.12699999809E+01 0. -1.
</event>
<event>
 5   0  0.1303224E-05  0.2216555E+04  0.7818609E-02  0.8511569E-01
        1   -1    0    0  501    0  0.00000000000E+00  0.00000000000E+00  0.94013432364E+03  0.94013432365E+03  0.50400001928E-02 0.  1.
       -1   -1    0    0    0  501  0.00000000000E+00  0.00000000000E+00 -0.13064932355E+04  0.13064932355E+04  0.50400001928E-02 0. -1.
    10030    2    1    2    0    0  0.00000000000E+00  0.00000000000E+00 -0.36635891189E+03  0.22466275592E+04  0.22165551059E+04 0.  0.
        2    1    3    3  502    0  0.73107480127E+03 -0.26485269727E+03 -0.98361640408E+03  0.12538415158E+04  0.25500000920E-02 0. -1.
       -2    1    3    3    0  502 -0.73107480127E+03  0.26485269727E+03  0.61725749220E+03  0.99278604341E+03  0.25500000920E-02 0.  1.
</event>
<event>
 5   0  0.1371753E-05  0.2301084E+04  0.7818609E-02  0.8477494E-01
       -1   -1    0    0    0  501  0.00000000000E+00  0.00000000000E+00  0.91700899653E+03  0.91700899654E+03  0.50400001928E-02 0. -1.
        1   -1    0    0  501    0  0.00000000000E+00  0.00000000000E+00 -0.14435482485E+04  0.14435482485E+04  0.50400001928E-02 0.  1.
    10030    2    1    2    0    0  0.00000000000E+00  0.00000000000E+00 -0.52653925198E+03  0.23605572451E+04  0.23010838584E+04 0.  0.
        3    1    3    3  502    0 -0.52446206846E+03 -0.10240536392E+04 -0.26392122350E+03  0.11804239660E+04  0.10100000352E+00 0. -1.
       -3    1    3    3    0  502  0.52446206846E+03  0.10240536392E+04 -0.26261802848E+03  0.11801332790E+04  0.10100000352E+00 0.  1.
</event>
<event>
 5   0  0.1308224E-05  0.2327671E+04  0.7818609E-02  0.8467090E-01
        1   -1    0    0  501    0  0.00000000000E+00  0.00000000000E+00  0.93084974540E+03  0.93084974541E+03  0.50400001928E-02 0.  1.
       -1   -1    0    0    0  501  0.00000000000E+00  0.00000000000E+00 -0.14551361302E+04  0.14551361303E+04  0.50400001928E-02 0. -1.
    10030    2    1    2    0    0  0.00000000000E+00  0.00000000000E+00 -0.52428638485E+03  0.23859858757E+04  0.23276710218E+04 0.  0.
        5    1    3    3  502    0 -0.10945274748E+04 -0.27609772354E+03 -0.55256196547E+03  0.12568083234E+04  0.46999998093E+01 0. -1.
       -5    1    3    3    0  502  0.10945274748E+04  0.27609772354E+03  0.28275580619E+02  0.11291775523E+04  0.46999998093E+01 0.  1.
</event>
<event>
 5   0  0.2994157E-05  0.2303114E+04  0.7818609E-02  0.8476694E-01
       -2   -1    0    0    0  501  0.00000000000E+00  0.00000000000E+00  0.83761553520E+03  0.83761553520E+03  0.25500000920E-02 0. -1.
        2   -1    0    0  501    0  0.00000000000E+00  0.00000000000E+00 -0.15831655119E+04  0.15831655119E+04  0.25500000920E-02 0.  1.
    10030    2    1    2    0    0  0.00000000000E+00  0.00000000000E+00 -0.74554997673E+03  0.24207810471E+04  0.23031144371E+04 0.  0.
        4    1    3    3  502    0 -0.11255374256E+03  0.62908532564E+03 -0.13796654987E+04  0.15204917603E+04  0.12699999809E+01 0.  1.
       -4    1    3    3    0  502  0.11255374256E+03 -0.62908532564E+03  0.63411552198E+03  0.90028928684E+03  0.12699999809E+01 0. -1.
</event>
<event>
 5   0  0.2910126E-05  0.2288460E+04  0.7818609E-02  0.8482485E-01
        2   -1    0    0  501    0  0.00000000000E+00  0.00000000000E+00  0.15414016043E+04  0.15414016043E+04  0.25500000920E-02 0. -1.
       -2   -1    0    0    0  501  0.00000000000E+00  0.00000000000E+00 -0.84939730978E+03  0.84939730978E+03  0.25500000920E-02 0.  1.
    10030    2    1    2    0    0  0.00000000000E+00  0.00000000000E+00  0.69200429453E+03  0.23907989141E+04  0.22884600726E+04 0.  0.
        5    1    3    3  502    0 -0.28769865190E+03 -0.68821766516E+03 -0.56045458283E+03  0.93303027730E+03  0.46999998093E+01 0.  1.
       -5    1    3    3    0  502  0.28769865190E+03  0.68821766516E+03  0.12524588774E+04  0.14577686368E+04  0.46999998093E+01 0. -1.
</event>
<event>
 5   0  0.2816178E-05  0.2309461E+04  0.7818609E-02  0.8474200E-01
        2   -1    0    0  501    0  0.00000000000E+00  0.00000000000E+00  0.15324198530E+04  0.15324198530E+04  0.25500000920E-02 0.  1.
       -2   -1    0    0    0  501  0.00000000000E+00  0.00000000000E+00 -0.87012894646E+03  0.87012894647E+03  0.25500000920E-02 0. -1.
    10030    2    1    2    0    0  0.00000000000E+00  0.00000000000E+00  0.66229090651E+03  0.24025487994E+04  0.23094612984E+04 0.  0.
        1    1    3    3  502    0  0.31178304458E+03  0.58467768117E+03  0.13149625498E+04  0.14724751832E+04  0.50400001928E-02 0.  1.
       -1    1    3    3    0  502 -0.31178304458E+03 -0.58467768117E+03 -0.65267164326E+03  0.93007361627E+03  0.50400001928E-02 0. -1.
</event>
<event>
 5   0  0.2816178E-05  0.2297881E+04  0.7818609E-02  0.8478757E-01
       -2   -1    0    0    0  501  0.00000000000E+00  0.00000000000E+00  0.89889463180E+03  0.89889463180E+03  0.25500000920E-02 0. -1.
        2   -1    0    0  501    0  0.00000000000E+00  0.00000000000E+00 -0.14685412498E+04  0.14685412498E+04  0.25500000920E-02 0.  1.
    10030    2    1    2    0    0  0.00000000000E+00  0.00000000000E+00 -0.56964661796E+03  0.23674358816E+04  0.22978806287E+04 0.  0.
        1    1    3    3  502    0 -0.10647420202E+04 -0.27104118433E+03 -0.63103818157E+03  0.12670233147E+04  0.50400001928E-02 0. -1.
       -1    1    3    3    0  502  0.10647420202E+04  0.27104118433E+03  0.61391563610E+02  0.11004125669E+04  0.50400001928E-02 0.  1.
</event>
<event>
 5   0  0.1017200E-05  0.2069080E+04  0.7818609E-02  0.8574988E-01
        3   -1    0    0  501    0  0.00000000000E+00  0.00000000000E+00  0.15457410099E+04  0.15457410132E+04  0.10100000352E+00 0. -1.
       -3   -1    0    0    0  501  0.00000000000E+00  0.00000000000E+00 -0.69240110100E+03  0.69240110836E+03  0.10100000352E+00 0.  1.
    10030    2    1    2    0    0  0.00000000000E+00  0.00000000000E+00  0.85333990886E+03  0.22381421215E+04  0.20690797848E+04 0.  0.
        4    1    3    3  502    0  0.36629283686E+03 -0.86873905466E+03 -0.34032908086E+02  0.94341816771E+03  0.12699999809E+01 0.  1.
       -4    1    3    3    0  502 -0.36629283686E+03  0.86873905466E+03  0.88737281695E+03  0.12947239538E+04  0.12699999809E+01 0. -1.
</event>
<event>
 5   0  0.1017200E-05  0.2327354E+04  0.7818609E-02  0.8467213E-01
        3   -1    0    0  501    0  0.00000000000E+00  0.00000000000E+00  0.16675477023E+04  0.16675477054E+04  0.10100000352E+00 0.  1.
       -3   -1    0    0    0  501  0.00000000000E+00  0.00000000000E+00 -0.81205712726E+03  0.81205713354E+03  0.10100000352E+00 0. -1.
    10030    2    1    2    0    0  0.00000000000E+00  0.00000000000E+00  0.85549057507E+03  0.24796048389E+04  0.23273538694E+04 0.  0.
        1    1    3    3  502    0 -0.93140428519E+03 -0.69565073928E+03  0.37238336501E+03  0.12207019555E+04  0.50400001928E-02 0. -1.
       -1    1    3    3    0  502  0.93140428519E+03  0.69565073928E+03  0.48310721007E+03  0.12589028835E+04  0.50400001928E-02 0.  1.
</event>
<event>
 5   0  0.2994157E-05  0.2298381E+04  0.7818609E-02  0.8478560E-01
       -2   -1    0    0    0  501  0.00000000000E+00  0.00000000000E+00  0.73538740546E+03  0.73538740547E+03  0.25500000920E-02 0.  1.
        2   -1    0    0  501    0  0.00000000000E+00  0.00000000000E+00 -0.17958408404E+04  0.17958408404E+04  0.25500000920E-02 0. -1.
    10030    2    1    2    0    0  0.00000000000E+00  0.00000000000E+00 -0.10604534349E+04  0.25312282458E+04  0.22983809399E+04 0.  0.
        4    1    3    3  502    0  0.11423454674E+04  0.17305545454E+02 -0.39362673894E+03  0.12083858123E+04  0.12699999809E+01 0.  1.
       -4    1    3    3    0  502 -0.11423454674E+04 -0.17305545454E+02 -0.66682669599E+03  0.13228424336E+04  0.12699999809E+01 0. -1.
</event>
<event>
 5   0  0.1284837E-05  0.2297842E+04  0.7818609E-02  0.8478773E-01
        1   -1    0    0  501    0  0.00000000000E+00  0.00000000000E+00  0.18516733556E+04  0.18516733556E+04  0.50400001928E-02 0.  1.
       -1   -1    0    0    0  501  0.00000000000E+00  0.00000000000E+00 -0.71287897668E+03  0.71287897669E+03  0.50400001928E-02 0. -1.
    10030    2    1    2    0    0  0.00000000000E+00  0.00000000000E+00  0.11387943789E+04  0.25645523323E+04  0.22978416020E+04 0.  0.
        4    1    3    3  502    0  0.97349737007E+02 -0.85755544303E+03 -0.27700722299E+03  0.90642866440E+03  0.12699999809E+01 0. -1.
       -4    1    3    3    0  502 -0.97349737007E+02  0.85755544303E+03  0.14158016019E+04  0.16581236679E+04  0.12699999809E+01 0.  1.
</event>
<event>
 5   0  0.2994157E-05  0.2290463E+04  0.7818609E-02  0.8481691E-01
       -2   -1    0    0    0  501  0.00000000000E+00  0.00000000000E+00  0.12696918079E+04  0.12696918079E+04  0.25500000920E-02 0. -1.
        2   -1    0    0  501    0  0.00000000000E+00  0.00000000000E+00 -0.10329711149E+04  0.10329711149E+04  0.25500000920E-02 0.  1.
    10030    2    1    2    0    0  0.00000000000E+00  0.00000000000E+00  0.23672069298E+03  0.23026629229E+04  0.22904628025E+04 0.  0.
        4    1    3    3  502    0  0.96951979635E+03  0.35745168811E+03  0.61476467326E+03  0.12023633233E+04  0.12699999809E+01 0. -1.
       -4    1    3    3    0  502 -0.96951979635E+03 -0.35745168811E+03 -0.37804398028E+03  0.11002995995E+04  0.12699999809E+01 0.  1.
</event>
<event>
 5   0  0.1371753E-05  0.2316541E+04  0.7818609E-02  0.8471428E-01
        1   -1    0    0  501    0  0.00000000000E+00  0.00000000000E+00  0.90215336455E+03  0.90215336456E+03  0.50400001928E-02 0.  1.
       -1   -1    0    0    0  501  0.00000000000E+00  0.00000000000E+00 -0.14870976501E+04  0.14870976501E+04  0.50400001928E-02 0. -1.
    10030    2    1    2    0    0  0.00000000000E+00  0.00000000000E+00 -0.58494428555E+03  0.23892510147E+04  0.23165406523E+04 0.  0.
        3    1    3    3  502    0  0.14394390881E+03  0.11491543145E+04 -0.31076730500E+03  0.11991045891E+04  0.10100000352E+00 0.  1.
       -3    1    3    3    0  502 -0.14394390881E+03 -0.11491543145E+04 -0.27417698055E+03  0.11901464256E+04  0.10100000352E+00 0. -1.
</event>
<event>
 5   0  0.1284837E-05  0.2305859E+04  0.7818609E-02  0.8475615E-01
       -1   -1    0    0    0  501  0.00000000000E+00  0.00000000000E+00  0.54090105741E+03  0.54090105743E+03  0.50400001928E-02 0. -1.
        1   -1    0    0  501    0  0.00000000000E+00  0.00000000000E+00 -0.24574659922E+04  0.24574659922E+04  0.50400001928E-02 0.  1.
    10030    2    1    2    0    0  0.00000000000E+00  0.00000000000E+00 -0.19165649348E+04  0.29983670497E+04  0.23058585852E+04 0.  0.
        4    1    3    3  502    0 -0.10235953107E+04  0.42395803048E+03 -0.54348761782E+03  0.12340454511E+04  0.12699999809E+01 0.  1.
       -4    1    3    3    0  502  0.10235953107E+04 -0.42395803048E+03 -0.13730773170E+04  0.17643215986E+04  0.12699999809E+01 0. -1.
</event>
<event>
 5   0  0.1303224E-05  0.2230699E+04  0.7818609E-02  0.8505758E-01
       -1   -1    0    0    0  501  0.00000000000E+00  0.00000000000E+00  0.12433635679E+04  0.12433635679E+04  0.50400001928E-02 0.  1.
        1   -1    0    0  501    0  0.00000000000E+00  0.00000000000E+00 -0.10005158322E+04  0.10005158322E+04  0.50400001928E-02 0. -1.
    10030    2    1    2    0    0  0.00000000000E+00  0.00000000000E+00  0.24284773571E+03  0.22438794002E+04  0.22306993836E+04 0.  0.
        2    1    3    3  502    0  0.90673462563E+03  0.20940122274E+03 -0.49701630052E+03  0.10550079414E+04  0.25500000920E-02 0. -1.
       -2    1    3    3    0  502 -0.90673462563E+03 -0.20940122274E+03  0.73986403623E+03  0.11888714588E+04  0.25500000920E-02 0.  1.
</event>
<event>
 5   0  0.2816178E-05  0.2328748E+04  0.7818609E-02  0.8466672E-01
       -2   -1    0    0    0  501  0.00000000000E+00  0.00000000000E+00  0.10794719877E+04  0.10794719877E+04  0.25500000920E-02 0.  1.
        2   -1    0    0  501    0  0.00000000000E+00  0.00000000000E+00 -0.12559540464E+04  0.12559540464E+04  0.25500000920E-02 0. -1.
    10030    2    1    2    0    0  0.00000000000E+00  0.00000000000E+00 -0.17648205865E+03  0.23354260341E+04  0.23287483427E+04 0.  0.
        1    1    3    3  502    0 -0.10870523407E+04 -0.33996833407E+03  0.15433259720E+03  0.11493823603E+04  0.50400001928E-02 0.  1.
       -1    1    3    3    0  502  0.10870523407E+04  0.33996833407E+03 -0.33081465584E+03  0.11860436738E+04  0.50400001928E-02 0. -1.
</event>
<event>
 5   0  0.1327820E-05  0.2304194E+04  0.7818609E-02  0.8476269E-01
        1   -1    0    0  501    0  0.00000000000E+00  0.00000000000E+00  0.65560800444E+03  0.65560800446E+03  0.50400001928E-02 0. -1.
       -1   -1    0    0    0  501  0.00000000000E+00  0.00000000000E+00 -0.20245753951E+04  0.20245753951E+04  0.50400001928E-02 0.  1.
    10030    2    1    2    0    0  0.00000000000E+00  0.00000000000E+00 -0.13689673906E+04  0.26801833995E+04  0.23041942927E+04 0.  0.
        1    1    3    3  502    0  0.97617184338E+03  0.13598026806E+03  0.94614002050E+01  0.98564274422E+03  0.50400001928E-02 0. -1.
       -1    1    3    3    0  502 -0.97617184338E+03 -0.13598026806E+03 -0.13784287908E+04  0.16945406553E+04  0.50400001928E-02 0.  1.
</event>
<event>
 5   0  0.2816178E-05  0.2296108E+04  0.7818609E-02  0.8479457E-01
        2   -1    0    0  501    0  0.00000000000E+00  0.00000000000E+00  0.15465475877E+04  0.15465475877E+04  0.25500000920E-02 0.  1.
       -2   -1    0    0    0  501  0.00000000000E+00  0.00000000000E+00 -0.85223866637E+03  0.85223866638E+03  0.25500000920E-02 0. -1.
    10030    2    1    2    0    0  0.00000000000E+00  0.00000000000E+00  0.69430892129E+03  0.23987862540E+04  0.22961077097E+04 0.  0.
        1    1    3    3  502    0  0.10543111345E+04 -0.14879600854E+03  0.79567273773E+03  0.13292130477E+04  0.50400001928E-02 0.  1.
       -1    1    3    3    0  502 -0.10543111345E+04  0.14879600854E+03 -0.10136381644E+03  0.10695732064E+04  0.50400001928E-02 0. -1.
</event>
<event>
 5   0  0.2938972E-05  0.2292648E+04  0.7818609E-02  0.8480826E-01
        2   -1    0    0  501    0  0.00000000000E+00  0.00000000000E+00  0.65067877069E+03  0.65067877070E+03  0.25500000920E-02 0. -1.
       -2   -1    0    0    0  501  0.00000000000E+00  0.00000000000E+00 -0.20195193392E+04  0.20195193392E+04  0.25500000920E-02 0.  1.
    10030    2    1    2    0    0  0.00000000000E+00  0.00000000000E+00 -0.13688405685E+04  0.26701981099E+04  0.22926476930E+04 0.  0.
        2    1    3    3  502    0 -0.10901289838E+04  0.34452329797E+01 -0.10972907627E+04  0.15467514632E+04  0.25500000920E-02 0.  1.
       -2    1    3    3    0  502  0.10901289838E+04 -0.34452329797E+01 -0.27154980589E+03  0.11234466468E+04  0.25500000920E-02 0. -1.
</event>
<event>
 5   0  0.2994157E-05  0.2294345E+04  0.7818609E-02  0.8480154E-01
       -2   -1    0    0    0  501  0.00000000000E+00  0.00000000000E+00  0.99429994382E+03  0.99429994383E+03  0.25500000920E-02 0. -1.
        2   -1    0    0  501    0  0.00000000000E+00  0.00000000000E+00 -0.13235493744E+04  0.13235493744E+04  0.25500000920E-02 0.  1.
    10030    2    1    2    0    0  0.00000000000E+00  0.00000000000E+00 -0.32924943056E+03  0.23178493182E+04  0.22943452823E+04 0.  0.
        4    1    3    3  502    0  0.89583369315E+03  0.58366158068E+02  0.55688980773E+03  0.10564338527E+04  0.12699999809E+01 0. -1.
       -4    1    3    3    0  502 -0.89583369315E+03 -0.58366158068E+02 -0.88613923829E+03  0.12614154656E+04  0.12699999809E+01 0.  1.
</event>
<event>
 5   0  0.1284837E-05  0.2313362E+04  0.7818609E-02  0.8472671E-01
       -1   -1    0    0    0  501  0.00000000000E+00  0.00000000000E+00  0.88641051675E+03  0.88641051676E+03  0.50400001928E-02 0. -1.
        1   -1    0    0  501    0  0.00000000000E+00  0.00000000000E+00 -0.15093578536E+04  0.15093578536E+04  0.50400001928E-02 0.  1.
    10030    2    1    2    0    0  0.00000000000E+00  0.00000000000E+00 -0.62294733681E+03  0.23957683703E+04  0.23133617745E+04 0.  0.
        4    1    3    3  502    0 -0.65578977432E+03  0.49076465124E+03  0.53431882766E+03  0.97796134561E+03  0.12699999809E+01 0. -1.
       -4    1    3    3    0  502  0.65578977432E+03 -0.49076465124E+03 -0.11572661645E+04  0.14178070247E+04  0.12699999809E+01 0.  1.
</event>
<event>
 5   0  0.1327820E-05  0.2302684E+04  0.7818609E-02  0.8476864E-01
       -1   -1    0    0    0  501  0.00000000000E+00  0.00000000000E+00  0.72809842068E+03  0.72809842070E+03  0.50400001928E-02 0. -1.
        1   -1    0    0  501    0  0.00000000000E+00  0.00000000000E+00 -0.18206170813E+04  0.18206170813E+04  0.50400001928E-02 0.  1.
    10030    2    1    2    0    0  0.00000000000E+00  0.00000000000E+00 -0.10925186606E+04  0.25487155020E+04  0.23026840179E+04 0.  0.
        1    1    3    3  502    0 -0.32302349210E+03 -0.68700195227E+03 -0.15043507009E+04  0.16850480380E+04  0.50400001928E-02 0.  1.
       -1    1    3    3    0  502  0.32302349210E+03  0.68700195227E+03  0.41183204035E+03  0.86366746399E+03  0.50400001928E-02 0. -1.
</event>
<event>
 5   0  0.2994157E-05  0.2269188E+04  0.7818609E-02  0.8490170E-01
        2   -1    0    0  501    0  0.00000000000E+00  0.00000000000E+00  0.19451623549E+04  0.19451623549E+04  0.25500000920E-02 0. -1.
       -2   -1    0    0    0  501  0.00000000000E+00  0.00000000000E+00 -0.66179772839E+03  0.66179772839E+03  0.25500000920E-02 0.  1.
    10030    2    1    2    0    0  0.00000000000E+00  0.00000000000E+00  0.12833646265E+04  0.26069600833E+04  0.22691884257E+04 0.  0.
        4    1    3    3  502    0 -0.55188798845E+03  0.65043400877E+03 -0.21777646009E+03  0.88038227550E+03  0.12699999809E+01 0. -1.
       -4    1    3    3    0  502  0.55188798845E+03 -0.65043400877E+03  0.15011410866E+04  0.17265778078E+04  0.12699999809E+01 0.  1.
</event>
<event>
 5   0  0.2910126E-05  0.2298177E+04  0.7818609E-02  0.8478640E-01
        2   -1    0    0  501    0  0.00000000000E+00  0.00000000000E+00  0.18571117815E+04  0.18571117815E+04  0.25500000920E-02 0.  1.
       -2   -1    0    0    0  501  0.00000000000E+00  0.00000000000E+00 -0.71099878283E+03  0.71099878284E+03  0.25500000920E-02 0. -1.
    10030    2    1    2    0    0  0.00000000000E+00  0.00000000000E+00  0.11461129987E+04  0.25681105644E+04  0.22981768568E+04 0.  0.
        5    1    3    3  502    0  0.63628141146E+03  0.18893209703E+03  0.16212231397E+04  0.17518378722E+04  0.46999998093E+01 0.  1.
       -5    1    3    3    0  502 -0.63628141146E+03 -0.18893209703E+03 -0.47511014101E+03  0.81627269215E+03  0.46999998093E+01 0. -1.
</event>
<event>
 5   0  0.1303224E-05  0.2336214E+04  0.7818609E-02  0.8463778E-01
        1   -1    0    0  501    0  0.00000000000E+00  0.00000000000E+00  0.15323682098E+04  0.15323682098E+04  0.50400001928E-02 0. -1.
       -1   -1    0    0    0  501  0.00000000000E+00  0.00000000000E+00 -0.89043469569E+03  0.89043469570E+03  0.50400001928E-02 0.  1.
    10030    2    1    2    0    0  0.00000000000E+00  0.00000000000E+00  0.64193351407E+03  0.24228029055E+04  0.23362138777E+04 0.  0.
        2    1    3    3  502    0  0.32978834914E+03 -0.11105162935E+04  0.47641230621E+03  0.12525875135E+04  0.25500000920E-02 0. -1.
       -2    1    3    3    0  502 -0.32978834914E+03  0.11105162935E+04  0.16552120785E+03  0.11702153920E+04  0.25500000920E-02 0.  1.
</event>
<event>
 5   0  0.1371753E-05  0.2305073E+04  0.7818609E-02  0.8475924E-01
       -1   -1    0    0    0  501  0.00000000000E+00  0.00000000000E+00  0.11645246827E+04  0.11645246827E+04  0.50400001928E-02 0.  1.
        1   -1    0    0  501    0  0.00000000000E+00  0.00000000000E+00 -0.11406713824E+04  0.11406713824E+04  0.50400001928E-02 0. -1.
    10030    2    1    2    0    0  0.00000000000E+00  0.00000000000E+00  0.23853300354E+02  0.23051960651E+04  0.23050726493E+04 0.  0.
        3    1    3    3  502    0 -0.99513959554E+03  0.27647183756E+03 -0.49956967561E+03  0.11473052613E+04  0.10100000352E+00 0.  1.
       -3    1    3    3    0  502  0.99513959554E+03 -0.27647183756E+03  0.52342297597E+03  0.11578908038E+04  0.10100000352E+00 0. -1.
</event>
<event>
 5   0  0.2938972E-05  0.2304985E+04  0.7818609E-02  0.8475958E-01
       -2   -1    0    0    0  501  0.00000000000E+00  0.00000000000E+00  0.16210892478E+04  0.16210892478E+04  0.25500000920E-02 0. -1.
        2   -1    0    0  501    0  0.00000000000E+00  0.00000000000E+00 -0.81934991070E+03  0.81934991070E+03  0.25500000920E-02 0.  1.
    10030    2    1    2    0    0  0.00000000000E+00  0.00000000000E+00  0.80173933708E+03  0.24404391585E+04  0.23049853192E+04 0.  0.
        2    1    3    3  502    0  0.75467088975E+03  0.40122377745E+03  0.12194335682E+04  0.14891362929E+04  0.25500000920E-02 0. -1.
       -2    1    3    3    0  502 -0.75467088975E+03 -0.40122377745E+03 -0.41769423113E+03  0.95130286563E+03  0.25500000920E-02 0.  1.
</event>
<event>
 5   0  0.2994157E-05  0.2288369E+04  0.7818609E-02  0.8482521E-01
        2   -1    0    0  501    0  0.00000000000E+00  0.00000000000E+00  0.13946836867E+04  0.13946836867E+04  0.25500000920E-02 0.  1.
       -2   -1    0    0    0  501  0.00000000000E+00  0.00000000000E+00 -0.93867726448E+03  0.93867726448E+03  0.25500000920E-02 0. -1.
    10030    2    1    2    0    0  0.00000000000E+00  0.00000000000E+00  0.45600642221E+03  0.23333609512E+04  0.22883687359E+04 0.  0.
        4    1    3    3  502    0  0.75718268359E+03  0.30409617046E+03  0.10458682633E+04  0.13265150336E+04  0.12699999809E+01 0.  1.
       -4    1    3    3    0  502 -0.75718268359E+03 -0.30409617046E+03 -0.58986184113E+03  0.10068459176E+04  0.12699999809E+01 0. -1.
</event>
<event>
 5   0  0.1327820E-05  0.2303072E+04  0.7818609E-02  0.8476711E-01
       -1   -1    0    0    0  501  0.00000000000E+00  0.00000000000E+00  0.81591641463E+03  0.81591641464E+03  0.50400001928E-02 0.  1.
        1   -1    0    0  501    0  0.00000000000E+00  0.00000000000E+00 -0.16252101258E+04  0.16252101258E+04  0.50400001928E-02 0. -1.
    10030    2    1    2    0    0  0.00000000000E+00  0.00000000000E+00 -0.80929371120E+03  0.24411265405E+04  0.23030723991E+04 0.  0.
        1    1    3    3  502    0  0.79027797450E+03 -0.82331691186E+03 -0.56763571213E+03  0.12745980998E+04  0.50400001928E-02 0.  1.
       -1    1    3    3    0  502 -0.79027797450E+03  0.82331691186E+03 -0.24165799907E+03  0.11665284407E+04  0.50400001928E-02 0. -1.
</event>
<event>
 5   0  0.1327820E-05  0.2299471E+04  0.7818609E-02  0.8478130E-01
        1   -1    0    0  501    0  0.00000000000E+00  0.00000000000E+00  0.18180207768E+04  0.18180207768E+04  0.50400001928E-02 0. -1.
       -1   -1    0    0    0  501  0.00000000000E+00  0.00000000000E+00 -0.72710484475E+03  0.72710484477E+03  0.50400001928E-02 0.  1.
    10030    2    1    2    0    0  0.00000000000E+00  0.00000000000E+00  0.10909159321E+04  0.25451256216E+04  0.22994709954E+04 0.  0.
        1    1    3    3  502    0 -0.11456958149E+04 -0.77853579442E+02  0.60818349831E+03  0.12994488246E+04  0.50400001928E-02 0.  1.
       -1    1    3    3    0  502  0.11456958149E+04  0.77853579442E+02  0.48273243377E+03  0.12456767970E+04  0.50400001928E-02 0. -1.
</event>
<event>
 5   0  0.2871888E-05  0.2296747E+04  0.7818609E-02  0.8479205E-01
       -2   -1    0    0    0  501  0.00000000000E+00  0.00000000000E+00  0.95198352583E+03  0.95198352584E+03  0.25500000920E-02 0. -1.
        2   -1    0    0  501    0  0.00000000000E+00  0.00000000000E+00 -0.13852781510E+04  0.13852781510E+04  0.25500000920E-02 0.  1.
    10030    2    1    2    0    0  0.00000000000E+00  0.00000000000E+00 -0.43329462521E+03  0.23372616769E+04  0.22967472464E+04 0.  0.
        3    1    3    3  502    0 -0.96250278641E+03  0.24978047964E+02  0.42027370907E+03  0.10505548617E+04  0.10100000352E+00 0. -1.
       -3    1    3    3    0  502  0.96250278641E+03 -0.24978047964E+02 -0.85356833427E+03  0.12867068152E+04  0.10100000352E+00 0.  1.
</event>
<event>
 5   0  0.1284837E-05  0.2335570E+04  0.7818609E-02  0.8464027E-01
       -1   -1    0    0    0  501  0.00000000000E+00  0.00000000000E+00  0.90396347478E+03  0.90396347479E+03  0.50400001928E-02 0. -1.
        1   -1    0    0  501    0  0.00000000000E+00  0.00000000000E+00 -0.15086028346E+04  0.15086028346E+04  0.50400001928E-02 0.  1.
    10030    2    1    2    0    0  0.00000000000E+00  0.00000000000E+00 -0.60463935984E+03  0.24125663094E+04  0.23355700465E+04 0.  0.
        4    1    3    3  502    0  0.64703811921E+03 -0.27991890147E+03 -0.12639819923E+04  0.14472957572E+04  0.12699999809E+01 0.  1.
       -4    1    3    3    0  502 -0.64703811921E+03  0.27991890147E+03  0.65934263245E+03  0.96527055221E+03  0.12699999809E+01 0. -1.
</event>
<event>
 5   0  0.1327820E-05  0.2301262E+04  0.7818609E-02  0.8477424E-01
        1   -1    0    0  501    0  0.00000000000E+00  0.00000000000E+00  0.15727987824E+04  0.15727987824E+04  0.50400001928E-02 0.  1.
       -1   -1    0    0    0  501  0.00000000000E+00  0.00000000000E+00 -0.84178037401E+03  0.84178037402E+03  0.50400001928E-02 0. -1.
    10030    2    1    2    0    0  0.00000000000E+00  0.00000000000E+00  0.73101840842E+03  0.24145791565E+04  0.23012615213E+04 0.  0.
        1    1    3    3  502    0  0.66674468735E+03 -0.29505471214E+03  0.12994787992E+04  0.14900506403E+04  0.50400001928E-02 0.  1.
       -1    1    3    3    0  502 -0.66674468735E+03  0.29505471214E+03 -0.56846039074E+03  0.92452851613E+03  0.50400001928E-02 0. -1.
</event>
<event>
 5   0  0.1327820E-05  0.2295817E+04  0.7818609E-02  0.8479572E-01
       -1   -1    0    0    0  501  0.00000000000E+00  0.00000000000E+00  0.72636212852E+03  0.72636212853E+03  0.50400001928E-02 0.  1.
        1   -1    0    0  501    0  0.00000000000E+00  0.00000000000E+00 -0.18141002009E+04  0.18141002010E+04  0.50400001928E-02 0. -1.
    10030    2    1    2    0    0  0.00000000000E+00  0.00000000000E+00 -0.10877380724E+04  0.25404623295E+04  0.22958167900E+04 0.  0.
        1    1    3    3  502    0  0.98332020466E+03 -0.22009917052E+02 -0.11987913493E+04  0.15506462397E+04  0.50400001928E-02 0. -1.
       -1    1    3    3    0  502 -0.98332020466E+03  0.22009917052E+02  0.11105327689E+03  0.98981608983E+03  0.50400001928E-02 0.  1.
</event>
<event>
 5   0  0.1371753E-05  0.2331550E+04  0.7818609E-02  0.8465584E-01
        1   -1    0    0  501    0  0.00000000000E+00  0.00000000000E+00  0.17056970938E+04  0.17056970938E+04  0.50400001928E-02 0. -1.
       -1   -1    0    0    0  501  0.00000000000E+00  0.00000000000E+00 -0.79675982283E+03  0.79675982284E+03  0.50400001928E-02 0.  1.
    10030    2    1    2    0    0  0.00000000000E+00  0.00000000000E+00  0.90893727096E+03  0.25024569166E+04  0.23315496257E+04 0.  0.
        3    1    3    3  502    0 -0.43250783438E+03 -0.52337178629E+03  0.14715885746E+04  0.16206646774E+04  0.10100000352E+00 0. -1.
       -3    1    3    3    0  502  0.43250783438E+03  0.52337178629E+03 -0.56265130364E+03  0.88179223924E+03  0.10100000352E+00 0.  1.
</event>
<event>
 5   0  0.2910126E-05  0.2305612E+04  0.7818609E-02  0.8475712E-01
       -2   -1    0    0    0  501  0.00000000000E+00  0.00000000000E+00  0.11948562262E+04  0.11948562262E+04  0.25500000920E-02 0. -1.
        2   -1    0    0  501    0  0.00000000000E+00  0.00000000000E+00 -0.11122352917E+04  0.11122352917E+04  0.25500000920E-02 0.  1.
    10030    2    1    2    0    0  0.00000000000E+00  0.00000000000E+00  0.82620934442E+02  0.23070915179E+04  0.23056116441E+04 0.  0.
        5    1    3    3  502    0 -0.22056508216E+03  0.10329964309E+04  0.50335200037E+03  0.11700922648E+04  0.46999998093E+01 0. -1.
       -5    1    3    3    0  502  0.22056508216E+03 -0.10329964309E+04 -0.42073106593E+03  0.11369992531E+04  0.46999998093E+01 0.  1.
</event>
<event>
 5   0  0.1284837E-05  0.2298416E+04  0.7818609E-02  0.8478546E-01
        1   -1    0    0  501    0  0.00000000000E+00  0.00000000000E+00  0.11126162563E+04  0.11126162563E+04  0.50400001928E-02 0. -1.
       -1   -1    0    0    0  501  0.00000000000E+00  0.00000000000E+00 -0.11870036223E+04  0.11870036224E+04  0.50400001928E-02 0.  1.
    10030    2    1    2    0    0  0.00000000000E+00  0.00000000000E+00 -0.74387366031E+02  0.22996198787E+04  0.22984164345E+04 0.  0.
        4    1    3    3  502    0 -0.13777374397E+03 -0.92189489851E+03  0.63532349732E+03  0.11280555694E+04  0.12699999809E+01 0. -1.
       -4    1    3    3    0  502  0.13777374397E+03  0.92189489851E+03 -0.70971086335E+03  0.11715643093E+04  0.12699999809E+01 0.  1.
</event>
<event>
 5   0  0.1327820E-05  0.2294395E+04  0.7818609E-02  0.8480134E-01
       -1   -1    0    0    0  501  0.00000000000E+00  0.00000000000E+00  0.73940133625E+03  0.73940133626E+03  0.50400001928E-02 0.  1.
        1   -1    0    0  501    0  0.00000000000E+00  0.00000000000E+00 -0.17799028693E+04  0.17799028693E+04  0.50400001928E-02 0. -1.
    10030    2    1    2    0    0  0.00000000000E+00  0.00000000000E+00 -0.10405015331E+04  0.25193042056E+04  0.22943953975E+04 0.  0.
        1    1    3    3  502    0  0.52964351837E+03  0.91867653335E+03 -0.39654572730E+02  0.10611603624E+04  0.50400001928E-02 0.  1.
       -1    1    3    3    0  502 -0.52964351837E+03 -0.91867653335E+03 -0.10008469603E+04  0.14581438432E+04  0.50400001928E-02 0. -1.
</event>
<event>
 5   0  0.1327820E-05  0.2292888E+04  0.7818609E-02  0.8480730E-01
        1   -1    0    0  501    0  0.00000000000E+00  0.00000000000E+00  0.14827586418E+04  0.14827586419E+04  0.50400001928E-02 0.  1.
       -1   -1    0    0    0  501  0.00000000000E+00  0.00000000000E+00 -0.88641139843E+03  0.88641139844E+03  0.50400001928E-02 0. -1.
    10030    2    1    2    0    0  0.00000000000E+00  0.00000000000E+00  0.59634724342E+03  0.23691700403E+04  0.22928882758E+04 0.  0.
        1    1    3    3  502    0 -0.96000352956E+02  0.78040930235E+03 -0.56389677850E+03  0.96759202342E+03  0.50400001928E-02 0. -1.
       -1    1    3    3    0  502  0.96000352956E+02 -0.78040930235E+03  0.11602440219E+04  0.14015780169E+04  0.50400001928E-02 0.  1.
</event>
<event>
 5   0  0.2910126E-05  0.2297083E+04  0.7818609E-02  0.8479072E-01
        2   -1    0    0  501    0  0.00000000000E+00  0.00000000000E+00  0.11589635976E+04  0.11589635976E+04  0.25500000920E-02 0.  1.
       -2   -1    0    0    0  501  0.00000000000E+00  0.00000000000E+00 -0.11382132493E+04  0.11382132493E+04  0.25500000920E-02 0. -1.
    10030    2    1    2    0    0  0.00000000000E+00  0.00000000000E+00  0.20750348339E+02  0.22971768469E+04  0.22970831263E+04 0.  0.
        5    1    3    3  502    0  0.10189448861E+04 -0.50851979367E+03  0.15966144035E+03  0.11499369230E+04  0.46999998093E+01 0. -1.
       -5    1    3    3    0  502 -0.10189448861E+04  0.50851979367E+03 -0.13891109202E+03  0.11472399239E+04  0.46999998093E+01 0.  1.
</event>
<event>
 5   0  0.2994157E-05  0.2288513E+04  0.7818609E-02  0.8482464E-01
        2   -1    0    0  501    0  0.00000000000E+00  0.00000000000E+00  0.11436632818E+04  0.11436632818E+04  0.25500000920E-02 0.  1.
       -2   -1    0    0    0  501  0.00000000000E+00  0.00000000000E+00 -0.11448498670E+04  0.11448498670E+04  0.25500000920E-02 0. -1.
    10030    2    1    2    0    0  0.00000000000E+00  0.00000000000E+00 -0.11865852250E+01  0.22885131488E+04  0.22885128412E+04 0.  0.
        4    1    3    3  502    0 -0.86885255952E+03 -0.34701134459E+03  0.65819317991E+03  0.11439149962E+04  0.12699999809E+01 0.  1.
       -4    1    3    3    0  502  0.86885255952E+03  0.34701134459E+03 -0.65937976514E+03  0.11445981526E+04  0.12699999809E+01 0. -1.
</event>
<event>
 5   0  0.1308224E-05  0.2236262E+04  0.7818609E-02  0.8503485E-01
       -1   -1    0    0    0  501  0.00000000000E+00  0.00000000000E+00  0.98856154663E+03  0.98856154664E+03  0.50400001928E-02 0. -1.
        1   -1    0    0  501    0  0.00000000000E+00  0.00000000000E+00 -0.12646824126E+04  0.12646824126E+04  0.50400001928E-02 0.  1.
    10030    2    1    2    0    0  0.00000000000E+00  0.00000000000E+00 -0.27612086597E+03  0.22532439592E+04  0.22362615248E+04 0.  0.
        5    1    3    3  502    0  0.94435547050E+03  0.50711826976E+03  0.18250356943E+03  0.10873388787E+04  0.46999998093E+01 0.  1.
       -5    1    3    3    0  502 -0.94435547050E+03 -0.50711826976E+03 -0.45862443540E+03  0.11659050806E+04  0.46999998093E+01 0. -1.
</event>
<event>
 5   0  0.2994157E-05  0.2302999E+04  0.7818609E-02  0.8476739E-01
       -2   -1    0    0    0  501  0.00000000000E+00  0.00000000000E+00  0.12046527411E+04  0.12046527411E+04  0.25500000920E-02 0. -1.
        2   -1    0    0  501    0  0.00000000000E+00  0.00000000000E+00 -0.11006917789E+04  0.11006917789E+04  0.25500000920E-02 0.  1.
    10030    2    1    2    0    0  0.00000000000E+00  0.00000000000E+00  0.10396096212E+03  0.23053445200E+04  0.23029992345E+04 0.  0.
        4    1    3    3  502    0 -0.90109790794E+03  0.23869959062E+03  0.72868282855E+03  0.11831885783E+04  0.12699999809E+01 0. -1.
       -4    1    3    3    0  502  0.90109790794E+03 -0.23869959062E+03 -0.62472186643E+03  0.11221559417E+04  0.12699999809E+01 0.  1.
</event>
<event>
 5   0  0.1371753E-05  0.2281966E+04  0.7818609E-02  0.8485066E-01
       -1   -1    0    0    0  501  0.00000000000E+00  0.00000000000E+00  0.80896349709E+03  0.80896349711E+03  0.50400001928E-02 0.  1.
        1   -1    0    0  501    0  0.00000000000E+00  0.00000000000E+00 -0.16092712772E+04  0.16092712772E+04  0.50400001928E-02 0. -1.
    10030    2    1    2    0    0  0.00000000000E+00  0.00000000000E+00 -0.80030778013E+03  0.24182347743E+04  0.22819655740E+04 0.  0.
        3    1    3    3  502    0  0.59499169360E+03  0.23969721310E+03 -0.14000965156E+04  0.15400454970E+04  0.10100000352E+00 0. -1.
       -3    1    3    3    0  502 -0.59499169360E+03 -0.23969721310E+03  0.59978873551E+03  0.87818927736E+03  0.10100000352E+00 0.  1.
</event>
<event>
 5   0  0.2938972E-05  0.2279227E+04  0.7818609E-02  0.8486157E-01
       -2   -1    0    0    0  501  0.00000000000E+00  0.00000000000E+00  0.85942833442E+03  0.85942833442E+03  0.25500000920E-02 0.  1.
        2   -1    0    0  501    0  0.00000000000E+00  0.00000000000E+00 -0.15111423718E+04  0.15111423718E+04  0.25500000920E-02 0. -1.
    10030    2    1    2    0    0  0.00000000000E+00  0.00000000000E+00 -0.65171403737E+03  0.23705707062E+04  0.22792266861E+04 0.  0.
        2    1    3    3  502    0  0.11983043909E+02 -0.31792400251E+03 -0.14640162564E+04  0.14981865250E+04  0.25500000920E-02 0. -1.
       -2    1    3    3    0  502 -0.11983043909E+02  0.31792400251E+03  0.81230221898E+03  0.87238418125E+03  0.25500000920E-02 0.  1.
</event>
<event>
 5   0  0.2816178E-05  0.2280973E+04  0.7818609E-02  0.8485461E-01
        2   -1    0    0  501    0  0.00000000000E+00  0.00000000000E+00  0.16825148148E+04  0.16825148148E+04  0.25500000920E-02 0.  1.
       -2   -1    0    0    0  501  0.00000000000E+00  0.00000000000E+00 -0.77307435503E+03  0.77307435504E+03  0.25500000920E-02 0. -1.
    10030    2    1    2    0    0  0.00000000000E+00  0.00000000000E+00  0.90944045982E+03  0.24555891699E+04  0.22809726481E+04 0.  0.
        1    1    3    3  502    0  0.79822907126E+03  0.33752022964E+03 -0.34339702104E+03  0.93220763229E+03  0.50400001928E-02 0. -1.
       -1    1    3    3    0  502 -0.79822907126E+03 -0.33752022964E+03  0.12528374809E+04  0.15233815376E+04  0.50400001928E-02 0.  1.
</event>
<event>
 5   0  0.1284837E-05  0.2258912E+04  0.7818609E-02  0.8494300E-01
        1   -1    0    0  501    0  0.00000000000E+00  0.00000000000E+00  0.10633083512E+04  0.10633083512E+04  0.50400001928E-02 0. -1.
       -1   -1    0    0    0  501  0.00000000000E+00  0.00000000000E+00 -0.11997187764E+04  0.11997187765E+04  0.50400001928E-02 0.  1.
    10030    2    1    2    0    0  0.00000000000E+00  0.00000000000E+00 -0.13641042527E+03  0.22630271276E+04  0.22589121223E+04 0.  0.
        4    1    3    3  502    0  0.44688009882E+03 -0.94537926792E+03  0.35945132578E+03  0.11057353442E+04  0.12699999809E+01 0. -1.
       -4    1    3    3    0  502 -0.44688009882E+03  0.94537926792E+03 -0.49586175105E+03  0.11572917834E+04  0.12699999809E+01 0.  1.
</event>
<event>
 5   0  0.2816178E-05  0.2317975E+04  0.7818609E-02  0.8470867E-01
       -2   -1    0    0    0  501  0.00000000000E+00  0.00000000000E+00  0.13116820292E+04  0.13116820292E+04  0.25500000920E-02 0. -1.
        2   -1    0    0  501    0  0.00000000000E+00  0.00000000000E+00 -0.10240681272E+04  0.10240681272E+04  0.25500000920E-02 0.  1.
    10030    2    1    2    0    0  0.00000000000E+00  0.00000000000E+00  0.28761390192E+03  0.23357501564E+04  0.23179747705E+04 0.  0.
        1    1    3    3  502    0 -0.10326551951E+03  0.11538481986E+04  0.17903683821E+03  0.11722131301E+04  0.50400001928E-02 0. -1.
       -1    1    3    3    0  502  0.10326551951E+03 -0.11538481986E+04  0.10857706371E+03  0.11635370263E+04  0.50400001928E-02 0.  1.
</event>
<event>
 5   0  0.1303224E-05  0.2299724E+04  0.7818609E-02  0.8478030E-01
       -1   -1    0    0    0  501  0.00000000000E+00  0.00000000000E+00  0.10733499796E+04  0.10733499796E+04  0.50400001928E-02 0. -1.
        1   -1    0    0  501    0  0.00000000000E+00  0.00000000000E+00 -0.12318276936E+04  0.12318276936E+04  0.50400001928E-02 0.  1.
    10030    2    1    2    0    0  0.00000000000E+00  0.00000000000E+00 -0.15847771393E+03  0.23051776732E+04  0.22997236615E+04 0.  0.
        2    1    3    3  502    0 -0.80312290801E+03 -0.29553219804E+03  0.69059071375E+03  0.10996641394E+04  0.25500000920E-02 0. -1.
       -2    1    3    3    0  502  0.80312290801E+03  0.29553219804E+03 -0.84906842769E+03  0.12055135339E+04  0.25500000920E-02 0.  1.
</event>
<event>
 5   0  0.2994157E-05  0.2255241E+04  0.7818609E-02  0.8495781E-01
       -2   -1    0    0    0  501  0.00000000000E+00  0.00000000000E+00  0.80919200047E+03  0.80919200047E+03  0.25500000920E-02 0. -1.
        2   -1    0    0  501    0  0.00000000000E+00  0.00000000000E+00 -0.15713550688E+04  0.15713550688E+04  0.25500000920E-02 0.  1.
    10030    2    1    2    0    0  0.00000000000E+00  0.00000000000E+00 -0.76216306828E+03  0.23805470692E+04  0.22552409641E+04 0.  0.
        4    1    3    3  502    0 -0.10066154450E+04  0.42765481390E+03 -0.67085795194E+03  0.12830492191E+04  0.12699999809E+01 0. -1.
       -4    1    3    3    0  502  0.10066154450E+04 -0.42765481390E+03 -0.91305116343E+02  0.10974978502E+04  0.12699999809E+01 0.  1.
</event>
<event>
 5   0  0.2871888E-05  0.2381123E+04  0.7818609E-02  0.8446605E-01
        2   -1    0    0  501    0  0.00000000000E+00  0.00000000000E+00  0.13903427948E+04  0.13903427948E+04  0.25500000920E-02 0.  1.
       -2   -1    0    0    0  501  0.00000000000E+00  0.00000000000E+00 -0.10194871655E+04  0.10194871655E+04  0.25500000920E-02 0. -1.
    10030    2    1    2    0    0  0.00000000000E+00  0.00000000000E+00  0.37085562928E+03  0.24098299604E+04  0.23811229578E+04 0.  0.
        3    1    3    3  502    0  0.46551264721E+03 -0.43934205620E+03 -0.83052383944E+03  0.10485672726E+04  0.10100000352E+00 0. -1.
       -3    1    3    3    0  502 -0.46551264721E+03  0.43934205620E+03  0.12013794687E+04  0.13612626878E+04  0.10100000352E+00 0.  1.
</event>
<event>
 5   0  0.1303224E-05  0.2307497E+04  0.7818609E-02  0.8474971E-01
       -1   -1    0    0    0  501  0.00000000000E+00  0.00000000000E+00  0.13512977801E+04  0.13512977801E+04  0.50400001928E-02 0.  1.
        1   -1    0    0  501    0  0.00000000000E+00  0.00000000000E+00 -0.98507920618E+03  0.98507920620E+03  0.50400001928E-02 0. -1.
    10030    2    1    2    0    0  0.00000000000E+00  0.00000000000E+00  0.36621857390E+03  0.23363769863E+04  0.23074967775E+04 0.  0.
        2    1    3    3  502    0  0.15898510689E+03 -0.11359741958E+04  0.30884771843E+03  0.11878975338E+04  0.25500000920E-02 0. -1.
       -2    1    3    3    0  502 -0.15898510689E+03  0.11359741958E+04  0.57370855475E+02  0.11484794525E+04  0.25500000920E-02 0.  1.
</event>
<event>
 5   0  0.1284837E-05  0.2303311E+04  0.7818609E-02  0.8476617E-01
       -1   -1    0    0    0  501  0.00000000000E+00  0.00000000000E+00  0.96744105712E+03  0.96744105713E+03  0.50400001928E-02 0.  1.
        1   -1    0    0  501    0  0.00000000000E+00  0.00000000000E+00 -0.13709464259E+04  0.13709464259E+04  0.50400001928E-02 0. -1.
    10030    2    1    2    0    0  0.00000000000E+00  0.00000000000E+00 -0.40350536880E+03  0.23383874831E+04  0.23033105388E+04 0.  0.
        4    1    3    3  502    0  0.98688463337E+02  0.26615978664E+02  0.96282615725E+03  0.96823739088E+03  0.12699999809E+01 0.  1.
       -4    1    3    3    0  502 -0.98688463337E+02 -0.26615978664E+02 -0.13663315261E+04  0.13701500922E+04  0.12699999809E+01 0. -1.
</event>
<event>
 5   0  0.1371753E-05  0.2321539E+04  0.7818609E-02  0.8469477E-01
       -1   -1    0    0    0  501  0.00000000000E+00  0.00000000000E+00  0.92445422612E+03  0.92445422614E+03  0.50400001928E-02 0. -1.
        1   -1    0    0  501    0  0.00000000000E+00  0.00000000000E+00 -0.14574937120E+04  0.14574937120E+04  0.50400001928E-02 0.  1.
    10030    2    1    2    0    0  0.00000000000E+00  0.00000000000E+00 -0.53303948585E+03  0.23819479381E+04  0.23215393355E+04 0.  0.
        3    1    3    3  502    0  0.11169514336E+04  0.20057904626E+02 -0.59000672563E+03  0.12633648606E+04  0.10100000352E+00 0.  1.
       -3    1    3    3    0  502 -0.11169514336E+04 -0.20057904626E+02  0.56967239778E+02  0.11185830775E+04  0.10100000352E+00 0. -1.
</event>
<event>
 5   0  0.1371753E-05  0.2162578E+04  0.7818609E-02  0.8534168E-01
        1   -1    0    0  501    0  0.00000000000E+00  0.00000000000E+00  0.51454663113E+03  0.51454663116E+03  0.50400001928E-02 0. -1.
       -1   -1    0    0    0  501  0.00000000000E+00  0.00000000000E+00 -0.22722634188E+04  0.22722634189E+04  0.50400001928E-02 0.  1.
    10030    2    1    2    0    0  0.00000000000E+00  0.00000000000E+00 -0.17577167877E+04  0.27868100500E+04  0.21625776169E+04 0.  0.
        3    1    3    3  502    0 -0.51572647576E+03 -0.93953713726E+03 -0.69443411144E+03  0.12770836212E+04  0.10100000352E+00 0.  1.
       -3    1    3    3    0  502  0.51572647576E+03  0.93953713726E+03 -0.10632826763E+04  0.15097264289E+04  0.10100000352E+00 0. -1.
</event>
<event>
 5   0  0.2816178E-05  0.2298117E+04  0.7818609E-02  0.8478664E-01
        2   -1    0    0  501    0  0.00000000000E+00  0.00000000000E+00  0.16106801643E+04  0.16106801643E+04  0.25500000920E-02 0.  1.
       -2   -1    0    0    0  501  0.00000000000E+00  0.00000000000E+00 -0.81973748630E+03  0.81973748630E+03  0.25500000920E-02 0. -1.
    10030    2    1    2    0    0  0.00000000000E+00  0.00000000000E+00  0.79094267798E+03  0.24304176506E+04  0.22981165411E+04 0.  0.
        1    1    3    3  502    0  0.84021659292E+02 -0.11355920205E+04  0.23263988405E+03  0.11622177902E+04  0.50400001928E-02 0.  1.
       -1    1    3    3    0  502 -0.84021659292E+02  0.11355920205E+04  0.55830279394E+03  0.12681998604E+04  0.50400001928E-02 0. -1.
</event>
<event>
 5   0  0.2910126E-05  0.2258063E+04  0.7818609E-02  0.8494642E-01
        2   -1    0    0  501    0  0.00000000000E+00  0.00000000000E+00  0.15132526916E+04  0.15132526916E+04  0.25500000920E-02 0.  1.
       -2   -1    0    0    0  501  0.00000000000E+00  0.00000000000E+00 -0.84236561741E+03  0.84236561742E+03  0.25500000920E-02 0. -1.
    10030    2    1    2    0    0  0.00000000000E+00  0.00000000000E+00  0.67088707423E+03  0.23556183091E+04  0.22580629202E+04 0.  0.
        5    1    3    3  502    0  0.69519774126E+03  0.78217858187E+03  0.77752874591E+03  0.13037163319E+04  0.46999998093E+01 0.  1.
       -5    1    3    3    0  502 -0.69519774126E+03 -0.78217858187E+03 -0.10664167168E+03  0.10519019771E+04  0.46999998093E+01 0. -1.
</event>
<event>
 5   0  0.2938972E-05  0.2367411E+04  0.7818609E-02  0.8451806E-01
        2   -1    0    0  501    0  0.00000000000E+00  0.00000000000E+00  0.25429650339E+04  0.25429650339E+04  0.25500000920E-02 0. -1.
       -2   -1    0    0    0  501  0.00000000000E+00  0.00000000000E+00 -0.55099388048E+03  0.55099388049E+03  0.25500000920E-02 0.  1.
    10030    2    1    2    0    0  0.00000000000E+00  0.00000000000E+00  0.19919711534E+04  0.30939589143E+04  0.23674105448E+04 0.  0.
        2    1    3    3  502    0  0.91685151336E+03 -0.62809607268E+03  0.15285144246E+04  0.18898353686E+04  0.25500000920E-02 0.  1.
       -2    1    3    3    0  502 -0.91685151336E+03  0.62809607268E+03  0.46345672877E+03  0.12041235458E+04  0.25500000920E-02 0. -1.
</event>
<event>
 5   0  0.1327820E-05  0.2283736E+04  0.7818609E-02  0.8484361E-01
       -1   -1    0    0    0  501  0.00000000000E+00  0.00000000000E+00  0.23999306514E+04  0.23999306514E+04  0.50400001928E-02 0. -1.
        1   -1    0    0  501    0  0.00000000000E+00  0.00000000000E+00 -0.54329196865E+03  0.54329196868E+03  0.50400001928E-02 0.  1.
    10030    2    1    2    0    0  0.00000000000E+00  0.00000000000E+00  0.18566386827E+04  0.29432226200E+04  0.22837364544E+04 0.  0.
        1    1    3    3  502    0 -0.18990939781E+03 -0.88689289994E+03  0.18223414616E+04  0.20355768220E+04  0.50400001928E-02 0. -1.
       -1    1    3    3    0  502  0.18990939781E+03  0.88689289994E+03  0.34297221063E+02  0.90764579806E+03  0.50400001928E-02 0.  1.
</event>
<event>
 5   0  0.2938972E-05  0.2314937E+04  0.7818609E-02  0.8472055E-01
       -2   -1    0    0    0  501  0.00000000000E+00  0.00000000000E+00  0.68149698072E+03  0.68149698073E+03  0.25500000920E-02 0. -1.
        2   -1    0    0  501    0  0.00000000000E+00  0.00000000000E+00 -0.19658687330E+04  0.19658687330E+04  0.25500000920E-02 0.  1.
    10030    2    1    2    0    0  0.00000000000E+00  0.00000000000E+00 -0.12843717523E+04  0.26473657137E+04  0.23149372398E+04 0.  0.
        2    1    3    3  502    0  0.57758918024E+03  0.41137082040E+03  0.40400537909E+03  0.81612226985E+03  0.25500000920E-02 0. -1.
       -2    1    3    3    0  502 -0.57758918024E+03 -0.41137082040E+03 -0.16883771314E+04  0.18312434439E+04  0.25500000920E-02 0.  1.
</event>
<event>
 5   0  0.1327820E-05  0.2290294E+04  0.7818609E-02  0.8481758E-01
       -1   -1    0    0    0  501  0.00000000000E+00  0.00000000000E+00  0.12755384334E+04  0.12755384334E+04  0.50400001928E-02 0.  1.
        1   -1    0    0  501    0  0.00000000000E+00  0.00000000000E+00 -0.10280849201E+04  0.10280849202E+04  0.50400001928E-02 0. -1.
    10030    2    1    2    0    0  0.00000000000E+00  0.00000000000E+00  0.24745351327E+03  0.23036233536E+04  0.22902941545E+04 0.  0.
        1    1    3    3  502    0  0.69125639375E+03 -0.36955931292E+03  0.96342210733E+03  0.12420111290E+04  0.50400001928E-02 0.  1.
       -1    1    3    3    0  502 -0.69125639375E+03  0.36955931292E+03 -0.71596859406E+03  0.10616122246E+04  0.50400001928E-02 0. -1.
</event>
<event>
 5   0  0.1308224E-05  0.2303651E+04  0.7818609E-02  0.8476483E-01
       -1   -1    0    0    0  501  0.00000000000E+00  0.00000000000E+00  0.84076054508E+03  0.84076054509E+03  0.50400001928E-02 0.  1.
        1   -1    0    0  501    0  0.00000000000E+00  0.00000000000E+00 -0.15779778532E+04  0.15779778532E+04  0.50400001928E-02 0. -1.
    10030    2    1    2    0    0  0.00000000000E+00  0.00000000000E+00 -0.73721730815E+03  0.24187383983E+04  0.23036505985E+04 0.  0.
        5    1    3    3  502    0  0.20244451357E+03 -0.27229972963E+03  0.78708490655E+03  0.85712056558E+03  0.46999998093E+01 0.  1.
       -5    1    3    3    0  502 -0.20244451357E+03  0.27229972963E+03 -0.15243022147E+04  0.15616178327E+04  0.46999998093E+01 0. -1.
</event>
<event>
 5   0  0.2994157E-05  0.2211127E+04  0.7818609E-02  0.8513811E-01
       -2   -1    0    0    0  501  0.00000000000E+00  0.00000000000E+00  0.72662491116E+03  0.72662491117E+03  0.25500000920E-02 0. -1.
        2   -1    0    0  501    0  0.00000000000E+00  0.00000000000E+00 -0.16821211862E+04  0.16821211862E+04  0.25500000920E-02 0.  1.
    10030    2    1    2    0    0  0.00000000000E+00  0.00000000000E+00 -0.95549627499E+03  0.24087460973E+04  0.22111274567E+04 0.  0.
        4    1    3    3  502    0  0.10083925150E+04 -0.42211315112E+03 -0.29796974551E+03  0.11330589388E+04  0.12699999809E+01 0. -1.
       -4    1    3    3    0  502 -0.10083925150E+04  0.42211315112E+03 -0.65752652948E+03  0.12756871585E+04  0.12699999809E+01 0.  1.
</event>
<event>
 5   0  0.1371753E-05  0.2294402E+04  0.7818609E-02  0.8480132E-01
       -1   -1    0    0    0  501  0.00000000000E+00  0.00000000000E+00  0.10157570424E+04  0.10157570424E+04  0.50400001928E-02 0. -1.
        1   -1    0    0  501    0  0.00000000000E+00  0.00000000000E+00 -0.12956542205E+04  0.12956542205E+04  0.50400001928E-02 0.  1.
    10030    2    1    2    0    0  0.00000000000E+00  0.00000000000E+00 -0.27989717804E+03  0.23114112629E+04  0.22944017948E+04 0.  0.
        3    1    3    3  502    0  0.60710438260E+03  0.63273044740E+03 -0.88512568880E+03  0.12459418308E+04  0.10100000352E+00 0.  1.
       -3    1    3    3    0  502 -0.60710438260E+03 -0.63273044740E+03  0.60522851077E+03  0.10654694322E+04  0.10100000352E+00 0. -1.
</event>
<event>
 5   0  0.1017200E-05  0.2311335E+04  0.7818609E-02  0.8473465E-01
        3   -1    0    0  501    0  0.00000000000E+00  0.00000000000E+00  0.25606917049E+04  0.25606917069E+04  0.10100000352E+00 0. -1.
       -3   -1    0    0    0  501  0.00000000000E+00  0.00000000000E+00 -0.52156527719E+03  0.52156528697E+03  0.10100000352E+00 0.  1.
    10030    2    1    2    0    0  0.00000000000E+00  0.00000000000E+00  0.20391264277E+04  0.30822569939E+04  0.23113354556E+04 0.  0.
        5    1    3    3  502    0 -0.98690910907E+03 -0.96449538481E+00  0.18214133805E+04  0.20716079051E+04  0.46999998093E+01 0. -1.
       -5    1    3    3    0  502  0.98690910907E+03  0.96449538481E+00  0.21771304728E+03  0.10106490888E+04  0.46999998093E+01 0.  1.
</event>
<event>
 5   0  0.1327820E-05  0.2299084E+04  0.7818609E-02  0.8478282E-01
       -1   -1    0    0    0  501  0.00000000000E+00  0.00000000000E+00  0.13467955724E+04  0.13467955724E+04  0.50400001928E-02 0. -1.
        1   -1    0    0  501    0  0.00000000000E+00  0.00000000000E+00 -0.98117848286E+03  0.98117848287E+03  0.50400001928E-02 0.  1.
    10030    2    1    2    0    0  0.00000000000E+00  0.00000000000E+00  0.36561708957E+03  0.23279740553E+04  0.22990840233E+04 0.  0.
        1    1    3    3  502    0 -0.60617736446E+02 -0.50740182015E+02 -0.97842299430E+03  0.98161124273E+03  0.50400001928E-02 0.  1.
       -1    1    3    3    0  502  0.60617736446E+02  0.50740182015E+02  0.13440400839E+04  0.13463628126E+04  0.50400001928E-02 0. -1.
</event>
<event>
 5   0  0.1303224E-05  0.2317591E+04  0.7818609E-02  0.8471017E-01
        1   -1    0    0  501    0  0.00000000000E+00  0.00000000000E+00  0.11906570017E+04  0.11906570017E+04  0.50400001928E-02 0. -1.
       -1   -1    0    0    0  501  0.00000000000E+00  0.00000000000E+00 -0.11277863352E+04  0.11277863352E+04  0.50400001928E-02 0.  1.
    10030    2    1    2    0    0  0.00000000000E+00  0.00000000000E+00  0.62870666454E+02  0.23184433369E+04  0.23175907287E+04 0.  0.
        2    1    3    3  502    0  0.94914627956E+03  0.17290758372E+03 -0.61069722337E+03  0.11418085615E+04  0.25500000920E-02 0.  1.
       -2    1    3    3    0  502 -0.94914627956E+03 -0.17290758372E+03  0.67356788983E+03  0.11766347754E+04  0.25500000920E-02 0. -1.
</event>
<event>
 5   0  0.1284837E-05  0.2302122E+04  0.7818609E-02  0.8477085E-01
       -1   -1    0    0    0  501  0.00000000000E+00  0.00000000000E+00  0.82272526552E+03  0.82272526554E+03  0.50400001928E-02 0. -1.
        1   -1    0    0  501    0  0.00000000000E+00  0.00000000000E+00 -0.16104293742E+04  0.16104293742E+04  0.50400001928E-02 0.  1.
    10030    2    1    2    0    0  0.00000000000E+00  0.00000000000E+00 -0.78770410870E+03  0.24331546398E+04  0.23021215733E+04 0.  0.
        4    1    3    3  502    0 -0.88828873685E+03  0.60632796779E+03  0.39676285252E+02  0.10762278128E+04  0.12699999809E+01 0. -1.
       -4    1    3    3    0  502  0.88828873685E+03 -0.60632796779E+03 -0.82738039395E+03  0.13569268270E+04  0.12699999809E+01 0.  1.
</event>
<event>
 5   0  0.1017200E-05  0.2258510E+04  0.7818609E-02  0.8494462E-01
       -3   -1    0    0    0  501  0.00000000000E+00  0.00000000000E+00  0.13353027074E+04  0.13353027112E+04  0.10100000352E+00 0.  1.
        3   -1    0    0  501    0  0.00000000000E+00  0.00000000000E+00 -0.95500227596E+03  0.95500228131E+03  0.10100000352E+00 0. -1.
    10030    2    1    2    0    0  0.00000000000E+00  0.00000000000E+00  0.38030043141E+03  0.22903049925E+04  0.22585102480E+04 0.  0.
        4    1    3    3  502    0 -0.83558517061E+03 -0.42018257148E+03 -0.45157718386E+03  0.10385949820E+04  0.12699999809E+01 0. -1.
       -4    1    3    3    0  502  0.83558517061E+03  0.42018257148E+03  0.83187761526E+03  0.12517100105E+04  0.12699999809E+01 0.  1.
</event>
<event>
 5   0  0.2816178E-05  0.2278345E+04  0.7818609E-02  0.8486509E-01
        2   -1    0    0  501    0  0.00000000000E+00  0.00000000000E+00  0.11788172483E+04  0.11788172484E+04  0.25500000920E-02 0.  1.
       -2   -1    0    0    0  501  0.00000000000E+00  0.00000000000E+00 -0.11008612162E+04  0.11008612162E+04  0.25500000920E-02 0. -1.
    10030    2    1    2    0    0  0.00000000000E+00  0.00000000000E+00  0.77956032171E+02  0.22796784645E+04  0.22783451799E+04 0.  0.
        1    1    3    3  502    0 -0.25945976039E+03  0.89346737184E+03 -0.61875807634E+03  0.11173472463E+04  0.50400001928E-02 0. -1.
       -1    1    3    3    0  502  0.25945976039E+03 -0.89346737184E+03  0.69671410851E+03  0.11623312182E+04  0.50400001928E-02 0.  1.
</event>
<event>
 5   0  0.1303224E-05  0.2301090E+04  0.7818609E-02  0.8477492E-01
       -1   -1    0    0    0  501  0.00000000000E+00  0.00000000000E+00  0.88128587355E+03  0.88128587357E+03  0.50400001928E-02 0. -1.
        1   -1    0    0  501    0  0.00000000000E+00  0.00000000000E+00 -0.15020706262E+04  0.15020706262E+04  0.50400001928E-02 0.  1.
    10030    2    1    2    0    0  0.00000000000E+00  0.00000000000E+00 -0.62078475262E+03  0.23833564998E+04  0.23010898496E+04 0.  0.
        2    1    3    3  502    0  0.54389882893E+03 -0.92280269888E+03 -0.74536207789E+03  0.13049733271E+04  0.25500000920E-02 0.  1.
       -2    1    3    3    0  502 -0.54389882893E+03  0.92280269888E+03  0.12457732528E+03  0.10783831727E+04  0.25500000920E-02 0. -1.
</event>
<event>
 5   0  0.2871888E-05  0.2294530E+04  0.7818609E-02  0.8480081E-01
        2   -1    0    0  501    0  0.00000000000E+00  0.00000000000E+00  0.10281680459E+04  0.10281680459E+04  0.25500000920E-02 0. -1.
       -2   -1    0    0    0  501  0.00000000000E+00  0.00000000000E+00 -0.12801577617E+04  0.12801577617E+04  0.25500000920E-02 0.  1.
    10030    2    1    2    0    0  0.00000000000E+00  0.00000000000E+00 -0.25198971584E+03  0.23083258076E+04  0.22945302824E+04 0.  0.
        3    1    3    3  502    0  0.10074435066E+04 -0.10987923935E+03 -0.66700266191E+03  0.12132223322E+04  0.10100000352E+00 0.  1.
       -3    1    3    3    0  502 -0.10074435066E+04  0.10987923935E+03  0.41501294607E+03  0.10951034754E+04  0.10100000352E+00 0. -1.
</event>
<event>
 5   0  0.1284837E-05  0.2304182E+04  0.7818609E-02  0.8476274E-01
       -1   -1    0    0    0  501  0.00000000000E+00  0.00000000000E+00  0.89375277060E+03  0.89375277061E+03  0.50400001928E-02 0. -1.
        1   -1    0    0  501    0  0.00000000000E+00  0.00000000000E+00 -0.14851012903E+04  0.14851012903E+04  0.50400001928E-02 0.  1.
    10030    2    1    2    0    0  0.00000000000E+00  0.00000000000E+00 -0.59134851973E+03  0.23788540609E+04  0.23041817575E+04 0.  0.
        4    1    3    3  502    0 -0.97768989344E+02  0.34862298566E+03 -0.14248347953E+04  0.14701199162E+04  0.12699999809E+01 0.  1.
       -4    1    3    3    0  502  0.97768989344E+02 -0.34862298566E+03  0.83348627553E+03  0.90873414473E+03  0.12699999809E+01 0. -1.
</event>
<event>
 5   0  0.2816178E-05  0.2311750E+04  0.7818609E-02  0.8473303E-01
        2   -1    0    0  501    0  0.00000000000E+00  0.00000000000E+00  0.22114958221E+04  0.22114958221E+04  0.25500000920E-02 0. -1.
       -2   -1    0    0    0  501  0.00000000000E+00  0.00000000000E+00 -0.60413711893E+03  0.60413711893E+03  0.25500000920E-02 0.  1.
    10030    2    1    2    0    0  0.00000000000E+00  0.00000000000E+00  0.16073587032E+04  0.28156329411E+04  0.23117497395E+04 0.  0.
        1    1    3    3  502    0 -0.90959930067E+03  0.68759680968E+03  0.57295124941E+03  0.12761008560E+04  0.50400001928E-02 0.  1.
       -1    1    3    3    0  502  0.90959930067E+03 -0.68759680968E+03  0.10344074538E+04  0.15395320851E+04  0.50400001928E-02 0. -1.
</event>
<event>
 5   0  0.1371753E-05  0.2281600E+04  0.7818609E-02  0.8485212E-01
        1   -1    0    0  501    0  0.00000000000E+00  0.00000000000E+00  0.92843199443E+03  0.92843199444E+03  0.50400001928E-02 0.  1.
       -1   -1    0    0    0  501  0.00000000000E+00  0.00000000000E+00 -0.14017445165E+04  0.14017445165E+04  0.50400001928E-02 0. -1.
    10030    2    1    2    0    0  0.00000000000E+00  0.00000000000E+00 -0.47331252208E+03  0.23301765110E+04  0.22815998397E+04 0.  0.
        3    1    3    3  502    0  0.10902066143E+04  0.22506924862E+03 -0.49140188467E+03  0.12168329594E+04  0.10100000352E+00 0. -1.
       -3    1    3    3    0  502 -0.10902066143E+04 -0.22506924862E+03  0.18089362588E+02  0.11133435516E+04  0.10100000352E+00 0.  1.
</event>
<event>
 5   0  0.2994157E-05  0.2281805E+04  0.7818609E-02  0.8485130E-01
        2   -1    0    0  501    0  0.00000000000E+00  0.00000000000E+00  0.13323047117E+04  0.13323047117E+04  0.25500000920E-02 0.  1.
       -2   -1    0    0    0  501  0.00000000000E+00  0.00000000000E+00 -0.97699790323E+03  0.97699790323E+03  0.25500000920E-02 0. -1.
    10030    2    1    2    0    0  0.00000000000E+00  0.00000000000E+00  0.35530680851E+03  0.23093026150E+04  0.22818053465E+04 0.  0.
        4    1    3    3  502    0 -0.14037002095E+03 -0.61759293661E+03 -0.78274615923E+03  0.10068852670E+04  0.12699999809E+01 0. -1.
       -4    1    3    3    0  502  0.14037002095E+03  0.61759293661E+03  0.11380529677E+04  0.13024173480E+04  0.12699999809E+01 0.  1.
</event>
<event>
 5   0  0.2994157E-05  0.2304667E+04  0.7818609E-02  0.8476083E-01
       -2   -1    0    0    0  501  0.00000000000E+00  0.00000000000E+00  0.14106119860E+04  0.14106119860E+04  0.25500000920E-02 0. -1.
        2   -1    0    0  501    0  0.00000000000E+00  0.00000000000E+00 -0.94134484849E+03  0.94134484850E+03  0.25500000920E-02 0.  1.
    10030    2    1    2    0    0  0.00000000000E+00  0.00000000000E+00  0.46926713751E+03  0.23519568345E+04  0.23046668534E+04 0.  0.
        4    1    3    3  502    0 -0.31287556730E+03  0.10957584929E+04  0.59969927685E+02  0.11411291778E+04  0.12699999809E+01 0.  1.
       -4    1    3    3    0  502  0.31287556730E+03 -0.10957584929E+04  0.40929720983E+03  0.12108276567E+04  0.12699999809E+01 0. -1.
</event>
<event>
 5   0  0.2910126E-05  0.2321793E+04  0.7818609E-02  0.8469378E-01
        2   -1    0    0  501    0  0.00000000000E+00  0.00000000000E+00  0.24631531090E+04  0.24631531090E+04  0.25500000920E-02 0.  1.
       -2   -1    0    0    0  501  0.00000000000E+00  0.00000000000E+00 -0.54713624412E+03  0.54713624412E+03  0.25500000920E-02 0. -1.
    10030    2    1    2    0    0  0.00000000000E+00  0.00000000000E+00  0.19160168649E+04  0.30102893531E+04  0.23217927046E+04 0.  0.
        5    1    3    3  502    0 -0.64255304694E+03  0.87849433144E+03  0.14815131731E+04  0.18383498254E+04  0.46999998093E+01 0.  1.
       -5    1    3    3    0  502  0.64255304694E+03 -0.87849433144E+03  0.43450369182E+03  0.11719395278E+04  0.46999998093E+01 0. -1.
</event>
<event>
 5   0  0.2938972E-05  0.2282953E+04  0.7818609E-02  0.8484673E-01
       -2   -1    0    0    0  501  0.00000000000E+00  0.00000000000E+00  0.84564109244E+03  0.84564109244E+03  0.25500000920E-02 0.  1.
        2   -1    0    0  501    0  0.00000000000E+00  0.00000000000E+00 -0.15408054796E+04  0.15408054796E+04  0.25500000920E-02 0. -1.
    10030    2    1    2    0    0  0.00000000000E+00  0.00000000000E+00 -0.69516438720E+03  0.23864465721E+04  0.22829528502E+04 0.  0.
        2    1    3    3  502    0 -0.56083211680E+03  0.99091328363E+03 -0.26313226737E+03  0.11686232879E+04  0.25500000920E-02 0.  1.
       -2    1    3    3    0  502  0.56083211680E+03 -0.99091328363E+03 -0.43203211983E+03  0.12178232842E+04  0.25500000920E-02 0. -1.
</event>
<event>
 5   0  0.2871888E-05  0.2303783E+04  0.7818609E-02  0.8476431E-01
        2   -1    0    0  501    0  0.00000000000E+00  0.00000000000E+00  0.15039768550E+04  0.15039768550E+04  0.25500000920E-02 0.  1.
       -2   -1    0    0    0  501  0.00000000000E+00  0.00000000000E+00 -0.88223044508E+03  0.88223044508E+03  0.25500000920E-02 0. -1.
    10030    2    1    2    0    0  0.00000000000E+00  0.00000000000E+00  0.62174640988E+03  0.23862073000E+04  0.23037831236E+04 0.  0.
        3    1    3    3  502    0  0.33294884457E+03 -0.66363406420E+03 -0.60131071783E+03  0.95542644607E+03  0.10100000352E+00 0. -1.
       -3    1    3    3    0  502 -0.33294884457E+03  0.66363406420E+03  0.12230571277E+04  0.14307808540E+04  0.10100000352E+00 0.  1.
</event>
<event>
 5   0  0.2871888E-05  0.2298248E+04  0.7818609E-02  0.8478612E-01
       -2   -1    0    0    0  501  0.00000000000E+00  0.00000000000E+00  0.97650807855E+03  0.97650807855E+03  0.25500000920E-02 0.  1.
        2   -1    0    0  501    0  0.00000000000E+00  0.00000000000E+00 -0.13522533397E+04  0.13522533397E+04  0.25500000920E-02 0. -1.
    10030    2    1    2    0    0  0.00000000000E+00  0.00000000000E+00 -0.37574526113E+03  0.23287614182E+04  0.22982482985E+04 0.  0.
        3    1    3    3  502    0  0.22575891944E+03 -0.59806554254E+03  0.77970676584E+03  0.10082619371E+04  0.10100000352E+00 0.  1.
       -3    1    3    3    0  502 -0.22575891944E+03  0.59806554254E+03 -0.11554520270E+04  0.13204994811E+04  0.10100000352E+00 0. -1.
</event>
<event>
 5   0  0.2938972E-05  0.2261800E+04  0.7818609E-02  0.8493137E-01
        2   -1    0    0  501    0  0.00000000000E+00  0.00000000000E+00  0.16101700329E+04  0.16101700329E+04  0.25500000920E-02 0.  1.
       -2   -1    0    0    0  501  0.00000000000E+00  0.00000000000E+00 -0.79428577404E+03  0.79428577404E+03  0.25500000920E-02 0. -1.
    10030    2    1    2    0    0  0.00000000000E+00  0.00000000000E+00  0.81588425888E+03  0.24044558070E+04  0.22618003015E+04 0.  0.
        2    1    3    3  502    0  0.35245359425E+02 -0.27008279584E+02  0.16092429624E+04  0.16098554577E+04  0.25500000920E-02 0.  1.
       -2    1    3    3    0  502 -0.35245359425E+02  0.27008279584E+02 -0.79335870356E+03  0.79460034926E+03  0.25500000920E-02 0. -1.
</event>
<event>
 5   0  0.2910126E-05  0.2291698E+04  0.7818609E-02  0.8481202E-01
       -2   -1    0    0    0  501  0.00000000000E+00  0.00000000000E+00  0.65167084454E+03  0.65167084455E+03  0.25500000920E-02 0.  1.
        2   -1    0    0  501    0  0.00000000000E+00  0.00000000000E+00 -0.20147742154E+04  0.20147742154E+04  0.25500000920E-02 0. -1.
    10030    2    1    2    0    0  0.00000000000E+00  0.00000000000E+00 -0.13631033709E+04  0.26664450600E+04  0.22916977240E+04 0.  0.
        5    1    3    3  502    0  0.97535124060E+03  0.51489251688E+03 -0.32006599288E+03  0.11484287859E+04  0.46999998093E+01 0. -1.
       -5    1    3    3    0  502 -0.97535124060E+03 -0.51489251688E+03 -0.10430373780E+04  0.15180162741E+04  0.46999998093E+01 0.  1.
</event>
<event>
 5   0  0.2871888E-05  0.2277464E+04  0.7818609E-02  0.8486860E-01
       -2   -1    0    0    0  501  0.00000000000E+00  0.00000000000E+00  0.48843325043E+03  0.48843325044E+03  0.25500000920E-02 0.  1.
        2   -1    0    0  501    0  0.00000000000E+00  0.00000000000E+00 -0.26548366269E+04  0.26548366269E+04  0.25500000920E-02 0. -1.
    10030    2    1    2    0    0  0.00000000000E+00  0.00000000000E+00 -0.21664033765E+04  0.31432698774E+04  0.22774639256E+04 0.  0.
        3    1    3    3  502    0  0.97283907778E+03  0.83212694759E+02 -0.27445689856E+03  0.10142321348E+04  0.10100000352E+00 0.  1.
       -3    1    3    3    0  502 -0.97283907778E+03 -0.83212694759E+02 -0.18919464779E+04  0.21290377426E+04  0.10100000352E+00 0. -1.
</event>
<event>
 5   0  0.1284837E-05  0.2127458E+04  0.7818609E-02  0.8549243E-01
        1   -1    0    0  501    0  0.00000000000E+00  0.00000000000E+00  0.11842350291E+04  0.11842350291E+04  0.50400001928E-02 0.  1.
       -1   -1    0    0    0  501  0.00000000000E+00  0.00000000000E+00 -0.95548558709E+03  0.95548558711E+03  0.50400001928E-02 0. -1.
    10030    2    1    2    0    0  0.00000000000E+00  0.00000000000E+00  0.22874944202E+03  0.21397206162E+04  0.21274581096E+04 0.  0.
        4    1    3    3  502    0  0.19929220248E+03 -0.55812295346E+03  0.10028117593E+04  0.11648397532E+04  0.12699999809E+01 0.  1.
       -4    1    3    3    0  502 -0.19929220248E+03  0.55812295346E+03 -0.77406231728E+03  0.97488086302E+03  0.12699999809E+01 0. -1.
</event>
<event>
 5   0  0.2816178E-05  0.2296587E+04  0.7818609E-02  0.8479268E-01
        2   -1    0    0  501    0  0.00000000000E+00  0.00000000000E+00  0.13796481014E+04  0.13796481014E+04  0.25500000920E-02 0. -1.
       -2   -1    0    0    0  501  0.00000000000E+00  0.00000000000E+00 -0.95573469388E+03  0.95573469388E+03  0.25500000920E-02 0.  1.
    10030    2    1    2    0    0  0.00000000000E+00  0.00000000000E+00  0.42391340748E+03  0.23353827952E+04  0.22965866461E+04 0.  0.
        1    1    3    3  502    0  0.13191197200E+03  0.75492757350E+03  0.10815406043E+04  0.13255363022E+04  0.50400001928E-02 0. -1.
       -1    1    3    3    0  502 -0.13191197200E+03 -0.75492757350E+03 -0.65762719681E+03  0.10098464931E+04  0.50400001928E-02 0.  1.
</event>
<event>
 5   0  0.2938972E-05  0.2288838E+04  0.7818609E-02  0.8482335E-01
       -2   -1    0    0    0  501  0.00000000000E+00  0.00000000000E+00  0.86858845803E+03  0.86858845804E+03  0.25500000920E-02 0. -1.
        2   -1    0    0  501    0  0.00000000000E+00  0.00000000000E+00 -0.15078421365E+04  0.15078421365E+04  0.25500000920E-02 0.  1.
    10030    2    1    2    0    0  0.00000000000E+00  0.00000000000E+00 -0.63925367845E+03  0.23764305945E+04  0.22888375008E+04 0.  0.
        2    1    3    3  502    0 -0.33216632231E+03  0.73312601578E+03 -0.11643254701E+04  0.14154370424E+04  0.25500000920E-02 0.  1.
       -2    1    3    3    0  502  0.33216632231E+03 -0.73312601578E+03  0.52507179169E+03  0.96099355208E+03  0.25500000920E-02 0. -1.
</event>
<event>
 5   0  0.1303224E-05  0.2299563E+04  0.7818609E-02  0.8478093E-01
       -1   -1    0    0    0  501  0.00000000000E+00  0.00000000000E+00  0.28423049353E+04  0.28423049353E+04  0.50400001928E-02 0.  1.
        1   -1    0    0  501    0  0.00000000000E+00  0.00000000000E+00 -0.46511472728E+03  0.46511472731E+03  0.50400001928E-02 0. -1.
    10030    2    1    2    0    0  0.00000000000E+00  0.00000000000E+00  0.23771902080E+04  0.33074196626E+04  0.22995633367E+04 0.  0.
        2    1    3    3  502    0  0.37641750686E+02  0.97352872743E+03  0.31039161083E+03  0.10225057636E+04  0.25500000920E-02 0. -1.
       -2    1    3    3    0  502 -0.37641750686E+02 -0.97352872743E+03  0.20667985972E+04  0.22849138990E+04  0.25500000920E-02 0.  1.
</event>
<event>
 5   0  0.2910126E-05  0.2299961E+04  0.7818609E-02  0.8477936E-01
       -2   -1    0    0    0  501  0.00000000000E+00  0.00000000000E+00  0.59706968015E+03  0.59706968015E+03  0.25500000920E-02 0. -1.
        2   -1    0    0  501    0  0.00000000000E+00  0.00000000000E+00 -0.22149092054E+04  0.22149092054E+04  0.25500000920E-02 0.  1.
    10030    2    1    2    0    0  0.00000000000E+00  0.00000000000E+00 -0.16178395252E+04  0.28119788855E+04  0.22999609830E+04 0.  0.
        5    1    3    3  502    0 -0.99155121723E+03  0.44490149170E+03 -0.34930253292E+03  0.11415539861E+04  0.46999998093E+01 0. -1.
       -5    1    3    3    0  502  0.99155121723E+03 -0.44490149170E+03 -0.12685369923E+04  0.16704248994E+04  0.46999998093E+01 0.  1.
</event>
<event>
 5   0  0.1371753E-05  0.2299338E+04  0.7818609E-02  0.8478182E-01
        1   -1    0    0  501    0  0.00000000000E+00  0.00000000000E+00  0.71238926804E+03  0.71238926805E+03  0.50400001928E-02 0.  1.
       -1   -1    0    0    0  501  0.00000000000E+00  0.00000000000E+00 -0.18553599919E+04  0.18553599919E+04  0.50400001928E-02 0. -1.
    10030    2    1    2    0    0  0.00000000000E+00  0.00000000000E+00 -0.11429707239E+04  0.25677492600E+04  0.22993377713E+04 0.  0.
        3    1    3    3  502    0 -0.98663748166E+03  0.52827867729E+03 -0.86526640569E+03  0.14146440698E+04  0.10100000352E+00 0. -1.
       -3    1    3    3    0  502  0.98663748166E+03 -0.52827867729E+03 -0.27770431816E+03  0.11531051902E+04  0.10100000352E+00 0.  1.
</event>
<event>
 5   0  0.1371753E-05  0.2304635E+04  0.7818609E-02  0.8476096E-01
        1   -1    0    0  501    0  0.00000000000E+00  0.00000000000E+00  0.59847350103E+03  0.59847350105E+03  0.50400001928E-02 0. -1.
       -1   -1    0    0    0  501  0.00000000000E+00  0.00000000000E+00 -0.22187047462E+04  0.22187047462E+04  0.50400001928E-02 0.  1.
    10030    2    1    2    0    0  0.00000000000E+00  0.00000000000E+00 -0.16202312452E+04  0.28171782473E+04  0.23046353267E+04 0.  0.
        3    1    3    3  502    0  0.16825882289E+02 -0.72499618268E+03  0.28454946140E+03  0.77901924328E+03  0.10100000352E+00 0. -1.
       -3    1    3    3    0  502 -0.16825882289E+02  0.72499618268E+03 -0.19047807066E+04  0.20381590040E+04  0.10100000352E+00 0.  1.
</event>
<event>
 5   0  0.1284837E-05  0.2292141E+04  0.7818609E-02  0.8481026E-01
       -1   -1    0    0    0  501  0.00000000000E+00  0.00000000000E+00  0.99360648130E+03  0.99360648132E+03  0.50400001928E-02 0. -1.
        1   -1    0    0  501    0  0.00000000000E+00  0.00000000000E+00 -0.13219299154E+04  0.13219299154E+04  0.50400001928E-02 0.  1.
    10030    2    1    2    0    0  0.00000000000E+00  0.00000000000E+00 -0.32832343412E+03  0.23155363967E+04  0.22921414719E+04 0.  0.
        4    1    3    3  502    0 -0.10575207975E+04 -0.34114435741E+03 -0.44764449195E+03  0.11979636530E+04  0.12699999809E+01 0.  1.
       -4    1    3    3    0  502  0.10575207975E+04  0.34114435741E+03  0.11932105783E+03  0.11175727437E+04  0.12699999809E+01 0. -1.
</event>
<event>
 5   0  0.2994157E-05  0.2305980E+04  0.7818609E-02  0.8475567E-01
       -2   -1    0    0    0  501  0.00000000000E+00  0.00000000000E+00  0.12447010010E+04  0.12447010010E+04  0.25500000920E-02 0.  1.
        2   -1    0    0  501    0  0.00000000000E+00  0.00000000000E+00 -0.10680363083E+04  0.10680363083E+04  0.25500000920E-02 0. -1.
    10030    2    1    2    0    0  0.00000000000E+00  0.00000000000E+00  0.17666469273E+03  0.23127373092E+04  0.23059799322E+04 0.  0.
        4    1    3    3  502    0 -0.98610113782E+02 -0.11133391073E+04  0.37224549006E+03  0.11780561278E+04  0.12699999809E+01 0.  1.
       -4    1    3    3    0  502  0.98610113782E+02  0.11133391073E+04 -0.19558079733E+03  0.11346811815E+04  0.12699999809E+01 0. -1.
</event>
<event>
 5   0  0.2938972E-05  0.2293680E+04  0.7818609E-02  0.8480417E-01
        2   -1    0    0  501    0  0.00000000000E+00  0.00000000000E+00  0.64283244430E+03  0.64283244430E+03  0.25500000920E-02 0.  1.
       -2   -1    0    0    0  501  0.00000000000E+00  0.00000000000E+00 -0.20460113224E+04  0.20460113224E+04  0.25500000920E-02 0. -1.
    10030    2    1    2    0    0  0.00000000000E+00  0.00000000000E+00 -0.14031788781E+04  0.26888437667E+04  0.22936804132E+04 0.  0.
        2    1    3    3  502    0  0.13022714799E+03  0.98510233113E+03 -0.30354235949E+02  0.99413635509E+03  0.25500000920E-02 0.  1.
       -2    1    3    3    0  502 -0.13022714799E+03 -0.98510233113E+03 -0.13728246421E+04  0.16947074116E+04  0.25500000920E-02 0. -1.
</event>
<event>
 5   0  0.2994157E-05  0.2295021E+04  0.7818609E-02  0.8479887E-01
        2   -1    0    0  501    0  0.00000000000E+00  0.00000000000E+00  0.16264411551E+04  0.16264411551E+04  0.25500000920E-02 0. -1.
       -2   -1    0    0    0  501  0.00000000000E+00  0.00000000000E+00 -0.80960808638E+03  0.80960808639E+03  0.25500000920E-02 0.  1.
    10030    2    1    2    0    0  0.00000000000E+00  0.00000000000E+00  0.81683306876E+03  0.24360492415E+04  0.22950206197E+04 0.  0.
        4    1    3    3  502    0  0.80624600814E+03 -0.42833173889E+03  0.11463170287E+04  0.14654504589E+04  0.12699999809E+01 0. -1.
       -4    1    3    3    0  502 -0.80624600814E+03  0.42833173889E+03 -0.32948395993E+03  0.97059878268E+03  0.12699999809E+01 0.  1.
</event>
<event>
 5   0  0.2816178E-05  0.2298860E+04  0.7818609E-02  0.8478371E-01
       -2   -1    0    0    0  501  0.00000000000E+00  0.00000000000E+00  0.13877333530E+04  0.13877333530E+04  0.25500000920E-02 0.  1.
        2   -1    0    0  501    0  0.00000000000E+00  0.00000000000E+00 -0.95204809009E+03  0.95204809009E+03  0.25500000920E-02 0. -1.
    10030    2    1    2    0    0  0.00000000000E+00  0.00000000000E+00  0.43568526291E+03  0.23397814431E+04  0.22988596201E+04 0.  0.
        1    1    3    3  502    0 -0.38685105566E+03  0.10252411049E+04  0.57102956216E+03  0.12356568388E+04  0.50400001928E-02 0.  1.
       -1    1    3    3    0  502  0.38685105566E+03 -0.10252411049E+04 -0.13534429925E+03  0.11041246043E+04  0.50400001928E-02 0. -1.
</event>
<event>
 5   0  0.2871888E-05  0.2293108E+04  0.7818609E-02  0.8480644E-01
        2   -1    0    0  501    0  0.00000000000E+00  0.00000000000E+00  0.67339300547E+03  0.67339300547E+03  0.25500000920E-02 0.  1.
       -2   -1    0    0    0  501  0.00000000000E+00  0.00000000000E+00 -0.19521823232E+04  0.19521823232E+04  0.25500000920E-02 0. -1.
    10030    2    1    2    0    0  0.00000000000E+00  0.00000000000E+00 -0.12787893178E+04  0.26255753287E+04  0.22931078665E+04 0.  0.
        3    1    3    3  502    0 -0.18216980392E+02  0.10607063255E+04 -0.14141658019E+03  0.10702468998E+04  0.10100000352E+00 0. -1.
       -3    1    3    3    0  502  0.18216980392E+02 -0.10607063255E+04 -0.11373727376E+04  0.15553284289E+04  0.10100000352E+00 0.  1.
</event>
<event>
 5   0  0.1327820E-05  0.2302534E+04  0.7818609E-02  0.8476923E-01
       -1   -1    0    0    0  501  0.00000000000E+00  0.00000000000E+00  0.70385382863E+03  0.70385382865E+03  0.50400001928E-02 0.  1.
        1   -1    0    0  501    0  0.00000000000E+00  0.00000000000E+00 -0.18830840506E+04  0.18830840506E+04  0.50400001928E-02 0. -1.
    10030    2    1    2    0    0  0.00000000000E+00  0.00000000000E+00 -0.11792302219E+04  0.25869378792E+04  0.23025341853E+04 0.  0.
        1    1    3    3  502    0 -0.81188692457E+03  0.81283955526E+03 -0.50593455318E+03  0.12553239793E+04  0.50400001928E-02 0.  1.
       -1    1    3    3    0  502  0.81188692457E+03 -0.81283955526E+03 -0.67329566877E+03  0.13316138999E+04  0.50400001928E-02 0. -1.
</event>
<event>
 5   0  0.2938972E-05  0.2298539E+04  0.7818609E-02  0.8478497E-01
        2   -1    0    0  501    0  0.00000000000E+00  0.00000000000E+00  0.10704048442E+04  0.10704048442E+04  0.25500000920E-02 0. -1.
       -2   -1    0    0    0  501  0.00000000000E+00  0.00000000000E+00 -0.12339445044E+04  0.12339445044E+04  0.25500000920E-02 0.  1.
    10030    2    1    2    0    0  0.00000000000E+00  0.00000000000E+00 -0.16353966015E+03  0.23043493486E+04  0.22985388184E+04 0.  0.
        2    1    3    3  502    0 -0.39132543056E+03  0.76012690187E+03 -0.85175544490E+03  0.12068205490E+04  0.25500000920E-02 0.  1.
       -2    1    3    3    0  502  0.39132543056E+03 -0.76012690187E+03  0.68821578475E+03  0.10975287996E+04  0.25500000920E-02 0. -1.
</event>
<event>
 5   0  0.1303224E-05  0.2305035E+04  0.7818609E-02  0.8475939E-01
       -1   -1    0    0    0  501  0.00000000000E+00  0.00000000000E+00  0.14101920717E+04  0.14101920717E+04  0.50400001928E-02 0.  1.
        1   -1    0    0  501    0  0.00000000000E+00  0.00000000000E+00 -0.94192586360E+03  0.94192586361E+03  0.50400001928E-02 0. -1.
    10030    2    1    2    0    0  0.00000000000E+00  0.00000000000E+00  0.46826620814E+03  0.23521179354E+04  0.23050348241E+04 0.  0.
        2    1    3    3  502    0  0.11350677789E+04  0.17708930299E+03  0.13974008891E+03  0.11572669426E+04  0.25500000920E-02 0. -1.
       -2    1    3    3    0  502 -0.11350677789E+04 -0.17708930299E+03  0.32852611923E+03  0.11948509928E+04  0.25500000920E-02 0.  1.
</event>
<event>
 5   0  0.2994157E-05  0.2289822E+04  0.7818609E-02  0.8481945E-01
       -2   -1    0    0    0  501  0.00000000000E+00  0.00000000000E+00  0.65681314378E+03  0.65681314379E+03  0.25500000920E-02 0.  1.
        2   -1    0    0  501    0  0.00000000000E+00  0.00000000000E+00 -0.19957294689E+04  0.19957294689E+04  0.25500000920E-02 0. -1.
    10030    2    1    2    0    0  0.00000000000E+00  0.00000000000E+00 -0.13389163251E+04  0.26525426127E+04  0.22898221299E+04 0.  0.
        4    1    3    3  502    0  0.66529859807E+03 -0.87830601992E+03 -0.10298247814E+04  0.15081725307E+04  0.12699999809E+01 0. -1.
       -4    1    3    3    0  502 -0.66529859807E+03  0.87830601992E+03 -0.30909154378E+03  0.11443700820E+04  0.12699999809E+01 0.  1.
</event>
<event>
 5   0  0.2994157E-05  0.2265184E+04  0.7818609E-02  0.8491776E-01
        2   -1    0    0  501    0  0.00000000000E+00  0.00000000000E+00  0.12968801391E+04  0.12968801391E+04  0.25500000920E-02 0. -1.
       -2   -1    0    0    0  501  0.00000000000E+00  0.00000000000E+00 -0.98911601262E+03  0.98911601262E+03  0.25500000920E-02 0.  1.
    10030    2    1    2    0    0  0.00000000000E+00  0.00000000000E+00  0.30776412644E+03  0.22859961517E+04  0.22651842415E+04 0.  0.
        4    1    3    3  502    0  0.11240280927E+04 -0.10807199716E+03  0.65645406512E+02  0.11311187568E+04  0.12699999809E+01 0.  1.
       -4    1    3    3    0  502 -0.11240280927E+04  0.10807199716E+03  0.24211871993E+03  0.11548773949E+04  0.12699999809E+01 0. -1.
</event>
<event>
 5   0  0.1327820E-05  0.2306165E+04  0.7818609E-02  0.8475494E-01
       -1   -1    0    0    0  501  0.00000000000E+00  0.00000000000E+00  0.67610455941E+03  0.67610455943E+03  0.50400001928E-02 0. -1.
        1   -1    0    0  501    0  0.00000000000E+00  0.00000000000E+00 -0.19665586368E+04  0.19665586369E+04  0.50400001928E-02 0.  1.
    10030    2    1    2    0    0  0.00000000000E+00  0.00000000000E+00 -0.12904540774E+04  0.26426631963E+04  0.23061650078E+04 0.  0.
        1    1    3    3  502    0  0.71134897270E+03 -0.67803351449E+03  0.45989453713E+02  0.98379969385E+03  0.50400001928E-02 0. -1.
       -1    1    3    3    0  502 -0.71134897270E+03  0.67803351449E+03 -0.13364435312E+04  0.16588635024E+04  0.50400001928E-02 0.  1.
</event>
<event>
 5   0  0.1371753E-05  0.2365728E+04  0.7818609E-02  0.8452447E-01
        1   -1    0    0  501    0  0.00000000000E+00  0.00000000000E+00  0.81355157887E+03  0.81355157888E+03  0.50400001928E-02 0. -1.
       -1   -1    0    0    0  501  0.00000000000E+00  0.00000000000E+00 -0.17198253930E+04  0.17198253930E+04  0.50400001928E-02 0.  1.
    10030    2    1    2    0    0  0.00000000000E+00  0.00000000000E+00 -0.90627381410E+03  0.25333769719E+04  0.23657275108E+04 0.  0.
        3    1    3    3  502    0 -0.89397470969E+03  0.19192478714E+03 -0.12567436552E+04  0.15541655416E+04  0.10100000352E+00 0.  1.
       -3    1    3    3    0  502  0.89397470969E+03 -0.19192478714E+03  0.35046984111E+03  0.97921143029E+03  0.10100000352E+00 0. -1.
</event>
<event>
 5   0  0.2871888E-05  0.2303515E+04  0.7818609E-02  0.8476537E-01
        2   -1    0    0  501    0  0.00000000000E+00  0.00000000000E+00  0.16956031795E+04  0.16956031795E+04  0.25500000920E-02 0.  1.
       -2   -1    0    0    0  501  0.00000000000E+00  0.00000000000E+00 -0.78234391440E+03  0.78234391440E+03  0.25500000920E-02 0. -1.
    10030    2    1    2    0    0  0.00000000000E+00  0.00000000000E+00  0.91325926515E+03  0.24779470940E+04  0.23035145572E+04 0.  0.
        3    1    3    3  502    0 -0.76587969487E+03 -0.79633178567E+03  0.80657721823E+03  0.13679484051E+04  0.10100000352E+00 0.  1.
       -3    1    3    3    0  502  0.76587969487E+03  0.79633178567E+03  0.10668204691E+03  0.11099986888E+04  0.10100000352E+00 0. -1.
</event>
<event>
 5   0  0.1308224E-05  0.2295848E+04  0.7818609E-02  0.8479560E-01
       -1   -1    0    0    0  501  0.00000000000E+00  0.00000000000E+00  0.11642150201E+04  0.11642150201E+04  0.50400001928E-02 0. -1.
        1   -1    0    0  501    0  0.00000000000E+00  0.00000000000E+00 -0.11318607310E+04  0.11318607310E+04  0.50400001928E-02 0.  1.
    10030    2    1    2    0    0  0.00000000000E+00  0.00000000000E+00  0.32354289107E+02  0.22960757511E+04  0.22958477856E+04 0.  0.
        5    1    3    3  502    0  0.10651724445E+03 -0.10991805939E+04 -0.29716415111E+03  0.11436225444E+04  0.46999998093E+01 0.  1.
       -5    1    3    3    0  502 -0.10651724445E+03  0.10991805939E+04  0.32951844022E+03  0.11524532067E+04  0.46999998093E+01 0. -1.
</event>
<event>
 5   0  0.1284837E-05  0.2310603E+04  0.7818609E-02  0.8473752E-01
       -1   -1    0    0    0  501  0.00000000000E+00  0.00000000000E+00  0.74337865449E+03  0.74337865450E+03  0.50400001928E-02 0. -1.
        1   -1    0    0  501    0  0.00000000000E+00  0.00000000000E+00 -0.17954806374E+04  0.17954806375E+04  0.50400001928E-02 0.  1.
    10030    2    1    2    0    0  0.00000000000E+00  0.00000000000E+00 -0.10521019830E+04  0.25388592920E+04  0.23106033675E+04 0.  0.
        4    1    3    3  502    0 -0.65677820691E+03  0.28047768005E+01  0.51829025184E+03  0.83665517263E+03  0.12699999809E+01 0. -1.
       -4    1    3    3    0  502  0.65677820691E+03 -0.28047768005E+01 -0.15703922348E+04  0.17022041193E+04  0.12699999809E+01 0.  1.
</event>
<event>
 5   0  0.2994157E-05  0.2299687E+04  0.7818609E-02  0.8478044E-01
       -2   -1    0    0    0  501  0.00000000000E+00  0.00000000000E+00  0.10650207651E+04  0.10650207651E+04  0.25500000920E-02 0.  1.
        2   -1    0    0  501    0  0.00000000000E+00  0.00000000000E+00 -0.12414223306E+04  0.12414223306E+04  0.25500000920E-02 0. -1.
    10030    2    1    2    0    0  0.00000000000E+00  0.00000000000E+00 -0.17640156547E+03  0.23064430957E+04  0.22996874226E+04 0.  0.
        4    1    3    3  502    0  0.36203704241E+02 -0.11342561569E+04  0.97522066667E+02  0.11390170780E+04  0.12699999809E+01 0.  1.
       -4    1    3    3    0  502 -0.36203704241E+02  0.11342561569E+04 -0.27392363214E+03  0.11674260177E+04  0.12699999809E+01 0. -1.
</event>
<event>
 5   0  0.2816178E-05  0.2287959E+04  0.7818609E-02  0.8482684E-01
        2   -1    0    0  501    0  0.00000000000E+00  0.00000000000E+00  0.15394379796E+04  0.15394379796E+04  0.25500000920E-02 0. -1.
       -2   -1    0    0    0  501  0.00000000000E+00  0.00000000000E+00 -0.85010800137E+03  0.85010800137E+03  0.25500000920E-02 0.  1.
    10030    2    1    2    0    0  0.00000000000E+00  0.00000000000E+00  0.68932997823E+03  0.23895459810E+04  0.22879585172E+04 0.  0.
        1    1    3    3  502    0 -0.65854650563E+03  0.48910376208E+02  0.13202790260E+04  0.14762155775E+04  0.50400001928E-02 0. -1.
       -1    1    3    3    0  502  0.65854650563E+03 -0.48910376208E+02 -0.63094904772E+03  0.91333040343E+03  0.50400001928E-02 0.  1.
</event>
<event>
 5   0  0.1303224E-05  0.2297681E+04  0.7818609E-02  0.8478836E-01
       -1   -1    0    0    0  501  0.00000000000E+00  0.00000000000E+00  0.13754269938E+04  0.13754269938E+04  0.50400001928E-02 0.  1.
        1   -1    0    0  501    0  0.00000000000E+00  0.00000000000E+00 -0.95958196780E+03  0.95958196781E+03  0.50400001928E-02 0. -1.
    10030    2    1    2    0    0  0.00000000000E+00  0.00000000000E+00  0.41584502597E+03  0.23350089616E+04  0.22976813889E+04 0.  0.
        2    1    3    3  502    0 -0.13187161305E+03 -0.29359875633E+03 -0.91282866961E+03  0.96790832836E+03  0.25500000920E-02 0. -1.
       -2    1    3    3    0  502  0.13187161305E+03  0.29359875633E+03  0.13286736956E+04  0.13671006332E+04  0.25500000920E-02 0.  1.
</event>
<event>
 5   0  0.2938972E-05  0.2291526E+04  0.7818609E-02  0.8481270E-01
        2   -1    0    0  501    0  0.00000000000E+00  0.00000000000E+00  0.17959188289E+04  0.17959188289E+04  0.25500000920E-02 0. -1.
       -2   -1    0    0    0  501  0.00000000000E+00  0.00000000000E+00 -0.73097552484E+03  0.73097552485E+03  0.25500000920E-02 0.  1.
    10030    2    1    2    0    0  0.00000000000E+00  0.00000000000E+00  0.10649433040E+04  0.25268943537E+04  0.22915258746E+04 0.  0.
        2    1    3    3  502    0 -0.11230197191E+04  0.30060151196E+01  0.78293644944E+03  0.13690039480E+04  0.25500000920E-02 0. -1.
       -2    1    3    3    0  502  0.11230197191E+04 -0.30060151196E+01  0.28200685459E+03  0.11578904058E+04  0.25500000920E-02 0.  1.
</event>
<event>
 5   0  0.2816178E-05  0.2301372E+04  0.7818609E-02  0.8477381E-01
       -2   -1    0    0    0  501  0.00000000000E+00  0.00000000000E+00  0.10103870308E+04  0.10103870308E+04  0.25500000920E-02 0. -1.
        2   -1    0    0  501    0  0.00000000000E+00  0.00000000000E+00 -0.13104658766E+04  0.13104658766E+04  0.25500000920E-02 0.  1.
    10030    2    1    2    0    0  0.00000000000E+00  0.00000000000E+00 -0.30007884572E+03  0.23208529074E+04  0.23013715268E+04 0.  0.
        1    1    3    3  502    0  0.16447748110E+03 -0.56101900970E+03  0.84945205701E+03  0.10311954074E+04  0.50400001928E-02 0. -1.
       -1    1    3    3    0  502 -0.16447748110E+03  0.56101900970E+03 -0.11495309027E+04  0.12896575000E+04  0.50400001928E-02 0.  1.
</event>
<event>
 5   0  0.2871888E-05  0.2384426E+04  0.7818609E-02  0.8445357E-01
       -2   -1    0    0    0  501  0.00000000000E+00  0.00000000000E+00  0.94358175639E+03  0.94358175640E+03  0.25500000920E-02 0. -1.
        2   -1    0    0  501    0  0.00000000000E+00  0.00000000000E+00 -0.15063573526E+04  0.15063573526E+04  0.25500000920E-02 0.  1.
    10030    2    1    2    0    0  0.00000000000E+00  0.00000000000E+00 -0.56277559617E+03  0.24499391090E+04  0.23844255631E+04 0.  0.
        3    1    3    3  502    0  0.27982241904E+03  0.10971627261E+04  0.10210248403E+03  0.11368779887E+04  0.10100000352E+00 0. -1.
       -3    1    3    3    0  502 -0.27982241904E+03 -0.10971627261E+04 -0.66487808021E+03  0.13130611203E+04  0.10100000352E+00 0.  1.
</event>
<event>
 5   0  0.2938972E-05  0.2303578E+04  0.7818609E-02  0.8476512E-01
        2   -1    0    0  501    0  0.00000000000E+00  0.00000000000E+00  0.16622422258E+04  0.16622422258E+04  0.25500000920E-02 0.  1.
       -2   -1    0    0    0  501  0.00000000000E+00  0.00000000000E+00 -0.79808916962E+03  0.79808916963E+03  0.25500000920E-02 0. -1.
    10030    2    1    2    0    0  0.00000000000E+00  0.00000000000E+00  0.86415305613E+03  0.24603313954E+04  0.23035776676E+04 0.  0.
        2    1    3    3  502    0 -0.32286355385E+03 -0.10896621134E+04  0.63192745471E+03  0.13003602208E+04  0.25500000920E-02 0. -1.
       -2    1    3    3    0  502  0.32286355385E+03  0.10896621134E+04  0.23222560142E+03  0.11599711746E+04  0.25500000920E-02 0.  1.
</event>
<event>
 5   0  0.1308224E-05  0.2287743E+04  0.7818609E-02  0.8482769E-01
        1   -1    0    0  501    0  0.00000000000E+00  0.00000000000E+00  0.20464082320E+04  0.20464082320E+04  0.50400001928E-02 0. -1.
       -1   -1    0    0    0  501  0.00000000000E+00  0.00000000000E+00 -0.63938487724E+03  0.63938487726E+03  0.50400001928E-02 0.  1.
    10030    2    1    2    0    0  0.00000000000E+00  0.00000000000E+00  0.14070233548E+04  0.26857931093E+04  0.22877434089E+04 0.  0.
        5    1    3    3  502    0 -0.69245684597E+03  0.24033523569E+03 -0.32743997719E+03  0.80280541709E+03  0.46999998093E+01 0.  1.
       -5    1    3    3    0  502  0.69245684597E+03 -0.24033523569E+03  0.17344633320E+04  0.18829876922E+04  0.46999998093E+01 0. -1.
</event>
<event>
 5   0  0.2994157E-05  0.2309870E+04  0.7818609E-02  0.8474040E-01
       -2   -1    0    0    0  501  0.00000000000E+00  0.00000000000E+00  0.15395334554E+04  0.15395334554E+04  0.25500000920E-02 0. -1.
        2   -1    0    0  501    0  0.00000000000E+00  0.00000000000E+00 -0.86641487817E+03  0.86641487817E+03  0.25500000920E-02 0.  1.
    10030    2    1    2    0    0  0.00000000000E+00  0.00000000000E+00  0.67311857726E+03  0.24059483336E+04  0.23098698589E+04 0.  0.
        4    1    3    3  502    0  0.23379186864E+03 -0.10550064216E+04 -0.88043451965E+02  0.10841819265E+04  0.12699999809E+01 0.  1.
       -4    1    3    3    0  502 -0.23379186864E+03  0.10550064216E+04  0.76116202922E+03  0.13217664071E+04  0.12699999809E+01 0. -1.
</event>
<event>
 5   0  0.1371753E-05  0.2235877E+04  0.7818609E-02  0.8503642E-01
       -1   -1    0    0    0  501  0.00000000000E+00  0.00000000000E+00  0.56627773664E+03  0.56627773666E+03  0.50400001928E-02 0. -1.
        1   -1    0    0  501    0  0.00000000000E+00  0.00000000000E+00 -0.22070201784E+04  0.22070201784E+04  0.50400001928E-02 0.  1.
    10030    2    1    2    0    0  0.00000000000E+00  0.00000000000E+00 -0.16407424417E+04  0.27732979150E+04  0.22358769120E+04 0.  0.
        3    1    3    3  502    0 -0.22169086126E+03  0.36303133699E+03 -0.21027211906E+04  0.21453146635E+04  0.10100000352E+00 0.  1.
       -3    1    3    3    0  502  0.22169086126E+03 -0.36303133699E+03  0.46197874890E+03  0.62798325156E+03  0.10100000352E+00 0. -1.
</event>
<event>
 5   0  0.1371753E-05  0.2273828E+04  0.7818609E-02  0.8488312E-01
       -1   -1    0    0    0  501  0.00000000000E+00  0.00000000000E+00  0.14239584887E+04  0.14239584888E+04  0.50400001928E-02 0.  1.
        1   -1    0    0  501    0  0.00000000000E+00  0.00000000000E+00 -0.90773286719E+03  0.90773286720E+03  0.50400001928E-02 0. -1.
    10030    2    1    2    0    0  0.00000000000E+00  0.00000000000E+00  0.51622562155E+03  0.23316913560E+04  0.22738284208E+04 0.  0.
        3    1    3    3  502    0  0.11445244158E+03 -0.63626430553E+03 -0.70090927034E+03  0.95352264961E+03  0.10100000352E+00 0. -1.
       -3    1    3    3    0  502 -0.11445244158E+03  0.63626430553E+03  0.12171348919E+04  0.13781687063E+04  0.10100000352E+00 0.  1.
</event>
<event>
 5   0  0.2871888E-05  0.2289079E+04  0.7818609E-02  0.8482240E-01
        2   -1    0    0  501    0  0.00000000000E+00  0.00000000000E+00  0.15654183142E+04  0.15654183142E+04  0.25500000920E-02 0. -1.
       -2   -1    0    0    0  501  0.00000000000E+00  0.00000000000E+00 -0.83681799155E+03  0.83681799155E+03  0.25500000920E-02 0.  1.
    10030    2    1    2    0    0  0.00000000000E+00  0.00000000000E+00  0.72860032263E+03  0.24022363057E+04  0.22890786003E+04 0.  0.
        3    1    3    3  502    0 -0.98488458991E+03  0.41767141727E+03  0.79125738674E+03  0.13306146439E+04  0.10100000352E+00 0. -1.
       -3    1    3    3    0  502  0.98488458991E+03 -0.41767141727E+03 -0.62657064110E+02  0.10716216618E+04  0.10100000352E+00 0.  1.
</event>
<event>
 5   0  0.1017200E-05  0.2303380E+04  0.7818609E-02  0.8476590E-01
        3   -1    0    0  501    0  0.00000000000E+00  0.00000000000E+00  0.14225692379E+04  0.14225692415E+04  0.10100000352E+00 0. -1.
       -3   -1    0    0    0  501  0.00000000000E+00  0.00000000000E+00 -0.93239015853E+03  0.93239016400E+03  0.10100000352E+00 0.  1.
    10030    2    1    2    0    0  0.00000000000E+00  0.00000000000E+00  0.49017907941E+03  0.23549594055E+04  0.23033797498E+04 0.  0.
        5    1    3    3  502    0  0.89032024654E+03  0.49875126196E+03  0.79084492739E+03  0.12910773609E+04  0.46999998093E+01 0. -1.
       -5    1    3    3    0  502 -0.89032024654E+03 -0.49875126196E+03 -0.30066584797E+03  0.10638820446E+04  0.46999998093E+01 0.  1.
</event>
<event>
 5   0  0.1371753E-05  0.2287883E+04  0.7818609E-02  0.8482714E-01
       -1   -1    0    0    0  501  0.00000000000E+00  0.00000000000E+00  0.80116026018E+03  0.80116026020E+03  0.50400001928E-02 0. -1.
        1   -1    0    0  501    0  0.00000000000E+00  0.00000000000E+00 -0.16333842980E+04  0.16333842980E+04  0.50400001928E-02 0.  1.
    10030    2    1    2    0    0  0.00000000000E+00  0.00000000000E+00 -0.83222403784E+03  0.24345445582E+04  0.22878833792E+04 0.  0.
        3    1    3    3  502    0  0.39446893038E+03 -0.11567421367E+02 -0.15586554082E+04  0.16078389950E+04  0.10100000352E+00 0.  1.
       -3    1    3    3    0  502 -0.39446893038E+03  0.11567421367E+02  0.72643137032E+03  0.82670556322E+03  0.10100000352E+00 0. -1.
</event>
<event>
 5   0  0.1284837E-05  0.2309413E+04  0.7818609E-02  0.8474219E-01
        1   -1    0    0  501    0  0.00000000000E+00  0.00000000000E+00  0.10147542776E+04  0.10147542776E+04  0.50400001928E-02 0. -1.
       -1   -1    0    0    0  501  0.00000000000E+00  0.00000000000E+00 -0.13139606777E+04  0.13139606777E+04  0.50400001928E-02 0.  1.
    10030    2    1    2    0    0  0.00000000000E+00  0.00000000000E+00 -0.29920640012E+03  0.23287149553E+04  0.23094131015E+04 0.  0.
        4    1    3    3  502    0  0.83732197043E+03  0.44151924881E+02 -0.95014547572E+03  0.12672156535E+04  0.12699999809E+01 0.  1.
       -4    1    3    3    0  502 -0.83732197043E+03 -0.44151924881E+02  0.65093907560E+03  0.10614993018E+04  0.12699999809E+01 0. -1.
</event>
<event>
 5   0  0.1308224E-05  0.2303983E+04  0.7818609E-02  0.8476352E-01
        1   -1    0    0  501    0  0.00000000000E+00  0.00000000000E+00  0.61551177914E+03  0.61551177916E+03  0.50400001928E-02 0. -1.
       -1   -1    0    0    0  501  0.00000000000E+00  0.00000000000E+00 -0.21560668904E+04  0.21560668904E+04  0.50400001928E-02 0.  1.
    10030    2    1    2    0    0  0.00000000000E+00  0.00000000000E+00 -0.15405551112E+04  0.27715786696E+04  0.23039831316E+04 0.  0.
        5    1    3    3  502    0 -0.65787044285E+03 -0.31091620268E+02 -0.19072426553E+04  0.20177603536E+04  0.46999998093E+01 0.  1.
       -5    1    3    3    0  502  0.65787044285E+03  0.31091620268E+02  0.36668754408E+03  0.75381831592E+03  0.46999998093E+01 0. -1.
</event>
<event>
 5   0  0.1284837E-05  0.2301447E+04  0.7818609E-02  0.8477351E-01
        1   -1    0    0  501    0  0.00000000000E+00  0.00000000000E+00  0.23959663229E+04  0.23959663229E+04  0.50400001928E-02 0.  1.
       -1   -1    0    0    0  501  0.00000000000E+00  0.00000000000E+00 -0.55266395621E+03  0.55266395624E+03  0.50400001928E-02 0. -1.
    10030    2    1    2    0    0  0.00000000000E+00  0.00000000000E+00  0.18433023667E+04  0.29486302792E+04  0.23014466989E+04 0.  0.
        4    1    3    3  502    0  0.37462717719E+03 -0.10870688072E+04  0.98034251279E+03  0.15110053504E+04  0.12699999809E+01 0. -1.
       -4    1    3    3    0  502 -0.37462717719E+03  0.10870688072E+04  0.86295985391E+03  0.14376249288E+04  0.12699999809E+01 0.  1.
</event>
<event>
 5   0  0.2871888E-05  0.2288593E+04  0.7818609E-02  0.8482432E-01
        2   -1    0    0  501    0  0.00000000000E+00  0.00000000000E+00  0.13410560798E+04  0.13410560798E+04  0.25500000920E-02 0. -1.
       -2   -1    0    0    0  501  0.00000000000E+00  0.00000000000E+00 -0.97640526409E+03  0.97640526409E+03  0.25500000920E-02 0.  1.
    10030    2    1    2    0    0  0.00000000000E+00  0.00000000000E+00  0.36465081567E+03  0.23174613439E+04  0.22885927691E+04 0.  0.
        3    1    3    3  502    0  0.27237388178E+03 -0.93017663849E+03 -0.43362212698E+03  0.10618117863E+04  0.10100000352E+00 0.  1.
       -3    1    3    3    0  502 -0.27237388178E+03  0.93017663849E+03  0.79827294265E+03  0.12556495576E+04  0.10100000352E+00 0. -1.
</event>
<event>
 5   0  0.1327820E-05  0.2296086E+04  0.7818609E-02  0.8479466E-01
       -1   -1    0    0    0  501  0.00000000000E+00  0.00000000000E+00  0.71745465071E+03  0.71745465073E+03  0.50400001928E-02 0. -1.
        1   -1    0    0  501    0  0.00000000000E+00  0.00000000000E+00 -0.18370544998E+04  0.18370544998E+04  0.50400001928E-02 0.  1.
    10030    2    1    2    0    0  0.00000000000E+00  0.00000000000E+00 -0.11195998491E+04  0.25545091505E+04  0.22960864919E+04 0.  0.
        1    1    3    3  502    0 -0.57424382073E+03  0.84326362007E+03  0.25906023795E+02  0.10205491760E+04  0.50400001928E-02 0. -1.
       -1    1    3    3    0  502  0.57424382073E+03 -0.84326362007E+03 -0.11455058729E+04  0.15339599745E+04  0.50400001928E-02 0.  1.
</event>
<event>
 5   0  0.2871888E-05  0.2310222E+04  0.7818609E-02  0.8473902E-01
        2   -1    0    0  501    0  0.00000000000E+00  0.00000000000E+00  0.12252565080E+04  0.12252565080E+04  0.25500000920E-02 0. -1.
       -2   -1    0    0    0  501  0.00000000000E+00  0.00000000000E+00 -0.10889814354E+04  0.10889814354E+04  0.25500000920E-02 0.  1.
    10030    2    1    2    0    0  0.00000000000E+00  0.00000000000E+00  0.13627507258E+03  0.23142379434E+04  0.23102221459E+04 0.  0.
        3    1    3    3  502    0  0.16434998107E+03 -0.52532117509E+03 -0.94916125713E+03  0.10972148174E+04  0.10100000352E+00 0.  1.
       -3    1    3    3    0  502 -0.16434998107E+03  0.52532117509E+03  0.10854363297E+04  0.12170231260E+04  0.10100000352E+00 0. -1.
</event>
<event>
 5   0  0.2994157E-05  0.2299510E+04  0.7818609E-02  0.8478114E-01
       -2   -1    0    0    0  501  0.00000000000E+00  0.00000000000E+00  0.12333991394E+04  0.12333991394E+04  0.25500000920E-02 0.  1.
        2   -1    0    0  501    0  0.00000000000E+00  0.00000000000E+00 -0.10717837005E+04  0.10717837006E+04  0.25500000920E-02 0. -1.
    10030    2    1    2    0    0  0.00000000000E+00  0.00000000000E+00  0.16161543881E+03  0.23051828399E+04  0.22995104643E+04 0.  0.
        4    1    3    3  502    0  0.19298078500E+03  0.78315637530E+03  0.90219451202E+03  0.12101785166E+04  0.12699999809E+01 0.  1.
       -4    1    3    3    0  502 -0.19298078500E+03 -0.78315637530E+03 -0.74057907321E+03  0.10950043233E+04  0.12699999809E+01 0. -1.
</event>
<event>
 5   0  0.1284837E-05  0.2257150E+04  0.7818609E-02  0.8495010E-01
        1   -1    0    0  501    0  0.00000000000E+00  0.00000000000E+00  0.14045037474E+04  0.14045037474E+04  0.50400001928E-02 0. -1.
       -1   -1    0    0    0  501  0.00000000000E+00  0.00000000000E+00 -0.90685557991E+03  0.90685557993E+03  0.50400001928E-02 0.  1.
    10030    2    1    2    0    0  0.00000000000E+00  0.00000000000E+00  0.49764816749E+03  0.23113593273E+04  0.22571504694E+04 0.  0.
        4    1    3    3  502    0 -0.20792943472E+03 -0.27779761097E+03 -0.85087347117E+03  0.91890883080E+03  0.12699999809E+01 0.  1.
       -4    1    3    3    0  502  0.20792943472E+03  0.27779761097E+03  0.13485216387E+04  0.13924504965E+04  0.12699999809E+01 0. -1.
</event>
<event>
 5   0  0.1327820E-05  0.2250468E+04  0.7818609E-02  0.8497711E-01
        1   -1    0    0  501    0  0.00000000000E+00  0.00000000000E+00  0.97919635393E+03  0.97919635394E+03  0.50400001928E-02 0.  1.
       -1   -1    0    0    0  501  0.00000000000E+00  0.00000000000E+00 -0.12930517044E+04  0.12930517044E+04  0.50400001928E-02 0. -1.
    10030    2    1    2    0    0  0.00000000000E+00  0.00000000000E+00 -0.31385535043E+03  0.22722480583E+04  0.22504679641E+04 0.  0.
        1    1    3    3  502    0  0.70699811906E+03  0.30328358079E+03 -0.98604748734E+03  0.12506466000E+04  0.50400001928E-02 0. -1.
       -1    1    3    3    0  502 -0.70699811906E+03 -0.30328358079E+03  0.67219213691E+03  0.10216014583E+04  0.50400001928E-02 0.  1.
</event>
<event>
 5   0  0.2938972E-05  0.2319696E+04  0.7818609E-02  0.8470196E-01
        2   -1    0    0  501    0  0.00000000000E+00  0.00000000000E+00  0.13425840782E+04  0.13425840782E+04  0.25500000920E-02 0.  1.
       -2   -1    0    0    0  501  0.00000000000E+00  0.00000000000E+00 -0.10019833796E+04  0.10019833796E+04  0.25500000920E-02 0. -1.
    10030    2    1    2    0    0  0.00000000000E+00  0.00000000000E+00  0.34060069862E+03  0.23445674577E+04  0.23196956111E+04 0.  0.
        2    1    3    3  502    0 -0.93871497032E+03 -0.27919847135E+03  0.79833975117E+03  0.12635204550E+04  0.25500000920E-02 0.  1.
       -2    1    3    3    0  502  0.93871497032E+03  0.27919847135E+03 -0.45773905255E+03  0.10810470027E+04  0.25500000920E-02 0. -1.
</event>
<event>
 5   0  0.2871888E-05  0.2262783E+04  0.7818609E-02  0.8492742E-01
       -2   -1    0    0    0  501  0.00000000000E+00  0.00000000000E+00  0.55809872909E+03  0.55809872910E+03  0.25500000920E-02 0.  1.
        2   -1    0    0  501    0  0.00000000000E+00  0.00000000000E+00 -0.22935844023E+04  0.22935844023E+04  0.25500000920E-02 0. -1.
    10030    2    1    2    0    0  0.00000000000E+00  0.00000000000E+00 -0.17354856732E+04  0.28516831314E+04  0.22627828353E+04 0.  0.
        3    1    3    3  502    0 -0.10901370000E+04 -0.30097285631E+03 -0.82665020156E+03  0.14008332895E+04  0.10100000352E+00 0.  1.
       -3    1    3    3    0  502  0.10901370000E+04  0.30097285631E+03 -0.90883547160E+03  0.14508498419E+04  0.10100000352E+00 0. -1.
</event>
<event>
 5   0  0.1284837E-05  0.2286631E+04  0.7818609E-02  0.8483211E-01
        1   -1    0    0  501    0  0.00000000000E+00  0.00000000000E+00  0.16780058821E+04  0.16780058821E+04  0.50400001928E-02 0.  1.
       -1   -1    0    0    0  501  0.00000000000E+00  0.00000000000E+00 -0.77900215998E+03  0.77900216000E+03  0.50400001928E-02 0. -1.
    10030    2    1    2    0    0  0.00000000000E+00  0.00000000000E+00  0.89900372212E+03  0.24570080421E+04  0.22866308899E+04 0.  0.
        4    1    3    3  502    0  0.10592358865E+04 -0.69090593630E+02 -0.68986643946E+01  0.10615099518E+04  0.12699999809E+01 0. -1.
       -4    1    3    3    0  502 -0.10592358865E+04  0.69090593630E+02  0.90590238651E+03  0.13954980903E+04  0.12699999809E+01 0.  1.
</event>
<event>
 5   0  0.1303224E-05  0.2299927E+04  0.7818609E-02  0.8477950E-01
        1   -1    0    0  501    0  0.00000000000E+00  0.00000000000E+00  0.21341119501E+04  0.21341119501E+04  0.50400001928E-02 0. -1.
       -1   -1    0    0    0  501  0.00000000000E+00  0.00000000000E+00 -0.61965649109E+03  0.61965649111E+03  0.50400001928E-02 0.  1.
    10030    2    1    2    0    0  0.00000000000E+00  0.00000000000E+00  0.15144554590E+04  0.27537684412E+04  0.22999272359E+04 0.  0.
        2    1    3    3  502    0  0.97978194414E+03 -0.60199861736E+03  0.74953036393E+03  0.13726509971E+04  0.25500000920E-02 0.  1.
       -2    1    3    3    0  502 -0.97978194414E+03  0.60199861736E+03  0.76492509508E+03  0.13811174441E+04  0.25500000920E-02 0. -1.
</event>
<event>
 5   0  0.1327820E-05  0.2305123E+04  0.7818609E-02  0.8475904E-01
       -1   -1    0    0    0  501  0.00000000000E+00  0.00000000000E+00  0.12694526275E+04  0.12694526275E+04  0.50400001928E-02 0.  1.
        1   -1    0    0  501    0  0.00000000000E+00  0.00000000000E+00 -0.10464340180E+04  0.10464340180E+04  0.50400001928E-02 0. -1.
    10030    2    1    2    0    0  0.00000000000E+00  0.00000000000E+00  0.22301860948E+03  0.23158866455E+04  0.23051233492E+04 0.  0.
        1    1    3    3  502    0 -0.77551214500E+02 -0.14195802534E+03  0.12579915508E+04  0.12683489321E+04  0.50400001928E-02 0.  1.
       -1    1    3    3    0  502  0.77551214500E+02  0.14195802534E+03 -0.10349729413E+04  0.10475377134E+04  0.50400001928E-02 0. -1.
</event>
<event>
 5   0  0.2938972E-05  0.2303485E+04  0.7818609E-02  0.8476548E-01
       -2   -1    0    0    0  501  0.00000000000E+00  0.00000000000E+00  0.15376904773E+04  0.15376904773E+04  0.25500000920E-02 0.  1.
        2   -1    0    0  501    0  0.00000000000E+00  0.00000000000E+00 -0.86266430608E+03  0.86266430608E+03  0.25500000920E-02 0. -1.
    10030    2    1    2    0    0  0.00000000000E+00  0.00000000000E+00  0.67502617118E+03  0.24003547833E+04  0.23034849151E+04 0.  0.
        2    1    3    3  502    0  0.42307491548E+03  0.94914485062E+03  0.85502922172E+03  0.13457129343E+04  0.25500000920E-02 0. -1.
       -2    1    3    3    0  502 -0.42307491548E+03 -0.94914485062E+03 -0.18000305053E+03  0.10546418490E+04  0.25500000920E-02 0.  1.
</event>
<event>
 5   0  0.1308224E-05  0.2310679E+04  0.7818609E-02  0.8473723E-01
        1   -1    0    0  501    0  0.00000000000E+00  0.00000000000E+00  0.14374928171E+04  0.14374928171E+04  0.50400001928E-02 0.  1.
       -1   -1    0    0    0  501  0.00000000000E+00  0.00000000000E+00 -0.92856741208E+03  0.92856741210E+03  0.50400001928E-02 0. -1.
    10030    2    1    2    0    0  0.00000000000E+00  0.00000000000E+00  0.50892540498E+03  0.23660602292E+04  0.23106786752E+04 0.  0.
        5    1    3    3  502    0  0.84097370853E+03  0.27107810750E+03  0.10166598056E+04  0.13469741531E+04  0.46999998093E+01 0.  1.
       -5    1    3    3    0  502 -0.84097370853E+03 -0.27107810750E+03 -0.50773440064E+03  0.10190860760E+04  0.46999998093E+01 0. -1.
</event>
<event>
 5   0  0.1371753E-05  0.2267092E+04  0.7818609E-02  0.8491011E-01
        1   -1    0    0  501    0  0.00000000000E+00  0.00000000000E+00  0.13208179287E+04  0.13208179287E+04  0.50400001928E-02 0.  1.
       -1   -1    0    0    0  501  0.00000000000E+00  0.00000000000E+00 -0.97282600020E+03  0.97282600022E+03  0.50400001928E-02 0. -1.
    10030    2    1    2    0    0  0.00000000000E+00  0.00000000000E+00  0.34799192850E+03  0.22936439289E+04  0.22670915488E+04 0.  0.
        3    1    3    3  502    0  0.10549133131E+04  0.41233851409E+03  0.21992439645E+03  0.11537902316E+04  0.10100000352E+00 0.  1.
       -3    1    3    3    0  502 -0.10549133131E+04 -0.41233851409E+03  0.12806753205E+03  0.11398536973E+04  0.10100000352E+00 0. -1.
</event>
<event>
 5   0  0.2871888E-05  0.2112548E+04  0.7818609E-02  0.8555736E-01
        2   -1    0    0  501    0  0.00000000000E+00  0.00000000000E+00  0.12872003649E+04  0.12872003649E+04  0.25500000920E-02 0.  1.
       -2   -1    0    0    0  501  0.00000000000E+00  0.00000000000E+00 -0.86677612940E+03  0.86677612941E+03  0.25500000920E-02 0. -1.
    10030    2    1    2    0    0  0.00000000000E+00  0.00000000000E+00  0.42042423553E+03  0.21539764943E+04  0.21125477984E+04 0.  0.
        3    1    3    3  502    0  0.79004953156E+03  0.43428392640E+03  0.77139994906E+03  0.11865237809E+04  0.10100000352E+00 0.  1.
       -3    1    3    3    0  502 -0.79004953156E+03 -0.43428392640E+03 -0.35097571353E+03  0.96745271344E+03  0.10100000352E+00 0. -1.
</event>
<event>
 5   0  0.2871888E-05  0.2303963E+04  0.7818609E-02  0.8476360E-01
       -2   -1    0    0    0  501  0.00000000000E+00  0.00000000000E+00  0.10185468290E+04  0.10185468290E+04  0.25500000920E-02 0.  1.
        2   -1    0    0  501    0  0.00000000000E+00  0.00000000000E+00 -0.13028968529E+04  0.13028968529E+04  0.25500000920E-02 0. -1.
    10030    2    1    2    0    0  0.00000000000E+00  0.00000000000E+00 -0.28435002396E+03  0.23214436819E+04  0.23039630709E+04 0.  0.
        3    1    3    3  502    0  0.11325466988E+03  0.40703843615E+03  0.93766259831E+03  0.10284542125E+04  0.10100000352E+00 0.  1.
       -3    1    3    3    0  502 -0.11325466988E+03 -0.40703843615E+03 -0.12220126223E+04  0.12929894694E+04  0.10100000352E+00 0. -1.
</event>
<event>
 5   0  0.1327820E-05  0.2315073E+04  0.7818609E-02  0.8472002E-01
       -1   -1    0    0    0  501  0.00000000000E+00  0.00000000000E+00  0.11716741207E+04  0.11716741208E+04  0.50400001928E-02 0. -1.
        1   -1    0    0  501    0  0.00000000000E+00  0.00000000000E+00 -0.11435694704E+04  0.11435694704E+04  0.50400001928E-02 0.  1.
    10030    2    1    2    0    0  0.00000000000E+00  0.00000000000E+00  0.28104650312E+02  0.23152435912E+04  0.23150730043E+04 0.  0.
        1    1    3    3  502    0 -0.11275691998E+04  0.20566684612E+03  0.17586536602E+03  0.11595860377E+04  0.50400001928E-02 0. -1.
       -1    1    3    3    0  502  0.11275691998E+04 -0.20566684612E+03 -0.14776071571E+03  0.11556575535E+04  0.50400001928E-02 0.  1.
</event>
<event>
 5   0  0.2816178E-05  0.2349780E+04  0.7818609E-02  0.8458548E-01
        2   -1    0    0  501    0  0.00000000000E+00  0.00000000000E+00  0.16627632032E+04  0.16627632032E+04  0.25500000920E-02 0.  1.
       -2   -1    0    0    0  501  0.00000000000E+00  0.00000000000E+00 -0.83016446473E+03  0.83016446473E+03  0.25500000920E-02 0. -1.
    10030    2    1    2    0    0  0.00000000000E+00  0.00000000000E+00  0.83259873846E+03  0.24929276679E+04  0.23497803511E+04 0.  0.
        1    1    3    3  502    0  0.12673547073E+03  0.20473930928E+03  0.16363045429E+04  0.16539264257E+04  0.50400001928E-02 0.  1.
       -1    1    3    3    0  502 -0.12673547073E+03 -0.20473930928E+03 -0.80370580448E+03  0.83900124224E+03  0.50400001928E-02 0. -1.
</event>
<event>
 5   0  0.1303224E-05  0.2428366E+04  0.7818609E-02  0.8428959E-01
        1   -1    0    0  501    0  0.00000000000E+00  0.00000000000E+00  0.12244464852E+04  0.12244464852E+04  0.50400001928E-02 0.  1.
       -1   -1    0    0    0  501  0.00000000000E+00  0.00000000000E+00 -0.12040058616E+04  0.12040058616E+04  0.50400001928E-02 0. -1.
    10030    2    1    2    0    0  0.00000000000E+00  0.00000000000E+00  0.20440623592E+02  0.24284523467E+04  0.24283663194E+04 0.  0.
        2    1    3    3  502    0  0.94691898094E+02  0.11011214287E+04 -0.49259546084E+03  0.12099939026E+04  0.25500000920E-02 0. -1.
       -2    1    3    3    0  502 -0.94691898094E+02 -0.11011214287E+04  0.51303608443E+03  0.12184584442E+04  0.25500000920E-02 0.  1.
</event>
<event>
 5   0  0.1327820E-05  0.2319844E+04  0.7818609E-02  0.8470138E-01
       -1   -1    0    0    0  501  0.00000000000E+00  0.00000000000E+00  0.11283438900E+04  0.11283438900E+04  0.50400001928E-02 0.  1.
        1   -1    0    0  501    0  0.00000000000E+00  0.00000000000E+00 -0.11923835454E+04  0.11923835454E+04  0.50400001928E-02 0. -1.
    10030    2    1    2    0    0  0.00000000000E+00  0.00000000000E+00 -0.64039655427E+02  0.23207274354E+04  0.23198436913E+04 0.  0.
        1    1    3    3  502    0  0.31557593054E+03  0.10564511554E+04 -0.39235348579E+03  0.11703069979E+04  0.50400001928E-02 0.  1.
       -1    1    3    3    0  502 -0.31557593054E+03 -0.10564511554E+04  0.32831383036E+03  0.11504204374E+04  0.50400001928E-02 0. -1.
</event>
<event>
 5   0  0.1017200E-05  0.2299557E+04  0.7818609E-02  0.8478096E-01
       -4   -1    0    0    0  501  0.00000000000E+00  0.00000000000E+00  0.88396116116E+03  0.88396207347E+03  0.12699999809E+01 0.  1.
        4   -1    0    0  501    0  0.00000000000E+00  0.00000000000E+00 -0.14955282819E+04  0.14955288211E+04  0.12699999809E+01 0. -1.
    10030    2    1    2    0    0  0.00000000000E+00  0.00000000000E+00 -0.61156712072E+03  0.23794908946E+04  0.22995570387E+04 0.  0.
        4    1    3    3  502    0 -0.40243968942E+03  0.16249948639E+03 -0.14075121389E+04  0.14729072682E+04  0.12699999809E+01 0. -1.
       -4    1    3    3    0  502  0.40243968942E+03 -0.16249948639E+03  0.79594501820E+03  0.90658362636E+03  0.12699999809E+01 0.  1.
</event>
<event>
 5   0  0.2816178E-05  0.2291369E+04  0.7818609E-02  0.8481332E-01
        2   -1    0    0  501    0  0.00000000000E+00  0.00000000000E+00  0.23475044343E+04  0.23475044343E+04  0.25500000920E-02 0. -1.
       -2   -1    0    0    0  501  0.00000000000E+00  0.00000000000E+00 -0.55914375031E+03  0.55914375032E+03  0.25500000920E-02 0.  1.
    10030    2    1    2    0    0  0.00000000000E+00  0.00000000000E+00  0.17883606840E+04  0.29066481846E+04  0.22913685284E+04 0.  0.
        1    1    3    3  502    0  0.36454846923E+03 -0.59454759099E+03 -0.25885534948E+03  0.74390087804E+03  0.50400001928E-02 0.  1.
       -1    1    3    3    0  502 -0.36454846923E+03  0.59454759099E+03  0.20472160334E+04  0.21627473065E+04  0.50400001928E-02 0. -1.
</event>
<event>
 5   0  0.1303224E-05  0.2309620E+04  0.7818609E-02  0.8474138E-01
        1   -1    0    0  501    0  0.00000000000E+00  0.00000000000E+00  0.19857264623E+04  0.19857264623E+04  0.50400001928E-02 0. -1.
       -1   -1    0    0    0  501  0.00000000000E+00  0.00000000000E+00 -0.67158629100E+03  0.67158629102E+03  0.50400001928E-02 0.  1.
    10030    2    1    2    0    0  0.00000000000E+00  0.00000000000E+00  0.13141401713E+04  0.26573127533E+04  0.23096204621E+04 0.  0.
        2    1    3    3  502    0  0.83701377714E+03 -0.79476610339E+03  0.69920953939E+03  0.13494959067E+04  0.25500000920E-02 0.  1.
       -2    1    3    3    0  502 -0.83701377714E+03  0.79476610339E+03  0.61493063191E+03  0.13078168466E+04  0.25500000920E-02 0. -1.
</event>
<event>
 5   0  0.1303224E-05  0.2282270E+04  0.7818609E-02  0.8484945E-01
       -1   -1    0    0    0  501  0.00000000000E+00  0.00000000000E+00  0.94006463401E+03  0.94006463403E+03  0.50400001928E-02 0. -1.
        1   -1    0    0  501    0  0.00000000000E+00  0.00000000000E+00 -0.13852119345E+04  0.13852119345E+04  0.50400001928E-02 0.  1.
    10030    2    1    2    0    0  0.00000000000E+00  0.00000000000E+00 -0.44514730050E+03  0.23252765685E+04  0.22822697038E+04 0.  0.
        2    1    3    3  502    0 -0.86344405734E+02  0.67855357050E+03  0.70803774766E+03  0.98448349735E+03  0.25500000920E-02 0. -1.
       -2    1    3    3    0  502  0.86344405734E+02 -0.67855357050E+03 -0.11531850482E+04  0.13407930712E+04  0.25500000920E-02 0.  1.
</event>
<event>
 5   0  0.2938972E-05  0.2311225E+04  0.7818609E-02  0.8473508E-01
        2   -1    0    0  501    0  0.00000000000E+00  0.00000000000E+00  0.84960711408E+03  0.84960711408E+03  0.25500000920E-02 0. -1.
       -2   -1    0    0    0  501  0.00000000000E+00  0.00000000000E+00 -0.15718323086E+04  0.15718323086E+04  0.25500000920E-02 0.  1.
    10030    2    1    2    0    0  0.00000000000E+00  0.00000000000E+00 -0.72222519452E+03  0.24214394227E+04  0.23112247070E+04 0.  0.
        2    1    3    3  502    0 -0.77237064471E+03 -0.72602392768E+03  0.12101998369E+03  0.10669175192E+04  0.25500000920E-02 0. -1.
       -2    1    3    3    0  502  0.77237064471E+03  0.72602392768E+03 -0.84324517821E+03  0.13545219035E+04  0.25500000920E-02 0.  1.
</event>
<event>
 5   0  0.1371753E-05  0.2304030E+04  0.7818609E-02  0.8476334E-01
        1   -1    0    0  501    0  0.00000000000E+00  0.00000000000E+00  0.16626151771E+04  0.16626151771E+04  0.50400001928E-02 0.  1.
       -1   -1    0    0    0  501  0.00000000000E+00  0.00000000000E+00 -0.79822348261E+03  0.79822348263E+03  0.50400001928E-02 0. -1.
    10030    2    1    2    0    0  0.00000000000E+00  0.00000000000E+00  0.86439169452E+03  0.24608386598E+04  0.23040299277E+04 0.  0.
        3    1    3    3  502    0 -0.55919294453E+03 -0.55658230378E+02 -0.64190349371E+03  0.85313228356E+03  0.10100000352E+00 0. -1.
       -3    1    3    3    0  502  0.55919294453E+03  0.55658230378E+02  0.15062951882E+04  0.16077063762E+04  0.10100000352E+00 0.  1.
</event>
<event>
 5   0  0.2910126E-05  0.2321398E+04  0.7818609E-02  0.8469532E-01
       -2   -1    0    0    0  501  0.00000000000E+00  0.00000000000E+00  0.84776257385E+03  0.84776257386E+03  0.25500000920E-02 0. -1.
        2   -1    0    0  501    0  0.00000000000E+00  0.00000000000E+00 -0.15891504392E+04  0.15891504392E+04  0.25500000920E-02 0.  1.
    10030    2    1    2    0    0  0.00000000000E+00  0.00000000000E+00 -0.74138786535E+03  0.24369130131E+04  0.23213980844E+04 0.  0.
        5    1    3    3  502    0 -0.11239449832E+04 -0.27114033545E+03 -0.26348065230E+03  0.11858387542E+04  0.46999998093E+01 0. -1.
       -5    1    3    3    0  502  0.11239449832E+04  0.27114033545E+03 -0.47790721305E+03  0.12510742588E+04  0.46999998093E+01 0.  1.
</event>
<event>
 5   0  0.1371753E-05  0.2291698E+04  0.7818609E-02  0.8481202E-01
        1   -1    0    0  501    0  0.00000000000E+00  0.00000000000E+00  0.14197991632E+04  0.14197991632E+04  0.50400001928E-02 0. -1.
       -1   -1    0    0    0  501  0.00000000000E+00  0.00000000000E+00 -0.92475763729E+03  0.92475763730E+03  0.50400001928E-02 0.  1.
    10030    2    1    2    0    0  0.00000000000E+00  0.00000000000E+00  0.49504152593E+03  0.23445568005E+04  0.22916981648E+04 0.  0.
        3    1    3    3  502    0  0.89344908102E+03 -0.49575623642E+03 -0.28303954738E+03  0.10602532254E+04  0.10100000352E+00 0.  1.
       -3    1    3    3    0  502 -0.89344908102E+03  0.49575623642E+03  0.77808107331E+03  0.12843035752E+04  0.10100000352E+00 0. -1.
</event>
<event>
 5   0  0.2938972E-05  0.2299607E+04  0.7818609E-02  0.8478076E-01
       -2   -1    0    0    0  501  0.00000000000E+00  0.00000000000E+00  0.62684393957E+03  0.62684393957E+03  0.25500000920E-02 0. -1.
        2   -1    0    0  501    0  0.00000000000E+00  0.00000000000E+00 -0.21090542082E+04  0.21090542082E+04  0.25500000920E-02 0.  1.
    10030    2    1    2    0    0  0.00000000000E+00  0.00000000000E+00 -0.14822102686E+04  0.27358981478E+04  0.22996067913E+04 0.  0.
        2    1    3    3  502    0  0.11283883221E+04  0.24707316609E+02 -0.47996893220E+03  0.12264749621E+04  0.25500000920E-02 0. -1.
       -2    1    3    3    0  502 -0.11283883221E+04 -0.24707316609E+02 -0.10022413364E+04  0.15094231856E+04  0.25500000920E-02 0.  1.
</event>
<event>
 5   0  0.2938972E-05  0.2282419E+04  0.7818609E-02  0.8484885E-01
        2   -1    0    0  501    0  0.00000000000E+00  0.00000000000E+00  0.17973004147E+04  0.17973004147E+04  0.25500000920E-02 0. -1.
       -2   -1    0    0    0  501  0.00000000000E+00  0.00000000000E+00 -0.72461959008E+03  0.72461959009E+03  0.25500000920E-02 0.  1.
    10030    2    1    2    0    0  0.00000000000E+00  0.00000000000E+00  0.10726808246E+04  0.25219200048E+04  0.22824189710E+04 0.  0.
        2    1    3    3  502    0 -0.33353975207E+03  0.10556804772E+04  0.84224735729E+03  0.13910753563E+04  0.25500000920E-02 0. -1.
       -2    1    3    3    0  502  0.33353975207E+03 -0.10556804772E+04  0.23043346733E+03  0.11308446485E+04  0.25500000920E-02 0.  1.
</event>
<event>
 5   0  0.1327820E-05  0.2298969E+04  0.7818609E-02  0.8478328E-01
       -1   -1    0    0    0  501  0.00000000000E+00  0.00000000000E+00  0.18885716511E+04  0.18885716511E+04  0.50400001928E-02 0. -1.
        1   -1    0    0  501    0  0.00000000000E+00  0.00000000000E+00 -0.69963707049E+03  0.69963707051E+03  0.50400001928E-02 0.  1.
    10030    2    1    2    0    0  0.00000000000E+00  0.00000000000E+00  0.11889345806E+04  0.25882087216E+04  0.22989691059E+04 0.  0.
        1    1    3    3  502    0 -0.11309330658E+04  0.16651529571E+03  0.73039627447E+03  0.13565454879E+04  0.50400001928E-02 0. -1.
       -1    1    3    3    0  502  0.11309330658E+04 -0.16651529571E+03  0.45853830615E+03  0.12316632337E+04  0.50400001928E-02 0.  1.
</event>
<event>
 5   0  0.2871888E-05  0.2298242E+04  0.7818609E-02  0.8478615E-01
       -2   -1    0    0    0  501  0.00000000000E+00  0.00000000000E+00  0.12504581634E+04  0.12504581634E+04  0.25500000920E-02 0.  1.
        2   -1    0    0  501    0  0.00000000000E+00  0.00000000000E+00 -0.10559963816E+04  0.10559963816E+04  0.25500000920E-02 0. -1.
    10030    2    1    2    0    0  0.00000000000E+00  0.00000000000E+00  0.19446178181E+03  0.23064545451E+04  0.22982421943E+04 0.  0.
        3    1    3    3  502    0 -0.86884585730E+02 -0.36987190089E+03  0.11855991593E+04  0.12449897715E+04  0.10100000352E+00 0.  1.
       -3    1    3    3    0  502  0.86884585730E+02  0.36987190089E+03 -0.99113737750E+03  0.10614647736E+04  0.10100000352E+00 0. -1.
</event>
<event>
 5   0  0.2938972E-05  0.2290764E+04  0.7818609E-02  0.8481572E-01
       -2   -1    0    0    0  501  0.00000000000E+00  0.00000000000E+00  0.15858338225E+04  0.15858338225E+04  0.25500000920E-02 0.  1.
        2   -1    0    0  501    0  0.00000000000E+00  0.00000000000E+00 -0.82726183850E+03  0.82726183850E+03  0.25500000920E-02 0. -1.
    10030    2    1    2    0    0  0.00000000000E+00  0.00000000000E+00  0.75857198401E+03  0.24130956610E+04  0.22907638932E+04 0.  0.
        2    1    3    3  502    0  0.32445306756E+03  0.81930851552E+03 -0.39147302818E+03  0.96425482548E+03  0.25500000920E-02 0. -1.
       -2    1    3    3    0  502 -0.32445306756E+03 -0.81930851552E+03  0.11500450122E+04  0.14488408355E+04  0.25500000920E-02 0.  1.
</event>
<event>
 5   0  0.1371753E-05  0.2266821E+04  0.7818609E-02  0.8491119E-01
       -1   -1    0    0    0  501  0.00000000000E+00  0.00000000000E+00  0.58338333924E+03  0.58338333926E+03  0.50400001928E-02 0. -1.
        1   -1    0    0  501    0  0.00000000000E+00  0.00000000000E+00 -0.22020158310E+04  0.22020158310E+04  0.50400001928E-02 0.  1.
    10030    2    1    2    0    0  0.00000000000E+00  0.00000000000E+00 -0.16186324918E+04  0.27853991703E+04  0.22668209886E+04 0.  0.
        3    1    3    3  502    0 -0.51216945172E+03  0.76927891185E+03 -0.30792555869E+01  0.92418455057E+03  0.10100000352E+00 0. -1.
       -3    1    3    3    0  502  0.51216945172E+03 -0.76927891185E+03 -0.16155532362E+04  0.18612146197E+04  0.10100000352E+00 0.  1.
</event>
<event>
 5   0  0.1371753E-05  0.2286847E+04  0.7818609E-02  0.8483125E-01
        1   -1    0    0  501    0  0.00000000000E+00  0.00000000000E+00  0.92960420952E+03  0.92960420954E+03  0.50400001928E-02 0.  1.
       -1   -1    0    0    0  501  0.00000000000E+00  0.00000000000E+00 -0.14064235814E+04  0.14064235814E+04  0.50400001928E-02 0. -1.
    10030    2    1    2    0    0  0.00000000000E+00  0.00000000000E+00 -0.47681937190E+03  0.23360277910E+04  0.22868469837E+04 0.  0.
        3    1    3    3  502    0 -0.86093229893E+03  0.14327070607E+03  0.51618274593E+03  0.10139899191E+04  0.10100000352E+00 0.  1.
       -3    1    3    3    0  502  0.86093229893E+03 -0.14327070607E+03 -0.99300211783E+03  0.13220378719E+04  0.10100000352E+00 0. -1.
</event>
<event>
 5   0  0.1284837E-05  0.2303946E+04  0.7818609E-02  0.8476367E-01
       -1   -1    0    0    0  501  0.00000000000E+00  0.00000000000E+00  0.10981347408E+04  0.10981347408E+04  0.50400001928E-02 0.  1.
        1   -1    0    0  501    0  0.00000000000E+00  0.00000000000E+00 -0.12084510451E+04  0.12084510451E+04  0.50400001928E-02 0. -1.
    10030    2    1    2    0    0  0.00000000000E+00  0.00000000000E+00 -0.11031630431E+03  0.23065857859E+04  0.23039462451E+04 0.  0.
        4    1    3    3  502    0  0.49504406117E+02  0.54900036355E+03 -0.10678447637E+04  0.12017263157E+04  0.12699999809E+01 0. -1.
       -4    1    3    3    0  502 -0.49504406117E+02 -0.54900036355E+03  0.95752845942E+03  0.11048594702E+04  0.12699999809E+01 0.  1.
</event>
<event>
 5   0  0.2871888E-05  0.2300144E+04  0.7818609E-02  0.8477864E-01
       -2   -1    0    0    0  501  0.00000000000E+00  0.00000000000E+00  0.97296504897E+03  0.97296504897E+03  0.25500000920E-02 0.  1.
        2   -1    0    0  501    0  0.00000000000E+00  0.00000000000E+00 -0.13594172350E+04  0.13594172350E+04  0.25500000920E-02 0. -1.
    10030    2    1    2    0    0  0.00000000000E+00  0.00000000000E+00 -0.38645218601E+03  0.23323822840E+04  0.23001438708E+04 0.  0.
        3    1    3    3  502    0  0.99382381377E+03 -0.53032868398E+03  0.41822601340E+02  0.11272459475E+04  0.10100000352E+00 0.  1.
       -3    1    3    3    0  502 -0.99382381377E+03  0.53032868398E+03 -0.42827478735E+03  0.12051363365E+04  0.10100000352E+00 0. -1.
</event>
<event>
 5   0  0.2938972E-05  0.2305043E+04  0.7818609E-02  0.8475936E-01
       -2   -1    0    0    0  501  0.00000000000E+00  0.00000000000E+00  0.17968527606E+04  0.17968527606E+04  0.25500000920E-02 0. -1.
        2   -1    0    0  501    0  0.00000000000E+00  0.00000000000E+00 -0.73923995224E+03  0.73923995225E+03  0.25500000920E-02 0.  1.
    10030    2    1    2    0    0  0.00000000000E+00  0.00000000000E+00  0.10576128083E+04  0.25360927128E+04  0.23050426017E+04 0.  0.
        2    1    3    3  502    0  0.37345541872E+03  0.10322282509E+04  0.91520925332E+03  0.14291858133E+04  0.25500000920E-02 0. -1.
       -2    1    3    3    0  502 -0.37345541872E+03 -0.10322282509E+04  0.14240355502E+03  0.11069068995E+04  0.25500000920E-02 0.  1.
</event>
<event>
 5   0  0.2994157E-05  0.2305270E+04  0.7818609E-02  0.8475846E-01
        2   -1    0    0  501    0  0.00000000000E+00  0.00000000000E+00  0.11262186881E+04  0.11262186881E+04  0.25500000920E-02 0. -1.
       -2   -1    0    0    0  501  0.00000000000E+00  0.00000000000E+00 -0.11796714321E+04  0.11796714322E+04  0.25500000920E-02 0.  1.
    10030    2    1    2    0    0  0.00000000000E+00  0.00000000000E+00 -0.53452744076E+02  0.23058901202E+04  0.23052704940E+04 0.  0.
        4    1    3    3  502    0 -0.70335974331E+03 -0.17553281493E+03 -0.92309206362E+03  0.11737236764E+04  0.12699999809E+01 0.  1.
       -4    1    3    3    0  502  0.70335974331E+03  0.17553281493E+03  0.86963931954E+03  0.11321664439E+04  0.12699999809E+01 0. -1.
</event>
<event>
 5   0  0.1303224E-05  0.2298155E+04  0.7818609E-02  0.8478649E-01
        1   -1    0    0  501    0  0.00000000000E+00  0.00000000000E+00  0.13963854198E+04  0.13963854198E+04  0.50400001928E-02 0. -1.
       -1   -1    0    0    0  501  0.00000000000E+00  0.00000000000E+00 -0.94556953233E+03  0.94556953234E+03  0.50400001928E-02 0.  1.
    10030    2    1    2    0    0  0.00000000000E+00  0.00000000000E+00  0.45081588748E+03  0.23419549522E+04  0.22981553545E+04 0.  0.
        2    1    3    3  502    0  0.76604057602E+03 -0.77001625096E+03 -0.15675440435E+03  0.10974129278E+04  0.25500000920E-02 0.  1.
       -2    1    3    3    0  502 -0.76604057602E+03  0.77001625096E+03  0.60757029184E+03  0.12445420243E+04  0.25500000920E-02 0. -1.
</event>
<event>
 5   0  0.2816178E-05  0.2301975E+04  0.7818609E-02  0.8477143E-01
       -2   -1    0    0    0  501  0.00000000000E+00  0.00000000000E+00  0.74611012388E+03  0.74611012388E+03  0.25500000920E-02 0.  1.
        2   -1    0    0  501    0  0.00000000000E+00  0.00000000000E+00 -0.17755719870E+04  0.17755719870E+04  0.25500000920E-02 0. -1.
    10030    2    1    2    0    0  0.00000000000E+00  0.00000000000E+00 -0.10294618631E+04  0.25216821109E+04  0.23019750087E+04 0.  0.
        1    1    3    3  502    0 -0.28994336932E+03 -0.32055941254E+03  0.65382822081E+03  0.78378366705E+03  0.50400001928E-02 0.  1.
       -1    1    3    3    0  502  0.28994336932E+03  0.32055941254E+03 -0.16832900839E+04  0.17378984438E+04  0.50400001928E-02 0. -1.
</event>
<event>
 5   0  0.2938972E-05  0.2296178E+04  0.7818609E-02  0.8479430E-01
       -2   -1    0    0    0  501  0.00000000000E+00  0.00000000000E+00  0.15530778564E+04  0.15530778564E+04  0.25500000920E-02 0. -1.
        2   -1    0    0  501    0  0.00000000000E+00  0.00000000000E+00 -0.84870713982E+03  0.84870713982E+03  0.25500000920E-02 0.  1.
    10030    2    1    2    0    0  0.00000000000E+00  0.00000000000E+00  0.70437071653E+03  0.24017849962E+04  0.22961779246E+04 0.  0.
        2    1    3    3  502    0 -0.66101107437E+03 -0.10002388307E+03  0.13284768610E+04  0.14872091944E+04  0.25500000920E-02 0. -1.
       -2    1    3    3    0  502  0.66101107437E+03  0.10002388307E+03 -0.62410614448E+03  0.91457580179E+03  0.25500000920E-02 0.  1.
</event>
<event>
 5   0  0.1327820E-05  0.2300635E+04  0.7818609E-02  0.8477671E-01
        1   -1    0    0  501    0  0.00000000000E+00  0.00000000000E+00  0.13471277453E+04  0.13471277453E+04  0.50400001928E-02 0.  1.
       -1   -1    0    0    0  501  0.00000000000E+00  0.00000000000E+00 -0.98226069098E+03  0.98226069099E+03  0.50400001928E-02 0. -1.
    10030    2    1    2    0    0  0.00000000000E+00  0.00000000000E+00  0.36486705435E+03  0.23293884363E+04  0.23006352427E+04 0.  0.
        1    1    3    3  502    0 -0.10672964997E+04  0.34206644496E+03  0.44470637507E+03  0.12057756969E+04  0.50400001928E-02 0.  1.
       -1    1    3    3    0  502  0.10672964997E+04 -0.34206644496E+03 -0.79839320727E+02  0.11236127395E+04  0.50400001928E-02 0. -1.
</event>
<event>
 5   0  0.1308224E-05  0.2323067E+04  0.7818609E-02  0.8468881E-01
       -1   -1    0    0    0  501  0.00000000000E+00  0.00000000000E+00  0.12979458558E+04  0.12979458558E+04  0.50400001928E-02 0. -1.
        1   -1    0    0  501    0  0.00000000000E+00  0.00000000000E+00 -0.10394579986E+04  0.10394579986E+04  0.50400001928E-02 0.  1.
    10030    2    1    2    0    0  0.00000000000E+00  0.00000000000E+00  0.25848785722E+03  0.23374038544E+04  0.23230671119E+04 0.  0.
        5    1    3    3  502    0  0.54605782886E+03  0.63488823653E+03 -0.68063091177E+03  0.10791398211E+04  0.46999998093E+01 0.  1.
       -5    1    3    3    0  502 -0.54605782886E+03 -0.63488823653E+03  0.93911876899E+03  0.12582640333E+04  0.46999998093E+01 0. -1.
</event>
<event>
 5   0  0.1284837E-05  0.2295500E+04  0.7818609E-02  0.8479698E-01
        1   -1    0    0  501    0  0.00000000000E+00  0.00000000000E+00  0.12487092760E+04  0.12487092760E+04  0.50400001928E-02 0.  1.
       -1   -1    0    0    0  501  0.00000000000E+00  0.00000000000E+00 -0.10549532593E+04  0.10549532593E+04  0.50400001928E-02 0. -1.
    10030    2    1    2    0    0  0.00000000000E+00  0.00000000000E+00  0.19375601669E+03  0.23036625354E+04  0.22954998765E+04 0.  0.
        4    1    3    3  502    0 -0.10493458357E+04 -0.45930234334E+03  0.24212087548E+02  0.11457194960E+04  0.12699999809E+01 0.  1.
       -4    1    3    3    0  502  0.10493458357E+04  0.45930234334E+03  0.16954392914E+03  0.11579430393E+04  0.12699999809E+01 0. -1.
</event>
<event>
 5   0  0.1371753E-05  0.2037676E+04  0.7818609E-02  0.8589206E-01
       -1   -1    0    0    0  501  0.00000000000E+00  0.00000000000E+00  0.10941764946E+04  0.10941764946E+04  0.50400001928E-02 0.  1.
        1   -1    0    0  501    0  0.00000000000E+00  0.00000000000E+00 -0.94868722788E+03  0.94868722790E+03  0.50400001928E-02 0. -1.
    10030    2    1    2    0    0  0.00000000000E+00  0.00000000000E+00  0.14548926673E+03  0.20428637225E+04  0.20376763880E+04 0.  0.
        3    1    3    3  502    0 -0.28331780736E+03 -0.34473408618E+02  0.10532803947E+04  0.10912639442E+04  0.10100000352E+00 0.  1.
       -3    1    3    3    0  502  0.28331780736E+03  0.34473408618E+02 -0.90779112797E+03  0.95159977832E+03  0.10100000352E+00 0. -1.
</event>
<event>
 5   0  0.2871888E-05  0.2297489E+04  0.7818609E-02  0.8478912E-01
        2   -1    0    0  501    0  0.00000000000E+00  0.00000000000E+00  0.17358965472E+04  0.17358965472E+04  0.25500000920E-02 0.  1.
       -2   -1    0    0    0  501  0.00000000000E+00  0.00000000000E+00 -0.76019153473E+03  0.76019153473E+03  0.25500000920E-02 0. -1.
    10030    2    1    2    0    0  0.00000000000E+00  0.00000000000E+00  0.97570501249E+03  0.24960880820E+04  0.22974889426E+04 0.  0.
        3    1    3    3  502    0 -0.82440359566E+03  0.12632257603E+03  0.13460832148E+04  0.15835209860E+04  0.10100000352E+00 0.  1.
       -3    1    3    3    0  502  0.82440359566E+03 -0.12632257603E+03 -0.37037820228E+03  0.91256709598E+03  0.10100000352E+00 0. -1.
</event>
<event>
 5   0  0.1303224E-05  0.2289860E+04  0.7818609E-02  0.8481930E-01
        1   -1    0    0  501    0  0.00000000000E+00  0.00000000000E+00  0.24357064103E+04  0.24357064103E+04  0.50400001928E-02 0.  1.
       -1   -1    0    0    0  501  0.00000000000E+00  0.00000000000E+00 -0.53818659790E+03  0.53818659792E+03  0.50400001928E-02 0. -1.
    10030    2    1    2    0    0  0.00000000000E+00  0.00000000000E+00  0.18975198124E+04  0.29738930082E+04  0.22898598616E+04 0.  0.
        2    1    3    3  502    0 -0.20939353861E+03 -0.76576171921E+03  0.20202084114E+04  0.21705940869E+04  0.25500000920E-02 0.  1.
       -2    1    3    3    0  502  0.20939353861E+03  0.76576171921E+03 -0.12268859902E+03  0.80329892130E+03  0.25500000920E-02 0. -1.
</event>
<event>
 5   0  0.2816178E-05  0.2305422E+04  0.7818609E-02  0.8475786E-01
       -2   -1    0    0    0  501  0.00000000000E+00  0.00000000000E+00  0.10618981086E+04  0.10618981086E+04  0.25500000920E-02 0.  1.
        2   -1    0    0  501    0  0.00000000000E+00  0.00000000000E+00 -0.12512899671E+04  0.12512899671E+04  0.25500000920E-02 0. -1.
    10030    2    1    2    0    0  0.00000000000E+00  0.00000000000E+00 -0.18939185849E+03  0.23131880758E+04  0.23054218265E+04 0.  0.
        1    1    3    3  502    0  0.24111610245E+03 -0.49700964932E+03  0.92043696388E+03  0.10734802145E+04  0.50400001928E-02 0.  1.
       -1    1    3    3    0  502 -0.24111610245E+03  0.49700964932E+03 -0.11098288224E+04  0.12397078613E+04  0.50400001928E-02 0. -1.
</event>
<event>
 5   0  0.1303224E-05  0.2306355E+04  0.7818609E-02  0.8475420E-01
        1   -1    0    0  501    0  0.00000000000E+00  0.00000000000E+00  0.93989788291E+03  0.93989788293E+03  0.50400001928E-02 0.  1.
       -1   -1    0    0    0  501  0.00000000000E+00  0.00000000000E+00 -0.14148538762E+04  0.14148538762E+04  0.50400001928E-02 0. -1.
    10030    2    1    2    0    0  0.00000000000E+00  0.00000000000E+00 -0.47495599326E+03  0.23547517591E+04  0.23063548408E+04 0.  0.
        2    1    3    3  502    0 -0.10582509575E+04 -0.36129157499E+03  0.50199526044E+02  0.11193510101E+04  0.25500000920E-02 0. -1.
       -2    1    3    3    0  502  0.10582509575E+04  0.36129157499E+03 -0.52515551930E+03  0.12354007491E+04  0.25500000920E-02 0.  1.
</event>
<event>
 5   0  0.1371753E-05  0.2214972E+04  0.7818609E-02  0.8512222E-01
        1   -1    0    0  501    0  0.00000000000E+00  0.00000000000E+00  0.10862994951E+04  0.10862994951E+04  0.50400001928E-02 0. -1.
       -1   -1    0    0    0  501  0.00000000000E+00  0.00000000000E+00 -0.11290857061E+04  0.11290857061E+04  0.50400001928E-02 0.  1.
    10030    2    1    2    0    0  0.00000000000E+00  0.00000000000E+00 -0.42786211004E+02  0.22153852013E+04  0.22149719931E+04 0.  0.
        3    1    3    3  502    0 -0.76764448609E+03  0.24917908649E+03 -0.77992561103E+03  0.11223423021E+04  0.10100000352E+00 0.  1.
       -3    1    3    3    0  502  0.76764448609E+03 -0.24917908649E+03  0.73713940002E+03  0.10930428992E+04  0.10100000352E+00 0. -1.
</event>
<event>
 5   0  0.2816178E-05  0.2302941E+04  0.7818609E-02  0.8476762E-01
       -2   -1    0    0    0  501  0.00000000000E+00  0.00000000000E+00  0.11694288128E+04  0.11694288128E+04  0.25500000920E-02 0. -1.
        2   -1    0    0  501    0  0.00000000000E+00  0.00000000000E+00 -0.11337881150E+04  0.11337881150E+04  0.25500000920E-02 0.  1.
    10030    2    1    2    0    0  0.00000000000E+00  0.00000000000E+00  0.35640697880E+02  0.23032169278E+04  0.23029411537E+04 0.  0.
        1    1    3    3  502    0  0.70207492740E+03 -0.45892383063E+03  0.80681544828E+03  0.11638176204E+04  0.50400001928E-02 0. -1.
       -1    1    3    3    0  502 -0.70207492740E+03  0.45892383063E+03 -0.77117475040E+03  0.11393993074E+04  0.50400001928E-02 0.  1.
</event>
<event>
 5   0  0.1284837E-05  0.2298805E+04  0.7818609E-02  0.8478392E-01
       -1   -1    0    0    0  501  0.00000000000E+00  0.00000000000E+00  0.89390479089E+03  0.89390479091E+03  0.50400001928E-02 0. -1.
        1   -1    0    0  501    0  0.00000000000E+00  0.00000000000E+00 -0.14779276848E+04  0.14779276848E+04  0.50400001928E-02 0.  1.
    10030    2    1    2    0    0  0.00000000000E+00  0.00000000000E+00 -0.58402289393E+03  0.23718324757E+04  0.22988054621E+04 0.  0.
        4    1    3    3  502    0 -0.53132016420E+03  0.86139873979E+03 -0.85412690994E+03  0.13243274886E+04  0.12699999809E+01 0.  1.
       -4    1    3    3    0  502  0.53132016420E+03 -0.86139873979E+03  0.27010401601E+03  0.10475049872E+04  0.12699999809E+01 0. -1.
</event>
<event>
 5   0  0.2938972E-05  0.2284955E+04  0.7818609E-02  0.8483877E-01
       -2   -1    0    0    0  501  0.00000000000E+00  0.00000000000E+00  0.47021994752E+03  0.47021994753E+03  0.25500000920E-02 0.  1.
        2   -1    0    0  501    0  0.00000000000E+00  0.00000000000E+00 -0.27758400596E+04  0.27758400596E+04  0.25500000920E-02 0. -1.
    10030    2    1    2    0    0  0.00000000000E+00  0.00000000000E+00 -0.23056201121E+04  0.32460600071E+04  0.22849554632E+04 0.  0.
        2    1    3    3  502    0  0.61209408814E+03  0.11894048141E+03  0.20717156639E+03  0.65705864942E+03  0.25500000920E-02 0.  1.
       -2    1    3    3    0  502 -0.61209408814E+03 -0.11894048141E+03 -0.25127916785E+04  0.25890013577E+04  0.25500000920E-02 0. -1.
</event>
<event>
 5   0  0.1308224E-05  0.2301378E+04  0.7818609E-02  0.8477378E-01
       -1   -1    0    0    0  501  0.00000000000E+00  0.00000000000E+00  0.21931743790E+04  0.21931743791E+04  0.50400001928E-02 0.  1.
        1   -1    0    0  501    0  0.00000000000E+00  0.00000000000E+00 -0.60373007476E+03  0.60373007478E+03  0.50400001928E-02 0. -1.
    10030    2    1    2    0    0  0.00000000000E+00  0.00000000000E+00  0.15894443043E+04  0.27969044538E+04  0.23013781366E+04 0.  0.
        5    1    3    3  502    0  0.37370116762E+03 -0.19787936923E+03 -0.50586853109E+03  0.65934351305E+03  0.46999998093E+01 0. -1.
       -5    1    3    3    0  502 -0.37370116762E+03  0.19787936923E+03  0.20953128354E+04  0.21375609408E+04  0.46999998093E+01 0.  1.
</event>
<event>
 5   0  0.2871888E-05  0.2303140E+04  0.7818609E-02  0.8476684E-01
       -2   -1    0    0    0  501  0.00000000000E+00  0.00000000000E+00  0.91518735045E+03  0.91518735046E+03  0.25500000920E-02 0. -1.
        2   -1    0    0  501    0  0.00000000000E+00  0.00000000000E+00 -0.14490082076E+04  0.14490082077E+04  0.25500000920E-02 0.  1.
    10030    2    1    2    0    0  0.00000000000E+00  0.00000000000E+00 -0.53382085720E+03  0.23641955581E+04  0.23031404493E+04 0.  0.
        3    1    3    3  502    0  0.25442950448E+03 -0.69214160028E+03  0.64102524670E+03  0.97709147202E+03  0.10100000352E+00 0. -1.
       -3    1    3    3    0  502 -0.25442950448E+03  0.69214160028E+03 -0.11748461039E+04  0.13871040861E+04  0.10100000352E+00 0.  1.
</event>
<event>
 5   0  0.1303224E-05  0.2308186E+04  0.7818609E-02  0.8474701E-01
       -1   -1    0    0    0  501  0.00000000000E+00  0.00000000000E+00  0.11763741459E+04  0.11763741460E+04  0.50400001928E-02 0.  1.
        1   -1    0    0  501    0  0.00000000000E+00  0.00000000000E+00 -0.11322337948E+04  0.11322337948E+04  0.50400001928E-02 0. -1.
    10030    2    1    2    0    0  0.00000000000E+00  0.00000000000E+00  0.44140351163E+02  0.23086079408E+04  0.23081859227E+04 0.  0.
        2    1    3    3  502    0  0.11445003629E+04 -0.93766657029E+00 -0.12644469465E+03  0.11514643810E+04  0.25500000920E-02 0.  1.
       -2    1    3    3    0  502 -0.11445003629E+04  0.93766657029E+00  0.17058504582E+03  0.11571435597E+04  0.25500000920E-02 0. -1.
</event>
<event>
 5   0  0.2938972E-05  0.2291651E+04  0.7818609E-02  0.8481220E-01
        2   -1    0    0  501    0  0.00000000000E+00  0.00000000000E+00  0.16750260576E+04  0.16750260576E+04  0.25500000920E-02 0. -1.
       -2   -1    0    0    0  501  0.00000000000E+00  0.00000000000E+00 -0.78381834033E+03  0.78381834033E+03  0.25500000920E-02 0.  1.
    10030    2    1    2    0    0  0.00000000000E+00  0.00000000000E+00  0.89120771726E+03  0.24588443979E+04  0.22916510594E+04 0.  0.
        2    1    3    3  502    0 -0.35655108625E+03  0.73418531882E+03 -0.41728314118E+03  0.91666895846E+03  0.25500000920E-02 0.  1.
       -2    1    3    3    0  502  0.35655108625E+03 -0.73418531882E+03  0.13084908584E+04  0.15421754395E+04  0.25500000920E-02 0. -1.
</event>
<event>
 5   0  0.2816178E-05  0.2277539E+04  0.7818609E-02  0.8486830E-01
        2   -1    0    0  501    0  0.00000000000E+00  0.00000000000E+00  0.12238640437E+04  0.12238640437E+04  0.25500000920E-02 0. -1.
       -2   -1    0    0    0  501  0.00000000000E+00  0.00000000000E+00 -0.10595912244E+04  0.10595912244E+04  0.25500000920E-02 0.  1.
    10030    2    1    2    0    0  0.00000000000E+00  0.00000000000E+00  0.16427281936E+03  0.22834552681E+04  0.22775386719E+04 0.  0.
        1    1    3    3  502    0  0.39086763078E+03 -0.29390532283E+03 -0.94895037764E+03  0.10675507776E+04  0.50400001928E-02 0.  1.
       -1    1    3    3    0  502 -0.39086763078E+03  0.29390532283E+03  0.11132231970E+04  0.12159044905E+04  0.50400001928E-02 0. -1.
</event>
<event>
 5   0  0.1371753E-05  0.2300500E+04  0.7818609E-02  0.8477724E-01
       -1   -1    0    0    0  501  0.00000000000E+00  0.00000000000E+00  0.82695523185E+03  0.82695523186E+03  0.50400001928E-02 0.  1.
        1   -1    0    0  501    0  0.00000000000E+00  0.00000000000E+00 -0.15999352148E+04  0.15999352148E+04  0.50400001928E-02 0. -1.
    10030    2    1    2    0    0  0.00000000000E+00  0.00000000000E+00 -0.77297998292E+03  0.24268904466E+04  0.23004997687E+04 0.  0.
        3    1    3    3  502    0  0.16919430556E+03  0.81072860633E+03  0.45559258949E+03  0.94523658624E+03  0.10100000352E+00 0.  1.
       -3    1    3    3    0  502 -0.16919430556E+03 -0.81072860633E+03 -0.12285725724E+04  0.14816538604E+04  0.10100000352E+00 0. -1.
</event>
<event>
 5   0  0.1284837E-05  0.2319374E+04  0.7818609E-02  0.8470321E-01
        1   -1    0    0  501    0  0.00000000000E+00  0.00000000000E+00  0.13397312126E+04  0.13397312126E+04  0.50400001928E-02 0. -1.
       -1   -1    0    0    0  501  0.00000000000E+00  0.00000000000E+00 -0.10038385680E+04  0.10038385681E+04  0.50400001928E-02 0.  1.
    10030    2    1    2    0    0  0.00000000000E+00  0.00000000000E+00  0.33589264460E+03  0.23435697807E+04  0.23193739346E+04 0.  0.
        4    1    3    3  502    0  0.27258684270E+03  0.11212693191E+04  0.28457914508E+03  0.11885013148E+04  0.12699999809E+01 0. -1.
       -4    1    3    3    0  502 -0.27258684270E+03 -0.11212693191E+04  0.51313499521E+02  0.11550684659E+04  0.12699999809E+01 0.  1.
</event>
<event>
 5   0  0.2938972E-05  0.2305906E+04  0.7818609E-02  0.8475596E-01
       -2   -1    0    0    0  501  0.00000000000E+00  0.00000000000E+00  0.12224540010E+04  0.12224540010E+04  0.25500000920E-02 0.  1.
        2   -1    0    0  501    0  0.00000000000E+00  0.00000000000E+00 -0.10874034834E+04  0.10874034834E+04  0.25500000920E-02 0. -1.
    10030    2    1    2    0    0  0.00000000000E+00  0.00000000000E+00  0.13505051765E+03  0.23098574844E+04  0.23059061030E+04 0.  0.
        2    1    3    3  502    0  0.11836596103E+03  0.83571904177E+03 -0.71922745870E+03  0.11089296438E+04  0.25500000920E-02 0. -1.
       -2    1    3    3    0  502 -0.11836596103E+03 -0.83571904177E+03  0.85427797634E+03  0.12009278406E+04  0.25500000920E-02 0.  1.
</event>
<event>
 5   0  0.2994157E-05  0.2306441E+04  0.7818609E-02  0.8475386E-01
        2   -1    0    0  501    0  0.00000000000E+00  0.00000000000E+00  0.29587934569E+04  0.29587934569E+04  0.25500000920E-02 0.  1.
       -2   -1    0    0    0  501  0.00000000000E+00  0.00000000000E+00 -0.44947966139E+03  0.44947966139E+03  0.25500000920E-02 0. -1.
    10030    2    1    2    0    0  0.00000000000E+00  0.00000000000E+00  0.25093137955E+04  0.34082731182E+04  0.23064409649E+04 0.  0.
        4    1    3    3  502    0  0.17457170035E+03  0.36639751079E+03  0.28497684643E+04  0.28785246790E+04  0.12699999809E+01 0.  1.
       -4    1    3    3    0  502 -0.17457170035E+03 -0.36639751079E+03 -0.34045466883E+03  0.52974843927E+03  0.12699999809E+01 0. -1.
</event>
<event>
 5   0  0.2871888E-05  0.2228845E+04  0.7818609E-02  0.8506517E-01
       -2   -1    0    0    0  501  0.00000000000E+00  0.00000000000E+00  0.86528946925E+03  0.86528946925E+03  0.25500000920E-02 0.  1.
        2   -1    0    0  501    0  0.00000000000E+00  0.00000000000E+00 -0.14352851917E+04  0.14352851917E+04  0.25500000920E-02 0. -1.
    10030    2    1    2    0    0  0.00000000000E+00  0.00000000000E+00 -0.56999572244E+03  0.23005746609E+04  0.22288446888E+04 0.  0.
        3    1    3    3  502    0 -0.82398910378E+03 -0.27706826590E+03  0.43473194556E+03  0.97196540154E+03  0.10100000352E+00 0.  1.
       -3    1    3    3    0  502  0.82398910378E+03  0.27706826590E+03 -0.10047276680E+04  0.13286092594E+04  0.10100000352E+00 0. -1.
</event>
<event>
 5   0  0.2910126E-05  0.2295732E+04  0.7818609E-02  0.8479606E-01
        2   -1    0    0  501    0  0.00000000000E+00  0.00000000000E+00  0.18516196103E+04  0.18516196103E+04  0.25500000920E-02 0.  1.
       -2   -1    0    0    0  501  0.00000000000E+00  0.00000000000E+00 -0.71159118855E+03  0.71159118855E+03  0.25500000920E-02 0. -1.
    10030    2    1    2    0    0  0.00000000000E+00  0.00000000000E+00  0.11400284218E+04  0.25632107989E+04  0.22957318652E+04 0.  0.
        5    1    3    3  502    0  0.30767375939E+03  0.36383717734E+03 -0.59594313359E+03  0.76302748464E+03  0.46999998093E+01 0. -1.
       -5    1    3    3    0  502 -0.30767375939E+03 -0.36383717734E+03  0.17359715554E+04  0.18001833142E+04  0.46999998093E+01 0.  1.
</event>
<event>
 5   0  0.1284837E-05  0.2311366E+04  0.7818609E-02  0.8473453E-01
        1   -1    0    0  501    0  0.00000000000E+00  0.00000000000E+00  0.20666180072E+04  0.20666180072E+04  0.50400001928E-02 0.  1.
       -1   -1    0    0    0  501  0.00000000000E+00  0.00000000000E+00 -0.64627476690E+03  0.64627476692E+03  0.50400001928E-02 0. -1.
    10030    2    1    2    0    0  0.00000000000E+00  0.00000000000E+00  0.14203432403E+04  0.27128927741E+04  0.23113658913E+04 0.  0.
        4    1    3    3  502    0  0.63787305754E+03 -0.29632183237E+03 -0.36614341798E+03  0.79293838431E+03  0.12699999809E+01 0. -1.
       -4    1    3    3    0  502 -0.63787305754E+03  0.29632183237E+03  0.17864866582E+04  0.19199543898E+04  0.12699999809E+01 0.  1.
</event>
<event>
 5   0  0.1308224E-05  0.2305831E+04  0.7818609E-02  0.8475626E-01
        1   -1    0    0  501    0  0.00000000000E+00  0.00000000000E+00  0.95512922766E+03  0.95512922767E+03  0.50400001928E-02 0. -1.
       -1   -1    0    0    0  501  0.00000000000E+00  0.00000000000E+00 -0.13916586894E+04  0.13916586894E+04  0.50400001928E-02 0.  1.
    10030    2    1    2    0    0  0.00000000000E+00  0.00000000000E+00 -0.43652946176E+03  0.23467879171E+04  0.23058307737E+04 0.  0.
        5    1    3    3  502    0  0.35896126713E+03  0.67333589510E+03  0.66135370640E+03  0.10097748432E+04  0.46999998093E+01 0. -1.
       -5    1    3    3    0  502 -0.35896126713E+03 -0.67333589510E+03 -0.10978831682E+04  0.13370130739E+04  0.46999998093E+01 0.  1.
</event>
<event>
 5   0  0.1327820E-05  0.2297223E+04  0.7818609E-02  0.8479017E-01
       -1   -1    0    0    0  501  0.00000000000E+00  0.00000000000E+00  0.78633170394E+03  0.78633170396E+03  0.50400001928E-02 0. -1.
        1   -1    0    0  501    0  0.00000000000E+00  0.00000000000E+00 -0.16778008883E+04  0.16778008883E+04  0.50400001928E-02 0.  1.
    10030    2    1    2    0    0  0.00000000000E+00  0.00000000000E+00 -0.89146918434E+03  0.24641325923E+04  0.22972226983E+04 0.  0.
        1    1    3    3  502    0 -0.74874176933E+03 -0.45496723997E+03  0.35099677769E+03  0.94382634237E+03  0.50400001928E-02 0. -1.
       -1    1    3    3    0  502  0.74874176933E+03  0.45496723997E+03 -0.12424659620E+04  0.15203062499E+04  0.50400001928E-02 0.  1.
</event>
<event>
 5   0  0.2994157E-05  0.2297408E+04  0.7818609E-02  0.8478944E-01
        2   -1    0    0  501    0  0.00000000000E+00  0.00000000000E+00  0.18754482982E+04  0.18754482982E+04  0.25500000920E-02 0.  1.
       -2   -1    0    0    0  501  0.00000000000E+00  0.00000000000E+00 -0.70357628556E+03  0.70357628557E+03  0.25500000920E-02 0. -1.
    10030    2    1    2    0    0  0.00000000000E+00  0.00000000000E+00  0.11718720127E+04  0.25790245838E+04  0.22974080591E+04 0.  0.
        4    1    3    3  502    0  0.34918799196E+03  0.95633973897E+03  0.11831247619E+04  0.15608663509E+04  0.12699999809E+01 0.  1.
       -4    1    3    3    0  502 -0.34918799196E+03 -0.95633973897E+03 -0.11252749240E+02  0.10181582330E+04  0.12699999809E+01 0. -1.
</event>
<event>
 5   0  0.2994157E-05  0.2290883E+04  0.7818609E-02  0.8481524E-01
        2   -1    0    0  501    0  0.00000000000E+00  0.00000000000E+00  0.23025127702E+04  0.23025127702E+04  0.25500000920E-02 0.  1.
       -2   -1    0    0    0  501  0.00000000000E+00  0.00000000000E+00 -0.56982801022E+03  0.56982801023E+03  0.25500000920E-02 0. -1.
    10030    2    1    2    0    0  0.00000000000E+00  0.00000000000E+00  0.17326847600E+04  0.28723407804E+04  0.22908830353E+04 0.  0.
        4    1    3    3  502    0  0.38614529975E+03 -0.17410171588E+03 -0.46802130360E+03  0.63124096312E+03  0.12699999809E+01 0. -1.
       -4    1    3    3    0  502 -0.38614529975E+03  0.17410171588E+03  0.22007060636E+04  0.22410998173E+04  0.12699999809E+01 0.  1.
</event>
<event>
 5   0  0.1017200E-05  0.2247907E+04  0.7818609E-02  0.8498748E-01
        3   -1    0    0  501    0  0.00000000000E+00  0.00000000000E+00  0.12359738547E+04  0.12359738588E+04  0.10100000352E+00 0. -1.
       -3   -1    0    0    0  501  0.00000000000E+00  0.00000000000E+00 -0.10220862282E+04  0.10220862332E+04  0.10100000352E+00 0.  1.
    10030    2    1    2    0    0  0.00000000000E+00  0.00000000000E+00  0.21388762643E+03  0.22580600920E+04  0.22479073518E+04 0.  0.
        1    1    3    3  502    0 -0.95185977213E+03 -0.14017587309E+03 -0.47670152534E+03  0.10737460805E+04  0.50400001928E-02 0.  1.
       -1    1    3    3    0  502  0.95185977213E+03  0.14017587309E+03  0.69058915178E+03  0.11843140115E+04  0.50400001928E-02 0. -1.
</event>
<event>
 5   0  0.2938972E-05  0.2308596E+04  0.7818609E-02  0.8474540E-01
        2   -1    0    0  501    0  0.00000000000E+00  0.00000000000E+00  0.26039778727E+04  0.26039778727E+04  0.25500000920E-02 0.  1.
       -2   -1    0    0    0  501  0.00000000000E+00  0.00000000000E+00 -0.51168002844E+03  0.51168002845E+03  0.25500000920E-02 0. -1.
    10030    2    1    2    0    0  0.00000000000E+00  0.00000000000E+00  0.20922978443E+04  0.31156579011E+04  0.23085956527E+04 0.  0.
        2    1    3    3  502    0 -0.20881188916E+03  0.10527651183E+04  0.16195050545E+04  0.19428621724E+04  0.25500000920E-02 0. -1.
       -2    1    3    3    0  502  0.20881188916E+03 -0.10527651183E+04  0.47279278973E+03  0.11727957287E+04  0.25500000920E-02 0.  1.
</event>
<event>
 5   0  0.1303224E-05  0.2277363E+04  0.7818609E-02  0.8486900E-01
        1   -1    0    0  501    0  0.00000000000E+00  0.00000000000E+00  0.13080250720E+04  0.13080250720E+04  0.50400001928E-02 0.  1.
       -1   -1    0    0    0  501  0.00000000000E+00  0.00000000000E+00 -0.99126180819E+03  0.99126180820E+03  0.50400001928E-02 0. -1.
    10030    2    1    2    0    0  0.00000000000E+00  0.00000000000E+00  0.31676326379E+03  0.22992868802E+04  0.22773627713E+04 0.  0.
        2    1    3    3  502    0 -0.89195255523E+03  0.69699800053E+03  0.33866647623E+02  0.11324895246E+04  0.25500000920E-02 0. -1.
       -2    1    3    3    0  502  0.89195255523E+03 -0.69699800053E+03  0.28289661616E+03  0.11667973556E+04  0.25500000920E-02 0.  1.
</event>
<event>
 5   0  0.1371753E-05  0.2311223E+04  0.7818609E-02  0.8473509E-01
        1   -1    0    0  501    0  0.00000000000E+00  0.00000000000E+00  0.66174368878E+03  0.66174368880E+03  0.50400001928E-02 0.  1.
       -1   -1    0    0    0  501  0.00000000000E+00  0.00000000000E+00 -0.20180586447E+04  0.20180586447E+04  0.50400001928E-02 0. -1.
    10030    2    1    2    0    0  0.00000000000E+00  0.00000000000E+00 -0.13563149559E+04  0.26798023335E+04  0.23112226822E+04 0.  0.
        3    1    3    3  502    0  0.38071760749E+03 -0.10608115783E+04 -0.97415383341E+03  0.14897123221E+04  0.10100000352E+00 0. -1.
       -3    1    3    3    0  502 -0.38071760749E+03  0.10608115783E+04 -0.38216112247E+03  0.11900900113E+04  0.10100000352E+00 0.  1.
</event>
<event>
 5   0  0.2910126E-05  0.2308886E+04  0.7818609E-02  0.8474426E-01
        2   -1    0    0  501    0  0.00000000000E+00  0.00000000000E+00  0.21498126941E+04  0.21498126941E+04  0.25500000920E-02 0. -1.
       -2   -1    0    0    0  501  0.00000000000E+00  0.00000000000E+00 -0.61993221693E+03  0.61993221693E+03  0.25500000920E-02 0.  1.
    10030    2    1    2    0    0  0.00000000000E+00  0.00000000000E+00  0.15298804771E+04  0.27697449110E+04  0.23088855748E+04 0.  0.
        5    1    3    3  502    0 -0.81919104663E+03 -0.70100693414E+03  0.26999499416E+03  0.11114873276E+04  0.46999998093E+01 0.  1.
       -5    1    3    3    0  502  0.81919104663E+03  0.70100693414E+03  0.12598854830E+04  0.16582575834E+04  0.46999998093E+01 0. -1.
</event>
<event>
 5   0  0.2816178E-05  0.2307803E+04  0.7818609E-02  0.8474851E-01
       -2   -1    0    0    0  501  0.00000000000E+00  0.00000000000E+00  0.85410120310E+03  0.85410120311E+03  0.25500000920E-02 0.  1.
        2   -1    0    0  501    0  0.00000000000E+00  0.00000000000E+00 -0.15589360967E+04  0.15589360967E+04  0.25500000920E-02 0. -1.
    10030    2    1    2    0    0  0.00000000000E+00  0.00000000000E+00 -0.70483489363E+03  0.24130372998E+04  0.23078034542E+04 0.  0.
        1    1    3    3  502    0  0.54892745098E+03 -0.44375047828E+03  0.60203380850E+03  0.92772869957E+03  0.50400001928E-02 0.  1.
       -1    1    3    3    0  502 -0.54892745098E+03  0.44375047828E+03 -0.13068687021E+04  0.14853086003E+04  0.50400001928E-02 0. -1.
</event>
<event>
 5   0  0.1284837E-05  0.2304934E+04  0.7818609E-02  0.8475978E-01
        1   -1    0    0  501    0  0.00000000000E+00  0.00000000000E+00  0.88725733836E+03  0.88725733838E+03  0.50400001928E-02 0.  1.
       -1   -1    0    0    0  501  0.00000000000E+00  0.00000000000E+00 -0.14969509858E+04  0.14969509858E+04  0.50400001928E-02 0. -1.
    10030    2    1    2    0    0  0.00000000000E+00  0.00000000000E+00 -0.60969364740E+03  0.23842083241E+04  0.23049344870E+04 0.  0.
        4    1    3    3  502    0 -0.82968020535E+02 -0.56183895809E+03  0.73245525555E+03  0.92684357987E+03  0.12699999809E+01 0.  1.
       -4    1    3    3    0  502  0.82968020535E+02  0.56183895809E+03 -0.13421489030E+04  0.14573647443E+04  0.12699999809E+01 0. -1.
</event>
<event>
 5   0  0.1284837E-05  0.2299226E+04  0.7818609E-02  0.8478226E-01
        1   -1    0    0  501    0  0.00000000000E+00  0.00000000000E+00  0.21004094412E+04  0.21004094412E+04  0.50400001928E-02 0. -1.
       -1   -1    0    0    0  501  0.00000000000E+00  0.00000000000E+00 -0.62921540172E+03  0.62921540174E+03  0.50400001928E-02 0.  1.
    10030    2    1    2    0    0  0.00000000000E+00  0.00000000000E+00  0.14711940395E+04  0.27296248430E+04  0.22992259309E+04 0.  0.
        4    1    3    3  502    0 -0.37883811104E+03 -0.90862756250E+03  0.14404397859E+04  0.17447036285E+04  0.12699999809E+01 0. -1.
       -4    1    3    3    0  502  0.37883811104E+03  0.90862756250E+03  0.30754253638E+02  0.98492121447E+03  0.12699999809E+01 0.  1.
</event>
<event>
 5   0  0.1308224E-05  0.2304717E+04  0.7818609E-02  0.8476063E-01
       -1   -1    0    0    0  501  0.00000000000E+00  0.00000000000E+00  0.11413177621E+04  0.11413177621E+04  0.50400001928E-02 0. -1.
        1   -1    0    0  501    0  0.00000000000E+00  0.00000000000E+00 -0.11635064950E+04  0.11635064950E+04  0.50400001928E-02 0.  1.
    10030    2    1    2    0    0  0.00000000000E+00  0.00000000000E+00 -0.22188732901E+02  0.23048242571E+04  0.23047174482E+04 0.  0.
        5    1    3    3  502    0  0.10118902270E+04 -0.48990462911E+03 -0.26404908999E+03  0.11548473445E+04  0.46999998093E+01 0. -1.
       -5    1    3    3    0  502 -0.10118902270E+04  0.48990462911E+03  0.24186035709E+03  0.11499769126E+04  0.46999998093E+01 0.  1.
</event>
<event>
 5   0  0.2994157E-05  0.2294127E+04  0.7818609E-02  0.8480240E-01
       -2   -1    0    0    0  501  0.00000000000E+00  0.00000000000E+00  0.81807235947E+03  0.81807235948E+03  0.25500000920E-02 0.  1.
        2   -1    0    0  501    0  0.00000000000E+00  0.00000000000E+00 -0.16083598741E+04  0.16083598741E+04  0.25500000920E-02 0. -1.
    10030    2    1    2    0    0  0.00000000000E+00  0.00000000000E+00 -0.79028751459E+03  0.24264322335E+04  0.22941270733E+04 0.  0.
        4    1    3    3  502    0 -0.10520656941E+04  0.45249043872E+03 -0.46338873709E+03  0.12354434655E+04  0.12699999809E+01 0. -1.
       -4    1    3    3    0  502  0.10520656941E+04 -0.45249043872E+03 -0.32689877750E+03  0.11909887680E+04  0.12699999809E+01 0.  1.
</event>
<event>
 5   0  0.1308224E-05  0.2304196E+04  0.7818609E-02  0.8476268E-01
       -1   -1    0    0    0  501  0.00000000000E+00  0.00000000000E+00  0.16650351815E+04  0.16650351815E+04  0.50400001928E-02 0. -1.
        1   -1    0    0  501    0  0.00000000000E+00  0.00000000000E+00 -0.79717843114E+03  0.79717843115E+03  0.50400001928E-02 0.  1.
    10030    2    1    2    0    0  0.00000000000E+00  0.00000000000E+00  0.86785675037E+03  0.24622136127E+04  0.23041962884E+04 0.  0.
        5    1    3    3  502    0 -0.59588242734E+03  0.69633229675E+03 -0.31205354866E+03  0.96817046120E+03  0.46999998093E+01 0.  1.
       -5    1    3    3    0  502  0.59588242734E+03 -0.69633229675E+03  0.11799102990E+04  0.14940431515E+04  0.46999998093E+01 0. -1.
</event>
<event>
 5   0  0.2871888E-05  0.2297374E+04  0.7818609E-02  0.8478957E-01
        2   -1    0    0  501    0  0.00000000000E+00  0.00000000000E+00  0.15191722185E+04  0.15191722185E+04  0.25500000920E-02 0. -1.
       -2   -1    0    0    0  501  0.00000000000E+00  0.00000000000E+00 -0.86855314057E+03  0.86855314057E+03  0.25500000920E-02 0.  1.
    10030    2    1    2    0    0  0.00000000000E+00  0.00000000000E+00  0.65061907795E+03  0.23877253591E+04  0.22973739804E+04 0.  0.
        3    1    3    3  502    0 -0.39891178692E+03  0.60457135002E+03 -0.60129367957E+03  0.94137730497E+03  0.10100000352E+00 0.  1.
       -3    1    3    3    0  502  0.39891178692E+03 -0.60457135002E+03  0.12519127575E+04  0.14463480541E+04  0.10100000352E+00 0. -1.
</event>
<event>
 5   0  0.2871888E-05  0.2401836E+04  0.7818609E-02  0.8438817E-01
       -2   -1    0    0    0  501  0.00000000000E+00  0.00000000000E+00  0.97587477090E+03  0.97587477090E+03  0.25500000920E-02 0.  1.
        2   -1    0    0  501    0  0.00000000000E+00  0.00000000000E+00 -0.14778571923E+04  0.14778571923E+04  0.25500000920E-02 0. -1.
    10030    2    1    2    0    0  0.00000000000E+00  0.00000000000E+00 -0.50198242142E+03  0.24537319632E+04  0.24018355889E+04 0.  0.
        3    1    3    3  502    0 -0.62878217454E+03 -0.71084241503E+03 -0.10027853663E+04  0.13806673977E+04  0.10100000352E+00 0. -1.
       -3    1    3    3    0  502  0.62878217454E+03  0.71084241503E+03  0.50080294486E+03  0.10730645655E+04  0.10100000352E+00 0.  1.
</event>
<event>
 5   0  0.1017200E-05  0.2283546E+04  0.7818609E-02  0.8484437E-01
        3   -1    0    0  501    0  0.00000000000E+00  0.00000000000E+00  0.18664861454E+04  0.18664861481E+04  0.10100000352E+00 0.  1.
       -3   -1    0    0    0  501  0.00000000000E+00  0.00000000000E+00 -0.69844881148E+03  0.69844881878E+03  0.10100000352E+00 0. -1.
    10030    2    1    2    0    0  0.00000000000E+00  0.00000000000E+00  0.11680373339E+04  0.25649349669E+04  0.22835455264E+04 0.  0.
        5    1    3    3  502    0  0.14397145502E+03 -0.54790653255E+03 -0.52944422643E+03  0.77541126324E+03  0.46999998093E+01 0. -1.
       -5    1    3    3    0  502 -0.14397145502E+03  0.54790653255E+03  0.16974815603E+04  0.17895237036E+04  0.46999998093E+01 0.  1.
</event>
<event>
 5   0  0.1308224E-05  0.2257331E+04  0.7818609E-02  0.8494938E-01
        1   -1    0    0  501    0  0.00000000000E+00  0.00000000000E+00  0.11709670958E+04  0.11709670958E+04  0.50400001928E-02 0.  1.
       -1   -1    0    0    0  501  0.00000000000E+00  0.00000000000E+00 -0.10878918808E+04  0.10878918808E+04  0.50400001928E-02 0. -1.
    10030    2    1    2    0    0  0.00000000000E+00  0.00000000000E+00  0.83075215037E+02  0.22588589766E+04  0.22573308098E+04 0.  0.
        5    1    3    3  502    0 -0.10636980772E+04  0.10550661451E+03  0.40410631379E+03  0.11427638636E+04  0.46999998093E+01 0. -1.
       -5    1    3    3    0  502  0.10636980772E+04 -0.10550661451E+03 -0.32103109876E+03  0.11160951131E+04  0.46999998093E+01 0.  1.
</event>
<event>
 5   0  0.2871888E-05  0.2288125E+04  0.7818609E-02  0.8482618E-01
        2   -1    0    0  501    0  0.00000000000E+00  0.00000000000E+00  0.15927102367E+04  0.15927102367E+04  0.25500000920E-02 0. -1.
       -2   -1    0    0    0  501  0.00000000000E+00  0.00000000000E+00 -0.82179357488E+03  0.82179357489E+03  0.25500000920E-02 0.  1.
    10030    2    1    2    0    0  0.00000000000E+00  0.00000000000E+00  0.77091666181E+03  0.24145038116E+04  0.22881250308E+04 0.  0.
        3    1    3    3  502    0  0.55985151308E+03 -0.91111272863E+03  0.81450981367E+03  0.13442419305E+04  0.10100000352E+00 0. -1.
       -3    1    3    3    0  502 -0.55985151308E+03  0.91111272863E+03 -0.43593151862E+02  0.10702618811E+04  0.10100000352E+00 0.  1.
</event>
<event>
 5   0  0.2938972E-05  0.2274987E+04  0.7818609E-02  0.8487849E-01
        2   -1    0    0  501    0  0.00000000000E+00  0.00000000000E+00  0.17302746187E+04  0.17302746187E+04  0.25500000920E-02 0.  1.
       -2   -1    0    0    0  501  0.00000000000E+00  0.00000000000E+00 -0.74779563390E+03  0.74779563390E+03  0.25500000920E-02 0. -1.
    10030    2    1    2    0    0  0.00000000000E+00  0.00000000000E+00  0.98247898478E+03  0.24780702526E+04  0.22749873013E+04 0.  0.
        2    1    3    3  502    0 -0.18779475933E+02  0.95318680555E+03  0.11670895664E+04  0.15069889883E+04  0.25500000920E-02 0.  1.
       -2    1    3    3    0  502  0.18779475933E+02 -0.95318680555E+03 -0.18461058158E+03  0.97108126427E+03  0.25500000920E-02 0. -1.
</event>
<event>
 5   0  0.2816178E-05  0.2114083E+04  0.7818609E-02  0.8555065E-01
       -2   -1    0    0    0  501  0.00000000000E+00  0.00000000000E+00  0.10853559836E+04  0.10853559836E+04  0.25500000920E-02 0.  1.
        2   -1    0    0  501    0  0.00000000000E+00  0.00000000000E+00 -0.10294658990E+04  0.10294658990E+04  0.25500000920E-02 0. -1.
    10030    2    1    2    0    0  0.00000000000E+00  0.00000000000E+00  0.55890084559E+02  0.21148218826E+04  0.21140832277E+04 0.  0.
        1    1    3    3  502    0 -0.15298299298E+03 -0.97017425690E+03 -0.36295367819E+03  0.10470803491E+04  0.50400001928E-02 0. -1.
       -1    1    3    3    0  502  0.15298299298E+03  0.97017425690E+03  0.41884376274E+03  0.10677415336E+04  0.50400001928E-02 0.  1.
</event>
<event>
 5   0  0.1327820E-05  0.2288740E+04  0.7818609E-02  0.8482374E-01
        1   -1    0    0  501    0  0.00000000000E+00  0.00000000000E+00  0.19124468733E+04  0.19124468733E+04  0.50400001928E-02 0. -1.
       -1   -1    0    0    0  501  0.00000000000E+00  0.00000000000E+00 -0.68476789763E+03  0.68476789765E+03  0.50400001928E-02 0.  1.
    10030    2    1    2    0    0  0.00000000000E+00  0.00000000000E+00  0.12276789756E+04  0.25972147709E+04  0.22887395874E+04 0.  0.
        1    1    3    3  502    0 -0.26916000581E+02  0.24197922362E+03 -0.65503673628E+03  0.69882153778E+03  0.50400001928E-02 0.  1.
       -1    1    3    3    0  502  0.26916000581E+02 -0.24197922362E+03  0.18827157119E+04  0.18983932332E+04  0.50400001928E-02 0. -1.
</event>
<event>
 5   0  0.2994157E-05  0.2294940E+04  0.7818609E-02  0.8479919E-01
        2   -1    0    0  501    0  0.00000000000E+00  0.00000000000E+00  0.16989832070E+04  0.16989832070E+04  0.25500000920E-02 0.  1.
       -2   -1    0    0    0  501  0.00000000000E+00  0.00000000000E+00 -0.77498524596E+03  0.77498524596E+03  0.25500000920E-02 0. -1.
    10030    2    1    2    0    0  0.00000000000E+00  0.00000000000E+00  0.92399796101E+03  0.24739684529E+04  0.22949395796E+04 0.  0.
        4    1    3    3  502    0 -0.80591421384E+03  0.75758797547E+03  0.79118605094E+03  0.13599317044E+04  0.12699999809E+01 0. -1.
       -4    1    3    3    0  502  0.80591421384E+03 -0.75758797547E+03  0.13281191007E+03  0.11140367485E+04  0.12699999809E+01 0.  1.
</event>
<event>
 5   0  0.2994157E-05  0.2291383E+04  0.7818609E-02  0.8481326E-01
        2   -1    0    0  501    0  0.00000000000E+00  0.00000000000E+00  0.85933744164E+03  0.85933744164E+03  0.25500000920E-02 0.  1.
       -2   -1    0    0    0  501  0.00000000000E+00  0.00000000000E+00 -0.15274661334E+04  0.15274661334E+04  0.25500000920E-02 0. -1.
    10030    2    1    2    0    0  0.00000000000E+00  0.00000000000E+00 -0.66812869180E+03  0.23868035751E+04  0.22913828482E+04 0.  0.
        4    1    3    3  502    0 -0.74009203083E+03 -0.17882304135E+02 -0.12448628716E+04  0.14483580956E+04  0.12699999809E+01 0. -1.
       -4    1    3    3    0  502  0.74009203083E+03  0.17882304135E+02  0.57673417985E+03  0.93844547951E+03  0.12699999809E+01 0.  1.
</event>
<event>
 5   0  0.2871888E-05  0.2328715E+04  0.7818609E-02  0.8466684E-01
        2   -1    0    0  501    0  0.00000000000E+00  0.00000000000E+00  0.89431946900E+03  0.89431946900E+03  0.25500000920E-02 0. -1.
       -2   -1    0    0    0  501  0.00000000000E+00  0.00000000000E+00 -0.15159334672E+04  0.15159334672E+04  0.25500000920E-02 0.  1.
    10030    2    1    2    0    0  0.00000000000E+00  0.00000000000E+00 -0.62161399823E+03  0.24102529362E+04  0.23287153656E+04 0.  0.
        3    1    3    3  502    0  0.84077628338E+03  0.35568547101E+03 -0.10588234824E+04  0.13980429500E+04  0.10100000352E+00 0.  1.
       -3    1    3    3    0  502 -0.84077628338E+03 -0.35568547101E+03  0.43720948417E+03  0.10122099862E+04  0.10100000352E+00 0. -1.
</event>
<event>
 5   0  0.1284837E-05  0.2299076E+04  0.7818609E-02  0.8478286E-01
       -1   -1    0    0    0  501  0.00000000000E+00  0.00000000000E+00  0.59091022554E+03  0.59091022556E+03  0.50400001928E-02 0.  1.
        1   -1    0    0  501    0  0.00000000000E+00  0.00000000000E+00 -0.22362746493E+04  0.22362746494E+04  0.50400001928E-02 0. -1.
    10030    2    1    2    0    0  0.00000000000E+00  0.00000000000E+00 -0.16453644238E+04  0.28271848749E+04  0.22990759513E+04 0.  0.
        4    1    3    3  502    0 -0.52660639130E+03 -0.81305274915E+03 -0.15837760265E+04  0.18565336462E+04  0.12699999809E+01 0. -1.
       -4    1    3    3    0  502  0.52660639130E+03  0.81305274915E+03 -0.61588397263E+02  0.97065122873E+03  0.12699999809E+01 0.  1.
</event>
<event>
 5   0  0.1303224E-05  0.2304984E+04  0.7818609E-02  0.8475959E-01
        1   -1    0    0  501    0  0.00000000000E+00  0.00000000000E+00  0.10591848777E+04  0.10591848778E+04  0.50400001928E-02 0.  1.
       -1   -1    0    0    0  501  0.00000000000E+00  0.00000000000E+00 -0.12540186414E+04  0.12540186415E+04  0.50400001928E-02 0. -1.
    10030    2    1    2    0    0  0.00000000000E+00  0.00000000000E+00 -0.19483376370E+03  0.23132035192E+04  0.23049838016E+04 0.  0.
        2    1    3    3  502    0  0.25355552450E+03  0.10729082477E+04 -0.43449419540E+03  0.11849927080E+04  0.25500000920E-02 0. -1.
       -2    1    3    3    0  502 -0.25355552450E+03 -0.10729082477E+04  0.23966043170E+03  0.11282108112E+04  0.25500000920E-02 0.  1.
</event>
<event>
 5   0  0.2871888E-05  0.2290599E+04  0.7818609E-02  0.8481637E-01
       -2   -1    0    0    0  501  0.00000000000E+00  0.00000000000E+00  0.51901995233E+03  0.51901995234E+03  0.25500000920E-02 0. -1.
        2   -1    0    0  501    0  0.00000000000E+00  0.00000000000E+00 -0.25272845512E+04  0.25272845512E+04  0.25500000920E-02 0.  1.
    10030    2    1    2    0    0  0.00000000000E+00  0.00000000000E+00 -0.20082645989E+04  0.30463045036E+04  0.22905991420E+04 0.  0.
        3    1    3    3  502    0 -0.52113949655E+03 -0.43786902741E+03 -0.22290964554E+04  0.23307051890E+04  0.10100000352E+00 0.  1.
       -3    1    3    3    0  502  0.52113949655E+03  0.43786902741E+03  0.22083185652E+03  0.71559931462E+03  0.10100000352E+00 0. -1.
</event>
<event>
 5   0  0.2816178E-05  0.2420390E+04  0.7818609E-02  0.8431909E-01
       -2   -1    0    0    0  501  0.00000000000E+00  0.00000000000E+00  0.10928845990E+04  0.10928845990E+04  0.25500000920E-02 0.  1.
        2   -1    0    0  501    0  0.00000000000E+00  0.00000000000E+00 -0.13400972312E+04  0.13400972312E+04  0.25500000920E-02 0. -1.
    10030    2    1    2    0    0  0.00000000000E+00  0.00000000000E+00 -0.24721263215E+03  0.24329818302E+04  0.24203897415E+04 0.  0.
        1    1    3    3  502    0 -0.58056274332E+02 -0.51432249314E+03 -0.12232231834E+04  0.13282217866E+04  0.50400001928E-02 0. -1.
       -1    1    3    3    0  502  0.58056274332E+02  0.51432249314E+03  0.97601055121E+03  0.11047600436E+04  0.50400001928E-02 0.  1.
</event>
<event>
 5   0  0.2994157E-05  0.2287144E+04  0.7818609E-02  0.8483007E-01
        2   -1    0    0  501    0  0.00000000000E+00  0.00000000000E+00  0.13027408015E+04  0.13027408015E+04  0.25500000920E-02 0.  1.
       -2   -1    0    0    0  501  0.00000000000E+00  0.00000000000E+00 -0.10038503897E+04  0.10038503897E+04  0.25500000920E-02 0. -1.
    10030    2    1    2    0    0  0.00000000000E+00  0.00000000000E+00  0.29889041180E+03  0.23065911912E+04  0.22871439493E+04 0.  0.
        4    1    3    3  502    0  0.45114347007E+03  0.72451784183E+03  0.91703362240E+03  0.12527604764E+04  0.12699999809E+01 0.  1.
       -4    1    3    3    0  502 -0.45114347007E+03 -0.72451784183E+03 -0.61814321060E+03  0.10538307148E+04  0.12699999809E+01 0. -1.
</event>
<event>
 5   0  0.1371753E-05  0.2286857E+04  0.7818609E-02  0.8483121E-01
       -1   -1    0    0    0  501  0.00000000000E+00  0.00000000000E+00  0.15425496526E+04  0.15425496526E+04  0.50400001928E-02 0.  1.
        1   -1    0    0  501    0  0.00000000000E+00  0.00000000000E+00 -0.84757627227E+03  0.84757627229E+03  0.50400001928E-02 0. -1.
    10030    2    1    2    0    0  0.00000000000E+00  0.00000000000E+00  0.69497338036E+03  0.23901259249E+04  0.22868567812E+04 0.  0.
        3    1    3    3  502    0 -0.91464289140E+03  0.64734470359E+03  0.10960896291E+03  0.11258956075E+04  0.10100000352E+00 0.  1.
       -3    1    3    3    0  502  0.91464289140E+03 -0.64734470359E+03  0.58536441745E+03  0.12642303174E+04  0.10100000352E+00 0. -1.
</event>
<event>
 5   0  0.1327820E-05  0.2296127E+04  0.7818609E-02  0.8479450E-01
        1   -1    0    0  501    0  0.00000000000E+00  0.00000000000E+00  0.14264377670E+04  0.14264377670E+04  0.50400001928E-02 0.  1.
       -1   -1    0    0    0  501  0.00000000000E+00  0.00000000000E+00 -0.92401496513E+03  0.92401496515E+03  0.50400001928E-02 0. -1.
    10030    2    1    2    0    0  0.00000000000E+00  0.00000000000E+00  0.50242280185E+03  0.23504527321E+04  0.22961270379E+04 0.  0.
        1    1    3    3  502    0  0.96813722025E+03 -0.61616895788E+03  0.28510028356E+03  0.11824703098E+04  0.50400001928E-02 0. -1.
       -1    1    3    3    0  502 -0.96813722025E+03  0.61616895788E+03  0.21732251829E+03  0.11679824223E+04  0.50400001928E-02 0.  1.
</event>
<event>
 5   0  0.1303224E-05  0.2299651E+04  0.7818609E-02  0.8478059E-01
        1   -1    0    0  501    0  0.00000000000E+00  0.00000000000E+00  0.11388469049E+04  0.11388469049E+04  0.50400001928E-02 0. -1.
       -1   -1    0    0    0  501  0.00000000000E+00  0.00000000000E+00 -0.11609099590E+04  0.11609099590E+04  0.50400001928E-02 0.  1.
    10030    2    1    2    0    0  0.00000000000E+00  0.00000000000E+00 -0.22063054118E+02  0.22997568640E+04  0.22996510290E+04 0.  0.
        2    1    3    3  502    0 -0.97678411312E+03 -0.12796244658E+03 -0.60403193811E+03  0.11555674682E+04  0.25500000920E-02 0.  1.
       -2    1    3    3    0  502  0.97678411312E+03  0.12796244658E+03  0.58196888400E+03  0.11441893957E+04  0.25500000920E-02 0. -1.
</event>
<event>
 5   0  0.2816178E-05  0.2312780E+04  0.7818609E-02  0.8472899E-01
        2   -1    0    0  501    0  0.00000000000E+00  0.00000000000E+00  0.23791146080E+04  0.23791146080E+04  0.25500000920E-02 0.  1.
       -2   -1    0    0    0  501  0.00000000000E+00  0.00000000000E+00 -0.56207361698E+03  0.56207361698E+03  0.25500000920E-02 0. -1.
    10030    2    1    2    0    0  0.00000000000E+00  0.00000000000E+00  0.18170409910E+04  0.29411882250E+04  0.23127797586E+04 0.  0.
        1    1    3    3  502    0 -0.21651538026E+03  0.20648280348E+03  0.23290416883E+04  0.23481799855E+04  0.50400001928E-02 0.  1.
       -1    1    3    3    0  502  0.21651538026E+03 -0.20648280348E+03 -0.51200069734E+03  0.59300823951E+03  0.50400001928E-02 0. -1.
</event>
<event>
 5   0  0.2994157E-05  0.2209846E+04  0.7818609E-02  0.8514341E-01
        2   -1    0    0  501    0  0.00000000000E+00  0.00000000000E+00  0.10834495941E+04  0.10834495941E+04  0.25500000920E-02 0. -1.
       -2   -1    0    0    0  501  0.00000000000E+00  0.00000000000E+00 -0.11268215721E+04  0.11268215722E+04  0.25500000920E-02 0.  1.
    10030    2    1    2    0    0  0.00000000000E+00  0.00000000000E+00 -0.43371978006E+02  0.22102711663E+04  0.22098455829E+04 0.  0.
        4    1    3    3  502    0 -0.22168508962E+03  0.69837422156E+03 -0.84887726357E+03  0.11213674927E+04  0.12699999809E+01 0.  1.
       -4    1    3    3    0  502  0.22168508962E+03 -0.69837422156E+03  0.80550528556E+03  0.10889036735E+04  0.12699999809E+01 0. -1.
</event>
<event>
 5   0  0.1308224E-05  0.2229828E+04  0.7818609E-02  0.8506115E-01
        1   -1    0    0  501    0  0.00000000000E+00  0.00000000000E+00  0.10805900312E+04  0.10805900312E+04  0.50400001928E-02 0.  1.
       -1   -1    0    0    0  501  0.00000000000E+00  0.00000000000E+00 -0.11503284760E+04  0.11503284760E+04  0.50400001928E-02 0. -1.
    10030    2    1    2    0    0  0.00000000000E+00  0.00000000000E+00 -0.69738444747E+02  0.22309185072E+04  0.22298282300E+04 0.  0.
        5    1    3    3  502    0  0.23752207812E+03  0.49558773726E+03 -0.10053886038E+04  0.11457976600E+04  0.46999998093E+01 0. -1.
       -5    1    3    3    0  502 -0.23752207812E+03 -0.49558773726E+03  0.93565015909E+03  0.10851208472E+04  0.46999998093E+01 0.  1.
</event>
<event>
 5   0  0.2816178E-05  0.2292564E+04  0.7818609E-02  0.8480859E-01
        2   -1    0    0  501    0  0.00000000000E+00  0.00000000000E+00  0.91776655120E+03  0.91776655120E+03  0.25500000920E-02 0. -1.
       -2   -1    0    0    0  501  0.00000000000E+00  0.00000000000E+00 -0.14316952131E+04  0.14316952131E+04  0.25500000920E-02 0.  1.
    10030    2    1    2    0    0  0.00000000000E+00  0.00000000000E+00 -0.51392866190E+03  0.23494617643E+04  0.22925636114E+04 0.  0.
        1    1    3    3  502    0  0.10156199243E+04 -0.47797610041E+03 -0.49514811827E+03  0.12268319535E+04  0.50400001928E-02 0.  1.
       -1    1    3    3    0  502 -0.10156199243E+04  0.47797610041E+03 -0.18780543623E+02  0.11226298108E+04  0.50400001928E-02 0. -1.
</event>
<event>
 5   0  0.1371753E-05  0.2297533E+04  0.7818609E-02  0.8478894E-01
       -1   -1    0    0    0  501  0.00000000000E+00  0.00000000000E+00  0.86267852878E+03  0.86267852880E+03  0.50400001928E-02 0. -1.
        1   -1    0    0  501    0  0.00000000000E+00  0.00000000000E+00 -0.15297290941E+04  0.15297290941E+04  0.50400001928E-02 0.  1.
    10030    2    1    2    0    0  0.00000000000E+00  0.00000000000E+00 -0.66705056530E+03  0.23924076229E+04  0.22975329763E+04 0.  0.
        3    1    3    3  502    0 -0.96066317998E+03  0.99961226384E+02  0.31408805139E+03  0.10156364046E+04  0.10100000352E+00 0. -1.
       -3    1    3    3    0  502  0.96066317998E+03 -0.99961226384E+02 -0.98113861669E+03  0.13767712183E+04  0.10100000352E+00 0.  1.
</event>
<event>
 5   0  0.1017200E-05  0.2255629E+04  0.7818609E-02  0.8495624E-01
        3   -1    0    0  501    0  0.00000000000E+00  0.00000000000E+00  0.81928356577E+03  0.81928357200E+03  0.10100000352E+00 0. -1.
       -3   -1    0    0    0  501  0.00000000000E+00  0.00000000000E+00 -0.15525337784E+04  0.15525337817E+04  0.10100000352E+00 0.  1.
    10030    2    1    2    0    0  0.00000000000E+00  0.00000000000E+00 -0.73325021260E+03  0.23718173537E+04  0.22556288890E+04 0.  0.
        4    1    3    3  502    0  0.26957454726E+03  0.79662574861E+03  0.42353500208E+03  0.94162972062E+03  0.12699999809E+01 0. -1.
       -4    1    3    3    0  502 -0.26957454726E+03 -0.79662574861E+03 -0.11567852147E+04  0.14301876330E+04  0.12699999809E+01 0.  1.
</event>
<event>
 5   0  0.1308224E-05  0.2313852E+04  0.7818609E-02  0.8472479E-01
       -1   -1    0    0    0  501  0.00000000000E+00  0.00000000000E+00  0.12360352794E+04  0.12360352794E+04  0.50400001928E-02 0.  1.
        1   -1    0    0  501    0  0.00000000000E+00  0.00000000000E+00 -0.10828800189E+04  0.10828800189E+04  0.50400001928E-02 0. -1.
    10030    2    1    2    0    0  0.00000000000E+00  0.00000000000E+00  0.15315526050E+03  0.23189152983E+04  0.23138521187E+04 0.  0.
        5    1    3    3  502    0 -0.25619275719E+03  0.53539400294E+03  0.10718137692E+04  0.12251890928E+04  0.46999998093E+01 0.  1.
       -5    1    3    3    0  502  0.25619275719E+03 -0.53539400294E+03 -0.91865850867E+03  0.10937262056E+04  0.46999998093E+01 0. -1.
</event>
<event>
 5   0  0.2910126E-05  0.2356796E+04  0.7818609E-02  0.8455858E-01
        2   -1    0    0  501    0  0.00000000000E+00  0.00000000000E+00  0.27256492219E+04  0.27256492219E+04  0.25500000920E-02 0. -1.
       -2   -1    0    0    0  501  0.00000000000E+00  0.00000000000E+00 -0.50946470074E+03  0.50946470074E+03  0.25500000920E-02 0.  1.
    10030    2    1    2    0    0  0.00000000000E+00  0.00000000000E+00  0.22161845211E+04  0.32351139226E+04  0.23567961856E+04 0.  0.
        5    1    3    3  502    0 -0.26177036345E+03 -0.81905180088E+02 -0.46502368499E+03  0.53990860274E+03  0.46999998093E+01 0.  1.
       -5    1    3    3    0  502  0.26177036345E+03  0.81905180088E+02  0.26812082061E+04  0.26952053199E+04  0.46999998093E+01 0. -1.
</event>
<event>
 5   0  0.2910126E-05  0.2284208E+04  0.7818609E-02  0.8484174E-01
        2   -1    0    0  501    0  0.00000000000E+00  0.00000000000E+00  0.21937646468E+04  0.21937646468E+04  0.25500000920E-02 0. -1.
       -2   -1    0    0    0  501  0.00000000000E+00  0.00000000000E+00 -0.59459509233E+03  0.59459509234E+03  0.25500000920E-02 0.  1.
    10030    2    1    2    0    0  0.00000000000E+00  0.00000000000E+00  0.15991695545E+04  0.27883597392E+04  0.22842081278E+04 0.  0.
        5    1    3    3  502    0  0.88745391476E+03  0.66585442572E+03  0.46876730370E+03  0.12044506806E+04  0.46999998093E+01 0.  1.
       -5    1    3    3    0  502 -0.88745391476E+03 -0.66585442572E+03  0.11304022508E+04  0.15839090585E+04  0.46999998093E+01 0. -1.
</event>
<event>
 5   0  0.2994157E-05  0.2296056E+04  0.7818609E-02  0.8479478E-01
        2   -1    0    0  501    0  0.00000000000E+00  0.00000000000E+00  0.16418079179E+04  0.16418079179E+04  0.25500000920E-02 0. -1.
       -2   -1    0    0    0  501  0.00000000000E+00  0.00000000000E+00 -0.80275430356E+03  0.80275430356E+03  0.25500000920E-02 0.  1.
    10030    2    1    2    0    0  0.00000000000E+00  0.00000000000E+00  0.83905361433E+03  0.24445622214E+04  0.22960560722E+04 0.  0.
        4    1    3    3  502    0 -0.75027514099E+03  0.23517096410E+01 -0.50561011431E+03  0.90474389654E+03  0.12699999809E+01 0.  1.
       -4    1    3    3    0  502  0.75027514099E+03 -0.23517096410E+01  0.13446637286E+04  0.15398183249E+04  0.12699999809E+01 0. -1.
</event>
<event>
 5   0  0.1327820E-05  0.2305164E+04  0.7818609E-02  0.8475888E-01
        1   -1    0    0  501    0  0.00000000000E+00  0.00000000000E+00  0.16290083424E+04  0.16290083424E+04  0.50400001928E-02 0.  1.
       -1   -1    0    0    0  501  0.00000000000E+00  0.00000000000E+00 -0.81549320712E+03  0.81549320714E+03  0.50400001928E-02 0. -1.
    10030    2    1    2    0    0  0.00000000000E+00  0.00000000000E+00  0.81351513529E+03  0.24445015496E+04  0.23051639747E+04 0.  0.
        1    1    3    3  502    0  0.73525919559E+03 -0.71388879602E+03 -0.15257302021E+03  0.10361089828E+04  0.50400001928E-02 0. -1.
       -1    1    3    3    0  502 -0.73525919559E+03  0.71388879602E+03  0.96608815551E+03  0.14083925667E+04  0.50400001928E-02 0.  1.
</event>
<event>
 5   0  0.2910126E-05  0.2296876E+04  0.7818609E-02  0.8479154E-01
        2   -1    0    0  501    0  0.00000000000E+00  0.00000000000E+00  0.10341738888E+04  0.10341738889E+04  0.25500000920E-02 0.  1.
       -2   -1    0    0    0  501  0.00000000000E+00  0.00000000000E+00 -0.12753265183E+04  0.12753265183E+04  0.25500000920E-02 0. -1.
    10030    2    1    2    0    0  0.00000000000E+00  0.00000000000E+00 -0.24115262950E+03  0.23095004072E+04  0.22968756040E+04 0.  0.
        5    1    3    3  502    0  0.58074594154E+02 -0.10263903508E+03  0.10280598175E+04  0.10348123059E+04  0.46999998093E+01 0.  1.
       -5    1    3    3    0  502 -0.58074594154E+02  0.10263903508E+03 -0.12692124470E+04  0.12746881013E+04  0.46999998093E+01 0. -1.
</event>
<event>
 5   0  0.1308224E-05  0.2294008E+04  0.7818609E-02  0.8480287E-01
        1   -1    0    0  501    0  0.00000000000E+00  0.00000000000E+00  0.22539144094E+04  0.22539144094E+04  0.50400001928E-02 0.  1.
       -1   -1    0    0    0  501  0.00000000000E+00  0.00000000000E+00 -0.58370389806E+03  0.58370389809E+03  0.50400001928E-02 0. -1.
    10030    2    1    2    0    0  0.00000000000E+00  0.00000000000E+00  0.16702105113E+04  0.28376183075E+04  0.22940083929E+04 0.  0.
        5    1    3    3  502    0 -0.10199965489E+03  0.41029486731E+03 -0.48379118805E+03  0.64251210990E+03  0.46999998093E+01 0. -1.
       -5    1    3    3    0  502  0.10199965489E+03 -0.41029486731E+03  0.21540016994E+04  0.21951061976E+04  0.46999998093E+01 0.  1.
</event>
<event>
 5   0  0.2871888E-05  0.2293058E+04  0.7818609E-02  0.8480663E-01
        2   -1    0    0  501    0  0.00000000000E+00  0.00000000000E+00  0.16121520000E+04  0.16121520000E+04  0.25500000920E-02 0. -1.
       -2   -1    0    0    0  501  0.00000000000E+00  0.00000000000E+00 -0.81538729082E+03  0.81538729083E+03  0.25500000920E-02 0.  1.
    10030    2    1    2    0    0  0.00000000000E+00  0.00000000000E+00  0.79676470914E+03  0.24275392908E+04  0.22930575672E+04 0.  0.
        3    1    3    3  502    0  0.10608849136E+04  0.43153505366E+03  0.34207526271E+03  0.11952885836E+04  0.10100000352E+00 0.  1.
       -3    1    3    3    0  502 -0.10608849136E+04 -0.43153505366E+03  0.45468944644E+03  0.12322507072E+04  0.10100000352E+00 0. -1.
</event>
<event>
 5   0  0.2910126E-05  0.2292376E+04  0.7818609E-02  0.8480933E-01
        2   -1    0    0  501    0  0.00000000000E+00  0.00000000000E+00  0.20598076156E+04  0.20598076156E+04  0.25500000920E-02 0.  1.
       -2   -1    0    0    0  501  0.00000000000E+00  0.00000000000E+00 -0.63780055590E+03  0.63780055590E+03  0.25500000920E-02 0. -1.
    10030    2    1    2    0    0  0.00000000000E+00  0.00000000000E+00  0.14220070597E+04  0.26976081715E+04  0.22923755733E+04 0.  0.
        5    1    3    3  502    0 -0.79144451417E+03 -0.77742516511E+03  0.37208024125E+03  0.11701453338E+04  0.46999998093E+01 0. -1.
       -5    1    3    3    0  502  0.79144451417E+03  0.77742516511E+03  0.10499268185E+04  0.15274628377E+04  0.46999998093E+01 0.  1.
</event>
<event>
 5   0  0.1284837E-05  0.2316316E+04  0.7818609E-02  0.8471516E-01
        1   -1    0    0  501    0  0.00000000000E+00  0.00000000000E+00  0.25878779136E+04  0.25878779136E+04  0.50400001928E-02 0.  1.
       -1   -1    0    0    0  501  0.00000000000E+00  0.00000000000E+00 -0.51831272627E+03  0.51831272629E+03  0.50400001928E-02 0. -1.
    10030    2    1    2    0    0  0.00000000000E+00  0.00000000000E+00  0.20695651873E+04  0.31061906399E+04  0.23163160896E+04 0.  0.
        4    1    3    3  502    0  0.31163803770E+03  0.10277659620E+04  0.16160849912E+04  0.19404003326E+04  0.12699999809E+01 0.  1.
       -4    1    3    3    0  502 -0.31163803770E+03 -0.10277659620E+04  0.45348019614E+03  0.11657903072E+04  0.12699999809E+01 0. -1.
</event>
<event>
 5   0  0.2871888E-05  0.2342682E+04  0.7818609E-02  0.8461280E-01
       -2   -1    0    0    0  501  0.00000000000E+00  0.00000000000E+00  0.53473568216E+03  0.53473568217E+03  0.25500000920E-02 0.  1.
        2   -1    0    0  501    0  0.00000000000E+00  0.00000000000E+00 -0.25658283561E+04  0.25658283561E+04  0.25500000920E-02 0. -1.
    10030    2    1    2    0    0  0.00000000000E+00  0.00000000000E+00 -0.20310926740E+04  0.31005640383E+04  0.23426822032E+04 0.  0.
        3    1    3    3  502    0 -0.62101796044E+03 -0.81402643023E+02  0.29449507026E+03  0.69211057938E+03  0.10100000352E+00 0.  1.
       -3    1    3    3    0  502  0.62101796044E+03  0.81402643023E+02 -0.23255877442E+04  0.24084534589E+04  0.10100000352E+00 0. -1.
</event>
<event>
 5   0  0.2938972E-05  0.2301463E+04  0.7818609E-02  0.8477344E-01
        2   -1    0    0  501    0  0.00000000000E+00  0.00000000000E+00  0.11633744592E+04  0.11633744592E+04  0.25500000920E-02 0.  1.
       -2   -1    0    0    0  501  0.00000000000E+00  0.00000000000E+00 -0.11382263564E+04  0.11382263564E+04  0.25500000920E-02 0. -1.
    10030    2    1    2    0    0  0.00000000000E+00  0.00000000000E+00  0.25148102821E+02  0.23016008156E+04  0.23014634229E+04 0.  0.
        2    1    3    3  502    0  0.51698269014E+03  0.66609186788E+03 -0.77056528052E+03  0.11422435510E+04  0.25500000920E-02 0. -1.
       -2    1    3    3    0  502 -0.51698269014E+03 -0.66609186788E+03  0.79571338334E+03  0.11593572645E+04  0.25500000920E-02 0.  1.
</event>
<event>
 5   0  0.2994157E-05  0.2295513E+04  0.7818609E-02  0.8479693E-01
        2   -1    0    0  501    0  0.00000000000E+00  0.00000000000E+00  0.10431697866E+04  0.10431697866E+04  0.25500000920E-02 0. -1.
       -2   -1    0    0    0  501  0.00000000000E+00  0.00000000000E+00 -0.12628285385E+04  0.12628285385E+04  0.25500000920E-02 0.  1.
    10030    2    1    2    0    0  0.00000000000E+00  0.00000000000E+00 -0.21965875192E+03  0.23059983251E+04  0.22955126460E+04 0.  0.
        4    1    3    3  502    0 -0.44148373097E+03  0.68727248400E+03  0.70013623294E+03  0.10758455789E+04  0.12699999809E+01 0. -1.
       -4    1    3    3    0  502  0.44148373097E+03 -0.68727248400E+03 -0.91979498486E+03  0.12301527462E+04  0.12699999809E+01 0.  1.
</event>
<event>
 5   0  0.2871888E-05  0.2319790E+04  0.7818609E-02  0.8470159E-01
       -2   -1    0    0    0  501  0.00000000000E+00  0.00000000000E+00  0.49410676885E+03  0.49410676886E+03  0.25500000920E-02 0.  1.
        2   -1    0    0  501    0  0.00000000000E+00  0.00000000000E+00 -0.27228059141E+04  0.27228059141E+04  0.25500000920E-02 0. -1.
    10030    2    1    2    0    0  0.00000000000E+00  0.00000000000E+00 -0.22286991453E+04  0.32169126830E+04  0.23197903633E+04 0.  0.
        3    1    3    3  502    0  0.34176813187E+03 -0.56725176828E+03  0.20615750254E+03  0.69359999325E+03  0.10100000352E+00 0.  1.
       -3    1    3    3    0  502 -0.34176813187E+03  0.56725176828E+03 -0.24348566478E+04  0.25233126897E+04  0.10100000352E+00 0. -1.
</event>
<event>
 5   0  0.2816178E-05  0.2315379E+04  0.7818609E-02  0.8471882E-01
        2   -1    0    0  501    0  0.00000000000E+00  0.00000000000E+00  0.11645199027E+04  0.11645199027E+04  0.25500000920E-02 0.  1.
       -2   -1    0    0    0  501  0.00000000000E+00  0.00000000000E+00 -0.11508993116E+04  0.11508993116E+04  0.25500000920E-02 0. -1.
    10030    2    1    2    0    0  0.00000000000E+00  0.00000000000E+00  0.13620591124E+02  0.23154192143E+04  0.23153791520E+04 0.  0.
        1    1    3    3  502    0 -0.10791520175E+04 -0.41908410608E+03  0.13263497589E+00  0.11576703254E+04  0.50400001928E-02 0. -1.
       -1    1    3    3    0  502  0.10791520175E+04  0.41908410608E+03  0.13487956148E+02  0.11577488889E+04  0.50400001928E-02 0.  1.
</event>
<event>
 5   0  0.2816178E-05  0.2299838E+04  0.7818609E-02  0.8477985E-01
       -2   -1    0    0    0  501  0.00000000000E+00  0.00000000000E+00  0.13303320859E+04  0.13303320859E+04  0.25500000920E-02 0. -1.
        2   -1    0    0  501    0  0.00000000000E+00  0.00000000000E+00 -0.99397246217E+03  0.99397246217E+03  0.25500000920E-02 0.  1.
    10030    2    1    2    0    0  0.00000000000E+00  0.00000000000E+00  0.33635962375E+03  0.23243045481E+04  0.22998377847E+04 0.  0.
        1    1    3    3  502    0  0.11152095968E+04  0.27439453838E+03  0.22648805908E+03  0.11705902991E+04  0.50400001928E-02 0. -1.
       -1    1    3    3    0  502 -0.11152095968E+04 -0.27439453838E+03  0.10987156466E+03  0.11537142490E+04  0.50400001928E-02 0.  1.
</event>
<event>
 5   0  0.1327820E-05  0.2288516E+04  0.7818609E-02  0.8482463E-01
       -1   -1    0    0    0  501  0.00000000000E+00  0.00000000000E+00  0.18368391703E+04  0.18368391703E+04  0.50400001928E-02 0. -1.
        1   -1    0    0  501    0  0.00000000000E+00  0.00000000000E+00 -0.71281512602E+03  0.71281512604E+03  0.50400001928E-02 0.  1.
    10030    2    1    2    0    0  0.00000000000E+00  0.00000000000E+00  0.11240240443E+04  0.25496542964E+04  0.22885163270E+04 0.  0.
        1    1    3    3  502    0  0.93201847847E+03  0.38609944402E+03  0.11636257083E+04  0.15400506530E+04  0.50400001928E-02 0. -1.
       -1    1    3    3    0  502 -0.93201847847E+03 -0.38609944402E+03 -0.39601663949E+02  0.10096036434E+04  0.50400001928E-02 0.  1.
</event>
<event>
 5   0  0.1303224E-05  0.2292229E+04  0.7818609E-02  0.8480991E-01
       -1   -1    0    0    0  501  0.00000000000E+00  0.00000000000E+00  0.96060312388E+03  0.96060312390E+03  0.50400001928E-02 0. -1.
        1   -1    0    0  501    0  0.00000000000E+00  0.00000000000E+00 -0.13674520055E+04  0.13674520055E+04  0.50400001928E-02 0.  1.
    10030    2    1    2    0    0  0.00000000000E+00  0.00000000000E+00 -0.40684888158E+03  0.23280551294E+04  0.22922291929E+04 0.  0.
        2    1    3    3  502    0  0.28359778005E+03 -0.21491977692E+00  0.92440476575E+03  0.96692911735E+03  0.25500000920E-02 0. -1.
       -2    1    3    3    0  502 -0.28359778005E+03  0.21491977692E+00 -0.13312536473E+04  0.13611260120E+04  0.25500000920E-02 0.  1.
</event>
<event>
 5   0  0.2816178E-05  0.2306474E+04  0.7818609E-02  0.8475373E-01
       -2   -1    0    0    0  501  0.00000000000E+00  0.00000000000E+00  0.11295364138E+04  0.11295364138E+04  0.25500000920E-02 0.  1.
        2   -1    0    0  501    0  0.00000000000E+00  0.00000000000E+00 -0.11774347612E+04  0.11774347612E+04  0.25500000920E-02 0. -1.
    10030    2    1    2    0    0  0.00000000000E+00  0.00000000000E+00 -0.47898347407E+02  0.23069711751E+04  0.23064738782E+04 0.  0.
        1    1    3    3  502    0  0.96359278106E+03  0.58393260655E+03  0.22200443635E+03  0.11483789908E+04  0.50400001928E-02 0. -1.
       -1    1    3    3    0  502 -0.96359278106E+03 -0.58393260655E+03 -0.26990278376E+03  0.11585921843E+04  0.50400001928E-02 0.  1.
</event>
<event>
 5   0  0.1308224E-05  0.2292584E+04  0.7818609E-02  0.8480851E-01
        1   -1    0    0  501    0  0.00000000000E+00  0.00000000000E+00  0.14480168274E+04  0.14480168274E+04  0.50400001928E-02 0.  1.
       -1   -1    0    0    0  501  0.00000000000E+00  0.00000000000E+00 -0.90743818977E+03  0.90743818978E+03  0.50400001928E-02 0. -1.
    10030    2    1    2    0    0  0.00000000000E+00  0.00000000000E+00  0.54057863762E+03  0.23554550172E+04  0.22925843658E+04 0.  0.
        5    1    3    3  502    0 -0.47620215236E+03  0.35816338062E+03 -0.73580653472E+03  0.94682777930E+03  0.46999998093E+01 0. -1.
       -5    1    3    3    0  502  0.47620215236E+03 -0.35816338062E+03  0.12763851723E+04  0.14086272379E+04  0.46999998093E+01 0.  1.
</event>
<event>
 5   0  0.2910126E-05  0.2320901E+04  0.7818609E-02  0.8469725E-01
       -2   -1    0    0    0  501  0.00000000000E+00  0.00000000000E+00  0.77351186008E+03  0.77351186008E+03  0.25500000920E-02 0. -1.
        2   -1    0    0  501    0  0.00000000000E+00  0.00000000000E+00 -0.17409497709E+04  0.17409497709E+04  0.25500000920E-02 0.  1.
    10030    2    1    2    0    0  0.00000000000E+00  0.00000000000E+00 -0.96743791086E+03  0.25144616310E+04  0.23209009420E+04 0.  0.
        5    1    3    3  502    0  0.11274609686E+04  0.18496318439E+03 -0.26369668573E+03  0.11725773524E+04  0.46999998093E+01 0.  1.
       -5    1    3    3    0  502 -0.11274609686E+04 -0.18496318439E+03 -0.70374122514E+03  0.13418842786E+04  0.46999998093E+01 0. -1.
</event>
<event>
 5   0  0.1371753E-05  0.2298309E+04  0.7818609E-02  0.8478588E-01
        1   -1    0    0  501    0  0.00000000000E+00  0.00000000000E+00  0.13033473491E+04  0.13033473491E+04  0.50400001928E-02 0. -1.
       -1   -1    0    0    0  501  0.00000000000E+00  0.00000000000E+00 -0.10132038410E+04  0.10132038410E+04  0.50400001928E-02 0.  1.
    10030    2    1    2    0    0  0.00000000000E+00  0.00000000000E+00  0.29014350809E+03  0.23165511901E+04  0.22983094137E+04 0.  0.
        3    1    3    3  502    0  0.96841545273E+03 -0.37312127865E+03 -0.35231076221E+03  0.10959794072E+04  0.10100000352E+00 0.  1.
       -3    1    3    3    0  502 -0.96841545273E+03  0.37312127865E+03  0.64245427030E+03  0.12205717829E+04  0.10100000352E+00 0. -1.
</event>
<event>
 5   0  0.2938972E-05  0.2304511E+04  0.7818609E-02  0.8476145E-01
       -2   -1    0    0    0  501  0.00000000000E+00  0.00000000000E+00  0.10451026789E+04  0.10451026789E+04  0.25500000920E-02 0. -1.
        2   -1    0    0  501    0  0.00000000000E+00  0.00000000000E+00 -0.12703940000E+04  0.12703940000E+04  0.25500000920E-02 0.  1.
    10030    2    1    2    0    0  0.00000000000E+00  0.00000000000E+00 -0.22529132114E+03  0.23154966789E+04  0.23045105100E+04 0.  0.
        2    1    3    3  502    0  0.77998335134E+03 -0.21288881183E+03  0.71224101663E+03  0.10774891834E+04  0.25500000920E-02 0. -1.
       -2    1    3    3    0  502 -0.77998335134E+03  0.21288881183E+03 -0.93753233777E+03  0.12380074955E+04  0.25500000920E-02 0.  1.
</event>
<event>
 5   0  0.1284837E-05  0.2247312E+04  0.7818609E-02  0.8498990E-01
        1   -1    0    0  501    0  0.00000000000E+00  0.00000000000E+00  0.12176569999E+04  0.12176569999E+04  0.50400001928E-02 0. -1.
       -1   -1    0    0    0  501  0.00000000000E+00  0.00000000000E+00 -0.10369115207E+04  0.10369115207E+04  0.50400001928E-02 0.  1.
    10030    2    1    2    0    0  0.00000000000E+00  0.00000000000E+00  0.18074547915E+03  0.22545685206E+04  0.22473117910E+04 0.  0.
        4    1    3    3  502    0  0.71075261890E+02  0.43296250905E+03  0.11281659272E+04  0.12104826307E+04  0.12699999809E+01 0. -1.
       -4    1    3    3    0  502 -0.71075261890E+02 -0.43296250905E+03 -0.94742044807E+03  0.10440858899E+04  0.12699999809E+01 0.  1.
</event>
<event>
 5   0  0.1308224E-05  0.2275007E+04  0.7818609E-02  0.8487841E-01
       -1   -1    0    0    0  501  0.00000000000E+00  0.00000000000E+00  0.90695481513E+03  0.90695481515E+03  0.50400001928E-02 0. -1.
        1   -1    0    0  501    0  0.00000000000E+00  0.00000000000E+00 -0.14266578367E+04  0.14266578367E+04  0.50400001928E-02 0.  1.
    10030    2    1    2    0    0  0.00000000000E+00  0.00000000000E+00 -0.51970302156E+03  0.23336126519E+04  0.22750069842E+04 0.  0.
        5    1    3    3  502    0 -0.10842322243E+04  0.19499676490E+03  0.30836914856E+02  0.11020690813E+04  0.46999998093E+01 0. -1.
       -5    1    3    3    0  502  0.10842322243E+04 -0.19499676490E+03 -0.55053993642E+03  0.12315435706E+04  0.46999998093E+01 0.  1.
</event>
<event>
 5   0  0.1327820E-05  0.2300065E+04  0.7818609E-02  0.8477895E-01
       -1   -1    0    0    0  501  0.00000000000E+00  0.00000000000E+00  0.84009098669E+03  0.84009098671E+03  0.50400001928E-02 0.  1.
        1   -1    0    0  501    0  0.00000000000E+00  0.00000000000E+00 -0.15743238447E+04  0.15743238448E+04  0.50400001928E-02 0. -1.
    10030    2    1    2    0    0  0.00000000000E+00  0.00000000000E+00 -0.73423285805E+03  0.24144148315E+04  0.23000654531E+04 0.  0.
        1    1    3    3  502    0 -0.19545523619E+03  0.10178079835E+04  0.15610070633E+03  0.10480950678E+04  0.50400001928E-02 0.  1.
       -1    1    3    3    0  502  0.19545523619E+03 -0.10178079835E+04 -0.89033356438E+03  0.13663197636E+04  0.50400001928E-02 0. -1.
</event>
<event>
 5   0  0.1303224E-05  0.2297774E+04  0.7818609E-02  0.8478799E-01
        1   -1    0    0  501    0  0.00000000000E+00  0.00000000000E+00  0.11728656842E+04  0.11728656842E+04  0.50400001928E-02 0.  1.
       -1   -1    0    0    0  501  0.00000000000E+00  0.00000000000E+00 -0.11253986439E+04  0.11253986439E+04  0.50400001928E-02 0. -1.
    10030    2    1    2    0    0  0.00000000000E+00  0.00000000000E+00  0.47467040318E+02  0.22982643281E+04  0.22977740972E+04 0.  0.
        2    1    3    3  502    0 -0.10205581726E+04 -0.41910865930E+03 -0.29688189859E+03  0.11425103561E+04  0.25500000920E-02 0.  1.
       -2    1    3    3    0  502  0.10205581726E+04  0.41910865930E+03  0.34434893891E+03  0.11557539720E+04  0.25500000920E-02 0. -1.
</event>
<event>
 5   0  0.2871888E-05  0.2314250E+04  0.7818609E-02  0.8472324E-01
       -2   -1    0    0    0  501  0.00000000000E+00  0.00000000000E+00  0.84946686410E+03  0.84946686411E+03  0.25500000920E-02 0. -1.
        2   -1    0    0  501    0  0.00000000000E+00  0.00000000000E+00 -0.15762095236E+04  0.15762095236E+04  0.25500000920E-02 0.  1.
    10030    2    1    2    0    0  0.00000000000E+00  0.00000000000E+00 -0.72674265952E+03  0.24256763877E+04  0.23142495641E+04 0.  0.
        3    1    3    3  502    0 -0.87147720090E+03  0.26514522537E+03 -0.11112845234E+04  0.14369160742E+04  0.10100000352E+00 0.  1.
       -3    1    3    3    0  502  0.87147720090E+03 -0.26514522537E+03  0.38454186390E+03  0.98876031349E+03  0.10100000352E+00 0. -1.
</event>
<event>
 5   0  0.2816178E-05  0.2320036E+04  0.7818609E-02  0.8470063E-01
        2   -1    0    0  501    0  0.00000000000E+00  0.00000000000E+00  0.18750219600E+04  0.18750219600E+04  0.25500000920E-02 0. -1.
       -2   -1    0    0    0  501  0.00000000000E+00  0.00000000000E+00 -0.71766743040E+03  0.71766743041E+03  0.25500000920E-02 0.  1.
    10030    2    1    2    0    0  0.00000000000E+00  0.00000000000E+00  0.11573545296E+04  0.25926893904E+04  0.23200363721E+04 0.  0.
        1    1    3    3  502    0  0.11491704457E+04  0.14934996850E+03  0.52013723541E+03  0.12702129231E+04  0.50400001928E-02 0. -1.
       -1    1    3    3    0  502 -0.11491704457E+04 -0.14934996850E+03  0.63721729423E+03  0.13224764673E+04  0.50400001928E-02 0.  1.
</event>
<event>
 5   0  0.1303224E-05  0.2301846E+04  0.7818609E-02  0.8477193E-01
        1   -1    0    0  501    0  0.00000000000E+00  0.00000000000E+00  0.18272533003E+04  0.18272533003E+04  0.50400001928E-02 0.  1.
       -1   -1    0    0    0  501  0.00000000000E+00  0.00000000000E+00 -0.72492648079E+03  0.72492648081E+03  0.50400001928E-02 0. -1.
    10030    2    1    2    0    0  0.00000000000E+00  0.00000000000E+00  0.11023268196E+04  0.25521797812E+04  0.23018464802E+04 0.  0.
        2    1    3    3  502    0  0.18832234838E+03 -0.72840822387E+03  0.15168489610E+04  0.16931847560E+04  0.25500000920E-02 0.  1.
       -2    1    3    3    0  502 -0.18832234838E+03  0.72840822387E+03 -0.41452214143E+03  0.85899502516E+03  0.25500000920E-02 0. -1.
</event>
<event>
 5   0  0.1284837E-05  0.2275876E+04  0.7818609E-02  0.8487494E-01
       -1   -1    0    0    0  501  0.00000000000E+00  0.00000000000E+00  0.16409556965E+04  0.16409556965E+04  0.50400001928E-02 0.  1.
        1   -1    0    0  501    0  0.00000000000E+00  0.00000000000E+00 -0.78911534519E+03  0.78911534521E+03  0.50400001928E-02 0. -1.
    10030    2    1    2    0    0  0.00000000000E+00  0.00000000000E+00  0.85184035135E+03  0.24300710418E+04  0.22758763771E+04 0.  0.
        4    1    3    3  502    0  0.74162556020E+03 -0.86075395111E+03  0.35842447755E+03  0.11913754886E+04  0.12699999809E+01 0.  1.
       -4    1    3    3    0  502 -0.74162556020E+03  0.86075395111E+03  0.49341587380E+03  0.12386955531E+04  0.12699999809E+01 0. -1.
</event>
<event>
 5   0  0.1371753E-05  0.2278808E+04  0.7818609E-02  0.8486324E-01
        1   -1    0    0  501    0  0.00000000000E+00  0.00000000000E+00  0.16132426255E+04  0.16132426255E+04  0.50400001928E-02 0. -1.
       -1   -1    0    0    0  501  0.00000000000E+00  0.00000000000E+00 -0.80474063525E+03  0.80474063526E+03  0.50400001928E-02 0.  1.
    10030    2    1    2    0    0  0.00000000000E+00  0.00000000000E+00  0.80850199025E+03  0.24179832608E+04  0.22788083687E+04 0.  0.
        3    1    3    3  502    0 -0.76023244040E+03 -0.32456808904E+03  0.12363275703E+04  0.14872133939E+04  0.10100000352E+00 0.  1.
       -3    1    3    3    0  502  0.76023244040E+03  0.32456808904E+03 -0.42782558004E+03  0.93076986683E+03  0.10100000352E+00 0. -1.
</event>
<event>
 5   0  0.1284837E-05  0.2311395E+04  0.7818609E-02  0.8473442E-01
       -1   -1    0    0    0  501  0.00000000000E+00  0.00000000000E+00  0.71029335418E+03  0.71029335420E+03  0.50400001928E-02 0.  1.
        1   -1    0    0  501    0  0.00000000000E+00  0.00000000000E+00 -0.18804015782E+04  0.18804015782E+04  0.50400001928E-02 0. -1.
    10030    2    1    2    0    0  0.00000000000E+00  0.00000000000E+00 -0.11701082240E+04  0.25906949324E+04  0.23113950283E+04 0.  0.
        4    1    3    3  502    0  0.31485226803E+03 -0.11114889803E+04 -0.62215069324E+03  0.13121024358E+04  0.12699999809E+01 0. -1.
       -4    1    3    3    0  502 -0.31485226803E+03  0.11114889803E+04 -0.54795753078E+03  0.12785924966E+04  0.12699999809E+01 0.  1.
</event>
<event>
 5   0  0.2938972E-05  0.2324457E+04  0.7818609E-02  0.8468340E-01
       -2   -1    0    0    0  501  0.00000000000E+00  0.00000000000E+00  0.11103960888E+04  0.11103960888E+04  0.25500000920E-02 0. -1.
        2   -1    0    0  501    0  0.00000000000E+00  0.00000000000E+00 -0.12164800306E+04  0.12164800306E+04  0.25500000920E-02 0.  1.
    10030    2    1    2    0    0  0.00000000000E+00  0.00000000000E+00 -0.10608394181E+03  0.23268761194E+04  0.23244566402E+04 0.  0.
        2    1    3    3  502    0 -0.33220621947E+03 -0.86785188679E+03 -0.75179919390E+03  0.11952948999E+04  0.25500000920E-02 0.  1.
       -2    1    3    3    0  502  0.33220621947E+03  0.86785188679E+03  0.64571525209E+03  0.11315812196E+04  0.25500000920E-02 0. -1.
</event>
<event>
 5   0  0.2816178E-05  0.2316020E+04  0.7818609E-02  0.8471631E-01
       -2   -1    0    0    0  501  0.00000000000E+00  0.00000000000E+00  0.11494308528E+04  0.11494308528E+04  0.25500000920E-02 0.  1.
        2   -1    0    0  501    0  0.00000000000E+00  0.00000000000E+00 -0.11666529453E+04  0.11666529453E+04  0.25500000920E-02 0. -1.
    10030    2    1    2    0    0  0.00000000000E+00  0.00000000000E+00 -0.17222092533E+02  0.23160837981E+04  0.23160197666E+04 0.  0.
        1    1    3    3  502    0  0.10018184380E+04 -0.45227845690E+03 -0.37302598449E+03  0.11607516403E+04  0.50400001928E-02 0. -1.
       -1    1    3    3    0  502 -0.10018184380E+04  0.45227845690E+03  0.35580389195E+03  0.11553321578E+04  0.50400001928E-02 0.  1.
</event>
<event>
 5   0  0.1327820E-05  0.2289739E+04  0.7818609E-02  0.8481978E-01
       -1   -1    0    0    0  501  0.00000000000E+00  0.00000000000E+00  0.18501184047E+04  0.18501184047E+04  0.50400001928E-02 0. -1.
        1   -1    0    0  501    0  0.00000000000E+00  0.00000000000E+00 -0.70845506026E+03  0.70845506028E+03  0.50400001928E-02 0.  1.
    10030    2    1    2    0    0  0.00000000000E+00  0.00000000000E+00  0.11416633444E+04  0.25585734650E+04  0.22897386278E+04 0.  0.
        1    1    3    3  502    0  0.83525745269E+03  0.32586400542E+03 -0.22471563134E+03  0.92430486167E+03  0.50400001928E-02 0.  1.
       -1    1    3    3    0  502 -0.83525745269E+03 -0.32586400542E+03  0.13663789758E+04  0.16342686033E+04  0.50400001928E-02 0. -1.
</event>
<event>
 5   0  0.2938972E-05  0.2296858E+04  0.7818609E-02  0.8479161E-01
        2   -1    0    0  501    0  0.00000000000E+00  0.00000000000E+00  0.20735274126E+04  0.20735274126E+04  0.25500000920E-02 0.  1.
       -2   -1    0    0    0  501  0.00000000000E+00  0.00000000000E+00 -0.63606063453E+03  0.63606063453E+03  0.25500000920E-02 0. -1.
    10030    2    1    2    0    0  0.00000000000E+00  0.00000000000E+00  0.14374667781E+04  0.27095880471E+04  0.22968579945E+04 0.  0.
        2    1    3    3  502    0 -0.10548335174E+04  0.16330782112E+03  0.12186032481E+04  0.16199805771E+04  0.25500000920E-02 0.  1.
       -2    1    3    3    0  502  0.10548335174E+04 -0.16330782112E+03  0.21886352997E+03  0.10896074700E+04  0.25500000920E-02 0. -1.
</event>
<event>
 5   0  0.1371753E-05  0.2278326E+04  0.7818609E-02  0.8486516E-01
        1   -1    0    0  501    0  0.00000000000E+00  0.00000000000E+00  0.11563704878E+04  0.11563704878E+04  0.50400001928E-02 0.  1.
       -1   -1    0    0    0  501  0.00000000000E+00  0.00000000000E+00 -0.11222117470E+04  0.11222117470E+04  0.50400001928E-02 0. -1.
    10030    2    1    2    0    0  0.00000000000E+00  0.00000000000E+00  0.34158740727E+02  0.22785822348E+04  0.22783261797E+04 0.  0.
        3    1    3    3  502    0  0.17144681633E+03  0.11245891155E+04  0.77068154672E+02  0.11401904228E+04  0.10100000352E+00 0.  1.
       -3    1    3    3    0  502 -0.17144681633E+03 -0.11245891155E+04 -0.42909413945E+02  0.11383918120E+04  0.10100000352E+00 0. -1.
</event>
<event>
 5   0  0.2816178E-05  0.2266494E+04  0.7818609E-02  0.8491250E-01
        2   -1    0    0  501    0  0.00000000000E+00  0.00000000000E+00  0.20906272949E+04  0.20906272949E+04  0.25500000920E-02 0. -1.
       -2   -1    0    0    0  501  0.00000000000E+00  0.00000000000E+00 -0.61428882496E+03  0.61428882496E+03  0.25500000920E-02 0.  1.
    10030    2    1    2    0    0  0.00000000000E+00  0.00000000000E+00  0.14763384699E+04  0.27049161198E+04  0.22664941954E+04 0.  0.
        1    1    3    3  502    0 -0.36151803131E+03 -0.71023674808E+03  0.16996948008E+04  0.18772570259E+04  0.50400001928E-02 0.  1.
       -1    1    3    3    0  502  0.36151803131E+03  0.71023674808E+03 -0.22335633088E+03  0.82765909398E+03  0.50400001928E-02 0. -1.
</event>
<event>
 5   0  0.1371753E-05  0.2320527E+04  0.7818609E-02  0.8469871E-01
        1   -1    0    0  501    0  0.00000000000E+00  0.00000000000E+00  0.88778019395E+03  0.88778019397E+03  0.50400001928E-02 0. -1.
       -1   -1    0    0    0  501  0.00000000000E+00  0.00000000000E+00 -0.15163788740E+04  0.15163788740E+04  0.50400001928E-02 0.  1.
    10030    2    1    2    0    0  0.00000000000E+00  0.00000000000E+00 -0.62859868002E+03  0.24041590679E+04  0.23205267771E+04 0.  0.
        3    1    3    3  502    0  0.18389952838E+03  0.47956152909E+03 -0.13921859552E+04  0.14839070189E+04  0.10100000352E+00 0.  1.
       -3    1    3    3    0  502 -0.18389952838E+03 -0.47956152909E+03  0.76358727518E+03  0.92025204903E+03  0.10100000352E+00 0. -1.
</event>
<event>
 5   0  0.2910126E-05  0.2266197E+04  0.7818609E-02  0.8491370E-01
        2   -1    0    0  501    0  0.00000000000E+00  0.00000000000E+00  0.19373712242E+04  0.19373712242E+04  0.25500000920E-02 0.  1.
       -2   -1    0    0    0  501  0.00000000000E+00  0.00000000000E+00 -0.66270855815E+03  0.66270855815E+03  0.25500000920E-02 0. -1.
    10030    2    1    2    0    0  0.00000000000E+00  0.00000000000E+00  0.12746626661E+04  0.26000797824E+04  0.22661972470E+04 0.  0.
        5    1    3    3  502    0 -0.28837008333E+03 -0.10720715797E+04  0.37722433479E+03  0.11725250810E+04  0.46999998093E+01 0.  1.
       -5    1    3    3    0  502  0.28837008333E+03  0.10720715797E+04  0.89743833129E+03  0.14275547014E+04  0.46999998093E+01 0. -1.
</event>
<event>
 5   0  0.2816178E-05  0.2301336E+04  0.7818609E-02  0.8477394E-01
        2   -1    0    0  501    0  0.00000000000E+00  0.00000000000E+00  0.22044111064E+04  0.22044111064E+04  0.25500000920E-02 0.  1.
       -2   -1    0    0    0  501  0.00000000000E+00  0.00000000000E+00 -0.60063085941E+03  0.60063085942E+03  0.25500000920E-02 0. -1.
    10030    2    1    2    0    0  0.00000000000E+00  0.00000000000E+00  0.16037802470E+04  0.28050419658E+04  0.23013364268E+04 0.  0.
        1    1    3    3  502    0 -0.10702873093E+04  0.17809821157E+03  0.33487884699E+03  0.11355077013E+04  0.50400001928E-02 0. -1.
       -1    1    3    3    0  502  0.10702873093E+04 -0.17809821157E+03  0.12689014000E+04  0.16695342645E+04  0.50400001928E-02 0.  1.
</event>
<event>
 5   0  0.1303224E-05  0.2305917E+04  0.7818609E-02  0.8475592E-01
        1   -1    0    0  501    0  0.00000000000E+00  0.00000000000E+00  0.75315977579E+03  0.75315977581E+03  0.50400001928E-02 0.  1.
       -1   -1    0    0    0  501  0.00000000000E+00  0.00000000000E+00 -0.17649812825E+04  0.17649812825E+04  0.50400001928E-02 0. -1.
    10030    2    1    2    0    0  0.00000000000E+00  0.00000000000E+00 -0.10118215067E+04  0.25181410583E+04  0.23059166568E+04 0.  0.
        2    1    3    3  502    0 -0.96986330840E+02 -0.92433979837E+03 -0.12509814013E+04  0.15584495107E+04  0.25500000920E-02 0. -1.
       -2    1    3    3    0  502  0.96986330840E+02  0.92433979837E+03  0.23915989459E+03  0.95969154753E+03  0.25500000920E-02 0.  1.
</event>
<event>
 5   0  0.2938972E-05  0.2295711E+04  0.7818609E-02  0.8479614E-01
        2   -1    0    0  501    0  0.00000000000E+00  0.00000000000E+00  0.15177538476E+04  0.15177538476E+04  0.25500000920E-02 0. -1.
       -2   -1    0    0    0  501  0.00000000000E+00  0.00000000000E+00 -0.86810666865E+03  0.86810666865E+03  0.25500000920E-02 0.  1.
    10030    2    1    2    0    0  0.00000000000E+00  0.00000000000E+00  0.64964717893E+03  0.23858605162E+04  0.22957109892E+04 0.  0.
        2    1    3    3  502    0  0.11425186437E+04 -0.37603284260E+02  0.21677273775E+03  0.11635090365E+04  0.25500000920E-02 0.  1.
       -2    1    3    3    0  502 -0.11425186437E+04  0.37603284260E+02  0.43287444118E+03  0.12223514797E+04  0.25500000920E-02 0. -1.
</event>
<event>
 5   0  0.2816178E-05  0.2299832E+04  0.7818609E-02  0.8477988E-01
       -2   -1    0    0    0  501  0.00000000000E+00  0.00000000000E+00  0.12753111997E+04  0.12753111997E+04  0.25500000920E-02 0. -1.
        2   -1    0    0  501    0  0.00000000000E+00  0.00000000000E+00 -0.10368498558E+04  0.10368498558E+04  0.25500000920E-02 0.  1.
    10030    2    1    2    0    0  0.00000000000E+00  0.00000000000E+00  0.23846134389E+03  0.23121610556E+04  0.22998315013E+04 0.  0.
        1    1    3    3  502    0 -0.37592248252E+03  0.10383054293E+04 -0.20328558007E+03  0.11228182865E+04  0.50400001928E-02 0. -1.
       -1    1    3    3    0  502  0.37592248252E+03 -0.10383054293E+04  0.44174692396E+03  0.11893427691E+04  0.50400001928E-02 0.  1.
</event>
<event>
 5   0  0.1303224E-05  0.2297897E+04  0.7818609E-02  0.8478751E-01
        1   -1    0    0  501    0  0.00000000000E+00  0.00000000000E+00  0.30197832362E+04  0.30197832362E+04  0.50400001928E-02 0. -1.
       -1   -1    0    0    0  501  0.00000000000E+00  0.00000000000E+00 -0.43714466968E+03  0.43714466971E+03  0.50400001928E-02 0.  1.
    10030    2    1    2    0    0  0.00000000000E+00  0.00000000000E+00  0.25826385665E+04  0.34569279059E+04  0.22978965558E+04 0.  0.
        2    1    3    3  502    0 -0.24739818457E+03  0.76607188717E+03  0.58078825735E+02  0.80712152000E+03  0.25500000920E-02 0.  1.
       -2    1    3    3    0  502  0.24739818457E+03 -0.76607188717E+03  0.25245597407E+04  0.26498063859E+04  0.25500000920E-02 0. -1.
</event>
<event>
 5   0  0.1284837E-05  0.2212395E+04  0.7818609E-02  0.8513287E-01
       -1   -1    0    0    0  501  0.00000000000E+00  0.00000000000E+00  0.11081577904E+04  0.11081577904E+04  0.50400001928E-02 0.  1.
        1   -1    0    0  501    0  0.00000000000E+00  0.00000000000E+00 -0.11042404285E+04  0.11042404285E+04  0.50400001928E-02 0. -1.
    10030    2    1    2    0    0  0.00000000000E+00  0.00000000000E+00  0.39173618958E+01  0.22123982189E+04  0.22123947508E+04 0.  0.
        4    1    3    3  502    0 -0.22101324962E+03  0.37594733543E+03  0.10185662774E+04  0.11079991561E+04  0.12699999809E+01 0.  1.
       -4    1    3    3    0  502  0.22101324962E+03 -0.37594733543E+03 -0.10146489155E+04  0.11043990629E+04  0.12699999809E+01 0. -1.
</event>
<event>
 5   0  0.2910126E-05  0.2292404E+04  0.7818609E-02  0.8480922E-01
        2   -1    0    0  501    0  0.00000000000E+00  0.00000000000E+00  0.21978928924E+04  0.21978928924E+04  0.25500000920E-02 0. -1.
       -2   -1    0    0    0  501  0.00000000000E+00  0.00000000000E+00 -0.59774495218E+03  0.59774495219E+03  0.25500000920E-02 0.  1.
    10030    2    1    2    0    0  0.00000000000E+00  0.00000000000E+00  0.16001479403E+04  0.27956378446E+04  0.22924043115E+04 0.  0.
        5    1    3    3  502    0  0.89723244654E+03  0.56286708642E+03  0.26582878725E+03  0.10920313431E+04  0.46999998093E+01 0.  1.
       -5    1    3    3    0  502 -0.89723244654E+03 -0.56286708642E+03  0.13343191530E+04  0.17036065016E+04  0.46999998093E+01 0. -1.
</event>
<event>
 5   0  0.1308224E-05  0.2298820E+04  0.7818609E-02  0.8478386E-01
        1   -1    0    0  501    0  0.00000000000E+00  0.00000000000E+00  0.96805390573E+03  0.96805390575E+03  0.50400001928E-02 0.  1.
       -1   -1    0    0    0  501  0.00000000000E+00  0.00000000000E+00 -0.13647420121E+04  0.13647420121E+04  0.50400001928E-02 0. -1.
    10030    2    1    2    0    0  0.00000000000E+00  0.00000000000E+00 -0.39668810637E+03  0.23327959179E+04  0.22988204237E+04 0.  0.
        5    1    3    3  502    0  0.62070943693E+03 -0.96692030601E+03 -0.16778820229E+03  0.11612019868E+04  0.46999998093E+01 0.  1.
       -5    1    3    3    0  502 -0.62070943693E+03  0.96692030601E+03 -0.22889990408E+03  0.11715939311E+04  0.46999998093E+01 0. -1.
</event>
<event>
 5   0  0.1371753E-05  0.2275926E+04  0.7818609E-02  0.8487474E-01
       -1   -1    0    0    0  501  0.00000000000E+00  0.00000000000E+00  0.87375053445E+03  0.87375053447E+03  0.50400001928E-02 0. -1.
        1   -1    0    0  501    0  0.00000000000E+00  0.00000000000E+00 -0.14820707788E+04  0.14820707788E+04  0.50400001928E-02 0.  1.
    10030    2    1    2    0    0  0.00000000000E+00  0.00000000000E+00 -0.60832024435E+03  0.23558213133E+04  0.22759263038E+04 0.  0.
        3    1    3    3  502    0  0.99125849222E+03 -0.54164831891E+03 -0.44677867120E+03  0.12147376223E+04  0.10100000352E+00 0.  1.
       -3    1    3    3    0  502 -0.99125849222E+03  0.54164831891E+03 -0.16154157315E+03  0.11410836910E+04  0.10100000352E+00 0. -1.
</event>
<event>
 5   0  0.2871888E-05  0.2295800E+04  0.7818609E-02  0.8479579E-01
        2   -1    0    0  501    0  0.00000000000E+00  0.00000000000E+00  0.78967340942E+03  0.78967340942E+03  0.25500000920E-02 0.  1.
       -2   -1    0    0    0  501  0.00000000000E+00  0.00000000000E+00 -0.16686319878E+04  0.16686319878E+04  0.25500000920E-02 0. -1.
    10030    2    1    2    0    0  0.00000000000E+00  0.00000000000E+00 -0.87895857837E+03  0.24583053972E+04  0.22957999136E+04 0.  0.
        3    1    3    3  502    0 -0.54566612915E+03 -0.62153322203E+03  0.41286680260E+03  0.92439930630E+03  0.10100000352E+00 0.  1.
       -3    1    3    3    0  502  0.54566612915E+03  0.62153322203E+03 -0.12918253810E+04  0.15339060909E+04  0.10100000352E+00 0. -1.
</event>
<event>
 5   0  0.2910126E-05  0.2303504E+04  0.7818609E-02  0.8476541E-01
        2   -1    0    0  501    0  0.00000000000E+00  0.00000000000E+00  0.57160894122E+03  0.57160894122E+03  0.25500000920E-02 0.  1.
       -2   -1    0    0    0  501  0.00000000000E+00  0.00000000000E+00 -0.23206994532E+04  0.23206994532E+04  0.25500000920E-02 0. -1.
    10030    2    1    2    0    0  0.00000000000E+00  0.00000000000E+00 -0.17490905120E+04  0.28923083944E+04  0.23035039026E+04 0.  0.
        5    1    3    3  502    0  0.44203858217E+03  0.21336901570E+03 -0.21827862903E+04  0.22372980410E+04  0.46999998093E+01 0. -1.
       -5    1    3    3    0  502 -0.44203858217E+03 -0.21336901570E+03  0.43369577833E+03  0.65501035345E+03  0.46999998093E+01 0.  1.
</event>
<event>
 5   0  0.1308224E-05  0.2294619E+04  0.7818609E-02  0.8480046E-01
        1   -1    0    0  501    0  0.00000000000E+00  0.00000000000E+00  0.14059810949E+04  0.14059810949E+04  0.50400001928E-02 0.  1.
       -1   -1    0    0    0  501  0.00000000000E+00  0.00000000000E+00 -0.93622798788E+03  0.93622798789E+03  0.50400001928E-02 0. -1.
    10030    2    1    2    0    0  0.00000000000E+00  0.00000000000E+00  0.46975310706E+03  0.23422090828E+04  0.22946187932E+04 0.  0.
        5    1    3    3  502    0 -0.78346603143E+03  0.72741955271E+03 -0.19009775267E+03  0.10858717575E+04  0.46999998093E+01 0.  1.
       -5    1    3    3    0  502  0.78346603143E+03 -0.72741955271E+03  0.65985085972E+03  0.12563373254E+04  0.46999998093E+01 0. -1.
</event>
<event>
 5   0  0.1303224E-05  0.2310319E+04  0.7818609E-02  0.8473863E-01
       -1   -1    0    0    0  501  0.00000000000E+00  0.00000000000E+00  0.56188283993E+03  0.56188283995E+03  0.50400001928E-02 0. -1.
        1   -1    0    0  501    0  0.00000000000E+00  0.00000000000E+00 -0.23748614890E+04  0.23748614890E+04  0.50400001928E-02 0.  1.
    10030    2    1    2    0    0  0.00000000000E+00  0.00000000000E+00 -0.18129786491E+04  0.29367443290E+04  0.23103193874E+04 0.  0.
        2    1    3    3  502    0  0.38708796835E+03  0.43898382686E+03 -0.21724409768E+04  0.22498985962E+04  0.25500000920E-02 0.  1.
       -2    1    3    3    0  502 -0.38708796835E+03 -0.43898382686E+03  0.35946232776E+03  0.68684573273E+03  0.25500000920E-02 0. -1.
</event>
<event>
 5   0  0.2994157E-05  0.2299986E+04  0.7818609E-02  0.8477926E-01
       -2   -1    0    0    0  501  0.00000000000E+00  0.00000000000E+00  0.12638951335E+04  0.12638951335E+04  0.25500000920E-02 0.  1.
        2   -1    0    0  501    0  0.00000000000E+00  0.00000000000E+00 -0.10463561672E+04  0.10463561672E+04  0.25500000920E-02 0. -1.
    10030    2    1    2    0    0  0.00000000000E+00  0.00000000000E+00  0.21753896632E+03  0.23102513007E+04  0.22999864935E+04 0.  0.
        4    1    3    3  502    0 -0.24537875325E+03 -0.11193864822E+04  0.20535488295E+03  0.11642203700E+04  0.12699999809E+01 0.  1.
       -4    1    3    3    0  502  0.24537875325E+03  0.11193864822E+04  0.12184083365E+02  0.11460309306E+04  0.12699999809E+01 0. -1.
</event>
<event>
 5   0  0.2910126E-05  0.2289548E+04  0.7818609E-02  0.8482053E-01
       -2   -1    0    0    0  501  0.00000000000E+00  0.00000000000E+00  0.71907682923E+03  0.71907682923E+03  0.25500000920E-02 0.  1.
        2   -1    0    0  501    0  0.00000000000E+00  0.00000000000E+00 -0.18224865726E+04  0.18224865726E+04  0.25500000920E-02 0. -1.
    10030    2    1    2    0    0  0.00000000000E+00  0.00000000000E+00 -0.11034097434E+04  0.25415634018E+04  0.22895483100E+04 0.  0.
        5    1    3    3  502    0 -0.43875717966E+03  0.13270864264E+03  0.61274227968E+03  0.76524155522E+03  0.46999998093E+01 0.  1.
       -5    1    3    3    0  502  0.43875717966E+03 -0.13270864264E+03 -0.17161520231E+04  0.17763218466E+04  0.46999998093E+01 0. -1.
</event>
<event>
 5   0  0.1327820E-05  0.2296743E+04  0.7818609E-02  0.8479207E-01
        1   -1    0    0  501    0  0.00000000000E+00  0.00000000000E+00  0.16115381263E+04  0.16115381263E+04  0.50400001928E-02 0. -1.
       -1   -1    0    0    0  501  0.00000000000E+00  0.00000000000E+00 -0.81832181488E+03  0.81832181490E+03  0.50400001928E-02 0.  1.
    10030    2    1    2    0    0  0.00000000000E+00  0.00000000000E+00  0.79321631143E+03  0.24298599412E+04  0.22967427408E+04 0.  0.
        1    1    3    3  502    0  0.10464653425E+04  0.32467856931E+03  0.76041523775E+03  0.13336930758E+04  0.50400001928E-02 0. -1.
       -1    1    3    3    0  502 -0.10464653425E+04 -0.32467856931E+03  0.32801073673E+02  0.10961668655E+04  0.50400001928E-02 0.  1.
</event>
<event>
 5   0  0.2938972E-05  0.2301640E+04  0.7818609E-02  0.8477275E-01
        2   -1    0    0  501    0  0.00000000000E+00  0.00000000000E+00  0.20486124161E+04  0.20486124161E+04  0.25500000920E-02 0. -1.
       -2   -1    0    0    0  501  0.00000000000E+00  0.00000000000E+00 -0.64647998316E+03  0.64647998316E+03  0.25500000920E-02 0.  1.
    10030    2    1    2    0    0  0.00000000000E+00  0.00000000000E+00  0.14021324329E+04  0.26950923993E+04  0.23016402154E+04 0.  0.
        2    1    3    3  502    0  0.42531009214E+02 -0.86116014497E+03 -0.19145238450E+03  0.88320988308E+03  0.25500000920E-02 0.  1.
       -2    1    3    3    0  502 -0.42531009214E+02  0.86116014497E+03  0.15935848175E+04  0.18118825162E+04  0.25500000920E-02 0. -1.
</event>
<event>
 5   0  0.1303224E-05  0.2306440E+04  0.7818609E-02  0.8475386E-01
       -1   -1    0    0    0  501  0.00000000000E+00  0.00000000000E+00  0.87016894699E+03  0.87016894701E+03  0.50400001928E-02 0. -1.
        1   -1    0    0  501    0  0.00000000000E+00  0.00000000000E+00 -0.15283421043E+04  0.15283421043E+04  0.50400001928E-02 0.  1.
    10030    2    1    2    0    0  0.00000000000E+00  0.00000000000E+00 -0.65817315729E+03  0.23985110513E+04  0.23064395414E+04 0.  0.
        2    1    3    3  502    0 -0.63898341168E+03  0.30460189308E+03  0.61765915378E+03  0.93945992140E+03  0.25500000920E-02 0. -1.
       -2    1    3    3    0  502  0.63898341168E+03 -0.30460189308E+03 -0.12758323111E+04  0.14590511299E+04  0.25500000920E-02 0.  1.
</event>
<event>
 5   0  0.2816178E-05  0.2295846E+04  0.7818609E-02  0.8479561E-01
        2   -1    0    0  501    0  0.00000000000E+00  0.00000000000E+00  0.11452817986E+04  0.11452817986E+04  0.25500000920E-02 0. -1.
       -2   -1    0    0    0  501  0.00000000000E+00  0.00000000000E+00 -0.11505702683E+04  0.11505702683E+04  0.25500000920E-02 0.  1.
    10030    2    1    2    0    0  0.00000000000E+00  0.00000000000E+00 -0.52884697032E+01  0.22958520668E+04  0.22958459759E+04 0.  0.
        1    1    3    3  502    0 -0.65478005146E+03 -0.38874749095E+03 -0.86163758399E+03  0.11499047150E+04  0.50400001928E-02 0.  1.
       -1    1    3    3    0  502  0.65478005146E+03  0.38874749095E+03  0.85634911429E+03  0.11459473518E+04  0.50400001928E-02 0. -1.
</event>
<event>
 5   0  0.1371753E-05  0.2371284E+04  0.7818609E-02  0.8450333E-01
       -1   -1    0    0    0  501  0.00000000000E+00  0.00000000000E+00  0.10366904646E+04  0.10366904646E+04  0.50400001928E-02 0. -1.
        1   -1    0    0  501    0  0.00000000000E+00  0.00000000000E+00 -0.13559948259E+04  0.13559948259E+04  0.50400001928E-02 0.  1.
    10030    2    1    2    0    0  0.00000000000E+00  0.00000000000E+00 -0.31930436128E+03  0.23926852905E+04  0.23712839611E+04 0.  0.
        3    1    3    3  502    0  0.26392363023E+03  0.55128628276E+03 -0.11847813936E+04  0.13331463569E+04  0.10100000352E+00 0.  1.
       -3    1    3    3    0  502 -0.26392363023E+03 -0.55128628276E+03  0.86547703232E+03  0.10595389336E+04  0.10100000352E+00 0. -1.
</event>
<event>
 5   0  0.1371753E-05  0.2299569E+04  0.7818609E-02  0.8478091E-01
        1   -1    0    0  501    0  0.00000000000E+00  0.00000000000E+00  0.15833760367E+04  0.15833760367E+04  0.50400001928E-02 0. -1.
       -1   -1    0    0    0  501  0.00000000000E+00  0.00000000000E+00 -0.83492763326E+03  0.83492763327E+03  0.50400001928E-02 0.  1.
    10030    2    1    2    0    0  0.00000000000E+00  0.00000000000E+00  0.74844840345E+03  0.24183036700E+04  0.22995690091E+04 0.  0.
        3    1    3    3  502    0  0.34469950023E+03 -0.34035782939E+03  0.14708228573E+04  0.15485415995E+04  0.10100000352E+00 0. -1.
       -3    1    3    3    0  502 -0.34469950023E+03  0.34035782939E+03 -0.72237445387E+03  0.86976207051E+03  0.10100000352E+00 0.  1.
</event>
<event>
 5   0  0.2994157E-05  0.2268623E+04  0.7818609E-02  0.8490396E-01
        2   -1    0    0  501    0  0.00000000000E+00  0.00000000000E+00  0.14866021734E+04  0.14866021734E+04  0.25500000920E-02 0. -1.
       -2   -1    0    0    0  501  0.00000000000E+00  0.00000000000E+00 -0.86550600078E+03  0.86550600079E+03  0.25500000920E-02 0.  1.
    10030    2    1    2    0    0  0.00000000000E+00  0.00000000000E+00  0.62109617261E+03  0.23521081742E+04  0.22686234609E+04 0.  0.
        4    1    3    3  502    0  0.18060238120E+03 -0.94190335192E+03  0.93852899480E+03  0.13418783221E+04  0.12699999809E+01 0. -1.
       -4    1    3    3    0  502 -0.18060238120E+03  0.94190335192E+03 -0.31743282219E+03  0.10102298520E+04  0.12699999809E+01 0.  1.
</event>
<event>
 5   0  0.2816178E-05  0.2306991E+04  0.7818609E-02  0.8475170E-01
        2   -1    0    0  501    0  0.00000000000E+00  0.00000000000E+00  0.20158803382E+04  0.20158803382E+04  0.25500000920E-02 0.  1.
       -2   -1    0    0    0  501  0.00000000000E+00  0.00000000000E+00 -0.66003515022E+03  0.66003515023E+03  0.25500000920E-02 0. -1.
    10030    2    1    2    0    0  0.00000000000E+00  0.00000000000E+00  0.13558451880E+04  0.26759154884E+04  0.23069910116E+04 0.  0.
        1    1    3    3  502    0  0.15949518893E+03 -0.19234615539E+03 -0.62826634869E+03  0.67613191295E+03  0.50400001928E-02 0. -1.
       -1    1    3    3    0  502 -0.15949518893E+03  0.19234615539E+03  0.19841115367E+04  0.19997835755E+04  0.50400001928E-02 0.  1.
</event>
<event>
 5   0  0.1017200E-05  0.2235493E+04  0.7818609E-02  0.8503799E-01
        4   -1    0    0  501    0  0.00000000000E+00  0.00000000000E+00  0.52358757450E+03  0.52358911474E+03  0.12699999809E+01 0.  1.
       -4   -1    0    0    0  501  0.00000000000E+00  0.00000000000E+00 -0.23861413846E+04  0.23861417225E+04  0.12699999809E+01 0. -1.
    10030    2    1    2    0    0  0.00000000000E+00  0.00000000000E+00 -0.18625538101E+04  0.29097308373E+04  0.22354925296E+04 0.  0.
        4    1    3    3  502    0  0.21802089919E+02  0.47598238856E+03 -0.22473291667E+04  0.22972863473E+04  0.12699999809E+01 0. -1.
       -4    1    3    3    0  502 -0.21802089919E+02 -0.47598238856E+03  0.38477535660E+03  0.61244448996E+03  0.12699999809E+01 0.  1.
</event>
<event>
 5   0  0.1284837E-05  0.2292175E+04  0.7818609E-02  0.8481013E-01
       -1   -1    0    0    0  501  0.00000000000E+00  0.00000000000E+00  0.71121744005E+03  0.71121744007E+03  0.50400001928E-02 0. -1.
        1   -1    0    0  501    0  0.00000000000E+00  0.00000000000E+00 -0.18468572731E+04  0.18468572731E+04  0.50400001928E-02 0.  1.
    10030    2    1    2    0    0  0.00000000000E+00  0.00000000000E+00 -0.11356398330E+04  0.25580747132E+04  0.22921754749E+04 0.  0.
        4    1    3    3  502    0 -0.80442970681E+03  0.14172371851E+03  0.32938175859E+03  0.88073078826E+03  0.12699999809E+01 0. -1.
       -4    1    3    3    0  502  0.80442970681E+03 -0.14172371851E+03 -0.14650215916E+04  0.16773439249E+04  0.12699999809E+01 0.  1.
</event>
<event>
 5   0  0.1308224E-05  0.2282818E+04  0.7818609E-02  0.8484727E-01
        1   -1    0    0  501    0  0.00000000000E+00  0.00000000000E+00  0.11648892622E+04  0.11648892623E+04  0.50400001928E-02 0. -1.
       -1   -1    0    0    0  501  0.00000000000E+00  0.00000000000E+00 -0.11184016656E+04  0.11184016656E+04  0.50400001928E-02 0.  1.
    10030    2    1    2    0    0  0.00000000000E+00  0.00000000000E+00  0.46487596689E+02  0.22832909278E+04  0.22828176371E+04 0.  0.
        5    1    3    3  502    0 -0.94275671923E+03 -0.54504190371E+03  0.36526658081E+03  0.11486090168E+04  0.46999998093E+01 0. -1.
       -5    1    3    3    0  502  0.94275671923E+03  0.54504190371E+03 -0.31877898413E+03  0.11346819110E+04  0.46999998093E+01 0.  1.
</event>
<event>
 5   0  0.2938972E-05  0.2297228E+04  0.7818609E-02  0.8479015E-01
        2   -1    0    0  501    0  0.00000000000E+00  0.00000000000E+00  0.10937785199E+04  0.10937785199E+04  0.25500000920E-02 0. -1.
       -2   -1    0    0    0  501  0.00000000000E+00  0.00000000000E+00 -0.12061983778E+04  0.12061983778E+04  0.25500000920E-02 0.  1.
    10030    2    1    2    0    0  0.00000000000E+00  0.00000000000E+00 -0.11241985791E+03  0.22999768977E+04  0.22972277870E+04 0.  0.
        2    1    3    3  502    0 -0.44063444927E+03  0.93456160757E+03 -0.55855708233E+03  0.11745425196E+04  0.25500000920E-02 0. -1.
       -2    1    3    3    0  502  0.44063444927E+03 -0.93456160757E+03  0.44613722441E+03  0.11254343780E+04  0.25500000920E-02 0.  1.
</event>
<event>
 5   0  0.1284837E-05  0.2302893E+04  0.7818609E-02  0.8476781E-01
       -1   -1    0    0    0  501  0.00000000000E+00  0.00000000000E+00  0.64132794251E+03  0.64132794253E+03  0.50400001928E-02 0.  1.
        1   -1    0    0  501    0  0.00000000000E+00  0.00000000000E+00 -0.20673185216E+04  0.20673185216E+04  0.50400001928E-02 0. -1.
    10030    2    1    2    0    0  0.00000000000E+00  0.00000000000E+00 -0.14259905791E+04  0.27086464642E+04  0.23028930796E+04 0.  0.
        4    1    3    3  502    0  0.66599955980E+03  0.64007221517E+03 -0.15215623878E+04  0.17800004402E+04  0.12699999809E+01 0. -1.
       -4    1    3    3    0  502 -0.66599955980E+03 -0.64007221517E+03  0.95571808677E+02  0.92864602395E+03  0.12699999809E+01 0.  1.
</event>
<event>
 5   0  0.2910126E-05  0.2316015E+04  0.7818609E-02  0.8471633E-01
       -2   -1    0    0    0  501  0.00000000000E+00  0.00000000000E+00  0.61837467467E+03  0.61837467467E+03  0.25500000920E-02 0.  1.
        2   -1    0    0  501    0  0.00000000000E+00  0.00000000000E+00 -0.21685575571E+04  0.21685575571E+04  0.25500000920E-02 0. -1.
    10030    2    1    2    0    0  0.00000000000E+00  0.00000000000E+00 -0.15501828825E+04  0.27869322318E+04  0.23160147443E+04 0.  0.
        5    1    3    3  502    0  0.14672965538E+03  0.11265727332E+04 -0.10448718778E+04  0.15435268207E+04  0.46999998093E+01 0.  1.
       -5    1    3    3    0  502 -0.14672965538E+03 -0.11265727332E+04 -0.50531100465E+03  0.12434054111E+04  0.46999998093E+01 0. -1.
</event>
<event>
 5   0  0.1308224E-05  0.2279360E+04  0.7818609E-02  0.8486104E-01
       -1   -1    0    0    0  501  0.00000000000E+00  0.00000000000E+00  0.80910533068E+03  0.80910533070E+03  0.50400001928E-02 0. -1.
        1   -1    0    0  501    0  0.00000000000E+00  0.00000000000E+00 -0.16053170636E+04  0.16053170636E+04  0.50400001928E-02 0.  1.
    10030    2    1    2    0    0  0.00000000000E+00  0.00000000000E+00 -0.79621173294E+03  0.24144223943E+04  0.22793600801E+04 0.  0.
        5    1    3    3  502    0 -0.89085380394E+03 -0.29122687089E+03 -0.10849202304E+04  0.14337041489E+04  0.46999998093E+01 0.  1.
       -5    1    3    3    0  502  0.89085380394E+03  0.29122687089E+03  0.28870849747E+03  0.98071824539E+03  0.46999998093E+01 0. -1.
</event>
<event>
 5   0  0.1327820E-05  0.2300066E+04  0.7818609E-02  0.8477895E-01
       -1   -1    0    0    0  501  0.00000000000E+00  0.00000000000E+00  0.12533270075E+04  0.12533270075E+04  0.50400001928E-02 0. -1.
        1   -1    0    0  501    0  0.00000000000E+00  0.00000000000E+00 -0.10552519727E+04  0.10552519727E+04  0.50400001928E-02 0.  1.
    10030    2    1    2    0    0  0.00000000000E+00  0.00000000000E+00  0.19807503481E+03  0.23085789802E+04  0.23000659096E+04 0.  0.
        1    1    3    3  502    0 -0.41813732626E+03 -0.34690628500E+03  0.11163930653E+04  0.12415781371E+04  0.50400001928E-02 0. -1.
       -1    1    3    3    0  502  0.41813732626E+03  0.34690628500E+03 -0.91831803048E+03  0.10670008432E+04  0.50400001928E-02 0.  1.
</event>
<event>
 5   0  0.2938972E-05  0.2337104E+04  0.7818609E-02  0.8463434E-01
       -2   -1    0    0    0  501  0.00000000000E+00  0.00000000000E+00  0.60036592705E+03  0.60036592705E+03  0.25500000920E-02 0. -1.
        2   -1    0    0  501    0  0.00000000000E+00  0.00000000000E+00 -0.22744681830E+04  0.22744681830E+04  0.25500000920E-02 0.  1.
    10030    2    1    2    0    0  0.00000000000E+00  0.00000000000E+00 -0.16741022559E+04  0.28748341100E+04  0.23371035058E+04 0.  0.
        2    1    3    3  502    0 -0.65957467708E+03  0.82810138666E+03 -0.22853537396E+03  0.10830600530E+04  0.25500000920E-02 0. -1.
       -2    1    3    3    0  502  0.65957467708E+03 -0.82810138666E+03 -0.14455668820E+04  0.17917740571E+04  0.25500000920E-02 0.  1.
</event>
<event>
 5   0  0.1308224E-05  0.2291711E+04  0.7818609E-02  0.8481196E-01
       -1   -1    0    0    0  501  0.00000000000E+00  0.00000000000E+00  0.73005901780E+03  0.73005901782E+03  0.50400001928E-02 0.  1.
        1   -1    0    0  501    0  0.00000000000E+00  0.00000000000E+00 -0.17984644851E+04  0.17984644851E+04  0.50400001928E-02 0. -1.
    10030    2    1    2    0    0  0.00000000000E+00  0.00000000000E+00 -0.10684054673E+04  0.25285235029E+04  0.22917113392E+04 0.  0.
        5    1    3    3  502    0  0.84728055905E+03  0.56412694813E+03 -0.11147280465E+04  0.15095576395E+04  0.46999998093E+01 0. -1.
       -5    1    3    3    0  502 -0.84728055905E+03 -0.56412694813E+03  0.46322579264E+02  0.10189658634E+04  0.46999998093E+01 0.  1.
</event>
<event>
 5   0  0.2816178E-05  0.2293615E+04  0.7818609E-02  0.8480443E-01
        2   -1    0    0  501    0  0.00000000000E+00  0.00000000000E+00  0.13869954216E+04  0.13869954216E+04  0.25500000920E-02 0. -1.
       -2   -1    0    0    0  501  0.00000000000E+00  0.00000000000E+00 -0.94821352609E+03  0.94821352609E+03  0.25500000920E-02 0.  1.
    10030    2    1    2    0    0  0.00000000000E+00  0.00000000000E+00  0.43878189551E+03  0.23352089477E+04  0.22936153290E+04 0.  0.
        1    1    3    3  502    0  0.29147231718E+03 -0.59958763973E+03 -0.73064715657E+03  0.98909388676E+03  0.50400001928E-02 0.  1.
       -1    1    3    3    0  502 -0.29147231718E+03  0.59958763973E+03  0.11694290521E+04  0.13461150609E+04  0.50400001928E-02 0. -1.
</event>
<event>
 5   0  0.1327820E-05  0.2297171E+04  0.7818609E-02  0.8479037E-01
       -1   -1    0    0    0  501  0.00000000000E+00  0.00000000000E+00  0.11676303536E+04  0.11676303536E+04  0.50400001928E-02 0. -1.
        1   -1    0    0  501    0  0.00000000000E+00  0.00000000000E+00 -0.11298514899E+04  0.11298514899E+04  0.50400001928E-02 0.  1.
    10030    2    1    2    0    0  0.00000000000E+00  0.00000000000E+00  0.37778863686E+02  0.22974818435E+04  0.22971712123E+04 0.  0.
        1    1    3    3  502    0 -0.33048125852E+03  0.42480230026E+03 -0.99592705491E+03  0.11320536892E+04  0.50400001928E-02 0.  1.
       -1    1    3    3    0  502  0.33048125852E+03 -0.42480230026E+03  0.10337059186E+04  0.11654281542E+04  0.50400001928E-02 0. -1.
</event>
<event>
 5   0  0.1303224E-05  0.2301428E+04  0.7818609E-02  0.8477358E-01
       -1   -1    0    0    0  501  0.00000000000E+00  0.00000000000E+00  0.10534264714E+04  0.10534264714E+04  0.50400001928E-02 0.  1.
        1   -1    0    0  501    0  0.00000000000E+00  0.00000000000E+00 -0.12569864197E+04  0.12569864197E+04  0.50400001928E-02 0. -1.
    10030    2    1    2    0    0  0.00000000000E+00  0.00000000000E+00 -0.20355994828E+03  0.23104128911E+04  0.23014280512E+04 0.  0.
        2    1    3    3  502    0  0.11352954644E+03 -0.43119072448E+03  0.96317643286E+03  0.10613779909E+04  0.25500000920E-02 0.  1.
       -2    1    3    3    0  502 -0.11352954644E+03  0.43119072448E+03 -0.11667363811E+04  0.12490349002E+04  0.25500000920E-02 0. -1.
</event>
<event>
 5   0  0.2994157E-05  0.2305268E+04  0.7818609E-02  0.8475847E-01
       -2   -1    0    0    0  501  0.00000000000E+00  0.00000000000E+00  0.84194838739E+03  0.84194838739E+03  0.25500000920E-02 0. -1.
        2   -1    0    0  501    0  0.00000000000E+00  0.00000000000E+00 -0.15779657213E+04  0.15779657213E+04  0.25500000920E-02 0.  1.
    10030    2    1    2    0    0  0.00000000000E+00  0.00000000000E+00 -0.73601733393E+03  0.24199141087E+04  0.23052684828E+04 0.  0.
        4    1    3    3  502    0  0.86626901108E+03 -0.64528990692E+03 -0.79018240134E+03  0.13383612755E+04  0.12699999809E+01 0.  1.
       -4    1    3    3    0  502 -0.86626901108E+03  0.64528990692E+03  0.54165067406E+02  0.10815528332E+04  0.12699999809E+01 0. -1.
</event>
<event>
 5   0  0.2938972E-05  0.2296231E+04  0.7818609E-02  0.8479409E-01
       -2   -1    0    0    0  501  0.00000000000E+00  0.00000000000E+00  0.90663665052E+03  0.90663665052E+03  0.25500000920E-02 0.  1.
        2   -1    0    0  501    0  0.00000000000E+00  0.00000000000E+00 -0.14539107374E+04  0.14539107374E+04  0.25500000920E-02 0. -1.
    10030    2    1    2    0    0  0.00000000000E+00  0.00000000000E+00 -0.54727408690E+03  0.23605473879E+04  0.22962306166E+04 0.  0.
        2    1    3    3  502    0  0.10630133720E+04 -0.22406687856E+03 -0.65547777984E+03  0.12688004236E+04  0.25500000920E-02 0. -1.
       -2    1    3    3    0  502 -0.10630133720E+04  0.22406687856E+03  0.10820369294E+03  0.10917469644E+04  0.25500000920E-02 0.  1.
</event>
<event>
 5   0  0.2994157E-05  0.2298635E+04  0.7818609E-02  0.8478460E-01
       -2   -1    0    0    0  501  0.00000000000E+00  0.00000000000E+00  0.11642844213E+04  0.11642844213E+04  0.25500000920E-02 0.  1.
        2   -1    0    0  501    0  0.00000000000E+00  0.00000000000E+00 -0.11345425131E+04  0.11345425132E+04  0.25500000920E-02 0. -1.
    10030    2    1    2    0    0  0.00000000000E+00  0.00000000000E+00  0.29741908164E+02  0.22988269345E+04  0.22986345280E+04 0.  0.
        4    1    3    3  502    0  0.10655800705E+04 -0.41525484763E+03 -0.99292380780E+02  0.11479364376E+04  0.12699999809E+01 0. -1.
       -4    1    3    3    0  502 -0.10655800705E+04  0.41525484763E+03  0.12903428894E+03  0.11508904968E+04  0.12699999809E+01 0.  1.
</event>
<event>
 5   0  0.1303224E-05  0.2303589E+04  0.7818609E-02  0.8476507E-01
        1   -1    0    0  501    0  0.00000000000E+00  0.00000000000E+00  0.15407007646E+04  0.15407007646E+04  0.50400001928E-02 0.  1.
       -1   -1    0    0    0  501  0.00000000000E+00  0.00000000000E+00 -0.86105695443E+03  0.86105695445E+03  0.50400001928E-02 0. -1.
    10030    2    1    2    0    0  0.00000000000E+00  0.00000000000E+00  0.67964381014E+03  0.24017577190E+04  0.23035894670E+04 0.  0.
        2    1    3    3  502    0  0.16767039320E+03  0.95952173413E+03  0.98070033873E+03  0.13822331473E+04  0.25500000920E-02 0.  1.
       -2    1    3    3    0  502 -0.16767039320E+03 -0.95952173413E+03 -0.30105652859E+03  0.10195245718E+04  0.25500000920E-02 0. -1.
</event>
<event>
 5   0  0.2816178E-05  0.2263793E+04  0.7818609E-02  0.8492335E-01
       -2   -1    0    0    0  501  0.00000000000E+00  0.00000000000E+00  0.75915418271E+03  0.75915418271E+03  0.25500000920E-02 0. -1.
        2   -1    0    0  501    0  0.00000000000E+00  0.00000000000E+00 -0.16876542703E+04  0.16876542703E+04  0.25500000920E-02 0.  1.
    10030    2    1    2    0    0  0.00000000000E+00  0.00000000000E+00 -0.92850008763E+03  0.24468084530E+04  0.22637930986E+04 0.  0.
        1    1    3    3  502    0  0.59504824482E+03 -0.63716626795E+03  0.31600185254E+03  0.92731895134E+03  0.50400001928E-02 0. -1.
       -1    1    3    3    0  502 -0.59504824482E+03  0.63716626795E+03 -0.12445019402E+04  0.15194895017E+04  0.50400001928E-02 0.  1.
</event>
<event>
 5   0  0.1284837E-05  0.2249417E+04  0.7818609E-02  0.8498137E-01
       -1   -1    0    0    0  501  0.00000000000E+00  0.00000000000E+00  0.85125356042E+03  0.85125356043E+03  0.50400001928E-02 0.  1.
        1   -1    0    0  501    0  0.00000000000E+00  0.00000000000E+00 -0.14860077901E+04  0.14860077901E+04  0.50400001928E-02 0. -1.
    10030    2    1    2    0    0  0.00000000000E+00  0.00000000000E+00 -0.63475422965E+03  0.23372613505E+04  0.22494171886E+04 0.  0.
        4    1    3    3  502    0  0.31314144366E+03  0.33301778760E+03 -0.13851309988E+04  0.14586116369E+04  0.12699999809E+01 0. -1.
       -4    1    3    3    0  502 -0.31314144366E+03 -0.33301778760E+03  0.75037676916E+03  0.87864971359E+03  0.12699999809E+01 0.  1.
</event>
<event>
 5   0  0.1303224E-05  0.2303791E+04  0.7818609E-02  0.8476428E-01
        1   -1    0    0  501    0  0.00000000000E+00  0.00000000000E+00  0.72273056354E+03  0.72273056356E+03  0.50400001928E-02 0.  1.
       -1   -1    0    0    0  501  0.00000000000E+00  0.00000000000E+00 -0.18359036380E+04  0.18359036380E+04  0.50400001928E-02 0. -1.
    10030    2    1    2    0    0  0.00000000000E+00  0.00000000000E+00 -0.11131730745E+04  0.25586342016E+04  0.23037913716E+04 0.  0.
        2    1    3    3  502    0  0.16500297667E+02  0.20152534628E+03 -0.18160395878E+04  0.18272614781E+04  0.25500000920E-02 0. -1.
       -2    1    3    3    0  502 -0.16500297667E+02 -0.20152534628E+03  0.70286651333E+03  0.73137272344E+03  0.25500000920E-02 0.  1.
</event>
<event>
 5   0  0.1327820E-05  0.2315445E+04  0.7818609E-02  0.8471856E-01
       -1   -1    0    0    0  501  0.00000000000E+00  0.00000000000E+00  0.53803277497E+03  0.53803277499E+03  0.50400001928E-02 0. -1.
        1   -1    0    0  501    0  0.00000000000E+00  0.00000000000E+00 -0.24911527271E+04  0.24911527271E+04  0.50400001928E-02 0.  1.
    10030    2    1    2    0    0  0.00000000000E+00  0.00000000000E+00 -0.19531199521E+04  0.30291855021E+04  0.23154453694E+04 0.  0.
        1    1    3    3  502    0  0.36990313213E+02  0.73983388846E+03 -0.21405360279E+04  0.22650865221E+04  0.50400001928E-02 0.  1.
       -1    1    3    3    0  502 -0.36990313213E+02 -0.73983388846E+03  0.18741607576E+03  0.76409898002E+03  0.50400001928E-02 0. -1.
</event>
<event>
 5   0  0.2816178E-05  0.2300343E+04  0.7818609E-02  0.8477786E-01
       -2   -1    0    0    0  501  0.00000000000E+00  0.00000000000E+00  0.10546443925E+04  0.10546443925E+04  0.25500000920E-02 0. -1.
        2   -1    0    0  501    0  0.00000000000E+00  0.00000000000E+00 -0.12543507501E+04  0.12543507501E+04  0.25500000920E-02 0.  1.
    10030    2    1    2    0    0  0.00000000000E+00  0.00000000000E+00 -0.19970635765E+03  0.23089951426E+04  0.23003425700E+04 0.  0.
        1    1    3    3  502    0  0.38239749735E+03  0.32398591112E+03 -0.11389762081E+04  0.12443719377E+04  0.50400001928E-02 0.  1.
       -1    1    3    3    0  502 -0.38239749735E+03 -0.32398591112E+03  0.93926985044E+03  0.10646232050E+04  0.50400001928E-02 0. -1.
</event>
<event>
 5   0  0.1371753E-05  0.2307949E+04  0.7818609E-02  0.8474794E-01
        1   -1    0    0  501    0  0.00000000000E+00  0.00000000000E+00  0.22631026689E+04  0.22631026689E+04  0.50400001928E-02 0.  1.
       -1   -1    0    0    0  501  0.00000000000E+00  0.00000000000E+00 -0.58842090969E+03  0.58842090971E+03  0.50400001928E-02 0. -1.
    10030    2    1    2    0    0  0.00000000000E+00  0.00000000000E+00  0.16746817592E+04  0.28515235786E+04  0.23079488133E+04 0.  0.
        3    1    3    3  502    0  0.27746521369E+03  0.68611014385E+03  0.19312656471E+04  0.20682168852E+04  0.10100000352E+00 0.  1.
       -3    1    3    3    0  502 -0.27746521369E+03 -0.68611014385E+03 -0.25658388787E+03  0.78330669346E+03  0.10100000352E+00 0. -1.
</event>
<event>
 5   0  0.1308224E-05  0.2294242E+04  0.7818609E-02  0.8480195E-01
       -1   -1    0    0    0  501  0.00000000000E+00  0.00000000000E+00  0.60649838153E+03  0.60649838155E+03  0.50400001928E-02 0.  1.
        1   -1    0    0  501    0  0.00000000000E+00  0.00000000000E+00 -0.21696459409E+04  0.21696459409E+04  0.50400001928E-02 0. -1.
    10030    2    1    2    0    0  0.00000000000E+00  0.00000000000E+00 -0.15631475594E+04  0.27761443225E+04  0.22942421421E+04 0.  0.
        5    1    3    3  502    0  0.89200694967E+03 -0.53057536479E+03 -0.19040835786E+03  0.10552080594E+04  0.46999998093E+01 0.  1.
       -5    1    3    3    0  502 -0.89200694967E+03  0.53057536479E+03 -0.13727392015E+04  0.17209362630E+04  0.46999998093E+01 0. -1.
</event>
<event>
 5   0  0.1371753E-05  0.2255671E+04  0.7818609E-02  0.8495607E-01
       -1   -1    0    0    0  501  0.00000000000E+00  0.00000000000E+00  0.84283000745E+03  0.84283000746E+03  0.50400001928E-02 0.  1.
        1   -1    0    0  501    0  0.00000000000E+00  0.00000000000E+00 -0.15092165722E+04  0.15092165722E+04  0.50400001928E-02 0. -1.
    10030    2    1    2    0    0  0.00000000000E+00  0.00000000000E+00 -0.66638656476E+03  0.23520465797E+04  0.22556710884E+04 0.  0.
        3    1    3    3  502    0 -0.31285483571E+03 -0.11385553474E+03  0.79042392170E+03  0.85767780501E+03  0.10100000352E+00 0.  1.
       -3    1    3    3    0  502  0.31285483571E+03  0.11385553474E+03 -0.14568104865E+04  0.14943687747E+04  0.10100000352E+00 0. -1.
</event>
<event>
 5   0  0.2938972E-05  0.2299620E+04  0.7818609E-02  0.8478071E-01
        2   -1    0    0  501    0  0.00000000000E+00  0.00000000000E+00  0.90489782083E+03  0.90489782083E+03  0.25500000920E-02 0. -1.
       -2   -1    0    0    0  501  0.00000000000E+00  0.00000000000E+00 -0.14610082966E+04  0.14610082966E+04  0.25500000920E-02 0.  1.
    10030    2    1    2    0    0  0.00000000000E+00  0.00000000000E+00 -0.55611047578E+03  0.23659061174E+04  0.22996201633E+04 0.  0.
        2    1    3    3  502    0 -0.10466037823E+03  0.92461802216E+03  0.41683262822E+03  0.10196184196E+04  0.25500000920E-02 0. -1.
       -2    1    3    3    0  502  0.10466037823E+03 -0.92461802216E+03 -0.97294310400E+03  0.13462876978E+04  0.25500000920E-02 0.  1.
</event>
<event>
 5   0  0.2938972E-05  0.2304220E+04  0.7818609E-02  0.8476259E-01
       -2   -1    0    0    0  501  0.00000000000E+00  0.00000000000E+00  0.11151067151E+04  0.11151067151E+04  0.25500000920E-02 0.  1.
        2   -1    0    0  501    0  0.00000000000E+00  0.00000000000E+00 -0.11903416631E+04  0.11903416631E+04  0.25500000920E-02 0. -1.
    10030    2    1    2    0    0  0.00000000000E+00  0.00000000000E+00 -0.75234947989E+02  0.23054483783E+04  0.23042204598E+04 0.  0.
        2    1    3    3  502    0 -0.66103814236E+03  0.34247307201E+03  0.84211142682E+03  0.11240155185E+04  0.25500000920E-02 0.  1.
       -2    1    3    3    0  502  0.66103814236E+03 -0.34247307201E+03 -0.91734637481E+03  0.11814328598E+04  0.25500000920E-02 0. -1.
</event>
<event>
 5   0  0.2994157E-05  0.2390640E+04  0.7818609E-02  0.8443016E-01
        2   -1    0    0  501    0  0.00000000000E+00  0.00000000000E+00  0.21244359385E+04  0.21244359385E+04  0.25500000920E-02 0. -1.
       -2   -1    0    0    0  501  0.00000000000E+00  0.00000000000E+00 -0.67255019960E+03  0.67255019960E+03  0.25500000920E-02 0.  1.
    10030    2    1    2    0    0  0.00000000000E+00  0.00000000000E+00  0.14518857389E+04  0.27969861381E+04  0.23906399265E+04 0.  0.
        4    1    3    3  502    0 -0.28429290859E+03 -0.10463715891E+04  0.13737249102E+03  0.10929724491E+04  0.12699999809E+01 0.  1.
       -4    1    3    3    0  502  0.28429290859E+03  0.10463715891E+04  0.13145132479E+04  0.17040136890E+04  0.12699999809E+01 0. -1.
</event>
<event>
 5   0  0.1017200E-05  0.2298390E+04  0.7818609E-02  0.8478556E-01
       -3   -1    0    0    0  501  0.00000000000E+00  0.00000000000E+00  0.13456847158E+04  0.13456847196E+04  0.10100000352E+00 0. -1.
        3   -1    0    0  501    0  0.00000000000E+00  0.00000000000E+00 -0.98139547092E+03  0.98139547611E+03  0.10100000352E+00 0.  1.
    10030    2    1    2    0    0  0.00000000000E+00  0.00000000000E+00  0.36428924490E+03  0.23270801957E+04  0.22983897806E+04 0.  0.
        5    1    3    3  502    0  0.10235103481E+04  0.32020340060E+03 -0.23595458902E+03  0.10980893900E+04  0.46999998093E+01 0.  1.
       -5    1    3    3    0  502 -0.10235103481E+04 -0.32020340060E+03  0.60024383393E+03  0.12289908057E+04  0.46999998093E+01 0. -1.
</event>
<event>
 5   0  0.1371753E-05  0.2285205E+04  0.7818609E-02  0.8483778E-01
        1   -1    0    0  501    0  0.00000000000E+00  0.00000000000E+00  0.13529304746E+04  0.13529304746E+04  0.50400001928E-02 0.  1.
       -1   -1    0    0    0  501  0.00000000000E+00  0.00000000000E+00 -0.96497196056E+03  0.96497196057E+03  0.50400001928E-02 0. -1.
    10030    2    1    2    0    0  0.00000000000E+00  0.00000000000E+00  0.38795851405E+03  0.23179024352E+04  0.22852045621E+04 0.  0.
        3    1    3    3  502    0 -0.18292806124E+03  0.49238802614E+03 -0.83524719973E+03  0.98668461969E+03  0.10100000352E+00 0. -1.
       -3    1    3    3    0  502  0.18292806124E+03 -0.49238802614E+03  0.12232057138E+04  0.13312178155E+04  0.10100000352E+00 0.  1.
</event>
<event>
 5   0  0.1284837E-05  0.2309370E+04  0.7818609E-02  0.8474236E-01
        1   -1    0    0  501    0  0.00000000000E+00  0.00000000000E+00  0.15141393672E+04  0.15141393672E+04  0.50400001928E-02 0. -1.
       -1   -1    0    0    0  501  0.00000000000E+00  0.00000000000E+00 -0.88056489865E+03  0.88056489866E+03  0.50400001928E-02 0.  1.
    10030    2    1    2    0    0  0.00000000000E+00  0.00000000000E+00  0.63357446856E+03  0.23947042659E+04  0.23093704583E+04 0.  0.
        4    1    3    3  502    0  0.65403778566E+03  0.36151862562E+03  0.12295606010E+04  0.14388474645E+04  0.12699999809E+01 0. -1.
       -4    1    3    3    0  502 -0.65403778566E+03 -0.36151862562E+03 -0.59598613243E+03  0.95585680136E+03  0.12699999809E+01 0.  1.
</event>
<event>
 5   0  0.2910126E-05  0.2308198E+04  0.7818609E-02  0.8474696E-01
        2   -1    0    0  501    0  0.00000000000E+00  0.00000000000E+00  0.15484735068E+04  0.15484735068E+04  0.25500000920E-02 0. -1.
       -2   -1    0    0    0  501  0.00000000000E+00  0.00000000000E+00 -0.86016579796E+03  0.86016579797E+03  0.25500000920E-02 0.  1.
    10030    2    1    2    0    0  0.00000000000E+00  0.00000000000E+00  0.68830770879E+03  0.24086393047E+04  0.23081975215E+04 0.  0.
        5    1    3    3  502    0  0.20573961824E+03  0.98624084952E+03 -0.24330172223E+03  0.10364447027E+04  0.46999998093E+01 0.  1.
       -5    1    3    3    0  502 -0.20573961824E+03 -0.98624084952E+03  0.93160943102E+03  0.13721946020E+04  0.46999998093E+01 0. -1.
</event>
<event>
 5   0  0.1308224E-05  0.2275452E+04  0.7818609E-02  0.8487664E-01
        1   -1    0    0  501    0  0.00000000000E+00  0.00000000000E+00  0.52303391828E+03  0.52303391831E+03  0.50400001928E-02 0. -1.
       -1   -1    0    0    0  501  0.00000000000E+00  0.00000000000E+00 -0.24748299393E+04  0.24748299393E+04  0.50400001928E-02 0.  1.
    10030    2    1    2    0    0  0.00000000000E+00  0.00000000000E+00 -0.19517960210E+04  0.29978638576E+04  0.22754516038E+04 0.  0.
        5    1    3    3  502    0  0.23557963781E+03 -0.93067000549E-01 -0.24423317815E+04  0.24536716152E+04  0.46999998093E+01 0.  1.
       -5    1    3    3    0  502 -0.23557963781E+03  0.93067000549E-01  0.49053576046E+03  0.54419224241E+03  0.46999998093E+01 0. -1.
</event>
<event>
 5   0  0.1303224E-05  0.2269983E+04  0.7818609E-02  0.8489851E-01
        1   -1    0    0  501    0  0.00000000000E+00  0.00000000000E+00  0.20658654094E+04  0.20658654094E+04  0.50400001928E-02 0.  1.
       -1   -1    0    0    0  501  0.00000000000E+00  0.00000000000E+00 -0.62356693950E+03  0.62356693952E+03  0.50400001928E-02 0. -1.
    10030    2    1    2    0    0  0.00000000000E+00  0.00000000000E+00  0.14422984699E+04  0.26894323489E+04  0.22699827055E+04 0.  0.
        2    1    3    3  502    0  0.17830555310E+03  0.88583513334E+02 -0.60271586852E+03  0.63474902700E+03  0.25500000920E-02 0. -1.
       -2    1    3    3    0  502 -0.17830555310E+03 -0.88583513334E+02  0.20450143384E+04  0.20546833219E+04  0.25500000920E-02 0.  1.
</event>
<event>
 5   0  0.2871888E-05  0.2179471E+04  0.7818609E-02  0.8527022E-01
        2   -1    0    0  501    0  0.00000000000E+00  0.00000000000E+00  0.11122876257E+04  0.11122876257E+04  0.25500000920E-02 0. -1.
       -2   -1    0    0    0  501  0.00000000000E+00  0.00000000000E+00 -0.10676402307E+04  0.10676402307E+04  0.25500000920E-02 0.  1.
    10030    2    1    2    0    0  0.00000000000E+00  0.00000000000E+00  0.44647395011E+02  0.21799278563E+04  0.21794705937E+04 0.  0.
        3    1    3    3  502    0 -0.10535639598E+04 -0.27769857508E+03  0.20835658210E+01  0.10895493873E+04  0.10100000352E+00 0. -1.
       -3    1    3    3    0  502  0.10535639598E+04  0.27769857508E+03  0.42563829190E+02  0.10903784690E+04  0.10100000352E+00 0.  1.
</event>
<event>
 5   0  0.1371753E-05  0.2295815E+04  0.7818609E-02  0.8479573E-01
       -1   -1    0    0    0  501  0.00000000000E+00  0.00000000000E+00  0.61963606862E+03  0.61963606864E+03  0.50400001928E-02 0. -1.
        1   -1    0    0  501    0  0.00000000000E+00  0.00000000000E+00 -0.21265569487E+04  0.21265569487E+04  0.50400001928E-02 0.  1.
    10030    2    1    2    0    0  0.00000000000E+00  0.00000000000E+00 -0.15069208801E+04  0.27461930173E+04  0.22958147899E+04 0.  0.
        3    1    3    3  502    0  0.57451557417E+03 -0.94090321779E+03 -0.11360946028E+04  0.15830596852E+04  0.10100000352E+00 0.  1.
       -3    1    3    3    0  502 -0.57451557417E+03  0.94090321779E+03 -0.37082627730E+03  0.11631333321E+04  0.10100000352E+00 0. -1.
</event>
<event>
 5   0  0.1371753E-05  0.2308933E+04  0.7818609E-02  0.8474407E-01
       -1   -1    0    0    0  501  0.00000000000E+00  0.00000000000E+00  0.12145629474E+04  0.12145629474E+04  0.50400001928E-02 0.  1.
        1   -1    0    0  501    0  0.00000000000E+00  0.00000000000E+00 -0.10973431554E+04  0.10973431554E+04  0.50400001928E-02 0. -1.
    10030    2    1    2    0    0  0.00000000000E+00  0.00000000000E+00  0.11721979200E+03  0.23119061028E+04  0.23089325128E+04 0.  0.
        3    1    3    3  502    0  0.23002505581E+03  0.40796010015E+02  0.11906482978E+04  0.12133504110E+04  0.10100000352E+00 0.  1.
       -3    1    3    3    0  502 -0.23002505581E+03 -0.40796010015E+02 -0.10734285058E+04  0.10985556918E+04  0.10100000352E+00 0. -1.
</event>
<event>
 5   0  0.1371753E-05  0.2314623E+04  0.7818609E-02  0.8472178E-01
        1   -1    0    0  501    0  0.00000000000E+00  0.00000000000E+00  0.78003822808E+03  0.78003822809E+03  0.50400001928E-02 0. -1.
       -1   -1    0    0    0  501  0.00000000000E+00  0.00000000000E+00 -0.17170568664E+04  0.17170568664E+04  0.50400001928E-02 0.  1.
    10030    2    1    2    0    0  0.00000000000E+00  0.00000000000E+00 -0.93701863831E+03  0.24970950945E+04  0.23146230757E+04 0.  0.
        3    1    3    3  502    0  0.90283567439E+03  0.49420461899E+03 -0.10393947506E+04  0.14627685798E+04  0.10100000352E+00 0.  1.
       -3    1    3    3    0  502 -0.90283567439E+03 -0.49420461899E+03  0.10237611226E+03  0.10343265147E+04  0.10100000352E+00 0. -1.
</event>
<event>
 5   0  0.1017200E-05  0.2315124E+04  0.7818609E-02  0.8471982E-01
        4   -1    0    0  501    0  0.00000000000E+00  0.00000000000E+00  0.20187665917E+04  0.20187669911E+04  0.12699999809E+01 0.  1.
       -4   -1    0    0    0  501  0.00000000000E+00  0.00000000000E+00 -0.66374543688E+03  0.66374665188E+03  0.12699999809E+01 0. -1.
    10030    2    1    2    0    0  0.00000000000E+00  0.00000000000E+00  0.13550211548E+04  0.26825136430E+04  0.23151235637E+04 0.  0.
        1    1    3    3  502    0 -0.83605981899E+03  0.79516410102E+03  0.78538287661E+03  0.13957464782E+04  0.50400001928E-02 0.  1.
       -1    1    3    3    0  502  0.83605981899E+03 -0.79516410102E+03  0.56963827816E+03  0.12867671648E+04  0.50400001928E-02 0. -1.
</event>
<event>
 5   0  0.1284837E-05  0.2295783E+04  0.7818609E-02  0.8479586E-01
        1   -1    0    0  501    0  0.00000000000E+00  0.00000000000E+00  0.22661170380E+04  0.22661170380E+04  0.50400001928E-02 0. -1.
       -1   -1    0    0    0  501  0.00000000000E+00  0.00000000000E+00 -0.58145917766E+03  0.58145917769E+03  0.50400001928E-02 0.  1.
    10030    2    1    2    0    0  0.00000000000E+00  0.00000000000E+00  0.16846578603E+04  0.28475762157E+04  0.22957826983E+04 0.  0.
        4    1    3    3  502    0  0.17958435075E+03 -0.81711783107E+03 -0.13252760545E+03  0.84705210465E+03  0.12699999809E+01 0.  1.
       -4    1    3    3    0  502 -0.17958435075E+03  0.81711783107E+03  0.18171854658E+04  0.20005241110E+04  0.12699999809E+01 0. -1.
</event>
<event>
 5   0  0.1284837E-05  0.2307686E+04  0.7818609E-02  0.8474897E-01
       -1   -1    0    0    0  501  0.00000000000E+00  0.00000000000E+00  0.15038114226E+04  0.15038114226E+04  0.50400001928E-02 0.  1.
        1   -1    0    0  501    0  0.00000000000E+00  0.00000000000E+00 -0.88531947704E+03  0.88531947706E+03  0.50400001928E-02 0. -1.
    10030    2    1    2    0    0  0.00000000000E+00  0.00000000000E+00  0.61849194556E+03  0.23891308997E+04  0.23076858905E+04 0.  0.
        4    1    3    3  502    0  0.75084807896E+02 -0.64704597469E+02  0.14993950264E+04  0.15026681175E+04  0.12699999809E+01 0.  1.
       -4    1    3    3    0  502 -0.75084807896E+02  0.64704597469E+02 -0.88090308087E+03  0.88646278212E+03  0.12699999809E+01 0. -1.
</event>
<event>
 5   0  0.2871888E-05  0.2399752E+04  0.7818609E-02  0.8439596E-01
        2   -1    0    0  501    0  0.00000000000E+00  0.00000000000E+00  0.21204899627E+04  0.21204899627E+04  0.25500000920E-02 0.  1.
       -2   -1    0    0    0  501  0.00000000000E+00  0.00000000000E+00 -0.67894816667E+03  0.67894816668E+03  0.25500000920E-02 0. -1.
    10030    2    1    2    0    0  0.00000000000E+00  0.00000000000E+00  0.14415417961E+04  0.27994381294E+04  0.23997522978E+04 0.  0.
        3    1    3    3  502    0  0.23463660140E+03 -0.10972257181E+04  0.12167194010E+04  0.16551026319E+04  0.10100000352E+00 0.  1.
       -3    1    3    3    0  502 -0.23463660140E+03  0.10972257181E+04  0.22482239506E+03  0.11443354975E+04  0.10100000352E+00 0. -1.
</event>
<event>
 5   0  0.2994157E-05  0.2209170E+04  0.7818609E-02  0.8514621E-01
        2   -1    0    0  501    0  0.00000000000E+00  0.00000000000E+00  0.17650074717E+04  0.17650074717E+04  0.25500000920E-02 0. -1.
       -2   -1    0    0    0  501  0.00000000000E+00  0.00000000000E+00 -0.69127644536E+03  0.69127644536E+03  0.25500000920E-02 0.  1.
    10030    2    1    2    0    0  0.00000000000E+00  0.00000000000E+00  0.10737310264E+04  0.24562839171E+04  0.22091700623E+04 0.  0.
        4    1    3    3  502    0  0.16095106773E+03 -0.35697894875E+03 -0.61151087668E+03  0.72614487622E+03  0.12699999809E+01 0.  1.
       -4    1    3    3    0  502 -0.16095106773E+03  0.35697894875E+03  0.16852419031E+04  0.17301390409E+04  0.12699999809E+01 0. -1.
</event>
<event>
 5   0  0.2994157E-05  0.2305554E+04  0.7818609E-02  0.8475734E-01
        2   -1    0    0  501    0  0.00000000000E+00  0.00000000000E+00  0.20626721303E+04  0.20626721303E+04  0.25500000920E-02 0.  1.
       -2   -1    0    0    0  501  0.00000000000E+00  0.00000000000E+00 -0.64425912426E+03  0.64425912427E+03  0.25500000920E-02 0. -1.
    10030    2    1    2    0    0  0.00000000000E+00  0.00000000000E+00  0.14184130060E+04  0.27069312545E+04  0.23055544585E+04 0.  0.
        4    1    3    3  502    0 -0.66182179896E+03  0.18622846227E+03 -0.37719565183E+03  0.78419851212E+03  0.12699999809E+01 0. -1.
       -4    1    3    3    0  502  0.66182179896E+03 -0.18622846227E+03  0.17956086578E+04  0.19227327424E+04  0.12699999809E+01 0.  1.
</event>
<event>
 5   0  0.1308224E-05  0.2203591E+04  0.7818609E-02  0.8516935E-01
        1   -1    0    0  501    0  0.00000000000E+00  0.00000000000E+00  0.13643761544E+04  0.13643761544E+04  0.50400001928E-02 0.  1.
       -1   -1    0    0    0  501  0.00000000000E+00  0.00000000000E+00 -0.88975009662E+03  0.88975009663E+03  0.50400001928E-02 0. -1.
    10030    2    1    2    0    0  0.00000000000E+00  0.00000000000E+00  0.47462605774E+03  0.22541262510E+04  0.22035914460E+04 0.  0.
        5    1    3    3  502    0 -0.77699760039E+03 -0.26524799955E+03 -0.51428164321E+03  0.96880827351E+03  0.46999998093E+01 0. -1.
       -5    1    3    3    0  502  0.77699760039E+03  0.26524799955E+03  0.98890770094E+03  0.12853179775E+04  0.46999998093E+01 0.  1.
</event>
<event>
 5   0  0.1371753E-05  0.2298846E+04  0.7818609E-02  0.8478376E-01
       -1   -1    0    0    0  501  0.00000000000E+00  0.00000000000E+00  0.79166589591E+03  0.79166589593E+03  0.50400001928E-02 0. -1.
        1   -1    0    0  501    0  0.00000000000E+00  0.00000000000E+00 -0.16688525937E+04  0.16688525937E+04  0.50400001928E-02 0.  1.
    10030    2    1    2    0    0  0.00000000000E+00  0.00000000000E+00 -0.87718669775E+03  0.24605184896E+04  0.22988463922E+04 0.  0.
        3    1    3    3  502    0 -0.44324889180E+03 -0.86356210923E+03  0.22030131211E+03  0.99536012322E+03  0.10100000352E+00 0. -1.
       -3    1    3    3    0  502  0.44324889180E+03  0.86356210923E+03 -0.10974880099E+04  0.14651583664E+04  0.10100000352E+00 0.  1.
</event>
<event>
 5   0  0.2994157E-05  0.2096270E+04  0.7818609E-02  0.8562888E-01
       -2   -1    0    0    0  501  0.00000000000E+00  0.00000000000E+00  0.65384883533E+03  0.65384883534E+03  0.25500000920E-02 0. -1.
        2   -1    0    0  501    0  0.00000000000E+00  0.00000000000E+00 -0.16801843690E+04  0.16801843690E+04  0.25500000920E-02 0.  1.
    10030    2    1    2    0    0  0.00000000000E+00  0.00000000000E+00 -0.10263355337E+04  0.23340332043E+04  0.20962696323E+04 0.  0.
        4    1    3    3  502    0  0.10439752905E+04 -0.76528113850E+02 -0.45378967327E+03  0.11409064992E+04  0.12699999809E+01 0.  1.
       -4    1    3    3    0  502 -0.10439752905E+04  0.76528113850E+02 -0.57254586039E+03  0.11931267051E+04  0.12699999809E+01 0. -1.
</event>
<event>
 5   0  0.2910126E-05  0.2298907E+04  0.7818609E-02  0.8478352E-01
        2   -1    0    0  501    0  0.00000000000E+00  0.00000000000E+00  0.11380221665E+04  0.11380221665E+04  0.25500000920E-02 0. -1.
       -2   -1    0    0    0  501  0.00000000000E+00  0.00000000000E+00 -0.11610000310E+04  0.11610000310E+04  0.25500000920E-02 0.  1.
    10030    2    1    2    0    0  0.00000000000E+00  0.00000000000E+00 -0.22977864442E+02  0.22990221975E+04  0.22989073670E+04 0.  0.
        5    1    3    3  502    0 -0.27696499948E+03  0.54406460983E+03 -0.98545018816E+03  0.11592454761E+04  0.46999998093E+01 0.  1.
       -5    1    3    3    0  502  0.27696499948E+03 -0.54406460983E+03  0.96247232372E+03  0.11397767213E+04  0.46999998093E+01 0. -1.
</event>
<event>
 5   0  0.1308224E-05  0.2298019E+04  0.7818609E-02  0.8478702E-01
        1   -1    0    0  501    0  0.00000000000E+00  0.00000000000E+00  0.13024128086E+04  0.13024128086E+04  0.50400001928E-02 0.  1.
       -1   -1    0    0    0  501  0.00000000000E+00  0.00000000000E+00 -0.10136748854E+04  0.10136748854E+04  0.50400001928E-02 0. -1.
    10030    2    1    2    0    0  0.00000000000E+00  0.00000000000E+00  0.28873792321E+03  0.23160876940E+04  0.22980192815E+04 0.  0.
        5    1    3    3  502    0 -0.98427489879E+03 -0.50848851692E+03 -0.16272896688E+03  0.11197591057E+04  0.46999998093E+01 0. -1.
       -5    1    3    3    0  502  0.98427489879E+03  0.50848851692E+03  0.45146689009E+03  0.11963285883E+04  0.46999998093E+01 0.  1.
</event>
<event>
 5   0  0.1371753E-05  0.2301765E+04  0.7818609E-02  0.8477226E-01
       -1   -1    0    0    0  501  0.00000000000E+00  0.00000000000E+00  0.86552104017E+03  0.86552104018E+03  0.50400001928E-02 0. -1.
        1   -1    0    0  501    0  0.00000000000E+00  0.00000000000E+00 -0.15303267892E+04  0.15303267892E+04  0.50400001928E-02 0.  1.
    10030    2    1    2    0    0  0.00000000000E+00  0.00000000000E+00 -0.66480574903E+03  0.23958478294E+04  0.23017645704E+04 0.  0.
        3    1    3    3  502    0 -0.91301732271E+03 -0.58502199209E+03  0.68946555836E+02  0.10865564875E+04  0.10100000352E+00 0. -1.
       -3    1    3    3    0  502  0.91301732271E+03  0.58502199209E+03 -0.73375230487E+03  0.13092913419E+04  0.10100000352E+00 0.  1.
</event>
<event>
 5   0  0.2938972E-05  0.2320063E+04  0.7818609E-02  0.8470052E-01
       -2   -1    0    0    0  501  0.00000000000E+00  0.00000000000E+00  0.72298279883E+03  0.72298279884E+03  0.25500000920E-02 0.  1.
        2   -1    0    0  501    0  0.00000000000E+00  0.00000000000E+00 -0.18612802668E+04  0.18612802668E+04  0.25500000920E-02 0. -1.
    10030    2    1    2    0    0  0.00000000000E+00  0.00000000000E+00 -0.11382974680E+04  0.25842630656E+04  0.23200634618E+04 0.  0.
        2    1    3    3  502    0  0.38329533152E+03  0.21599317217E+03 -0.17647405538E+04  0.18187571536E+04  0.25500000920E-02 0. -1.
       -2    1    3    3    0  502 -0.38329533152E+03 -0.21599317217E+03  0.62644308582E+03  0.76550591204E+03  0.25500000920E-02 0.  1.
</event>
<event>
 5   0  0.2910126E-05  0.2227084E+04  0.7818609E-02  0.8507239E-01
        2   -1    0    0  501    0  0.00000000000E+00  0.00000000000E+00  0.77447631927E+03  0.77447631927E+03  0.25500000920E-02 0.  1.
       -2   -1    0    0    0  501  0.00000000000E+00  0.00000000000E+00 -0.16010508097E+04  0.16010508097E+04  0.25500000920E-02 0. -1.
    10030    2    1    2    0    0  0.00000000000E+00  0.00000000000E+00 -0.82657449045E+03  0.23755271290E+04  0.22270841368E+04 0.  0.
        5    1    3    3  502    0 -0.92601225647E+03 -0.59192726083E+03 -0.60432625065E+03  0.12542363766E+04  0.46999998093E+01 0.  1.
       -5    1    3    3    0  502  0.92601225647E+03  0.59192726083E+03 -0.22224823980E+03  0.11212907524E+04  0.46999998093E+01 0. -1.
</event>
<event>
 5   0  0.2816178E-05  0.2276750E+04  0.7818609E-02  0.8487145E-01
       -2   -1    0    0    0  501  0.00000000000E+00  0.00000000000E+00  0.11574394651E+04  0.11574394651E+04  0.25500000920E-02 0.  1.
        2   -1    0    0  501    0  0.00000000000E+00  0.00000000000E+00 -0.11196250310E+04  0.11196250310E+04  0.25500000920E-02 0. -1.
    10030    2    1    2    0    0  0.00000000000E+00  0.00000000000E+00  0.37814434046E+02  0.22770644961E+04  0.22767504888E+04 0.  0.
        1    1    3    3  502    0  0.76861251059E+02  0.10188155477E+04 -0.48316343777E+03  0.11301945318E+04  0.50400001928E-02 0.  1.
       -1    1    3    3    0  502 -0.76861251059E+02 -0.10188155477E+04  0.52097787181E+03  0.11468699643E+04  0.50400001928E-02 0. -1.
</event>
<event>
 5   0  0.2994157E-05  0.2285548E+04  0.7818609E-02  0.8483641E-01
        2   -1    0    0  501    0  0.00000000000E+00  0.00000000000E+00  0.13346619755E+04  0.13346619755E+04  0.25500000920E-02 0. -1.
       -2   -1    0    0    0  501  0.00000000000E+00  0.00000000000E+00 -0.97847406822E+03  0.97847406822E+03  0.25500000920E-02 0.  1.
    10030    2    1    2    0    0  0.00000000000E+00  0.00000000000E+00  0.35618790731E+03  0.23131360438E+04  0.22855477531E+04 0.  0.
        4    1    3    3  502    0 -0.16217397865E+03  0.97448828595E+03 -0.40329881223E+03  0.10670423439E+04  0.12699999809E+01 0.  1.
       -4    1    3    3    0  502  0.16217397865E+03 -0.97448828595E+03  0.75948671954E+03  0.12460936999E+04  0.12699999809E+01 0. -1.
</event>
<event>
 5   0  0.2910126E-05  0.2282033E+04  0.7818609E-02  0.8485039E-01
       -2   -1    0    0    0  501  0.00000000000E+00  0.00000000000E+00  0.46711601515E+03  0.46711601516E+03  0.25500000920E-02 0. -1.
        2   -1    0    0  501    0  0.00000000000E+00  0.00000000000E+00 -0.27871423645E+04  0.27871423645E+04  0.25500000920E-02 0.  1.
    10030    2    1    2    0    0  0.00000000000E+00  0.00000000000E+00 -0.23200263493E+04  0.32542583797E+04  0.22820331592E+04 0.  0.
        5    1    3    3  502    0 -0.78034750210E+03  0.49649718739E+03 -0.21128402597E+04  0.23064188116E+04  0.46999998093E+01 0.  1.
       -5    1    3    3    0  502  0.78034750210E+03 -0.49649718739E+03 -0.20718608960E+03  0.94783956809E+03  0.46999998093E+01 0. -1.
</event>
<event>
 5   0  0.2871888E-05  0.2309283E+04  0.7818609E-02  0.8474270E-01
        2   -1    0    0  501    0  0.00000000000E+00  0.00000000000E+00  0.13259963395E+04  0.13259963395E+04  0.25500000920E-02 0.  1.
       -2   -1    0    0    0  501  0.00000000000E+00  0.00000000000E+00 -0.10054301771E+04  0.10054301771E+04  0.25500000920E-02 0. -1.
    10030    2    1    2    0    0  0.00000000000E+00  0.00000000000E+00  0.32056616249E+03  0.23314265166E+04  0.23092827756E+04 0.  0.
        3    1    3    3  502    0 -0.10442797174E+04  0.34974091709E+03  0.51053610449E+03  0.12138723003E+04  0.10100000352E+00 0.  1.
       -3    1    3    3    0  502  0.10442797174E+04 -0.34974091709E+03 -0.18996994200E+03  0.11175542163E+04  0.10100000352E+00 0. -1.
</event>
<event>
 5   0  0.1284837E-05  0.2304401E+04  0.7818609E-02  0.8476188E-01
       -1   -1    0    0    0  501  0.00000000000E+00  0.00000000000E+00  0.11718995972E+04  0.11718995973E+04  0.50400001928E-02 0. -1.
        1   -1    0    0  501    0  0.00000000000E+00  0.00000000000E+00 -0.11328320580E+04  0.11328320580E+04  0.50400001928E-02 0.  1.
    10030    2    1    2    0    0  0.00000000000E+00  0.00000000000E+00  0.39067539213E+02  0.23047316553E+04  0.23044005143E+04 0.  0.
        4    1    3    3  502    0  0.49772542791E+03  0.66741362506E+03  0.81613568266E+03  0.11658690381E+04  0.12699999809E+01 0. -1.
       -4    1    3    3    0  502 -0.49772542791E+03 -0.66741362506E+03 -0.77706814345E+03  0.11388626172E+04  0.12699999809E+01 0.  1.
</event>
<event>
 5   0  0.2910126E-05  0.2280714E+04  0.7818609E-02  0.8485564E-01
       -2   -1    0    0    0  501  0.00000000000E+00  0.00000000000E+00  0.13761885330E+04  0.13761885330E+04  0.25500000920E-02 0. -1.
        2   -1    0    0  501    0  0.00000000000E+00  0.00000000000E+00 -0.94493855601E+03  0.94493855601E+03  0.25500000920E-02 0.  1.
    10030    2    1    2    0    0  0.00000000000E+00  0.00000000000E+00  0.43124997699E+03  0.23211270890E+04  0.22807135771E+04 0.  0.
        5    1    3    3  502    0  0.21239873760E+03 -0.67572449915E+03 -0.69389685519E+03  0.99158043453E+03  0.46999998093E+01 0.  1.
       -5    1    3    3    0  502 -0.21239873760E+03  0.67572449915E+03  0.11251468322E+04  0.13295466545E+04  0.46999998093E+01 0. -1.
</event>
<event>
 5   0  0.1308224E-05  0.2376983E+04  0.7818609E-02  0.8448172E-01
       -1   -1    0    0    0  501  0.00000000000E+00  0.00000000000E+00  0.79028330407E+03  0.79028330409E+03  0.50400001928E-02 0. -1.
        1   -1    0    0  501    0  0.00000000000E+00  0.00000000000E+00 -0.17873483849E+04  0.17873483849E+04  0.50400001928E-02 0.  1.
    10030    2    1    2    0    0  0.00000000000E+00  0.00000000000E+00 -0.99706508080E+03  0.25776316890E+04  0.23769826143E+04 0.  0.
        5    1    3    3  502    0 -0.14158747361E+03 -0.28674559320E+03  0.74273922834E+03  0.80867403769E+03  0.46999998093E+01 0. -1.
       -5    1    3    3    0  502  0.14158747361E+03  0.28674559320E+03 -0.17398043091E+04  0.17689576513E+04  0.46999998093E+01 0.  1.
</event>
<event>
 5   0  0.1308224E-05  0.2333155E+04  0.7818609E-02  0.8464962E-01
        1   -1    0    0  501    0  0.00000000000E+00  0.00000000000E+00  0.63842687562E+03  0.63842687563E+03  0.50400001928E-02 0. -1.
       -1   -1    0    0    0  501  0.00000000000E+00  0.00000000000E+00 -0.21316511347E+04  0.21316511347E+04  0.50400001928E-02 0.  1.
    10030    2    1    2    0    0  0.00000000000E+00  0.00000000000E+00 -0.14932242591E+04  0.27700780103E+04  0.23331552660E+04 0.  0.
        5    1    3    3  502    0  0.47983841022E+03 -0.10562745821E+04 -0.60158860230E+03  0.13068633552E+04  0.46999998093E+01 0. -1.
       -5    1    3    3    0  502 -0.47983841022E+03  0.10562745821E+04 -0.89163565676E+03  0.14632146552E+04  0.46999998093E+01 0.  1.
</event>
<event>
 5   0  0.1308224E-05  0.2309486E+04  0.7818609E-02  0.8474190E-01
       -1   -1    0    0    0  501  0.00000000000E+00  0.00000000000E+00  0.97468083430E+03  0.97468083432E+03  0.50400001928E-02 0. -1.
        1   -1    0    0  501    0  0.00000000000E+00  0.00000000000E+00 -0.13680696704E+04  0.13680696704E+04  0.50400001928E-02 0.  1.
    10030    2    1    2    0    0  0.00000000000E+00  0.00000000000E+00 -0.39338883607E+03  0.23427505047E+04  0.23094859062E+04 0.  0.
        5    1    3    3  502    0  0.27093200279E+03 -0.24874426563E+03  0.91366335612E+03  0.98492673744E+03  0.46999998093E+01 0. -1.
       -5    1    3    3    0  502 -0.27093200279E+03  0.24874426563E+03 -0.13070521922E+04  0.13578237673E+04  0.46999998093E+01 0.  1.
</event>
<event>
 5   0  0.1327820E-05  0.2300529E+04  0.7818609E-02  0.8477712E-01
        1   -1    0    0  501    0  0.00000000000E+00  0.00000000000E+00  0.14915980183E+04  0.14915980183E+04  0.50400001928E-02 0. -1.
       -1   -1    0    0    0  501  0.00000000000E+00  0.00000000000E+00 -0.88704121726E+03  0.88704121728E+03  0.50400001928E-02 0.  1.
    10030    2    1    2    0    0  0.00000000000E+00  0.00000000000E+00  0.60455680102E+03  0.23786392356E+04  0.23005294363E+04 0.  0.
        1    1    3    3  502    0  0.38430741131E+03 -0.57285137670E+03  0.12539971645E+04  0.14312092002E+04  0.50400001928E-02 0. -1.
       -1    1    3    3    0  502 -0.38430741131E+03  0.57285137670E+03 -0.64944036347E+03  0.94743003536E+03  0.50400001928E-02 0.  1.
</event>
<event>
 5   0  0.2871888E-05  0.2484497E+04  0.7818609E-02  0.8408530E-01
       -2   -1    0    0    0  501  0.00000000000E+00  0.00000000000E+00  0.53752455665E+03  0.53752455666E+03  0.25500000920E-02 0. -1.
        2   -1    0    0  501    0  0.00000000000E+00  0.00000000000E+00 -0.28709034243E+04  0.28709034244E+04  0.25500000920E-02 0.  1.
    10030    2    1    2    0    0  0.00000000000E+00  0.00000000000E+00 -0.23333788677E+04  0.34084279810E+04  0.24844968025E+04 0.  0.
        3    1    3    3  502    0  0.10566670022E+04  0.17434734500E+03 -0.30312598760E+03  0.11130262912E+04  0.10100000352E+00 0. -1.
       -3    1    3    3    0  502 -0.10566670022E+04 -0.17434734500E+03 -0.20302528801E+04  0.22954016898E+04  0.10100000352E+00 0.  1.
</event>
<event>
 5   0  0.2910126E-05  0.2299346E+04  0.7818609E-02  0.8478179E-01
        2   -1    0    0  501    0  0.00000000000E+00  0.00000000000E+00  0.10192575009E+04  0.10192575009E+04  0.25500000920E-02 0.  1.
       -2   -1    0    0    0  501  0.00000000000E+00  0.00000000000E+00 -0.12967758237E+04  0.12967758237E+04  0.25500000920E-02 0. -1.
    10030    2    1    2    0    0  0.00000000000E+00  0.00000000000E+00 -0.27751832282E+03  0.23160333247E+04  0.22993464162E+04 0.  0.
        5    1    3    3  502    0  0.10930884079E+04  0.25092985541E+03  0.11589637703E+03  0.11275026032E+04  0.46999998093E+01 0.  1.
       -5    1    3    3    0  502 -0.10930884079E+04 -0.25092985541E+03 -0.39341469985E+03  0.11885307215E+04  0.46999998093E+01 0. -1.
</event>
<event>
 5   0  0.1284837E-05  0.2227841E+04  0.7818609E-02  0.8506929E-01
        1   -1    0    0  501    0  0.00000000000E+00  0.00000000000E+00  0.16693003794E+04  0.16693003794E+04  0.50400001928E-02 0.  1.
       -1   -1    0    0    0  501  0.00000000000E+00  0.00000000000E+00 -0.74331684203E+03  0.74331684204E+03  0.50400001928E-02 0. -1.
    10030    2    1    2    0    0  0.00000000000E+00  0.00000000000E+00  0.92598353736E+03  0.24126172214E+04  0.22278411850E+04 0.  0.
        4    1    3    3  502    0 -0.36197914115E+03  0.11111362407E+03 -0.67148354626E+03  0.77088708763E+03  0.12699999809E+01 0. -1.
       -4    1    3    3    0  502  0.36197914115E+03 -0.11111362407E+03  0.15974670836E+04  0.16417301338E+04  0.12699999809E+01 0.  1.
</event>
<event>
 5   0  0.2938972E-05  0.2293489E+04  0.7818609E-02  0.8480493E-01
       -2   -1    0    0    0  501  0.00000000000E+00  0.00000000000E+00  0.12095783341E+04  0.12095783341E+04  0.25500000920E-02 0.  1.
        2   -1    0    0  501    0  0.00000000000E+00  0.00000000000E+00 -0.10871748718E+04  0.10871748718E+04  0.25500000920E-02 0. -1.
    10030    2    1    2    0    0  0.00000000000E+00  0.00000000000E+00  0.12240346226E+03  0.22967532059E+04  0.22934891936E+04 0.  0.
        2    1    3    3  502    0 -0.26806350469E+03 -0.10665085830E+04 -0.26441416403E+03  0.11310231873E+04  0.25500000920E-02 0. -1.
       -2    1    3    3    0  502  0.26806350469E+03  0.10665085830E+04  0.38681762629E+03  0.11657300186E+04  0.25500000920E-02 0.  1.
</event>
<event>
 5   0  0.2938972E-05  0.2299198E+04  0.7818609E-02  0.8478238E-01
        2   -1    0    0  501    0  0.00000000000E+00  0.00000000000E+00  0.20373902772E+04  0.20373902772E+04  0.25500000920E-02 0. -1.
       -2   -1    0    0    0  501  0.00000000000E+00  0.00000000000E+00 -0.64866185094E+03  0.64866185094E+03  0.25500000920E-02 0.  1.
    10030    2    1    2    0    0  0.00000000000E+00  0.00000000000E+00  0.13887284263E+04  0.26860521281E+04  0.22991975542E+04 0.  0.
        2    1    3    3  502    0 -0.46185214596E+03 -0.56467548012E+03 -0.34361793652E+03  0.80637403783E+03  0.25500000920E-02 0.  1.
       -2    1    3    3    0  502  0.46185214596E+03  0.56467548012E+03  0.17323463628E+04  0.18796780903E+04  0.25500000920E-02 0. -1.
</event>
<event>
 5   0  0.1327820E-05  0.2290727E+04  0.7818609E-02  0.8481586E-01
       -1   -1    0    0    0  501  0.00000000000E+00  0.00000000000E+00  0.80998547580E+03  0.80998547582E+03  0.50400001928E-02 0.  1.
        1   -1    0    0  501    0  0.00000000000E+00  0.00000000000E+00 -0.16196062220E+04  0.16196062220E+04  0.50400001928E-02 0. -1.
    10030    2    1    2    0    0  0.00000000000E+00  0.00000000000E+00 -0.80962074621E+03  0.24295916978E+04  0.22907269731E+04 0.  0.
        1    1    3    3  502    0 -0.69251334598E+03 -0.77887583149E+03 -0.90861646168E+03  0.13826807910E+04  0.50400001928E-02 0.  1.
       -1    1    3    3    0  502  0.69251334598E+03  0.77887583149E+03  0.98995715465E+02  0.10469109069E+04  0.50400001928E-02 0. -1.
</event>
<event>
 5   0  0.2910126E-05  0.2307155E+04  0.7818609E-02  0.8475105E-01
        2   -1    0    0  501    0  0.00000000000E+00  0.00000000000E+00  0.22378374421E+04  0.22378374421E+04  0.25500000920E-02 0. -1.
       -2   -1    0    0    0  501  0.00000000000E+00  0.00000000000E+00 -0.59465482434E+03  0.59465482434E+03  0.25500000920E-02 0.  1.
    10030    2    1    2    0    0  0.00000000000E+00  0.00000000000E+00  0.16431826177E+04  0.28324922664E+04  0.23071548115E+04 0.  0.
        5    1    3    3  502    0  0.83292709122E+03  0.58898472019E+03  0.16040007957E+03  0.10326765299E+04  0.46999998093E+01 0.  1.
       -5    1    3    3    0  502 -0.83292709122E+03 -0.58898472019E+03  0.14827825382E+04  0.17998157365E+04  0.46999998093E+01 0. -1.
</event>
<event>
 5   0  0.1371753E-05  0.2302752E+04  0.7818609E-02  0.8476837E-01
       -1   -1    0    0    0  501  0.00000000000E+00  0.00000000000E+00  0.51796673573E+03  0.51796673576E+03  0.50400001928E-02 0.  1.
        1   -1    0    0  501    0  0.00000000000E+00  0.00000000000E+00 -0.25593672578E+04  0.25593672578E+04  0.50400001928E-02 0. -1.
    10030    2    1    2    0    0  0.00000000000E+00  0.00000000000E+00 -0.20414005221E+04  0.30773339936E+04  0.23027523567E+04 0.  0.
        3    1    3    3  502    0 -0.14558582255E+02 -0.93252964630E+03 -0.11843272852E+03  0.94013287089E+03  0.10100000352E+00 0.  1.
       -3    1    3    3    0  502  0.14558582255E+02  0.93252964630E+03 -0.19229677936E+04  0.21372011227E+04  0.10100000352E+00 0. -1.
</event>
<event>
 5   0  0.2994157E-05  0.2281231E+04  0.7818609E-02  0.8485358E-01
        2   -1    0    0  501    0  0.00000000000E+00  0.00000000000E+00  0.18802368199E+04  0.18802368199E+04  0.25500000920E-02 0.  1.
       -2   -1    0    0    0  501  0.00000000000E+00  0.00000000000E+00 -0.69193607803E+03  0.69193607803E+03  0.25500000920E-02 0. -1.
    10030    2    1    2    0    0  0.00000000000E+00  0.00000000000E+00  0.11883007419E+04  0.25721728980E+04  0.22812309756E+04 0.  0.
        4    1    3    3  502    0  0.89772372385E+03 -0.18888517354E+03  0.13583982330E+04  0.16391561444E+04  0.12699999809E+01 0.  1.
       -4    1    3    3    0  502 -0.89772372385E+03  0.18888517354E+03 -0.17009749113E+03  0.93301675362E+03  0.12699999809E+01 0. -1.
</event>
<event>
 5   0  0.1017200E-05  0.2289309E+04  0.7818609E-02  0.8482149E-01
        4   -1    0    0  501    0  0.00000000000E+00  0.00000000000E+00  0.12867773486E+04  0.12867779753E+04  0.12699999809E+01 0. -1.
       -4   -1    0    0    0  501  0.00000000000E+00  0.00000000000E+00 -0.10182273461E+04  0.10182281382E+04  0.12699999809E+01 0.  1.
    10030    2    1    2    0    0  0.00000000000E+00  0.00000000000E+00  0.26855000241E+03  0.23050061134E+04  0.22893086466E+04 0.  0.
        2    1    3    3  502    0 -0.22487866441E+03 -0.46734055890E+03  0.11616913503E+04  0.12722045453E+04  0.25500000920E-02 0. -1.
       -2    1    3    3    0  502  0.22487866441E+03  0.46734055890E+03 -0.89314134793E+03  0.10328015681E+04  0.25500000920E-02 0.  1.
</event>
<event>
 5   0  0.1327820E-05  0.2347610E+04  0.7818609E-02  0.8459382E-01
       -1   -1    0    0    0  501  0.00000000000E+00  0.00000000000E+00  0.12822812638E+04  0.12822812638E+04  0.50400001928E-02 0.  1.
        1   -1    0    0  501    0  0.00000000000E+00  0.00000000000E+00 -0.10745056899E+04  0.10745056899E+04  0.50400001928E-02 0. -1.
    10030    2    1    2    0    0  0.00000000000E+00  0.00000000000E+00  0.20777557395E+03  0.23567869538E+04  0.23476102863E+04 0.  0.
        1    1    3    3  502    0  0.10055538594E+04  0.44223320022E+03  0.51915887480E+03  0.12150039938E+04  0.50400001928E-02 0.  1.
       -1    1    3    3    0  502 -0.10055538594E+04 -0.44223320022E+03 -0.31138330085E+03  0.11417829600E+04  0.50400001928E-02 0. -1.
</event>
<event>
 5   0  0.1327820E-05  0.2288355E+04  0.7818609E-02  0.8482527E-01
       -1   -1    0    0    0  501  0.00000000000E+00  0.00000000000E+00  0.11140446371E+04  0.11140446371E+04  0.50400001928E-02 0. -1.
        1   -1    0    0  501    0  0.00000000000E+00  0.00000000000E+00 -0.11751251380E+04  0.11751251380E+04  0.50400001928E-02 0.  1.
    10030    2    1    2    0    0  0.00000000000E+00  0.00000000000E+00 -0.61080500904E+02  0.22891697751E+04  0.22883547434E+04 0.  0.
        1    1    3    3  502    0  0.41805624906E+03  0.11261083308E+03 -0.10900159633E+04  0.11728542226E+04  0.50400001928E-02 0.  1.
       -1    1    3    3    0  502 -0.41805624906E+03 -0.11261083308E+03  0.10289354624E+04  0.11163155526E+04  0.50400001928E-02 0. -1.
</event>
<event>
 5   0  0.1371753E-05  0.2151797E+04  0.7818609E-02  0.8538763E-01
       -1   -1    0    0    0  501  0.00000000000E+00  0.00000000000E+00  0.86834049647E+03  0.86834049648E+03  0.50400001928E-02 0. -1.
        1   -1    0    0  501    0  0.00000000000E+00  0.00000000000E+00 -0.13330688229E+04  0.13330688229E+04  0.50400001928E-02 0.  1.
    10030    2    1    2    0    0  0.00000000000E+00  0.00000000000E+00 -0.46472832643E+03  0.22014093194E+04  0.21517970569E+04 0.  0.
        3    1    3    3  502    0  0.88567202277E+03 -0.55081371097E+03 -0.50254971689E+03  0.11577421579E+04  0.10100000352E+00 0.  1.
       -3    1    3    3    0  502 -0.88567202277E+03  0.55081371097E+03  0.37821390464E+02  0.10436671615E+04  0.10100000352E+00 0. -1.
</event>
<event>
 5   0  0.2994157E-05  0.2284773E+04  0.7818609E-02  0.8483949E-01
       -2   -1    0    0    0  501  0.00000000000E+00  0.00000000000E+00  0.12690860844E+04  0.12690860844E+04  0.25500000920E-02 0.  1.
        2   -1    0    0  501    0  0.00000000000E+00  0.00000000000E+00 -0.10283364450E+04  0.10283364450E+04  0.25500000920E-02 0. -1.
    10030    2    1    2    0    0  0.00000000000E+00  0.00000000000E+00  0.24074963942E+03  0.22974225293E+04  0.22847734876E+04 0.  0.
        4    1    3    3  502    0 -0.87797962851E+03  0.64443629444E+03 -0.22635223290E+03  0.11123773244E+04  0.12699999809E+01 0. -1.
       -4    1    3    3    0  502  0.87797962851E+03 -0.64443629444E+03  0.46710187231E+03  0.11850452049E+04  0.12699999809E+01 0.  1.
</event>
<event>
 5   0  0.2816178E-05  0.2299630E+04  0.7818609E-02  0.8478067E-01
        2   -1    0    0  501    0  0.00000000000E+00  0.00000000000E+00  0.16437707619E+04  0.16437707619E+04  0.25500000920E-02 0.  1.
       -2   -1    0    0    0  501  0.00000000000E+00  0.00000000000E+00 -0.80429352154E+03  0.80429352154E+03  0.25500000920E-02 0. -1.
    10030    2    1    2    0    0  0.00000000000E+00  0.00000000000E+00  0.83947724032E+03  0.24480642834E+04  0.22996296873E+04 0.  0.
        1    1    3    3  502    0 -0.10859747086E+04  0.27423660577E+02  0.18613276204E+02  0.10864803629E+04  0.50400001928E-02 0. -1.
       -1    1    3    3    0  502  0.10859747086E+04 -0.27423660577E+02  0.82086396412E+03  0.13615839205E+04  0.50400001928E-02 0.  1.
</event>
<event>
 5   0  0.1017200E-05  0.2315174E+04  0.7818609E-02  0.8471962E-01
        4   -1    0    0  501    0  0.00000000000E+00  0.00000000000E+00  0.19825993876E+04  0.19825997943E+04  0.12699999809E+01 0.  1.
       -4   -1    0    0    0  501  0.00000000000E+00  0.00000000000E+00 -0.67588307679E+03  0.67588426997E+03  0.12699999809E+01 0. -1.
    10030    2    1    2    0    0  0.00000000000E+00  0.00000000000E+00  0.13067163108E+04  0.26584840643E+04  0.23151738603E+04 0.  0.
        4    1    3    3  502    0 -0.56111922953E+03 -0.76645291047E+03  0.14130531017E+04  0.17026524998E+04  0.12699999809E+01 0.  1.
       -4    1    3    3    0  502  0.56111922953E+03  0.76645291047E+03 -0.10633679098E+03  0.95583156452E+03  0.12699999809E+01 0. -1.
</event>
<event>
 5   0  0.1303224E-05  0.2299622E+04  0.7818609E-02  0.8478070E-01
       -1   -1    0    0    0  501  0.00000000000E+00  0.00000000000E+00  0.14758543403E+04  0.14758543403E+04  0.50400001928E-02 0.  1.
        1   -1    0    0  501    0  0.00000000000E+00  0.00000000000E+00 -0.89579641185E+03  0.89579641187E+03  0.50400001928E-02 0. -1.
    10030    2    1    2    0    0  0.00000000000E+00  0.00000000000E+00  0.58005792847E+03  0.23716507522E+04  0.22996217276E+04 0.  0.
        2    1    3    3  502    0 -0.11322556099E+04 -0.54893680970E+02  0.48853888996E+03  0.12343768992E+04  0.25500000920E-02 0. -1.
       -2    1    3    3    0  502  0.11322556099E+04  0.54893680970E+02  0.91519038518E+02  0.11372738530E+04  0.25500000920E-02 0.  1.
</event>
<event>
 5   0  0.1017200E-05  0.2334789E+04  0.7818609E-02  0.8464329E-01
       -3   -1    0    0    0  501  0.00000000000E+00  0.00000000000E+00  0.14401866423E+04  0.14401866458E+04  0.10100000352E+00 0.  1.
        3   -1    0    0  501    0  0.00000000000E+00  0.00000000000E+00 -0.94627338373E+03  0.94627338912E+03  0.10100000352E+00 0. -1.
    10030    2    1    2    0    0  0.00000000000E+00  0.00000000000E+00  0.49391325853E+03  0.23864600349E+04  0.23347893248E+04 0.  0.
        4    1    3    3  502    0 -0.22161910338E+03  0.34833563988E+03  0.13630728674E+04  0.14242268077E+04  0.12699999809E+01 0.  1.
       -4    1    3    3    0  502  0.22161910338E+03 -0.34833563988E+03 -0.86915960887E+03  0.96223322723E+03  0.12699999809E+01 0. -1.
</event>
<event>
 5   0  0.2994157E-05  0.2313608E+04  0.7818609E-02  0.8472575E-01
       -2   -1    0    0    0  501  0.00000000000E+00  0.00000000000E+00  0.80771574459E+03  0.80771574459E+03  0.25500000920E-02 0.  1.
        2   -1    0    0  501    0  0.00000000000E+00  0.00000000000E+00 -0.16567651311E+04  0.16567651311E+04  0.25500000920E-02 0. -1.
    10030    2    1    2    0    0  0.00000000000E+00  0.00000000000E+00 -0.84904938654E+03  0.24644808757E+04  0.23136078159E+04 0.  0.
        4    1    3    3  502    0  0.51167921048E+03  0.77655756633E+03  0.30833470468E+03  0.97975975181E+03  0.12699999809E+01 0.  1.
       -4    1    3    3    0  502 -0.51167921048E+03 -0.77655756633E+03 -0.11573840912E+04  0.14847211239E+04  0.12699999809E+01 0. -1.
</event>
<event>
 5   0  0.1371753E-05  0.2275134E+04  0.7818609E-02  0.8487790E-01
       -1   -1    0    0    0  501  0.00000000000E+00  0.00000000000E+00  0.74842383828E+03  0.74842383830E+03  0.50400001928E-02 0.  1.
        1   -1    0    0  501    0  0.00000000000E+00  0.00000000000E+00 -0.17290457897E+04  0.17290457897E+04  0.50400001928E-02 0. -1.
    10030    2    1    2    0    0  0.00000000000E+00  0.00000000000E+00 -0.98062195142E+03  0.24774696280E+04  0.22751343578E+04 0.  0.
        3    1    3    3  502    0 -0.21497876837E+03 -0.89099845495E+03  0.24337878088E+03  0.94832871873E+03  0.10100000352E+00 0.  1.
       -3    1    3    3    0  502  0.21497876837E+03  0.89099845495E+03 -0.12240007323E+04  0.15291409093E+04  0.10100000352E+00 0. -1.
</event>
<event>
 5   0  0.2994157E-05  0.2279882E+04  0.7818609E-02  0.8485896E-01
       -2   -1    0    0    0  501  0.00000000000E+00  0.00000000000E+00  0.11596386532E+04  0.11596386532E+04  0.25500000920E-02 0. -1.
        2   -1    0    0  501    0  0.00000000000E+00  0.00000000000E+00 -0.11205775244E+04  0.11205775244E+04  0.25500000920E-02 0.  1.
    10030    2    1    2    0    0  0.00000000000E+00  0.00000000000E+00  0.39061128757E+02  0.22802161776E+04  0.22798815857E+04 0.  0.
        4    1    3    3  502    0  0.87486471113E+02 -0.10459467822E+04  0.46434840108E+03  0.11477280184E+04  0.12699999809E+01 0. -1.
       -4    1    3    3    0  502 -0.87486471113E+02  0.10459467822E+04 -0.42528727233E+03  0.11324881592E+04  0.12699999809E+01 0.  1.
</event>
<event>
 5   0  0.1371753E-05  0.2337632E+04  0.7818609E-02  0.8463229E-01
       -1   -1    0    0    0  501  0.00000000000E+00  0.00000000000E+00  0.86285889895E+03  0.86285889897E+03  0.50400001928E-02 0. -1.
        1   -1    0    0  501    0  0.00000000000E+00  0.00000000000E+00 -0.15832615990E+04  0.15832615991E+04  0.50400001928E-02 0.  1.
    10030    2    1    2    0    0  0.00000000000E+00  0.00000000000E+00 -0.72040270010E+03  0.24461204980E+04  0.23376324434E+04 0.  0.
        3    1    3    3  502    0 -0.10110499336E+04 -0.72751728685E+02 -0.96911501798E+03  0.14023903560E+04  0.10100000352E+00 0.  1.
       -3    1    3    3    0  502  0.10110499336E+04  0.72751728685E+02  0.24871231788E+03  0.10437301421E+04  0.10100000352E+00 0. -1.
</event>
<event>
 5   0  0.1371753E-05  0.2301223E+04  0.7818609E-02  0.8477439E-01
       -1   -1    0    0    0  501  0.00000000000E+00  0.00000000000E+00  0.99678202291E+03  0.99678202293E+03  0.50400001928E-02 0.  1.
        1   -1    0    0  501    0  0.00000000000E+00  0.00000000000E+00 -0.13281805841E+04  0.13281805841E+04  0.50400001928E-02 0. -1.
    10030    2    1    2    0    0  0.00000000000E+00  0.00000000000E+00 -0.33139856119E+03  0.23249626070E+04  0.23012227441E+04 0.  0.
        3    1    3    3  502    0  0.37065754827E+03 -0.37642128648E+03  0.86701315725E+03  0.10152791872E+04  0.10100000352E+00 0.  1.
       -3    1    3    3    0  502 -0.37065754827E+03  0.37642128648E+03 -0.11984117184E+04  0.13096834198E+04  0.10100000352E+00 0. -1.
</event>
<event>
 5   0  0.2994157E-05  0.2275282E+04  0.7818609E-02  0.8487731E-01
       -2   -1    0    0    0  501  0.00000000000E+00  0.00000000000E+00  0.12278666711E+04  0.12278666711E+04  0.25500000920E-02 0. -1.
        2   -1    0    0  501    0  0.00000000000E+00  0.00000000000E+00 -0.10540457152E+04  0.10540457152E+04  0.25500000920E-02 0.  1.
    10030    2    1    2    0    0  0.00000000000E+00  0.00000000000E+00  0.17382095592E+03  0.22819123863E+04  0.22752824910E+04 0.  0.
        4    1    3    3  502    0 -0.48703912188E+03  0.80902740530E+03 -0.54936194272E+03  0.10924891788E+04  0.12699999809E+01 0.  1.
       -4    1    3    3    0  502  0.48703912188E+03 -0.80902740530E+03  0.72318289864E+03  0.11894232075E+04  0.12699999809E+01 0. -1.
</event>
<event>
 5   0  0.2816178E-05  0.2267993E+04  0.7818609E-02  0.8490649E-01
        2   -1    0    0  501    0  0.00000000000E+00  0.00000000000E+00  0.25499594124E+04  0.25499594124E+04  0.25500000920E-02 0.  1.
       -2   -1    0    0    0  501  0.00000000000E+00  0.00000000000E+00 -0.50430127672E+03  0.50430127673E+03  0.25500000920E-02 0. -1.
    10030    2    1    2    0    0  0.00000000000E+00  0.00000000000E+00  0.20456581357E+04  0.30542606892E+04  0.22679927578E+04 0.  0.
        1    1    3    3  502    0  0.26329610076E+03 -0.11687393888E+03 -0.45420547500E+03  0.53785403950E+03  0.50400001928E-02 0. -1.
       -1    1    3    3    0  502 -0.26329610076E+03  0.11687393888E+03  0.24998636107E+04  0.25164066497E+04  0.50400001928E-02 0.  1.
</event>
<event>
 5   0  0.2994157E-05  0.2301415E+04  0.7818609E-02  0.8477363E-01
       -2   -1    0    0    0  501  0.00000000000E+00  0.00000000000E+00  0.12889233309E+04  0.12889233309E+04  0.25500000920E-02 0.  1.
        2   -1    0    0  501    0  0.00000000000E+00  0.00000000000E+00 -0.10273132649E+04  0.10273132649E+04  0.25500000920E-02 0. -1.
    10030    2    1    2    0    0  0.00000000000E+00  0.00000000000E+00  0.26161006604E+03  0.23162365958E+04  0.23014152474E+04 0.  0.
        4    1    3    3  502    0 -0.40346579371E+03 -0.10398382150E+04 -0.15399842178E+03  0.11259508368E+04  0.12699999809E+01 0. -1.
       -4    1    3    3    0  502  0.40346579371E+03  0.10398382150E+04  0.41560848782E+03  0.11902857590E+04  0.12699999809E+01 0.  1.
</event>
<event>
 5   0  0.2994157E-05  0.2286355E+04  0.7818609E-02  0.8483321E-01
        2   -1    0    0  501    0  0.00000000000E+00  0.00000000000E+00  0.82810565968E+03  0.82810565969E+03  0.25500000920E-02 0.  1.
       -2   -1    0    0    0  501  0.00000000000E+00  0.00000000000E+00 -0.15781259802E+04  0.15781259802E+04  0.25500000920E-02 0. -1.
    10030    2    1    2    0    0  0.00000000000E+00  0.00000000000E+00 -0.75002032052E+03  0.24062316399E+04  0.22863552269E+04 0.  0.
        4    1    3    3  502    0 -0.53705463893E+03 -0.20338802992E+03 -0.14152994707E+04  0.15273730981E+04  0.12699999809E+01 0. -1.
       -4    1    3    3    0  502  0.53705463893E+03  0.20338802992E+03  0.66527915023E+03  0.87885854182E+03  0.12699999809E+01 0.  1.
</event>
<event>
 5   0  0.1327820E-05  0.2294020E+04  0.7818609E-02  0.8480283E-01
        1   -1    0    0  501    0  0.00000000000E+00  0.00000000000E+00  0.15290374840E+04  0.15290374840E+04  0.50400001928E-02 0.  1.
       -1   -1    0    0    0  501  0.00000000000E+00  0.00000000000E+00 -0.86043170522E+03  0.86043170523E+03  0.50400001928E-02 0. -1.
    10030    2    1    2    0    0  0.00000000000E+00  0.00000000000E+00  0.66860577879E+03  0.23894691893E+04  0.22940203397E+04 0.  0.
        1    1    3    3  502    0 -0.46492397307E+03 -0.77085524684E+03 -0.40608911999E+03  0.98756290215E+03  0.50400001928E-02 0. -1.
       -1    1    3    3    0  502  0.46492397307E+03  0.77085524684E+03  0.10746948988E+04  0.14019062871E+04  0.50400001928E-02 0.  1.
</event>
<event>
 5   0  0.1371753E-05  0.2315483E+04  0.7818609E-02  0.8471841E-01
        1   -1    0    0  501    0  0.00000000000E+00  0.00000000000E+00  0.22537025809E+04  0.22537025809E+04  0.50400001928E-02 0. -1.
       -1   -1    0    0    0  501  0.00000000000E+00  0.00000000000E+00 -0.59473916317E+03  0.59473916319E+03  0.50400001928E-02 0.  1.
    10030    2    1    2    0    0  0.00000000000E+00  0.00000000000E+00  0.16589634178E+04  0.28484417441E+04  0.23154828326E+04 0.  0.
        3    1    3    3  502    0  0.24810191783E+03 -0.52491517478E+03  0.20616660947E+04  0.21418584450E+04  0.10100000352E+00 0. -1.
       -3    1    3    3    0  502 -0.24810191783E+03  0.52491517478E+03 -0.40270267694E+03  0.70658329909E+03  0.10100000352E+00 0.  1.
</event>
<event>
 5   0  0.2938972E-05  0.2304322E+04  0.7818609E-02  0.8476219E-01
       -2   -1    0    0    0  501  0.00000000000E+00  0.00000000000E+00  0.88380717562E+03  0.88380717563E+03  0.25500000920E-02 0. -1.
        2   -1    0    0  501    0  0.00000000000E+00  0.00000000000E+00 -0.15019963791E+04  0.15019963791E+04  0.25500000920E-02 0.  1.
    10030    2    1    2    0    0  0.00000000000E+00  0.00000000000E+00 -0.61818920347E+03  0.23858035547E+04  0.23043221803E+04 0.  0.
        2    1    3    3  502    0 -0.94274386285E+03  0.58237893508E+03 -0.63575684771E+03  0.12775437309E+04  0.25500000920E-02 0. -1.
       -2    1    3    3    0  502  0.94274386285E+03 -0.58237893508E+03  0.17567644236E+02  0.11082598238E+04  0.25500000920E-02 0.  1.
</event>
<event>
 5   0  0.1303224E-05  0.2289345E+04  0.7818609E-02  0.8482134E-01
        1   -1    0    0  501    0  0.00000000000E+00  0.00000000000E+00  0.11003961282E+04  0.11003961282E+04  0.50400001928E-02 0.  1.
       -1   -1    0    0    0  501  0.00000000000E+00  0.00000000000E+00 -0.11907305434E+04  0.11907305434E+04  0.50400001928E-02 0. -1.
    10030    2    1    2    0    0  0.00000000000E+00  0.00000000000E+00 -0.90334415255E+02  0.22911266716E+04  0.22893451288E+04 0.  0.
        2    1    3    3  502    0 -0.78147765445E+03 -0.65311063658E+02 -0.87966405871E+03  0.11784658313E+04  0.25500000920E-02 0.  1.
       -2    1    3    3    0  502  0.78147765445E+03  0.65311063658E+02  0.78932964345E+03  0.11126608403E+04  0.25500000920E-02 0. -1.
</event>
<event>
 5   0  0.1284837E-05  0.2300681E+04  0.7818609E-02  0.8477653E-01
       -1   -1    0    0    0  501  0.00000000000E+00  0.00000000000E+00  0.71514748035E+03  0.71514748037E+03  0.50400001928E-02 0.  1.
        1   -1    0    0  501    0  0.00000000000E+00  0.00000000000E+00 -0.18503646647E+04  0.18503646647E+04  0.50400001928E-02 0. -1.
    10030    2    1    2    0    0  0.00000000000E+00  0.00000000000E+00 -0.11352171844E+04  0.25655121451E+04  0.23006813145E+04 0.  0.
        4    1    3    3  502    0  0.12503738073E+03  0.22721857568E+03  0.68212021608E+03  0.72976176236E+03  0.12699999809E+01 0.  1.
       -4    1    3    3    0  502 -0.12503738073E+03 -0.22721857568E+03 -0.18173374005E+04  0.18357503827E+04  0.12699999809E+01 0. -1.
</event>
<event>
 5   0  0.1284837E-05  0.2295753E+04  0.7818609E-02  0.8479598E-01
       -1   -1    0    0    0  501  0.00000000000E+00  0.00000000000E+00  0.68247491180E+03  0.68247491182E+03  0.50400001928E-02 0.  1.
        1   -1    0    0  501    0  0.00000000000E+00  0.00000000000E+00 -0.19306495902E+04  0.19306495902E+04  0.50400001928E-02 0. -1.
    10030    2    1    2    0    0  0.00000000000E+00  0.00000000000E+00 -0.12481746784E+04  0.26131245020E+04  0.22957525205E+04 0.  0.
        4    1    3    3  502    0 -0.24979704520E+03  0.11138544164E+04 -0.76137697076E+03  0.13721394715E+04  0.12699999809E+01 0. -1.
       -4    1    3    3    0  502  0.24979704520E+03 -0.11138544164E+04 -0.48679770761E+03  0.12409850305E+04  0.12699999809E+01 0.  1.
</event>
<event>
 5   0  0.2938972E-05  0.2320060E+04  0.7818609E-02  0.8470053E-01
       -2   -1    0    0    0  501  0.00000000000E+00  0.00000000000E+00  0.88424362800E+03  0.88424362800E+03  0.25500000920E-02 0. -1.
        2   -1    0    0  501    0  0.00000000000E+00  0.00000000000E+00 -0.15218315134E+04  0.15218315134E+04  0.25500000920E-02 0.  1.
    10030    2    1    2    0    0  0.00000000000E+00  0.00000000000E+00 -0.63758788544E+03  0.24060751414E+04  0.23200601877E+04 0.  0.
        2    1    3    3  502    0 -0.24022287887E+03 -0.89382614895E+03 -0.10440327941E+04  0.13952192270E+04  0.25500000920E-02 0.  1.
       -2    1    3    3    0  502  0.24022287887E+03  0.89382614895E+03  0.40644490867E+03  0.10108559145E+04  0.25500000920E-02 0. -1.
</event>
<event>
 5   0  0.1327820E-05  0.2305700E+04  0.7818609E-02  0.8475677E-01
       -1   -1    0    0    0  501  0.00000000000E+00  0.00000000000E+00  0.57086171023E+03  0.57086171026E+03  0.50400001928E-02 0.  1.
        1   -1    0    0  501    0  0.00000000000E+00  0.00000000000E+00 -0.23281700660E+04  0.23281700660E+04  0.50400001928E-02 0. -1.
    10030    2    1    2    0    0  0.00000000000E+00  0.00000000000E+00 -0.17573083558E+04  0.28990317763E+04  0.23057000201E+04 0.  0.
        1    1    3    3  502    0  0.66414606587E+03  0.73853253358E+03 -0.16145352340E+04  0.18955854826E+04  0.50400001928E-02 0.  1.
       -1    1    3    3    0  502 -0.66414606587E+03 -0.73853253358E+03 -0.14277312178E+03  0.10034462937E+04  0.50400001928E-02 0. -1.
</event>
<event>
 5   0  0.2938972E-05  0.2301916E+04  0.7818609E-02  0.8477166E-01
        2   -1    0    0  501    0  0.00000000000E+00  0.00000000000E+00  0.27387052768E+04  0.27387052768E+04  0.25500000920E-02 0.  1.
       -2   -1    0    0    0  501  0.00000000000E+00  0.00000000000E+00 -0.48369732075E+03  0.48369732075E+03  0.25500000920E-02 0. -1.
    10030    2    1    2    0    0  0.00000000000E+00  0.00000000000E+00  0.22550079561E+04  0.32224025976E+04  0.23019160756E+04 0.  0.
        2    1    3    3  502    0 -0.87296011532E+03  0.56610775413E+03  0.18163907429E+04  0.20932779756E+04  0.25500000920E-02 0.  1.
       -2    1    3    3    0  502  0.87296011532E+03 -0.56610775413E+03  0.43861721315E+03  0.11291246220E+04  0.25500000920E-02 0. -1.
</event>
<event>
 5   0  0.2938972E-05  0.2336219E+04  0.7818609E-02  0.8463776E-01
        2   -1    0    0  501    0  0.00000000000E+00  0.00000000000E+00  0.21108853015E+04  0.21108853015E+04  0.25500000920E-02 0.  1.
       -2   -1    0    0    0  501  0.00000000000E+00  0.00000000000E+00 -0.64640150682E+03  0.64640150683E+03  0.25500000920E-02 0. -1.
    10030    2    1    2    0    0  0.00000000000E+00  0.00000000000E+00  0.14644837947E+04  0.27572868084E+04  0.23362186881E+04 0.  0.
        2    1    3    3  502    0  0.10820448365E+04 -0.20938137587E+02  0.12510353600E+04  0.16541913148E+04  0.25500000920E-02 0.  1.
       -2    1    3    3    0  502 -0.10820448365E+04  0.20938137587E+02  0.21344843468E+03  0.11030954936E+04  0.25500000920E-02 0. -1.
</event>
<event>
 5   0  0.2938972E-05  0.2238306E+04  0.7818609E-02  0.8502651E-01
       -2   -1    0    0    0  501  0.00000000000E+00  0.00000000000E+00  0.94415516584E+03  0.94415516585E+03  0.25500000920E-02 0. -1.
        2   -1    0    0  501    0  0.00000000000E+00  0.00000000000E+00 -0.13265864656E+04  0.13265864656E+04  0.25500000920E-02 0.  1.
    10030    2    1    2    0    0  0.00000000000E+00  0.00000000000E+00 -0.38243129976E+03  0.22707416315E+04  0.22383060242E+04 0.  0.
        2    1    3    3  502    0  0.47003107625E+03 -0.62467672210E+03  0.62123484371E+03  0.99854041021E+03  0.25500000920E-02 0. -1.
       -2    1    3    3    0  502 -0.47003107625E+03  0.62467672210E+03 -0.10036661435E+04  0.12722012212E+04  0.25500000920E-02 0.  1.
</event>
<event>
 5   0  0.2816178E-05  0.2290667E+04  0.7818609E-02  0.8481610E-01
       -2   -1    0    0    0  501  0.00000000000E+00  0.00000000000E+00  0.70424455324E+03  0.70424455324E+03  0.25500000920E-02 0.  1.
        2   -1    0    0  501    0  0.00000000000E+00  0.00000000000E+00 -0.18626890444E+04  0.18626890444E+04  0.25500000920E-02 0. -1.
    10030    2    1    2    0    0  0.00000000000E+00  0.00000000000E+00 -0.11584444911E+04  0.25669335976E+04  0.22906668146E+04 0.  0.
        1    1    3    3  502    0  0.51430245602E+03  0.94320636859E+03 -0.13429343427E+03  0.10826726174E+04  0.50400001928E-02 0.  1.
       -1    1    3    3    0  502 -0.51430245602E+03 -0.94320636859E+03 -0.10241510569E+04  0.14842609802E+04  0.50400001928E-02 0. -1.
</event>
<event>
 5   0  0.1303224E-05  0.2308122E+04  0.7818609E-02  0.8474726E-01
       -1   -1    0    0    0  501  0.00000000000E+00  0.00000000000E+00  0.59310213701E+03  0.59310213703E+03  0.50400001928E-02 0.  1.
        1   -1    0    0  501    0  0.00000000000E+00  0.00000000000E+00 -0.22455767715E+04  0.22455767715E+04  0.50400001928E-02 0. -1.
    10030    2    1    2    0    0  0.00000000000E+00  0.00000000000E+00 -0.16524746344E+04  0.28386789085E+04  0.23081216450E+04 0.  0.
        2    1    3    3  502    0  0.73405409341E+03 -0.23839965736E+03  0.22900335877E+03  0.80505425098E+03  0.25500000920E-02 0.  1.
       -2    1    3    3    0  502 -0.73405409341E+03  0.23839965736E+03 -0.18814779932E+04  0.20336246575E+04  0.25500000920E-02 0. -1.
</event>
<event>
 5   0  0.2994157E-05  0.2328829E+04  0.7818609E-02  0.8466640E-01
        2   -1    0    0  501    0  0.00000000000E+00  0.00000000000E+00  0.27189892120E+04  0.27189892120E+04  0.25500000920E-02 0. -1.
       -2   -1    0    0    0  501  0.00000000000E+00  0.00000000000E+00 -0.49866373174E+03  0.49866373175E+03  0.25500000920E-02 0.  1.
    10030    2    1    2    0    0  0.00000000000E+00  0.00000000000E+00  0.22203254802E+04  0.32176529437E+04  0.23288291539E+04 0.  0.
        4    1    3    3  502    0 -0.65130026855E+03 -0.50872726663E+03  0.22435159744E+04  0.23908912589E+04  0.12699999809E+01 0. -1.
       -4    1    3    3    0  502  0.65130026855E+03  0.50872726663E+03 -0.23190494131E+02  0.82676168485E+03  0.12699999809E+01 0.  1.
</event>
<event>
 5   0  0.2910126E-05  0.2290592E+04  0.7818609E-02  0.8481640E-01
        2   -1    0    0  501    0  0.00000000000E+00  0.00000000000E+00  0.75555304000E+03  0.75555304000E+03  0.25500000920E-02 0.  1.
       -2   -1    0    0    0  501  0.00000000000E+00  0.00000000000E+00 -0.17360837592E+04  0.17360837592E+04  0.25500000920E-02 0. -1.
    10030    2    1    2    0    0  0.00000000000E+00  0.00000000000E+00 -0.98053071924E+03  0.24916367992E+04  0.22905923793E+04 0.  0.
        5    1    3    3  502    0  0.13194210759E+03 -0.17547278800E+03 -0.17129696305E+04  0.17269876850E+04  0.46999998093E+01 0. -1.
       -5    1    3    3    0  502 -0.13194210759E+03  0.17547278800E+03  0.73243891130E+03  0.76464911421E+03  0.46999998093E+01 0.  1.
</event>
<event>
 5   0  0.1371753E-05  0.2284988E+04  0.7818609E-02  0.8483864E-01
        1   -1    0    0  501    0  0.00000000000E+00  0.00000000000E+00  0.98108400645E+03  0.98108400646E+03  0.50400001928E-02 0.  1.
       -1   -1    0    0    0  501  0.00000000000E+00  0.00000000000E+00 -0.13304595095E+04  0.13304595095E+04  0.50400001928E-02 0. -1.
    10030    2    1    2    0    0  0.00000000000E+00  0.00000000000E+00 -0.34937550301E+03  0.23115435159E+04  0.22849880052E+04 0.  0.
        3    1    3    3  502    0  0.59435468636E+03  0.59316247496E+03 -0.95841280129E+03  0.12742269510E+04  0.10100000352E+00 0. -1.
       -3    1    3    3    0  502 -0.59435468636E+03 -0.59316247496E+03  0.60903729827E+03  0.10373165649E+04  0.10100000352E+00 0.  1.
</event>
<event>
 5   0  0.2910126E-05  0.2345598E+04  0.7818609E-02  0.8460157E-01
       -2   -1    0    0    0  501  0.00000000000E+00  0.00000000000E+00  0.13941749102E+04  0.13941749102E+04  0.25500000920E-02 0. -1.
        2   -1    0    0  501    0  0.00000000000E+00  0.00000000000E+00 -0.98657419230E+03  0.98657419230E+03  0.25500000920E-02 0.  1.
    10030    2    1    2    0    0  0.00000000000E+00  0.00000000000E+00  0.40760071786E+03  0.23807491025E+04  0.23455975664E+04 0.  0.
        5    1    3    3  502    0 -0.54715750043E+03  0.52030769925E+03  0.11146527436E+04  0.13463187813E+04  0.46999998093E+01 0. -1.
       -5    1    3    3    0  502  0.54715750043E+03 -0.52030769925E+03 -0.70705202573E+03  0.10344303211E+04  0.46999998093E+01 0.  1.
</event>
<event>
 5   0  0.1308224E-05  0.2292629E+04  0.7818609E-02  0.8480833E-01
       -1   -1    0    0    0  501  0.00000000000E+00  0.00000000000E+00  0.95026789698E+03  0.95026789700E+03  0.50400001928E-02 0.  1.
        1   -1    0    0  501    0  0.00000000000E+00  0.00000000000E+00 -0.13828066318E+04  0.13828066318E+04  0.50400001928E-02 0. -1.
    10030    2    1    2    0    0  0.00000000000E+00  0.00000000000E+00 -0.43253873478E+03  0.23330745288E+04  0.22926288404E+04 0.  0.
        5    1    3    3  502    0 -0.78146258687E+03 -0.40150527220E+03  0.53301097494E+03  0.10276249548E+04  0.46999998093E+01 0.  1.
       -5    1    3    3    0  502  0.78146258687E+03  0.40150527220E+03 -0.96554970972E+03  0.13054495740E+04  0.46999998093E+01 0. -1.
</event>
<event>
 5   0  0.2910126E-05  0.2300986E+04  0.7818609E-02  0.8477533E-01
       -2   -1    0    0    0  501  0.00000000000E+00  0.00000000000E+00  0.55425827241E+03  0.55425827241E+03  0.25500000920E-02 0.  1.
        2   -1    0    0  501    0  0.00000000000E+00  0.00000000000E+00 -0.23881170659E+04  0.23881170659E+04  0.25500000920E-02 0. -1.
    10030    2    1    2    0    0  0.00000000000E+00  0.00000000000E+00 -0.18338587935E+04  0.29423753383E+04  0.23009855621E+04 0.  0.
        5    1    3    3  502    0  0.47487833492E+03 -0.96038445814E+03 -0.14530332217E+04  0.18053186350E+04  0.46999998093E+01 0. -1.
       -5    1    3    3    0  502 -0.47487833492E+03  0.96038445814E+03 -0.38082557174E+03  0.11370567033E+04  0.46999998093E+01 0.  1.
</event>
<event>
 5   0  0.2938972E-05  0.2304417E+04  0.7818609E-02  0.8476181E-01
        2   -1    0    0  501    0  0.00000000000E+00  0.00000000000E+00  0.16441495031E+04  0.16441495031E+04  0.25500000920E-02 0. -1.
       -2   -1    0    0    0  501  0.00000000000E+00  0.00000000000E+00 -0.80745992262E+03  0.80745992262E+03  0.25500000920E-02 0.  1.
    10030    2    1    2    0    0  0.00000000000E+00  0.00000000000E+00  0.83668958048E+03  0.24516094257E+04  0.23044173498E+04 0.  0.
        2    1    3    3  502    0  0.51465462516E+01  0.52944652578E+03 -0.67037028302E+03  0.85424611615E+03  0.25500000920E-02 0.  1.
       -2    1    3    3    0  502 -0.51465462516E+01 -0.52944652578E+03  0.15070598635E+04  0.15973633096E+04  0.25500000920E-02 0. -1.
</event>
<event>
 5   0  0.1327820E-05  0.2296481E+04  0.7818609E-02  0.8479310E-01
       -1   -1    0    0    0  501  0.00000000000E+00  0.00000000000E+00  0.93121684657E+03  0.93121684658E+03  0.50400001928E-02 0.  1.
        1   -1    0    0  501    0  0.00000000000E+00  0.00000000000E+00 -0.14158420798E+04  0.14158420798E+04  0.50400001928E-02 0. -1.
    10030    2    1    2    0    0  0.00000000000E+00  0.00000000000E+00 -0.48462523325E+03  0.23470589264E+04  0.22964807831E+04 0.  0.
        1    1    3    3  502    0 -0.13470533822E+03 -0.93601787036E+02 -0.14038057610E+04  0.14133567976E+04  0.50400001928E-02 0. -1.
       -1    1    3    3    0  502  0.13470533822E+03  0.93601787036E+02  0.91918052776E+03  0.93370212880E+03  0.50400001928E-02 0.  1.
</event>
<event>
 5   0  0.1371753E-05  0.2297561E+04  0.7818609E-02  0.8478883E-01
       -1   -1    0    0    0  501  0.00000000000E+00  0.00000000000E+00  0.77820566137E+03  0.77820566138E+03  0.50400001928E-02 0. -1.
        1   -1    0    0  501    0  0.00000000000E+00  0.00000000000E+00 -0.16958199797E+04  0.16958199797E+04  0.50400001928E-02 0.  1.
    10030    2    1    2    0    0  0.00000000000E+00  0.00000000000E+00 -0.91761431833E+03  0.24740256411E+04  0.22975610624E+04 0.  0.
        3    1    3    3  502    0 -0.37922532231E+03  0.51902142245E+03 -0.14840374412E+04  0.16172699896E+04  0.10100000352E+00 0.  1.
       -3    1    3    3    0  502  0.37922532231E+03 -0.51902142245E+03  0.56642312290E+03  0.85675565151E+03  0.10100000352E+00 0. -1.
</event>
<event>
 5   0  0.2994157E-05  0.2275509E+04  0.7818609E-02  0.8487641E-01
        2   -1    0    0  501    0  0.00000000000E+00  0.00000000000E+00  0.90890051628E+03  0.90890051629E+03  0.25500000920E-02 0. -1.
       -2   -1    0    0    0  501  0.00000000000E+00  0.00000000000E+00 -0.14242321062E+04  0.14242321062E+04  0.25500000920E-02 0.  1.
    10030    2    1    2    0    0  0.00000000000E+00  0.00000000000E+00 -0.51533158989E+03  0.23331326225E+04  0.22755089950E+04 0.  0.
        4    1    3    3  502    0  0.94450054080E+03  0.43553847365E+03  0.21521692602E+03  0.10621181534E+04  0.12699999809E+01 0. -1.
       -4    1    3    3    0  502 -0.94450054080E+03 -0.43553847365E+03 -0.73054851591E+03  0.12710144691E+04  0.12699999809E+01 0.  1.
</event>
<event>
 5   0  0.2994157E-05  0.2252030E+04  0.7818609E-02  0.8497079E-01
       -2   -1    0    0    0  501  0.00000000000E+00  0.00000000000E+00  0.78811202171E+03  0.78811202171E+03  0.25500000920E-02 0.  1.
        2   -1    0    0  501    0  0.00000000000E+00  0.00000000000E+00 -0.16087944848E+04  0.16087944848E+04  0.25500000920E-02 0. -1.
    10030    2    1    2    0    0  0.00000000000E+00  0.00000000000E+00 -0.82068246307E+03  0.23969065065E+04  0.22520304384E+04 0.  0.
        4    1    3    3  502    0 -0.54979143774E+03  0.15711999301E+02 -0.14560927385E+04  0.15565105743E+04  0.12699999809E+01 0. -1.
       -4    1    3    3    0  502  0.54979143774E+03 -0.15711999301E+02  0.63541027539E+03  0.84039593222E+03  0.12699999809E+01 0.  1.
</event>
<event>
 5   0  0.2816178E-05  0.2305527E+04  0.7818609E-02  0.8475745E-01
       -2   -1    0    0    0  501  0.00000000000E+00  0.00000000000E+00  0.70202007853E+03  0.70202007853E+03  0.25500000920E-02 0. -1.
        2   -1    0    0  501    0  0.00000000000E+00  0.00000000000E+00 -0.18929142909E+04  0.18929142909E+04  0.25500000920E-02 0.  1.
    10030    2    1    2    0    0  0.00000000000E+00  0.00000000000E+00 -0.11908942124E+04  0.25949343695E+04  0.23055271321E+04 0.  0.
        1    1    3    3  502    0  0.10220012527E+04 -0.82274054925E+02 -0.11884711906E+04  0.15696239523E+04  0.50400001928E-02 0.  1.
       -1    1    3    3    0  502 -0.10220012527E+04  0.82274054925E+02 -0.24230218118E+01  0.10253104172E+04  0.50400001928E-02 0. -1.
</event>
<event>
 5   0  0.2910126E-05  0.2304357E+04  0.7818609E-02  0.8476205E-01
       -2   -1    0    0    0  501  0.00000000000E+00  0.00000000000E+00  0.76317416862E+03  0.76317416863E+03  0.25500000920E-02 0. -1.
        2   -1    0    0  501    0  0.00000000000E+00  0.00000000000E+00 -0.17394654544E+04  0.17394654544E+04  0.25500000920E-02 0.  1.
    10030    2    1    2    0    0  0.00000000000E+00  0.00000000000E+00 -0.97629128576E+03  0.25026396230E+04  0.23043568317E+04 0.  0.
        5    1    3    3  502    0 -0.10153140892E+04 -0.63568016302E+02  0.99313806743E+02  0.10221491646E+04  0.46999998093E+01 0. -1.
       -5    1    3    3    0  502  0.10153140892E+04  0.63568016302E+02 -0.10756050925E+04  0.14804904584E+04  0.46999998093E+01 0.  1.
</event>
<event>
 5   0  0.1371753E-05  0.2277849E+04  0.7818609E-02  0.8486707E-01
       -1   -1    0    0    0  501  0.00000000000E+00  0.00000000000E+00  0.93248273839E+03  0.93248273841E+03  0.50400001928E-02 0.  1.
        1   -1    0    0  501    0  0.00000000000E+00  0.00000000000E+00 -0.13910700481E+04  0.13910700481E+04  0.50400001928E-02 0. -1.
    10030    2    1    2    0    0  0.00000000000E+00  0.00000000000E+00 -0.45858730967E+03  0.23235527865E+04  0.22778488165E+04 0.  0.
        3    1    3    3  502    0 -0.65746571365E+03  0.91105648656E+03 -0.38828973289E+02  0.11241853876E+04  0.10100000352E+00 0. -1.
       -3    1    3    3    0  502  0.65746571365E+03 -0.91105648656E+03 -0.41975833638E+03  0.11993673989E+04  0.10100000352E+00 0.  1.
</event>
<event>
 5   0  0.1327820E-05  0.2298340E+04  0.7818609E-02  0.8478576E-01
        1   -1    0    0  501    0  0.00000000000E+00  0.00000000000E+00  0.11672183137E+04  0.11672183137E+04  0.50400001928E-02 0.  1.
       -1   -1    0    0    0  501  0.00000000000E+00  0.00000000000E+00 -0.11314004649E+04  0.11314004649E+04  0.50400001928E-02 0. -1.
    10030    2    1    2    0    0  0.00000000000E+00  0.00000000000E+00  0.35817848736E+02  0.22986187786E+04  0.22983396988E+04 0.  0.
        1    1    3    3  502    0  0.86698608447E+03  0.62842902905E+02 -0.73383202609E+03  0.11375955097E+04  0.50400001928E-02 0. -1.
       -1    1    3    3    0  502 -0.86698608447E+03 -0.62842902905E+02  0.76964987483E+03  0.11610232689E+04  0.50400001928E-02 0.  1.
</event>
<event>
 5   0  0.2938972E-05  0.2306649E+04  0.7818609E-02  0.8475304E-01
        2   -1    0    0  501    0  0.00000000000E+00  0.00000000000E+00  0.61766594954E+03  0.61766594954E+03  0.25500000920E-02 0.  1.
       -2   -1    0    0    0  501  0.00000000000E+00  0.00000000000E+00 -0.21535227172E+04  0.21535227172E+04  0.25500000920E-02 0. -1.
    10030    2    1    2    0    0  0.00000000000E+00  0.00000000000E+00 -0.15358567677E+04  0.27711886667E+04  0.23066492182E+04 0.  0.
        2    1    3    3  502    0  0.60391169066E+03 -0.70191920346E+03 -0.15939736957E+04  0.18434077251E+04  0.25500000920E-02 0. -1.
       -2    1    3    3    0  502 -0.60391169066E+03  0.70191920346E+03  0.58116928077E+02  0.92778094163E+03  0.25500000920E-02 0.  1.
</event>
<event>
 5   0  0.1308224E-05  0.2288537E+04  0.7818609E-02  0.8482454E-01
       -1   -1    0    0    0  501  0.00000000000E+00  0.00000000000E+00  0.94452889921E+03  0.94452889922E+03  0.50400001928E-02 0.  1.
        1   -1    0    0  501    0  0.00000000000E+00  0.00000000000E+00 -0.13862476303E+04  0.13862476303E+04  0.50400001928E-02 0. -1.
    10030    2    1    2    0    0  0.00000000000E+00  0.00000000000E+00 -0.44171873111E+03  0.23307765296E+04  0.22885374791E+04 0.  0.
        5    1    3    3  502    0 -0.76738502852E+02  0.76437124071E+03 -0.10845543573E+04  0.13290720204E+04  0.46999998093E+01 0. -1.
       -5    1    3    3    0  502  0.76738502852E+02 -0.76437124071E+03  0.64283562617E+03  0.10017045092E+04  0.46999998093E+01 0.  1.
</event>
<event>
 5   0  0.1371753E-05  0.2308045E+04  0.7818609E-02  0.8474756E-01
       -1   -1    0    0    0  501  0.00000000000E+00  0.00000000000E+00  0.96409309661E+03  0.96409309662E+03  0.50400001928E-02 0.  1.
        1   -1    0    0  501    0  0.00000000000E+00  0.00000000000E+00 -0.13813690978E+04  0.13813690978E+04  0.50400001928E-02 0. -1.
    10030    2    1    2    0    0  0.00000000000E+00  0.00000000000E+00 -0.41727600122E+03  0.23454621945E+04  0.23080454165E+04 0.  0.
        3    1    3    3  502    0  0.17053078372E+03 -0.70233002173E+03 -0.11229009161E+04  0.13353855942E+04  0.10100000352E+00 0. -1.
       -3    1    3    3    0  502 -0.17053078372E+03  0.70233002173E+03  0.70562491490E+03  0.10100766002E+04  0.10100000352E+00 0.  1.
</event>
<event>
 5   0  0.1303224E-05  0.2282760E+04  0.7818609E-02  0.8484750E-01
       -1   -1    0    0    0  501  0.00000000000E+00  0.00000000000E+00  0.12397733283E+04  0.12397733284E+04  0.50400001928E-02 0.  1.
        1   -1    0    0  501    0  0.00000000000E+00  0.00000000000E+00 -0.10507953053E+04  0.10507953053E+04  0.50400001928E-02 0. -1.
    10030    2    1    2    0    0  0.00000000000E+00  0.00000000000E+00  0.18897802301E+03  0.22905686337E+04  0.22827597273E+04 0.  0.
        2    1    3    3  502    0 -0.85531854530E+03 -0.16681664763E+02 -0.66367487029E+03  0.10827337740E+04  0.25500000920E-02 0. -1.
       -2    1    3    3    0  502  0.85531854530E+03  0.16681664763E+02  0.85265289330E+03  0.12078348597E+04  0.25500000920E-02 0.  1.
</event>
<event>
 5   0  0.2938972E-05  0.2281435E+04  0.7818609E-02  0.8485277E-01
        2   -1    0    0  501    0  0.00000000000E+00  0.00000000000E+00  0.24192356906E+04  0.24192356906E+04  0.25500000920E-02 0. -1.
       -2   -1    0    0    0  501  0.00000000000E+00  0.00000000000E+00 -0.53787104511E+03  0.53787104511E+03  0.25500000920E-02 0.  1.
    10030    2    1    2    0    0  0.00000000000E+00  0.00000000000E+00  0.18813646455E+04  0.29571067357E+04  0.22814353633E+04 0.  0.
        2    1    3    3  502    0  0.56928734327E+03  0.53941005721E+03 -0.13300941838E+03  0.79545131492E+03  0.25500000920E-02 0.  1.
       -2    1    3    3    0  502 -0.56928734327E+03 -0.53941005721E+03  0.20143740638E+04  0.21616554208E+04  0.25500000920E-02 0. -1.
</event>
<event>
 5   0  0.2871888E-05  0.2308697E+04  0.7818609E-02  0.8474500E-01
        2   -1    0    0  501    0  0.00000000000E+00  0.00000000000E+00  0.19495592986E+04  0.19495592986E+04  0.25500000920E-02 0. -1.
       -2   -1    0    0    0  501  0.00000000000E+00  0.00000000000E+00 -0.68349809039E+03  0.68349809039E+03  0.25500000920E-02 0.  1.
    10030    2    1    2    0    0  0.00000000000E+00  0.00000000000E+00  0.12660612082E+04  0.26330573890E+04  0.23086966520E+04 0.  0.
        3    1    3    3  502    0  0.26113538270E+03 -0.10338795989E+04  0.12885777263E+03  0.10741056972E+04  0.10100000352E+00 0.  1.
       -3    1    3    3    0  502 -0.26113538270E+03  0.10338795989E+04  0.11372034356E+04  0.15589516917E+04  0.10100000352E+00 0. -1.
</event>
<event>
 5   0  0.1308224E-05  0.2308424E+04  0.7818609E-02  0.8474607E-01
       -1   -1    0    0    0  501  0.00000000000E+00  0.00000000000E+00  0.12642125827E+04  0.12642125827E+04  0.50400001928E-02 0. -1.
        1   -1    0    0  501    0  0.00000000000E+00  0.00000000000E+00 -0.10537829485E+04  0.10537829485E+04  0.50400001928E-02 0.  1.
    10030    2    1    2    0    0  0.00000000000E+00  0.00000000000E+00  0.21042963417E+03  0.23179955312E+04  0.23084242790E+04 0.  0.
        5    1    3    3  502    0  0.91744968955E+03 -0.56666531910E+03 -0.30802528064E+03  0.11214834730E+04  0.46999998093E+01 0.  1.
       -5    1    3    3    0  502 -0.91744968955E+03  0.56666531910E+03  0.51845491481E+03  0.11965120582E+04  0.46999998093E+01 0. -1.
</event>
<event>
 5   0  0.1327820E-05  0.2273181E+04  0.7818609E-02  0.8488571E-01
       -1   -1    0    0    0  501  0.00000000000E+00  0.00000000000E+00  0.41196397382E+03  0.41196397385E+03  0.50400001928E-02 0. -1.
        1   -1    0    0  501    0  0.00000000000E+00  0.00000000000E+00 -0.31358028112E+04  0.31358028112E+04  0.50400001928E-02 0.  1.
    10030    2    1    2    0    0  0.00000000000E+00  0.00000000000E+00 -0.27238388374E+04  0.35477667851E+04  0.22731808439E+04 0.  0.
        1    1    3    3  502    0 -0.27760097173E+03 -0.93203084368E+03 -0.22800788663E+04  0.24788108903E+04  0.50400001928E-02 0.  1.
       -1    1    3    3    0  502  0.27760097173E+03  0.93203084368E+03 -0.44375997108E+03  0.10689558948E+04  0.50400001928E-02 0. -1.
</event>
<event>
 5   0  0.1308224E-05  0.2289804E+04  0.7818609E-02  0.8481952E-01
       -1   -1    0    0    0  501  0.00000000000E+00  0.00000000000E+00  0.66489333460E+03  0.66489333462E+03  0.50400001928E-02 0. -1.
        1   -1    0    0  501    0  0.00000000000E+00  0.00000000000E+00 -0.19714444023E+04  0.19714444023E+04  0.50400001928E-02 0.  1.
    10030    2    1    2    0    0  0.00000000000E+00  0.00000000000E+00 -0.13065510677E+04  0.26363377369E+04  0.22898036969E+04 0.  0.
        5    1    3    3  502    0  0.28719856016E+03  0.65143290250E+03 -0.16855899596E+04  0.18297768830E+04  0.46999998093E+01 0.  1.
       -5    1    3    3    0  502 -0.28719856016E+03 -0.65143290250E+03  0.37903889198E+03  0.80656085391E+03  0.46999998093E+01 0. -1.
</event>
<event>
 5   0  0.2910126E-05  0.2295698E+04  0.7818609E-02  0.8479619E-01
       -2   -1    0    0    0  501  0.00000000000E+00  0.00000000000E+00  0.84213914242E+03  0.84213914242E+03  0.25500000920E-02 0.  1.
        2   -1    0    0  501    0  0.00000000000E+00  0.00000000000E+00 -0.15645358386E+04  0.15645358386E+04  0.25500000920E-02 0. -1.
    10030    2    1    2    0    0  0.00000000000E+00  0.00000000000E+00 -0.72239669615E+03  0.24066749810E+04  0.22956976015E+04 0.  0.
        5    1    3    3  502    0 -0.27483887289E+03  0.88204283139E+03 -0.10753019100E+04  0.14176855258E+04  0.46999998093E+01 0. -1.
       -5    1    3    3    0  502  0.27483887289E+03 -0.88204283139E+03  0.35290521387E+03  0.98898945517E+03  0.46999998093E+01 0.  1.
</event>
<event>
 5   0  0.2938972E-05  0.2296770E+04  0.7818609E-02  0.8479196E-01
        2   -1    0    0  501    0  0.00000000000E+00  0.00000000000E+00  0.15557873887E+04  0.15557873887E+04  0.25500000920E-02 0. -1.
       -2   -1    0    0    0  501  0.00000000000E+00  0.00000000000E+00 -0.84766583050E+03  0.84766583051E+03  0.25500000920E-02 0.  1.
    10030    2    1    2    0    0  0.00000000000E+00  0.00000000000E+00  0.70812155819E+03  0.24034532192E+04  0.22967697394E+04 0.  0.
        2    1    3    3  502    0  0.58990541680E+03  0.59697579514E+03  0.11743190975E+04  0.14433966342E+04  0.25500000920E-02 0. -1.
       -2    1    3    3    0  502 -0.58990541680E+03 -0.59697579514E+03 -0.46619753933E+03  0.96005658502E+03  0.25500000920E-02 0.  1.
</event>
<event>
 5   0  0.2938972E-05  0.2297744E+04  0.7818609E-02  0.8478811E-01
       -2   -1    0    0    0  501  0.00000000000E+00  0.00000000000E+00  0.12461067901E+04  0.12461067901E+04  0.25500000920E-02 0. -1.
        2   -1    0    0  501    0  0.00000000000E+00  0.00000000000E+00 -0.10592246751E+04  0.10592246751E+04  0.25500000920E-02 0.  1.
    10030    2    1    2    0    0  0.00000000000E+00  0.00000000000E+00  0.18688211504E+03  0.23053314652E+04  0.22977441632E+04 0.  0.
        2    1    3    3  502    0 -0.70411235646E+03  0.85821538808E+03 -0.20350787540E+03  0.11285935133E+04  0.25500000920E-02 0.  1.
       -2    1    3    3    0  502  0.70411235646E+03 -0.85821538808E+03  0.39038999044E+03  0.11767379519E+04  0.25500000920E-02 0. -1.
</event>
<event>
 5   0  0.2910126E-05  0.2299157E+04  0.7818609E-02  0.8478254E-01
       -2   -1    0    0    0  501  0.00000000000E+00  0.00000000000E+00  0.11652658488E+04  0.11652658488E+04  0.25500000920E-02 0.  1.
        2   -1    0    0  501    0  0.00000000000E+00  0.00000000000E+00 -0.11341021413E+04  0.11341021413E+04  0.25500000920E-02 0. -1.
    10030    2    1    2    0    0  0.00000000000E+00  0.00000000000E+00  0.31163707454E+02  0.22993679901E+04  0.22991567970E+04 0.  0.
        5    1    3    3  502    0 -0.10006579590E+04 -0.52062639466E+03  0.23727812952E+03  0.11526886806E+04  0.46999998093E+01 0.  1.
       -5    1    3    3    0  502  0.10006579590E+04  0.52062639466E+03 -0.20611442206E+03  0.11466793094E+04  0.46999998093E+01 0. -1.
</event>
<event>
 5   0  0.2816178E-05  0.2289831E+04  0.7818609E-02  0.8481942E-01
        2   -1    0    0  501    0  0.00000000000E+00  0.00000000000E+00  0.11916816740E+04  0.11916816740E+04  0.25500000920E-02 0.  1.
       -2   -1    0    0    0  501  0.00000000000E+00  0.00000000000E+00 -0.10999841372E+04  0.10999841372E+04  0.25500000920E-02 0. -1.
    10030    2    1    2    0    0  0.00000000000E+00  0.00000000000E+00  0.91697536795E+02  0.22916658113E+04  0.22898305073E+04 0.  0.
        1    1    3    3  502    0  0.39376887054E+03 -0.48130038684E+03 -0.91623694781E+03  0.11073365028E+04  0.50400001928E-02 0. -1.
       -1    1    3    3    0  502 -0.39376887054E+03  0.48130038684E+03  0.10079344846E+04  0.11843293085E+04  0.50400001928E-02 0.  1.
</event>
<event>
 5   0  0.2938972E-05  0.2299924E+04  0.7818609E-02  0.8477951E-01
        2   -1    0    0  501    0  0.00000000000E+00  0.00000000000E+00  0.21817985044E+04  0.21817985044E+04  0.25500000920E-02 0. -1.
       -2   -1    0    0    0  501  0.00000000000E+00  0.00000000000E+00 -0.60611110607E+03  0.60611110608E+03  0.25500000920E-02 0.  1.
    10030    2    1    2    0    0  0.00000000000E+00  0.00000000000E+00  0.15756873983E+04  0.27879096105E+04  0.22999237420E+04 0.  0.
        2    1    3    3  502    0 -0.11147047012E+04  0.28014359425E+03  0.83263352318E+03  0.14192693854E+04  0.25500000920E-02 0.  1.
       -2    1    3    3    0  502  0.11147047012E+04 -0.28014359425E+03  0.74305387512E+03  0.13686402251E+04  0.25500000920E-02 0. -1.
</event>
<event>
 5   0  0.2816178E-05  0.2297204E+04  0.7818609E-02  0.8479024E-01
       -2   -1    0    0    0  501  0.00000000000E+00  0.00000000000E+00  0.88238653726E+03  0.88238653727E+03  0.25500000920E-02 0.  1.
        2   -1    0    0  501    0  0.00000000000E+00  0.00000000000E+00 -0.14951344260E+04  0.14951344260E+04  0.25500000920E-02 0. -1.
    10030    2    1    2    0    0  0.00000000000E+00  0.00000000000E+00 -0.61274788873E+03  0.23775209633E+04  0.22972039430E+04 0.  0.
        1    1    3    3  502    0 -0.30251795375E+03  0.75550233218E+03  0.53251163353E+03  0.97255823792E+03  0.50400001928E-02 0.  1.
       -1    1    3    3    0  502  0.30251795375E+03 -0.75550233218E+03 -0.11452595223E+04  0.14049627254E+04  0.50400001928E-02 0. -1.
</event>
<event>
 5   0  0.1284837E-05  0.2282859E+04  0.7818609E-02  0.8484710E-01
       -1   -1    0    0    0  501  0.00000000000E+00  0.00000000000E+00  0.90197510512E+03  0.90197510514E+03  0.50400001928E-02 0. -1.
        1   -1    0    0  501    0  0.00000000000E+00  0.00000000000E+00 -0.14444536057E+04  0.14444536057E+04  0.50400001928E-02 0.  1.
    10030    2    1    2    0    0  0.00000000000E+00  0.00000000000E+00 -0.54247850055E+03  0.23464287108E+04  0.22828589031E+04 0.  0.
        4    1    3    3  502    0  0.55069802643E+03  0.57622699961E+03  0.56855210677E+03  0.97906025474E+03  0.12699999809E+01 0. -1.
       -4    1    3    3    0  502 -0.55069802643E+03 -0.57622699961E+03 -0.11110306073E+04  0.13673684561E+04  0.12699999809E+01 0.  1.
</event>
<event>
 5   0  0.1284837E-05  0.2458244E+04  0.7818609E-02  0.8418014E-01
       -1   -1    0    0    0  501  0.00000000000E+00  0.00000000000E+00  0.11539122068E+04  0.11539122068E+04  0.50400001928E-02 0.  1.
        1   -1    0    0  501    0  0.00000000000E+00  0.00000000000E+00 -0.13092339194E+04  0.13092339194E+04  0.50400001928E-02 0. -1.
    10030    2    1    2    0    0  0.00000000000E+00  0.00000000000E+00 -0.15532171265E+03  0.24631461263E+04  0.24582440898E+04 0.  0.
        4    1    3    3  502    0 -0.65883103851E+03  0.25235505574E+03 -0.10861459015E+04  0.12951663769E+04  0.12699999809E+01 0. -1.
       -4    1    3    3    0  502  0.65883103851E+03 -0.25235505574E+03  0.93082418888E+03  0.11679797494E+04  0.12699999809E+01 0.  1.
</event>
<event>
 5   0  0.1284837E-05  0.2318574E+04  0.7818609E-02  0.8470633E-01
       -1   -1    0    0    0  501  0.00000000000E+00  0.00000000000E+00  0.10215676979E+04  0.10215676979E+04  0.50400001928E-02 0.  1.
        1   -1    0    0  501    0  0.00000000000E+00  0.00000000000E+00 -0.13155726806E+04  0.13155726806E+04  0.50400001928E-02 0. -1.
    10030    2    1    2    0    0  0.00000000000E+00  0.00000000000E+00 -0.29400498269E+03  0.23371403785E+04  0.23185741780E+04 0.  0.
        4    1    3    3  502    0 -0.67405096271E+03  0.35960284588E+03 -0.10259284889E+04  0.12791363431E+04  0.12699999809E+01 0. -1.
       -4    1    3    3    0  502  0.67405096271E+03 -0.35960284588E+03  0.73192350616E+03  0.10580040354E+04  0.12699999809E+01 0.  1.
</event>
<event>
 5   0  0.2994157E-05  0.2299219E+04  0.7818609E-02  0.8478229E-01
        2   -1    0    0  501    0  0.00000000000E+00  0.00000000000E+00  0.27371913669E+04  0.27371913669E+04  0.25500000920E-02 0.  1.
       -2   -1    0    0    0  501  0.00000000000E+00  0.00000000000E+00 -0.48283136397E+03  0.48283136398E+03  0.25500000920E-02 0. -1.
    10030    2    1    2    0    0  0.00000000000E+00  0.00000000000E+00  0.22543600029E+04  0.32200227309E+04  0.22992188597E+04 0.  0.
        4    1    3    3  502    0 -0.23113641325E+03  0.27352501662E+03  0.26570848062E+04  0.26811082142E+04  0.12699999809E+01 0.  1.
       -4    1    3    3    0  502  0.23113641325E+03 -0.27352501662E+03 -0.40272480323E+03  0.53891451668E+03  0.12699999809E+01 0. -1.
</event>
<event>
 5   0  0.1308224E-05  0.2296885E+04  0.7818609E-02  0.8479150E-01
       -1   -1    0    0    0  501  0.00000000000E+00  0.00000000000E+00  0.44568566727E+03  0.44568566730E+03  0.50400001928E-02 0. -1.
        1   -1    0    0  501    0  0.00000000000E+00  0.00000000000E+00 -0.29593054364E+04  0.29593054364E+04  0.50400001928E-02 0.  1.
    10030    2    1    2    0    0  0.00000000000E+00  0.00000000000E+00 -0.25136197691E+04  0.34049911037E+04  0.22968848627E+04 0.  0.
        5    1    3    3  502    0  0.52228199842E+01 -0.30880515914E+03 -0.28965707671E+04  0.29129936840E+04  0.46999998093E+01 0.  1.
       -5    1    3    3    0  502 -0.52228199842E+01  0.30880515914E+03  0.38295099797E+03  0.49199741971E+03  0.46999998093E+01 0. -1.
</event>
<event>
 5   0  0.1303224E-05  0.2297095E+04  0.7818609E-02  0.8479067E-01
       -1   -1    0    0    0  501  0.00000000000E+00  0.00000000000E+00  0.15283600294E+04  0.15283600294E+04  0.50400001928E-02 0.  1.
        1   -1    0    0  501    0  0.00000000000E+00  0.00000000000E+00 -0.86312203948E+03  0.86312203949E+03  0.50400001928E-02 0. -1.
    10030    2    1    2    0    0  0.00000000000E+00  0.00000000000E+00  0.66523798994E+03  0.23914820689E+04  0.22970948833E+04 0.  0.
        2    1    3    3  502    0  0.28989787543E+03 -0.10256923220E+04  0.77807370547E+03  0.13196530638E+04  0.25500000920E-02 0.  1.
       -2    1    3    3    0  502 -0.28989787543E+03  0.10256923220E+04 -0.11283571553E+03  0.10718290051E+04  0.25500000920E-02 0. -1.
</event>
<event>
 5   0  0.1284837E-05  0.2159915E+04  0.7818609E-02  0.8535300E-01
        1   -1    0    0  501    0  0.00000000000E+00  0.00000000000E+00  0.13461695186E+04  0.13461695186E+04  0.50400001928E-02 0. -1.
       -1   -1    0    0    0  501  0.00000000000E+00  0.00000000000E+00 -0.86639043687E+03  0.86639043688E+03  0.50400001928E-02 0.  1.
    10030    2    1    2    0    0  0.00000000000E+00  0.00000000000E+00  0.47977908171E+03  0.22125599555E+04  0.21599151810E+04 0.  0.
        4    1    3    3  502    0 -0.48506345535E+03 -0.94359548310E+03  0.33362541108E+02  0.10614959555E+04  0.12699999809E+01 0. -1.
       -4    1    3    3    0  502  0.48506345535E+03  0.94359548310E+03  0.44641654060E+03  0.11510640000E+04  0.12699999809E+01 0.  1.
</event>
<event>
 5   0  0.1284837E-05  0.2381001E+04  0.7818609E-02  0.8446651E-01
       -1   -1    0    0    0  501  0.00000000000E+00  0.00000000000E+00  0.67580692332E+03  0.67580692334E+03  0.50400001928E-02 0. -1.
        1   -1    0    0  501    0  0.00000000000E+00  0.00000000000E+00 -0.20971835372E+04  0.20971835372E+04  0.50400001928E-02 0.  1.
    10030    2    1    2    0    0  0.00000000000E+00  0.00000000000E+00 -0.14213766139E+04  0.27729904606E+04  0.23810007593E+04 0.  0.
        4    1    3    3  502    0  0.88569155809E+02  0.80443405448E+03  0.30617037926E+03  0.86527484501E+03  0.12699999809E+01 0. -1.
       -4    1    3    3    0  502 -0.88569155809E+02 -0.80443405448E+03 -0.17275469932E+04  0.19077156156E+04  0.12699999809E+01 0.  1.
</event>
<event>
 5   0  0.2871888E-05  0.2303165E+04  0.7818609E-02  0.8476674E-01
        2   -1    0    0  501    0  0.00000000000E+00  0.00000000000E+00  0.22661630311E+04  0.22661630311E+04  0.25500000920E-02 0. -1.
       -2   -1    0    0    0  501  0.00000000000E+00  0.00000000000E+00 -0.58519280191E+03  0.58519280192E+03  0.25500000920E-02 0.  1.
    10030    2    1    2    0    0  0.00000000000E+00  0.00000000000E+00  0.16809702292E+04  0.28513558331E+04  0.23031650343E+04 0.  0.
        3    1    3    3  502    0  0.10306167726E+04 -0.12672813411E+03  0.14569020309E+04  0.17890764349E+04  0.10100000352E+00 0. -1.
       -3    1    3    3    0  502 -0.10306167726E+04  0.12672813411E+03  0.22406819829E+03  0.10622793981E+04  0.10100000352E+00 0.  1.
</event>
<event>
 5   0  0.1303224E-05  0.2299575E+04  0.7818609E-02  0.8478089E-01
        1   -1    0    0  501    0  0.00000000000E+00  0.00000000000E+00  0.12679666789E+04  0.12679666789E+04  0.50400001928E-02 0. -1.
       -1   -1    0    0    0  501  0.00000000000E+00  0.00000000000E+00 -0.10426226823E+04  0.10426226823E+04  0.50400001928E-02 0.  1.
    10030    2    1    2    0    0  0.00000000000E+00  0.00000000000E+00  0.22534399662E+03  0.23105893613E+04  0.22995745867E+04 0.  0.
        2    1    3    3  502    0  0.94015345921E+03 -0.46840871637E+03  0.58258246314E+03  0.12011234653E+04  0.25500000920E-02 0. -1.
       -2    1    3    3    0  502 -0.94015345921E+03  0.46840871637E+03 -0.35723846652E+03  0.11094658960E+04  0.25500000920E-02 0.  1.
</event>
<event>
 5   0  0.2871888E-05  0.2296743E+04  0.7818609E-02  0.8479207E-01
        2   -1    0    0  501    0  0.00000000000E+00  0.00000000000E+00  0.12345474095E+04  0.12345474095E+04  0.25500000920E-02 0. -1.
       -2   -1    0    0    0  501  0.00000000000E+00  0.00000000000E+00 -0.10682105846E+04  0.10682105846E+04  0.25500000920E-02 0.  1.
    10030    2    1    2    0    0  0.00000000000E+00  0.00000000000E+00  0.16633682488E+03  0.23027579941E+04  0.22967425716E+04 0.  0.
        3    1    3    3  502    0  0.52002708285E+03  0.42097834313E+03  0.10189433251E+04  0.12189735199E+04  0.10100000352E+00 0. -1.
       -3    1    3    3    0  502 -0.52002708285E+03 -0.42097834313E+03 -0.85260650019E+03  0.10837844743E+04  0.10100000352E+00 0.  1.
</event>
<event>
 5   0  0.1308224E-05  0.2399648E+04  0.7818609E-02  0.8439635E-01
       -1   -1    0    0    0  501  0.00000000000E+00  0.00000000000E+00  0.82772568227E+03  0.82772568228E+03  0.50400001928E-02 0. -1.
        1   -1    0    0  501    0  0.00000000000E+00  0.00000000000E+00 -0.17391967519E+04  0.17391967519E+04  0.50400001928E-02 0.  1.
    10030    2    1    2    0    0  0.00000000000E+00  0.00000000000E+00 -0.91147106963E+03  0.25669224342E+04  0.23996481560E+04 0.  0.
        5    1    3    3  502    0 -0.27958035129E+03  0.10301915975E+04 -0.10417322149E+04  0.14915388020E+04  0.46999998093E+01 0.  1.
       -5    1    3    3    0  502  0.27958035129E+03 -0.10301915975E+04  0.13026114524E+03  0.10753836322E+04  0.46999998093E+01 0. -1.
</event>
<event>
 5   0  0.2871888E-05  0.2300644E+04  0.7818609E-02  0.8477667E-01
        2   -1    0    0  501    0  0.00000000000E+00  0.00000000000E+00  0.15722579759E+04  0.15722579759E+04  0.25500000920E-02 0. -1.
       -2   -1    0    0    0  501  0.00000000000E+00  0.00000000000E+00 -0.84161787604E+03  0.84161787605E+03  0.25500000920E-02 0.  1.
    10030    2    1    2    0    0  0.00000000000E+00  0.00000000000E+00  0.73064009981E+03  0.24138758519E+04  0.23006437519E+04 0.  0.
        3    1    3    3  502    0  0.54118020617E+03 -0.10149723369E+04  0.35064795996E+03  0.12024969282E+04  0.10100000352E+00 0. -1.
       -3    1    3    3    0  502 -0.54118020617E+03  0.10149723369E+04  0.37999213985E+03  0.12113789237E+04  0.10100000352E+00 0.  1.
</event>
<event>
 5   0  0.1371753E-05  0.2315883E+04  0.7818609E-02  0.8471685E-01
        1   -1    0    0  501    0  0.00000000000E+00  0.00000000000E+00  0.19684312342E+04  0.19684312342E+04  0.50400001928E-02 0. -1.
       -1   -1    0    0    0  501  0.00000000000E+00  0.00000000000E+00 -0.68116613621E+03  0.68116613623E+03  0.50400001928E-02 0.  1.
    10030    2    1    2    0    0  0.00000000000E+00  0.00000000000E+00  0.12872650980E+04  0.26495973704E+04  0.23158831561E+04 0.  0.
        3    1    3    3  502    0 -0.28041984014E+02  0.10972728806E+04  0.10656086638E+04  0.15298091260E+04  0.10100000352E+00 0. -1.
       -3    1    3    3    0  502  0.28041984014E+02 -0.10972728806E+04  0.22165643422E+03  0.11197882445E+04  0.10100000352E+00 0.  1.
</event>
<event>
 5   0  0.1308224E-05  0.2325757E+04  0.7818609E-02  0.8467834E-01
        1   -1    0    0  501    0  0.00000000000E+00  0.00000000000E+00  0.17774030863E+04  0.17774030863E+04  0.50400001928E-02 0. -1.
       -1   -1    0    0    0  501  0.00000000000E+00  0.00000000000E+00 -0.76082155608E+03  0.76082155610E+03  0.50400001928E-02 0.  1.
    10030    2    1    2    0    0  0.00000000000E+00  0.00000000000E+00  0.10165815302E+04  0.25382246424E+04  0.23257571515E+04 0.  0.
        5    1    3    3  502    0  0.93700015601E+02  0.45218764018E+03 -0.65645107450E+03  0.80262286166E+03  0.46999998093E+01 0.  1.
       -5    1    3    3    0  502 -0.93700015601E+02 -0.45218764018E+03  0.16730326047E+04  0.17356017807E+04  0.46999998093E+01 0. -1.
</event>
<event>
 5   0  0.2910126E-05  0.2308113E+04  0.7818609E-02  0.8474729E-01
        2   -1    0    0  501    0  0.00000000000E+00  0.00000000000E+00  0.28315328369E+04  0.28315328369E+04  0.25500000920E-02 0.  1.
       -2   -1    0    0    0  501  0.00000000000E+00  0.00000000000E+00 -0.47036215086E+03  0.47036215087E+03  0.25500000920E-02 0. -1.
    10030    2    1    2    0    0  0.00000000000E+00  0.00000000000E+00  0.23611706860E+04  0.33018949878E+04  0.23081125409E+04 0.  0.
        5    1    3    3  502    0 -0.21143845222E+03  0.19899366305E+03  0.27784127863E+04  0.27935469207E+04  0.46999998093E+01 0.  1.
       -5    1    3    3    0  502  0.21143845222E+03 -0.19899366305E+03 -0.41724210030E+03  0.50834806705E+03  0.46999998093E+01 0. -1.
</event>
<event>
 5   0  0.1371753E-05  0.2099389E+04  0.7818609E-02  0.8561512E-01
        1   -1    0    0  501    0  0.00000000000E+00  0.00000000000E+00  0.81560613795E+03  0.81560613796E+03  0.50400001928E-02 0. -1.
       -1   -1    0    0    0  501  0.00000000000E+00  0.00000000000E+00 -0.13509692510E+04  0.13509692510E+04  0.50400001928E-02 0.  1.
    10030    2    1    2    0    0  0.00000000000E+00  0.00000000000E+00 -0.53536311304E+03  0.21665753890E+04  0.20993892572E+04 0.  0.
        3    1    3    3  502    0 -0.68059356980E+03 -0.59396846868E+03  0.28408064957E+03  0.94694665885E+03  0.10100000352E+00 0. -1.
       -3    1    3    3    0  502  0.68059356980E+03  0.59396846868E+03 -0.81944376260E+03  0.12196287301E+04  0.10100000352E+00 0.  1.
</event>
<event>
 5   0  0.1303224E-05  0.2268672E+04  0.7818609E-02  0.8490377E-01
       -1   -1    0    0    0  501  0.00000000000E+00  0.00000000000E+00  0.10570929869E+04  0.10570929869E+04  0.50400001928E-02 0. -1.
        1   -1    0    0  501    0  0.00000000000E+00  0.00000000000E+00 -0.12172232362E+04  0.12172232362E+04  0.50400001928E-02 0.  1.
    10030    2    1    2    0    0  0.00000000000E+00  0.00000000000E+00 -0.16013024931E+03  0.22743162231E+04  0.22686719873E+04 0.  0.
        2    1    3    3  502    0 -0.22347719150E+03 -0.41980291246E+03  0.95232299018E+03  0.10644696417E+04  0.25500000920E-02 0. -1.
       -2    1    3    3    0  502  0.22347719150E+03  0.41980291246E+03 -0.11124532395E+04  0.12098465814E+04  0.25500000920E-02 0.  1.
</event>
<event>
 5   0  0.2938972E-05  0.2278627E+04  0.7818609E-02  0.8486396E-01
       -2   -1    0    0    0  501  0.00000000000E+00  0.00000000000E+00  0.99415207960E+03  0.99415207961E+03  0.25500000920E-02 0. -1.
        2   -1    0    0  501    0  0.00000000000E+00  0.00000000000E+00 -0.13056711741E+04  0.13056711741E+04  0.25500000920E-02 0.  1.
    10030    2    1    2    0    0  0.00000000000E+00  0.00000000000E+00 -0.31151909449E+03  0.22998232537E+04  0.22786274053E+04 0.  0.
        2    1    3    3  502    0 -0.77693976571E+03 -0.63481281984E+03 -0.70060785121E+03  0.12237132331E+04  0.25500000920E-02 0.  1.
       -2    1    3    3    0  502  0.77693976571E+03  0.63481281984E+03  0.38908875671E+03  0.10761100206E+04  0.25500000920E-02 0. -1.
</event>
<event>
 5   0  0.2938972E-05  0.2294741E+04  0.7818609E-02  0.8479997E-01
       -2   -1    0    0    0  501  0.00000000000E+00  0.00000000000E+00  0.72314151353E+03  0.72314151354E+03  0.25500000920E-02 0.  1.
        2   -1    0    0  501    0  0.00000000000E+00  0.00000000000E+00 -0.18204729968E+04  0.18204729968E+04  0.25500000920E-02 0. -1.
    10030    2    1    2    0    0  0.00000000000E+00  0.00000000000E+00 -0.10973314833E+04  0.25436145104E+04  0.22947414654E+04 0.  0.
        2    1    3    3  502    0  0.65363050111E+01 -0.44134327422E+03 -0.17225976780E+04  0.17782489616E+04  0.25500000920E-02 0. -1.
       -2    1    3    3    0  502 -0.65363050111E+01  0.44134327422E+03  0.62526619473E+03  0.76536554879E+03  0.25500000920E-02 0.  1.
</event>
<event>
 5   0  0.2994157E-05  0.2303553E+04  0.7818609E-02  0.8476522E-01
       -2   -1    0    0    0  501  0.00000000000E+00  0.00000000000E+00  0.60488690728E+03  0.60488690729E+03  0.25500000920E-02 0.  1.
        2   -1    0    0  501    0  0.00000000000E+00  0.00000000000E+00 -0.21931193250E+04  0.21931193250E+04  0.25500000920E-02 0. -1.
    10030    2    1    2    0    0  0.00000000000E+00  0.00000000000E+00 -0.15882324177E+04  0.27980062323E+04  0.23035530519E+04 0.  0.
        4    1    3    3  502    0  0.19633151838E+03 -0.29152952760E+03 -0.21263874787E+04  0.21552403237E+04  0.12699999809E+01 0. -1.
       -4    1    3    3    0  502 -0.19633151838E+03  0.29152952760E+03  0.53815506101E+03  0.64276590853E+03  0.12699999809E+01 0.  1.
</event>
<event>
 5   0  0.2816178E-05  0.2301672E+04  0.7818609E-02  0.8477262E-01
        2   -1    0    0  501    0  0.00000000000E+00  0.00000000000E+00  0.58084813622E+03  0.58084813623E+03  0.25500000920E-02 0.  1.
       -2   -1    0    0    0  501  0.00000000000E+00  0.00000000000E+00 -0.22801542171E+04  0.22801542171E+04  0.25500000920E-02 0. -1.
    10030    2    1    2    0    0  0.00000000000E+00  0.00000000000E+00 -0.16993060808E+04  0.28610023533E+04  0.23016718509E+04 0.  0.
        1    1    3    3  502    0  0.35931429816E+03 -0.19681489886E+03 -0.21864416416E+04  0.22244931830E+04  0.50400001928E-02 0. -1.
       -1    1    3    3    0  502 -0.35931429816E+03  0.19681489886E+03  0.48713556074E+03  0.63650917027E+03  0.50400001928E-02 0.  1.
</event>
<event>
 5   0  0.1017200E-05  0.2294165E+04  0.7818609E-02  0.8480225E-01
        4   -1    0    0  501    0  0.00000000000E+00  0.00000000000E+00  0.12827551020E+04  0.12827557307E+04  0.12699999809E+01 0. -1.
       -4   -1    0    0    0  501  0.00000000000E+00  0.00000000000E+00 -0.10257580211E+04  0.10257588073E+04  0.12699999809E+01 0.  1.
    10030    2    1    2    0    0  0.00000000000E+00  0.00000000000E+00  0.25699708092E+03  0.23085145380E+04  0.22941647440E+04 0.  0.
        4    1    3    3  502    0 -0.20848216372E+03  0.91710775342E+03  0.78929849464E+03  0.12278213105E+04  0.12699999809E+01 0. -1.
       -4    1    3    3    0  502  0.20848216372E+03 -0.91710775342E+03 -0.53230141372E+03  0.10806932275E+04  0.12699999809E+01 0.  1.
</event>
<event>
 5   0  0.2994157E-05  0.2301343E+04  0.7818609E-02  0.8477392E-01
       -2   -1    0    0    0  501  0.00000000000E+00  0.00000000000E+00  0.14930072089E+04  0.14930072089E+04  0.25500000920E-02 0.  1.
        2   -1    0    0  501    0  0.00000000000E+00  0.00000000000E+00 -0.88683105253E+03  0.88683105253E+03  0.25500000920E-02 0. -1.
    10030    2    1    2    0    0  0.00000000000E+00  0.00000000000E+00  0.60617615636E+03  0.23798382614E+04  0.23013432204E+04 0.  0.
        4    1    3    3  502    0 -0.57089385768E+03 -0.57423678661E+03  0.11485156863E+04  0.14052606799E+04  0.12699999809E+01 0.  1.
       -4    1    3    3    0  502  0.57089385768E+03  0.57423678661E+03 -0.54233952993E+03  0.97457758155E+03  0.12699999809E+01 0. -1.
</event>
<event>
 5   0  0.2871888E-05  0.2324794E+04  0.7818609E-02  0.8468209E-01
        2   -1    0    0  501    0  0.00000000000E+00  0.00000000000E+00  0.12768906418E+04  0.12768906418E+04  0.25500000920E-02 0.  1.
       -2   -1    0    0    0  501  0.00000000000E+00  0.00000000000E+00 -0.10581692134E+04  0.10581692134E+04  0.25500000920E-02 0. -1.
    10030    2    1    2    0    0  0.00000000000E+00  0.00000000000E+00  0.21872142834E+03  0.23350598552E+04  0.23247936390E+04 0.  0.
        3    1    3    3  502    0  0.28435167777E+03  0.42533213592E+03  0.11577145844E+04  0.12657276056E+04  0.10100000352E+00 0.  1.
       -3    1    3    3    0  502 -0.28435167777E+03 -0.42533213592E+03 -0.93899315609E+03  0.10693322495E+04  0.10100000352E+00 0. -1.
</event>
<event>
 5   0  0.1371753E-05  0.2326170E+04  0.7818609E-02  0.8467674E-01
        1   -1    0    0  501    0  0.00000000000E+00  0.00000000000E+00  0.21325624843E+04  0.21325624843E+04  0.50400001928E-02 0. -1.
       -1   -1    0    0    0  501  0.00000000000E+00  0.00000000000E+00 -0.63433862473E+03  0.63433862475E+03  0.50400001928E-02 0.  1.
    10030    2    1    2    0    0  0.00000000000E+00  0.00000000000E+00  0.14982238596E+04  0.27669011091E+04  0.23261700312E+04 0.  0.
        3    1    3    3  502    0 -0.94832640820E+02 -0.84663255993E+03  0.16909611610E+04  0.18934438412E+04  0.10100000352E+00 0. -1.
       -3    1    3    3    0  502  0.94832640820E+02  0.84663255993E+03 -0.19273730146E+03  0.87345726791E+03  0.10100000352E+00 0.  1.
</event>
<event>
 5   0  0.2910126E-05  0.2307325E+04  0.7818609E-02  0.8475039E-01
        2   -1    0    0  501    0  0.00000000000E+00  0.00000000000E+00  0.19216326427E+04  0.19216326427E+04  0.25500000920E-02 0. -1.
       -2   -1    0    0    0  501  0.00000000000E+00  0.00000000000E+00 -0.69260735515E+03  0.69260735515E+03  0.25500000920E-02 0.  1.
    10030    2    1    2    0    0  0.00000000000E+00  0.00000000000E+00  0.12290252876E+04  0.26142399979E+04  0.23073247732E+04 0.  0.
        5    1    3    3  502    0 -0.36132925836E+03 -0.73229345725E+03  0.15378368238E+04  0.17411997953E+04  0.46999998093E+01 0. -1.
       -5    1    3    3    0  502  0.36132925836E+03  0.73229345725E+03 -0.30881153620E+03  0.87304020261E+03  0.46999998093E+01 0.  1.
</event>
<event>
 5   0  0.1284837E-05  0.2288460E+04  0.7818609E-02  0.8482485E-01
        1   -1    0    0  501    0  0.00000000000E+00  0.00000000000E+00  0.12723183891E+04  0.12723183891E+04  0.50400001928E-02 0. -1.
       -1   -1    0    0    0  501  0.00000000000E+00  0.00000000000E+00 -0.10290363704E+04  0.10290363704E+04  0.50400001928E-02 0.  1.
    10030    2    1    2    0    0  0.00000000000E+00  0.00000000000E+00  0.24328201869E+03  0.23013547595E+04  0.22884596541E+04 0.  0.
        4    1    3    3  502    0 -0.41292504423E+03 -0.86234709053E+03 -0.51047923580E+03  0.10838543536E+04  0.12699999809E+01 0.  1.
       -4    1    3    3    0  502  0.41292504423E+03  0.86234709053E+03  0.75376125450E+03  0.12175004059E+04  0.12699999809E+01 0. -1.
</event>
<event>
 5   0  0.2816178E-05  0.2306879E+04  0.7818609E-02  0.8475214E-01
       -2   -1    0    0    0  501  0.00000000000E+00  0.00000000000E+00  0.12967357811E+04  0.12967357811E+04  0.25500000920E-02 0.  1.
        2   -1    0    0  501    0  0.00000000000E+00  0.00000000000E+00 -0.10259783428E+04  0.10259783428E+04  0.25500000920E-02 0. -1.
    10030    2    1    2    0    0  0.00000000000E+00  0.00000000000E+00  0.27075743831E+03  0.23227141239E+04  0.23068791280E+04 0.  0.
        1    1    3    3  502    0  0.27871150080E+03 -0.85676962507E+03  0.86052269945E+03  0.12458866752E+04  0.50400001928E-02 0.  1.
       -1    1    3    3    0  502 -0.27871150080E+03  0.85676962507E+03 -0.58976526114E+03  0.10768274488E+04  0.50400001928E-02 0. -1.
</event>
<event>
 5   0  0.2938972E-05  0.2135837E+04  0.7818609E-02  0.8545619E-01
        2   -1    0    0  501    0  0.00000000000E+00  0.00000000000E+00  0.99814344261E+03  0.99814344261E+03  0.25500000920E-02 0. -1.
       -2   -1    0    0    0  501  0.00000000000E+00  0.00000000000E+00 -0.11425706375E+04  0.11425706375E+04  0.25500000920E-02 0.  1.
    10030    2    1    2    0    0  0.00000000000E+00  0.00000000000E+00 -0.14442719493E+03  0.21407140801E+04  0.21358365008E+04 0.  0.
        2    1    3    3  502    0 -0.77857381565E+03 -0.29532242674E+03  0.59793644073E+03  0.10251441407E+04  0.25500000920E-02 0. -1.
       -2    1    3    3    0  502  0.77857381565E+03  0.29532242674E+03 -0.74236363565E+03  0.11155699394E+04  0.25500000920E-02 0.  1.
</event>
<event>
 5   0  0.1308224E-05  0.2303483E+04  0.7818609E-02  0.8476549E-01
       -1   -1    0    0    0  501  0.00000000000E+00  0.00000000000E+00  0.81529706317E+03  0.81529706319E+03  0.50400001928E-02 0. -1.
        1   -1    0    0  501    0  0.00000000000E+00  0.00000000000E+00 -0.16270245429E+04  0.16270245429E+04  0.50400001928E-02 0.  1.
    10030    2    1    2    0    0  0.00000000000E+00  0.00000000000E+00 -0.81172747976E+03  0.24423216061E+04  0.23034828687E+04 0.  0.
        5    1    3    3  502    0 -0.10219744383E+03  0.54733058238E+03 -0.14748334387E+04  0.15764424652E+04  0.46999998093E+01 0.  1.
       -5    1    3    3    0  502  0.10219744383E+03 -0.54733058238E+03  0.66310595898E+03  0.86587914097E+03  0.46999998093E+01 0. -1.
</event>
<event>
 5   0  0.2994157E-05  0.2296308E+04  0.7818609E-02  0.8479378E-01
       -2   -1    0    0    0  501  0.00000000000E+00  0.00000000000E+00  0.58339517854E+03  0.58339517854E+03  0.25500000920E-02 0. -1.
        2   -1    0    0  501    0  0.00000000000E+00  0.00000000000E+00 -0.22596313860E+04  0.22596313860E+04  0.25500000920E-02 0.  1.
    10030    2    1    2    0    0  0.00000000000E+00  0.00000000000E+00 -0.16762362074E+04  0.28430265645E+04  0.22963083903E+04 0.  0.
        4    1    3    3  502    0 -0.44939119587E+03  0.10755638372E+03  0.46318924898E+03  0.65426807646E+03  0.12699999809E+01 0. -1.
       -4    1    3    3    0  502  0.44939119587E+03 -0.10755638372E+03 -0.21394254564E+04  0.21887584881E+04  0.12699999809E+01 0.  1.
</event>
<event>
 5   0  0.2910126E-05  0.2294792E+04  0.7818609E-02  0.8479978E-01
       -2   -1    0    0    0  501  0.00000000000E+00  0.00000000000E+00  0.95489378793E+03  0.95489378793E+03  0.25500000920E-02 0. -1.
        2   -1    0    0  501    0  0.00000000000E+00  0.00000000000E+00 -0.13787053359E+04  0.13787053359E+04  0.25500000920E-02 0.  1.
    10030    2    1    2    0    0  0.00000000000E+00  0.00000000000E+00 -0.42381154802E+03  0.23335991239E+04  0.22947916338E+04 0.  0.
        5    1    3    3  502    0 -0.76455830545E+02 -0.85169611425E+03 -0.98986823793E+03  0.13080875290E+04  0.46999998093E+01 0.  1.
       -5    1    3    3    0  502  0.76455830545E+02  0.85169611425E+03  0.56605668991E+03  0.10255115949E+04  0.46999998093E+01 0. -1.
</event>
<event>
 5   0  0.1284837E-05  0.2577260E+04  0.7818609E-02  0.8375967E-01
        1   -1    0    0  501    0  0.00000000000E+00  0.00000000000E+00  0.19188607815E+04  0.19188607815E+04  0.50400001928E-02 0.  1.
       -1   -1    0    0    0  501  0.00000000000E+00  0.00000000000E+00 -0.86539214769E+03  0.86539214770E+03  0.50400001928E-02 0. -1.
    10030    2    1    2    0    0  0.00000000000E+00  0.00000000000E+00  0.10534686338E+04  0.27842529292E+04  0.25772598261E+04 0.  0.
        4    1    3    3  502    0 -0.73676497710E+03  0.49446385020E+03  0.15362646157E+04  0.17740991272E+04  0.12699999809E+01 0.  1.
       -4    1    3    3    0  502  0.73676497710E+03 -0.49446385020E+03 -0.48279598194E+03  0.10101538020E+04  0.12699999809E+01 0. -1.
</event>
<event>
 5   0  0.2871888E-05  0.2312186E+04  0.7818609E-02  0.8473132E-01
       -2   -1    0    0    0  501  0.00000000000E+00  0.00000000000E+00  0.45006851250E+03  0.45006851251E+03  0.25500000920E-02 0. -1.
        2   -1    0    0  501    0  0.00000000000E+00  0.00000000000E+00 -0.29696624355E+04  0.29696624355E+04  0.25500000920E-02 0.  1.
    10030    2    1    2    0    0  0.00000000000E+00  0.00000000000E+00 -0.25195939230E+04  0.34197309480E+04  0.23121864587E+04 0.  0.
        3    1    3    3  502    0  0.10562532267E+04 -0.67821087540E+01 -0.19548256200E+04  0.22219496148E+04  0.10100000352E+00 0.  1.
       -3    1    3    3    0  502 -0.10562532267E+04  0.67821087540E+01 -0.56476830293E+03  0.11977813332E+04  0.10100000352E+00 0. -1.
</event>
<event>
 5   0  0.1017200E-05  0.2338278E+04  0.7818609E-02  0.8462980E-01
        3   -1    0    0  501    0  0.00000000000E+00  0.00000000000E+00  0.15322176039E+04  0.15322176073E+04  0.10100000352E+00 0.  1.
       -3   -1    0    0    0  501  0.00000000000E+00  0.00000000000E+00 -0.89209630146E+03  0.89209630718E+03  0.10100000352E+00 0. -1.
    10030    2    1    2    0    0  0.00000000000E+00  0.00000000000E+00  0.64012130249E+03  0.24243139144E+04  0.23382777153E+04 0.  0.
        4    1    3    3  502    0  0.57225360658E+03 -0.77441420602E+03  0.10075520891E+04  0.13936837438E+04  0.12699999809E+01 0.  1.
       -4    1    3    3    0  502 -0.57225360658E+03  0.77441420602E+03 -0.36743078660E+03  0.10306301706E+04  0.12699999809E+01 0. -1.
</event>
<event>
 5   0  0.1371753E-05  0.2307109E+04  0.7818609E-02  0.8475124E-01
       -1   -1    0    0    0  501  0.00000000000E+00  0.00000000000E+00  0.82336191391E+03  0.82336191392E+03  0.50400001928E-02 0. -1.
        1   -1    0    0  501    0  0.00000000000E+00  0.00000000000E+00 -0.16161637177E+04  0.16161637177E+04  0.50400001928E-02 0.  1.
    10030    2    1    2    0    0  0.00000000000E+00  0.00000000000E+00 -0.79280180382E+03  0.24395256317E+04  0.23071087117E+04 0.  0.
        3    1    3    3  502    0  0.67373936312E+02 -0.83469105791E+03  0.44250689476E+03  0.94713292180E+03  0.10100000352E+00 0. -1.
       -3    1    3    3    0  502 -0.67373936312E+02  0.83469105791E+03 -0.12353086986E+04  0.14923927099E+04  0.10100000352E+00 0.  1.
</event>
<event>
 5   0  0.1371753E-05  0.2282878E+04  0.7818609E-02  0.8484703E-01
        1   -1    0    0  501    0  0.00000000000E+00  0.00000000000E+00  0.12618258111E+04  0.12618258111E+04  0.50400001928E-02 0.  1.
       -1   -1    0    0    0  501  0.00000000000E+00  0.00000000000E+00 -0.10325376984E+04  0.10325376984E+04  0.50400001928E-02 0. -1.
    10030    2    1    2    0    0  0.00000000000E+00  0.00000000000E+00  0.22928811270E+03  0.22943635096E+04  0.22828777618E+04 0.  0.
        3    1    3    3  502    0 -0.49804837805E+03  0.90226453099E+03  0.60777474423E+03  0.11964629625E+04  0.10100000352E+00 0.  1.
       -3    1    3    3    0  502  0.49804837805E+03 -0.90226453099E+03 -0.37848663153E+03  0.10979005471E+04  0.10100000352E+00 0. -1.
</event>
<event>
 5   0  0.1327820E-05  0.2304386E+04  0.7818609E-02  0.8476194E-01
       -1   -1    0    0    0  501  0.00000000000E+00  0.00000000000E+00  0.14426191487E+04  0.14426191487E+04  0.50400001928E-02 0.  1.
        1   -1    0    0  501    0  0.00000000000E+00  0.00000000000E+00 -0.92023522441E+03  0.92023522442E+03  0.50400001928E-02 0. -1.
    10030    2    1    2    0    0  0.00000000000E+00  0.00000000000E+00  0.52238392426E+03  0.23628543731E+04  0.23043862142E+04 0.  0.
        1    1    3    3  502    0 -0.43284844187E+03  0.10844558491E+03 -0.82803690192E+03  0.94061858874E+03  0.50400001928E-02 0. -1.
       -1    1    3    3    0  502  0.43284844187E+03 -0.10844558491E+03  0.13504208262E+04  0.14222357844E+04  0.50400001928E-02 0.  1.
</event>
<event>
 5   0  0.2871888E-05  0.2288554E+04  0.7818609E-02  0.8482448E-01
        2   -1    0    0  501    0  0.00000000000E+00  0.00000000000E+00  0.16874540066E+04  0.16874540066E+04  0.25500000920E-02 0.  1.
       -2   -1    0    0    0  501  0.00000000000E+00  0.00000000000E+00 -0.77594388400E+03  0.77594388400E+03  0.25500000920E-02 0. -1.
    10030    2    1    2    0    0  0.00000000000E+00  0.00000000000E+00  0.91151012263E+03  0.24633978906E+04  0.22885537931E+04 0.  0.
        3    1    3    3  502    0  0.64037049906E+03 -0.58665176477E+03 -0.34624189494E+03  0.93494284809E+03  0.10100000352E+00 0.  1.
       -3    1    3    3    0  502 -0.64037049906E+03  0.58665176477E+03  0.12577520176E+04  0.15284550425E+04  0.10100000352E+00 0. -1.
</event>
<event>
 5   0  0.1017200E-05  0.2314028E+04  0.7818609E-02  0.8472411E-01
        3   -1    0    0  501    0  0.00000000000E+00  0.00000000000E+00  0.10135830235E+04  0.10135830286E+04  0.10100000352E+00 0.  1.
       -3   -1    0    0    0  501  0.00000000000E+00  0.00000000000E+00 -0.13207414416E+04  0.13207414454E+04  0.10100000352E+00 0. -1.
    10030    2    1    2    0    0  0.00000000000E+00  0.00000000000E+00 -0.30715841804E+03  0.23343244740E+04  0.23140277561E+04 0.  0.
        5    1    3    3  502    0 -0.27531758710E+03 -0.31459929887E+01 -0.12872016447E+04  0.13163281640E+04  0.46999998093E+01 0. -1.
       -5    1    3    3    0  502  0.27531758710E+03  0.31459929887E+01  0.98004322670E+03  0.10179963100E+04  0.46999998093E+01 0.  1.
</event>
<event>
 5   0  0.2871888E-05  0.2271039E+04  0.7818609E-02  0.8489429E-01
       -2   -1    0    0    0  501  0.00000000000E+00  0.00000000000E+00  0.55748451941E+03  0.55748451942E+03  0.25500000920E-02 0. -1.
        2   -1    0    0  501    0  0.00000000000E+00  0.00000000000E+00 -0.23128965235E+04  0.23128965235E+04  0.25500000920E-02 0.  1.
    10030    2    1    2    0    0  0.00000000000E+00  0.00000000000E+00 -0.17554120041E+04  0.28703810429E+04  0.22710385350E+04 0.  0.
        3    1    3    3  502    0  0.66170693444E+03 -0.76317776432E+03 -0.22204695950E+03  0.10342152723E+04  0.10100000352E+00 0. -1.
       -3    1    3    3    0  502 -0.66170693444E+03  0.76317776432E+03 -0.15333650446E+04  0.18361657706E+04  0.10100000352E+00 0.  1.
</event>
<event>
 5   0  0.2910126E-05  0.2285203E+04  0.7818609E-02  0.8483778E-01
       -2   -1    0    0    0  501  0.00000000000E+00  0.00000000000E+00  0.65189728651E+03  0.65189728652E+03  0.25500000920E-02 0. -1.
        2   -1    0    0  501    0  0.00000000000E+00  0.00000000000E+00 -0.20026750877E+04  0.20026750877E+04  0.25500000920E-02 0.  1.
    10030    2    1    2    0    0  0.00000000000E+00  0.00000000000E+00 -0.13507778012E+04  0.26545723742E+04  0.22852032343E+04 0.  0.
        5    1    3    3  502    0 -0.10205804636E+04  0.13211180182E+03 -0.98676707589E+02  0.10338264813E+04  0.46999998093E+01 0. -1.
       -5    1    3    3    0  502  0.10205804636E+04 -0.13211180182E+03 -0.12521010936E+04  0.16207458929E+04  0.46999998093E+01 0.  1.
</event>
<event>
 5   0  0.1303224E-05  0.2319705E+04  0.7818609E-02  0.8470192E-01
       -1   -1    0    0    0  501  0.00000000000E+00  0.00000000000E+00  0.71450975251E+03  0.71450975253E+03  0.50400001928E-02 0.  1.
        1   -1    0    0  501    0  0.00000000000E+00  0.00000000000E+00 -0.18827711014E+04  0.18827711014E+04  0.50400001928E-02 0. -1.
    10030    2    1    2    0    0  0.00000000000E+00  0.00000000000E+00 -0.11682613489E+04  0.25972808540E+04  0.23197054242E+04 0.  0.
        2    1    3    3  502    0  0.10084924743E+04  0.57145861290E+03 -0.62942221613E+03  0.13190126395E+04  0.25500000920E-02 0.  1.
       -2    1    3    3    0  502 -0.10084924743E+04 -0.57145861290E+03 -0.53883913277E+03  0.12782682144E+04  0.25500000920E-02 0. -1.
</event>
<event>
 5   0  0.1284837E-05  0.2312071E+04  0.7818609E-02  0.8473177E-01
        1   -1    0    0  501    0  0.00000000000E+00  0.00000000000E+00  0.13670456962E+04  0.13670456962E+04  0.50400001928E-02 0. -1.
       -1   -1    0    0    0  501  0.00000000000E+00  0.00000000000E+00 -0.97759554341E+03  0.97759554343E+03  0.50400001928E-02 0.  1.
    10030    2    1    2    0    0  0.00000000000E+00  0.00000000000E+00  0.38945015275E+03  0.23446412396E+04  0.23120707431E+04 0.  0.
        4    1    3    3  502    0 -0.94463593969E+03 -0.27269839567E+03 -0.42188218803E+03  0.10699007744E+04  0.12699999809E+01 0.  1.
       -4    1    3    3    0  502  0.94463593969E+03  0.27269839567E+03  0.81133234078E+03  0.12747404652E+04  0.12699999809E+01 0. -1.
</event>
<event>
 5   0  0.2938972E-05  0.2297907E+04  0.7818609E-02  0.8478747E-01
        2   -1    0    0  501    0  0.00000000000E+00  0.00000000000E+00  0.13173920106E+04  0.13173920106E+04  0.25500000920E-02 0. -1.
       -2   -1    0    0    0  501  0.00000000000E+00  0.00000000000E+00 -0.10020510448E+04  0.10020510448E+04  0.25500000920E-02 0.  1.
    10030    2    1    2    0    0  0.00000000000E+00  0.00000000000E+00  0.31534096577E+03  0.23194430554E+04  0.22979069090E+04 0.  0.
        2    1    3    3  502    0  0.10811952276E+04  0.32134410380E+03  0.37846445159E+03  0.11897396750E+04  0.25500000920E-02 0. -1.
       -2    1    3    3    0  502 -0.10811952276E+04 -0.32134410380E+03 -0.63123485819E+02  0.11297033804E+04  0.25500000920E-02 0.  1.
</event>
<event>
 5   0  0.2871888E-05  0.2286652E+04  0.7818609E-02  0.8483203E-01
       -2   -1    0    0    0  501  0.00000000000E+00  0.00000000000E+00  0.64022239029E+03  0.64022239029E+03  0.25500000920E-02 0. -1.
        2   -1    0    0  501    0  0.00000000000E+00  0.00000000000E+00 -0.20417813555E+04  0.20417813555E+04  0.25500000920E-02 0.  1.
    10030    2    1    2    0    0  0.00000000000E+00  0.00000000000E+00 -0.14015589653E+04  0.26820037458E+04  0.22866518230E+04 0.  0.
        3    1    3    3  502    0 -0.99795310524E+03 -0.46176278797E+03 -0.33349485492E+03  0.11490666217E+04  0.10100000352E+00 0. -1.
       -3    1    3    3    0  502  0.99795310524E+03  0.46176278797E+03 -0.10680641103E+04  0.15329371242E+04  0.10100000352E+00 0.  1.
</event>
<event>
 5   0  0.1327820E-05  0.2302955E+04  0.7818609E-02  0.8476757E-01
       -1   -1    0    0    0  501  0.00000000000E+00  0.00000000000E+00  0.12223196019E+04  0.12223196019E+04  0.50400001928E-02 0.  1.
        1   -1    0    0  501    0  0.00000000000E+00  0.00000000000E+00 -0.10847410422E+04  0.10847410422E+04  0.50400001928E-02 0. -1.
    10030    2    1    2    0    0  0.00000000000E+00  0.00000000000E+00  0.13757855966E+03  0.23070606441E+04  0.23029548314E+04 0.  0.
        1    1    3    3  502    0 -0.89134583074E+03  0.66990230276E+03 -0.21918409169E+03  0.11363574047E+04  0.50400001928E-02 0. -1.
       -1    1    3    3    0  502  0.89134583074E+03 -0.66990230276E+03  0.35676265134E+03  0.11707032394E+04  0.50400001928E-02 0.  1.
</event>
<event>
 5   0  0.2910126E-05  0.2302716E+04  0.7818609E-02  0.8476851E-01
        2   -1    0    0  501    0  0.00000000000E+00  0.00000000000E+00  0.85697365276E+03  0.85697365276E+03  0.25500000920E-02 0. -1.
       -2   -1    0    0    0  501  0.00000000000E+00  0.00000000000E+00 -0.15468675175E+04  0.15468675175E+04  0.25500000920E-02 0.  1.
    10030    2    1    2    0    0  0.00000000000E+00  0.00000000000E+00 -0.68989386479E+03  0.24038411703E+04  0.23027155333E+04 0.  0.
        5    1    3    3  502    0  0.56304167379E+03 -0.39845013619E+03 -0.13072902173E+04  0.14781096846E+04  0.46999998093E+01 0.  1.
       -5    1    3    3    0  502 -0.56304167379E+03  0.39845013619E+03  0.61739635255E+03  0.92573148569E+03  0.46999998093E+01 0. -1.
</event>
<event>
 5   0  0.1284837E-05  0.2300057E+04  0.7818609E-02  0.8477899E-01
        1   -1    0    0  501    0  0.00000000000E+00  0.00000000000E+00  0.25091054666E+04  0.25091054666E+04  0.50400001928E-02 0. -1.
       -1   -1    0    0    0  501  0.00000000000E+00  0.00000000000E+00 -0.52710649913E+03  0.52710649915E+03  0.50400001928E-02 0.  1.
    10030    2    1    2    0    0  0.00000000000E+00  0.00000000000E+00  0.19819989674E+04  0.30362119657E+04  0.23000572153E+04 0.  0.
        4    1    3    3  502    0 -0.11723346627E+03 -0.67907260990E+03 -0.22437368506E+03  0.72472647156E+03  0.12699999809E+01 0.  1.
       -4    1    3    3    0  502  0.11723346627E+03  0.67907260990E+03  0.22063726525E+04  0.23114854942E+04  0.12699999809E+01 0. -1.
</event>
<event>
 5   0  0.1308224E-05  0.2302906E+04  0.7818609E-02  0.8476776E-01
        1   -1    0    0  501    0  0.00000000000E+00  0.00000000000E+00  0.11148420186E+04  0.11148420186E+04  0.50400001928E-02 0.  1.
       -1   -1    0    0    0  501  0.00000000000E+00  0.00000000000E+00 -0.11892667117E+04  0.11892667117E+04  0.50400001928E-02 0. -1.
    10030    2    1    2    0    0  0.00000000000E+00  0.00000000000E+00 -0.74424693096E+02  0.23041087303E+04  0.23029064259E+04 0.  0.
        5    1    3    3  502    0 -0.84602463790E+03  0.23039945765E+03 -0.78391345406E+03  0.11761734530E+04  0.46999998093E+01 0. -1.
       -5    1    3    3    0  502  0.84602463790E+03 -0.23039945765E+03  0.70948876096E+03  0.11279352774E+04  0.46999998093E+01 0.  1.
</event>
<event>
 5   0  0.2938972E-05  0.2288141E+04  0.7818609E-02  0.8482612E-01
       -2   -1    0    0    0  501  0.00000000000E+00  0.00000000000E+00  0.47398542742E+03  0.47398542743E+03  0.25500000920E-02 0. -1.
        2   -1    0    0  501    0  0.00000000000E+00  0.00000000000E+00 -0.27614725657E+04  0.27614725657E+04  0.25500000920E-02 0.  1.
    10030    2    1    2    0    0  0.00000000000E+00  0.00000000000E+00 -0.22874871383E+04  0.32354579931E+04  0.22881413893E+04 0.  0.
        2    1    3    3  502    0  0.26374170452E+03 -0.32865998349E+02  0.42972641015E+03  0.50527680348E+03  0.25500000920E-02 0. -1.
       -2    1    3    3    0  502 -0.26374170452E+03  0.32865998349E+02 -0.27172135484E+04  0.27301811897E+04  0.25500000920E-02 0.  1.
</event>
<event>
 5   0  0.1327820E-05  0.2298649E+04  0.7818609E-02  0.8478454E-01
        1   -1    0    0  501    0  0.00000000000E+00  0.00000000000E+00  0.14618261467E+04  0.14618261467E+04  0.50400001928E-02 0. -1.
       -1   -1    0    0    0  501  0.00000000000E+00  0.00000000000E+00 -0.90362792484E+03  0.90362792486E+03  0.50400001928E-02 0.  1.
    10030    2    1    2    0    0  0.00000000000E+00  0.00000000000E+00  0.55819822188E+03  0.23654540716E+04  0.22986491054E+04 0.  0.
        1    1    3    3  502    0 -0.51032122224E+03 -0.86735053903E+03 -0.29221350179E+03  0.10479090791E+04  0.50400001928E-02 0.  1.
       -1    1    3    3    0  502  0.51032122224E+03  0.86735053903E+03  0.85041172367E+03  0.13175449925E+04  0.50400001928E-02 0. -1.
</event>
<event>
 5   0  0.1303224E-05  0.2296283E+04  0.7818609E-02  0.8479388E-01
       -1   -1    0    0    0  501  0.00000000000E+00  0.00000000000E+00  0.77489490178E+03  0.77489490179E+03  0.50400001928E-02 0.  1.
        1   -1    0    0  501    0  0.00000000000E+00  0.00000000000E+00 -0.17011715621E+04  0.17011715621E+04  0.50400001928E-02 0. -1.
    10030    2    1    2    0    0  0.00000000000E+00  0.00000000000E+00 -0.92627666030E+03  0.24760664639E+04  0.22962832321E+04 0.  0.
        2    1    3    3  502    0  0.86596398020E+03 -0.57789117491E+03  0.58890705121E+02  0.10427463451E+04  0.25500000920E-02 0. -1.
       -2    1    3    3    0  502 -0.86596398020E+03  0.57789117491E+03 -0.98516736542E+03  0.14333201188E+04  0.25500000920E-02 0.  1.
</event>
<event>
 5   0  0.2910126E-05  0.2143623E+04  0.7818609E-02  0.8542267E-01
        2   -1    0    0  501    0  0.00000000000E+00  0.00000000000E+00  0.14114005033E+04  0.14114005033E+04  0.25500000920E-02 0. -1.
       -2   -1    0    0    0  501  0.00000000000E+00  0.00000000000E+00 -0.81392917318E+03  0.81392917319E+03  0.25500000920E-02 0.  1.
    10030    2    1    2    0    0  0.00000000000E+00  0.00000000000E+00  0.59747133013E+03  0.22253296765E+04  0.21436231429E+04 0.  0.
        5    1    3    3  502    0 -0.53297132806E+03 -0.13341447739E+03 -0.65661324706E+03  0.85616640061E+03  0.46999998093E+01 0.  1.
       -5    1    3    3    0  502  0.53297132806E+03  0.13341447739E+03  0.12540845772E+04  0.13691632759E+04  0.46999998093E+01 0. -1.
</event>
<event>
 5   0  0.2994157E-05  0.2310508E+04  0.7818609E-02  0.8473790E-01
        2   -1    0    0  501    0  0.00000000000E+00  0.00000000000E+00  0.26604142169E+04  0.26604142169E+04  0.25500000920E-02 0.  1.
       -2   -1    0    0    0  501  0.00000000000E+00  0.00000000000E+00 -0.50165553005E+03  0.50165553005E+03  0.25500000920E-02 0. -1.
    10030    2    1    2    0    0  0.00000000000E+00  0.00000000000E+00  0.21587586868E+04  0.31620697469E+04  0.23105077400E+04 0.  0.
        4    1    3    3  502    0 -0.58996935899E+03 -0.81753618718E+03  0.30740852156E+03  0.10540070559E+04  0.12699999809E+01 0. -1.
       -4    1    3    3    0  502  0.58996935899E+03  0.81753618718E+03  0.18513501653E+04  0.21080626910E+04  0.12699999809E+01 0.  1.
</event>
<event>
 5   0  0.1303224E-05  0.2295888E+04  0.7818609E-02  0.8479544E-01
        1   -1    0    0  501    0  0.00000000000E+00  0.00000000000E+00  0.17234399099E+04  0.17234399099E+04  0.50400001928E-02 0. -1.
       -1   -1    0    0    0  501  0.00000000000E+00  0.00000000000E+00 -0.76461918334E+03  0.76461918336E+03  0.50400001928E-02 0.  1.
    10030    2    1    2    0    0  0.00000000000E+00  0.00000000000E+00  0.95882072655E+03  0.24880590933E+04  0.22958878165E+04 0.  0.
        2    1    3    3  502    0  0.90683126369E+03  0.25983545894E+03 -0.22949817748E+03  0.97083820485E+03  0.25500000920E-02 0.  1.
       -2    1    3    3    0  502 -0.90683126369E+03 -0.25983545894E+03  0.11883189040E+04  0.15172208884E+04  0.25500000920E-02 0. -1.
</event>
<event>
 5   0  0.1371753E-05  0.2294855E+04  0.7818609E-02  0.8479952E-01
       -1   -1    0    0    0  501  0.00000000000E+00  0.00000000000E+00  0.12236998187E+04  0.12236998187E+04  0.50400001928E-02 0. -1.
        1   -1    0    0  501    0  0.00000000000E+00  0.00000000000E+00 -0.10759095029E+04  0.10759095029E+04  0.50400001928E-02 0.  1.
    10030    2    1    2    0    0  0.00000000000E+00  0.00000000000E+00  0.14779031585E+03  0.22996093216E+04  0.22948553450E+04 0.  0.
        3    1    3    3  502    0  0.23642581766E+03 -0.11027937670E+04 -0.13758466830E+03  0.11362133651E+04  0.10100000352E+00 0.  1.
       -3    1    3    3    0  502 -0.23642581766E+03  0.11027937670E+04  0.28537498415E+03  0.11633959565E+04  0.10100000352E+00 0. -1.
</event>
<event>
 5   0  0.1303224E-05  0.2307762E+04  0.7818609E-02  0.8474867E-01
        1   -1    0    0  501    0  0.00000000000E+00  0.00000000000E+00  0.10605279265E+04  0.10605279266E+04  0.50400001928E-02 0. -1.
       -1   -1    0    0    0  501  0.00000000000E+00  0.00000000000E+00 -0.12554517706E+04  0.12554517706E+04  0.50400001928E-02 0.  1.
    10030    2    1    2    0    0  0.00000000000E+00  0.00000000000E+00 -0.19492384406E+03  0.23159796972E+04  0.23077622609E+04 0.  0.
        2    1    3    3  502    0 -0.31031491190E+03 -0.88224530746E+02  0.10143469882E+04  0.10644147335E+04  0.25500000920E-02 0. -1.
       -2    1    3    3    0  502  0.31031491190E+03  0.88224530746E+02 -0.12092708323E+04  0.12515649636E+04  0.25500000920E-02 0.  1.
</event>
<event>
 5   0  0.2871888E-05  0.2299139E+04  0.7818609E-02  0.8478261E-01
       -2   -1    0    0    0  501  0.00000000000E+00  0.00000000000E+00  0.91006392136E+03  0.91006392136E+03  0.25500000920E-02 0.  1.
        2   -1    0    0  501    0  0.00000000000E+00  0.00000000000E+00 -0.14521065293E+04  0.14521065293E+04  0.25500000920E-02 0. -1.
    10030    2    1    2    0    0  0.00000000000E+00  0.00000000000E+00 -0.54204260797E+03  0.23621704507E+04  0.22991387625E+04 0.  0.
        3    1    3    3  502    0 -0.15095753668E+03 -0.53812045289E+03  0.76108271837E+03  0.94425034503E+03  0.10100000352E+00 0.  1.
       -3    1    3    3    0  502  0.15095753668E+03  0.53812045289E+03 -0.13031253263E+04  0.14179201057E+04  0.10100000352E+00 0. -1.
</event>
<event>
 5   0  0.1017200E-05  0.2299213E+04  0.7818609E-02  0.8478231E-01
       -3   -1    0    0    0  501  0.00000000000E+00  0.00000000000E+00  0.19636358563E+04  0.19636358589E+04  0.10100000352E+00 0.  1.
        3   -1    0    0  501    0  0.00000000000E+00  0.00000000000E+00 -0.67303474029E+03  0.67303474787E+03  0.10100000352E+00 0. -1.
    10030    2    1    2    0    0  0.00000000000E+00  0.00000000000E+00  0.12906011160E+04  0.26366706068E+04  0.22992130497E+04 0.  0.
        4    1    3    3  502    0 -0.11367449646E+04  0.71311232680E+01  0.84177551941E+03  0.14145061348E+04  0.12699999809E+01 0.  1.
       -4    1    3    3    0  502  0.11367449646E+04 -0.71311232680E+01  0.44882559662E+03  0.12221644720E+04  0.12699999809E+01 0. -1.
</event>
<event>
 5   0  0.1284837E-05  0.2259959E+04  0.7818609E-02  0.8493878E-01
       -1   -1    0    0    0  501  0.00000000000E+00  0.00000000000E+00  0.78412446427E+03  0.78412446429E+03  0.50400001928E-02 0.  1.
        1   -1    0    0  501    0  0.00000000000E+00  0.00000000000E+00 -0.16283810958E+04  0.16283810958E+04  0.50400001928E-02 0. -1.
    10030    2    1    2    0    0  0.00000000000E+00  0.00000000000E+00 -0.84425663151E+03  0.24125055601E+04  0.22599588088E+04 0.  0.
        4    1    3    3  502    0  0.61407445320E+02 -0.98894184175E+02 -0.16219624234E+04  0.16261348805E+04  0.12699999809E+01 0. -1.
       -4    1    3    3    0  502 -0.61407445320E+02  0.98894184175E+02  0.77770579187E+03  0.78637067952E+03  0.12699999809E+01 0.  1.
</event>
<event>
 5   0  0.1371753E-05  0.2304844E+04  0.7818609E-02  0.8476014E-01
       -1   -1    0    0    0  501  0.00000000000E+00  0.00000000000E+00  0.10046220912E+04  0.10046220912E+04  0.50400001928E-02 0.  1.
        1   -1    0    0  501    0  0.00000000000E+00  0.00000000000E+00 -0.13219660981E+04  0.13219660981E+04  0.50400001928E-02 0. -1.
    10030    2    1    2    0    0  0.00000000000E+00  0.00000000000E+00 -0.31734400688E+03  0.23265881894E+04  0.23048438958E+04 0.  0.
        3    1    3    3  502    0  0.71385815989E+03  0.74909691084E+03 -0.67074143472E+03  0.12331397880E+04  0.10100000352E+00 0. -1.
       -3    1    3    3    0  502 -0.71385815989E+03 -0.74909691084E+03  0.35339742784E+03  0.10934484014E+04  0.10100000352E+00 0.  1.
</event>
<event>
 5   0  0.2816178E-05  0.2293036E+04  0.7818609E-02  0.8480672E-01
       -2   -1    0    0    0  501  0.00000000000E+00  0.00000000000E+00  0.54387544045E+03  0.54387544046E+03  0.25500000920E-02 0. -1.
        2   -1    0    0  501    0  0.00000000000E+00  0.00000000000E+00 -0.24169193700E+04  0.24169193700E+04  0.25500000920E-02 0.  1.
    10030    2    1    2    0    0  0.00000000000E+00  0.00000000000E+00 -0.18730439295E+04  0.29607948104E+04  0.22930356185E+04 0.  0.
        1    1    3    3  502    0 -0.38756197542E+03  0.71800630117E+03 -0.19765414316E+04  0.21383295733E+04  0.50400001928E-02 0.  1.
       -1    1    3    3    0  502  0.38756197542E+03 -0.71800630117E+03  0.10349750205E+03  0.82246523712E+03  0.50400001928E-02 0. -1.
</event>
<event>
 5   0  0.1327820E-05  0.2298190E+04  0.7818609E-02  0.8478635E-01
       -1   -1    0    0    0  501  0.00000000000E+00  0.00000000000E+00  0.99582777682E+03  0.99582777683E+03  0.50400001928E-02 0. -1.
        1   -1    0    0  501    0  0.00000000000E+00  0.00000000000E+00 -0.13259513176E+04  0.13259513176E+04  0.50400001928E-02 0.  1.
    10030    2    1    2    0    0  0.00000000000E+00  0.00000000000E+00 -0.33012354078E+03  0.23217790944E+04  0.22981898553E+04 0.  0.
        1    1    3    3  502    0  0.28292549475E+03 -0.30064608788E+03 -0.12484420819E+04  0.13149306209E+04  0.50400001928E-02 0.  1.
       -1    1    3    3    0  502 -0.28292549475E+03  0.30064608788E+03  0.91831854114E+03  0.10068484736E+04  0.50400001928E-02 0. -1.
</event>
<event>
 5   0  0.2871888E-05  0.2284515E+04  0.7818609E-02  0.8484052E-01
       -2   -1    0    0    0  501  0.00000000000E+00  0.00000000000E+00  0.90172635763E+03  0.90172635764E+03  0.25500000920E-02 0.  1.
        2   -1    0    0  501    0  0.00000000000E+00  0.00000000000E+00 -0.14469490661E+04  0.14469490661E+04  0.25500000920E-02 0. -1.
    10030    2    1    2    0    0  0.00000000000E+00  0.00000000000E+00 -0.54522270850E+03  0.23486754238E+04  0.22845149254E+04 0.  0.
        3    1    3    3  502    0 -0.48241263729E+02 -0.50838129146E+03  0.77783458985E+03  0.93048665568E+03  0.10100000352E+00 0.  1.
       -3    1    3    3    0  502  0.48241263729E+02  0.50838129146E+03 -0.13230572983E+04  0.14181887681E+04  0.10100000352E+00 0. -1.
</event>
<event>
 5   0  0.2871888E-05  0.2366731E+04  0.7818609E-02  0.8452065E-01
       -2   -1    0    0    0  501  0.00000000000E+00  0.00000000000E+00  0.15734320331E+04  0.15734320331E+04  0.25500000920E-02 0. -1.
        2   -1    0    0  501    0  0.00000000000E+00  0.00000000000E+00 -0.88999928537E+03  0.88999928538E+03  0.25500000920E-02 0.  1.
    10030    2    1    2    0    0  0.00000000000E+00  0.00000000000E+00  0.68343274774E+03  0.24634313185E+04  0.23667305593E+04 0.  0.
        3    1    3    3  502    0  0.67658982728E+03 -0.37035228606E+03  0.12758360323E+04  0.14908696125E+04  0.10100000352E+00 0. -1.
       -3    1    3    3    0  502 -0.67658982728E+03  0.37035228606E+03 -0.59240328452E+03  0.97256170595E+03  0.10100000352E+00 0.  1.
</event>
<event>
 5   0  0.2994157E-05  0.2303114E+04  0.7818609E-02  0.8476694E-01
        2   -1    0    0  501    0  0.00000000000E+00  0.00000000000E+00  0.15551420971E+04  0.15551420971E+04  0.25500000920E-02 0. -1.
       -2   -1    0    0    0  501  0.00000000000E+00  0.00000000000E+00 -0.85270893182E+03  0.85270893182E+03  0.25500000920E-02 0.  1.
    10030    2    1    2    0    0  0.00000000000E+00  0.00000000000E+00  0.70243316526E+03  0.24078510289E+04  0.23031140279E+04 0.  0.
        4    1    3    3  502    0 -0.16602938330E+02  0.11512813044E+04  0.33144507959E+03  0.11981576495E+04  0.12699999809E+01 0.  1.
       -4    1    3    3    0  502  0.16602938330E+02 -0.11512813044E+04  0.37098808566E+03  0.12096933794E+04  0.12699999809E+01 0. -1.
</event>
<event>
 5   0  0.1308224E-05  0.2293185E+04  0.7818609E-02  0.8480613E-01
       -1   -1    0    0    0  501  0.00000000000E+00  0.00000000000E+00  0.50170013364E+03  0.50170013366E+03  0.50400001928E-02 0. -1.
        1   -1    0    0  501    0  0.00000000000E+00  0.00000000000E+00 -0.26204391480E+04  0.26204391480E+04  0.50400001928E-02 0.  1.
    10030    2    1    2    0    0  0.00000000000E+00  0.00000000000E+00 -0.21187390144E+04  0.31221392817E+04  0.22931852701E+04 0.  0.
        5    1    3    3  502    0  0.27897611210E+03  0.18058406154E+03 -0.25534191264E+04  0.25749581743E+04  0.46999998093E+01 0.  1.
       -5    1    3    3    0  502 -0.27897611210E+03 -0.18058406154E+03  0.43468011206E+03  0.54718110733E+03  0.46999998093E+01 0. -1.
</event>
<event>
 5   0  0.2994157E-05  0.2288272E+04  0.7818609E-02  0.8482560E-01
        2   -1    0    0  501    0  0.00000000000E+00  0.00000000000E+00  0.11593853859E+04  0.11593853859E+04  0.25500000920E-02 0. -1.
       -2   -1    0    0    0  501  0.00000000000E+00  0.00000000000E+00 -0.11290871002E+04  0.11290871002E+04  0.25500000920E-02 0.  1.
    10030    2    1    2    0    0  0.00000000000E+00  0.00000000000E+00  0.30298285762E+02  0.22884724861E+04  0.22882719099E+04 0.  0.
        4    1    3    3  502    0 -0.11407653027E+04 -0.87504994659E+02  0.86010158954E+01  0.11441495490E+04  0.12699999809E+01 0.  1.
       -4    1    3    3    0  502  0.11407653027E+04  0.87504994659E+02  0.21697269867E+02  0.11443229371E+04  0.12699999809E+01 0. -1.
</event>
<event>
 5   0  0.1308224E-05  0.2299281E+04  0.7818609E-02  0.8478205E-01
       -1   -1    0    0    0  501  0.00000000000E+00  0.00000000000E+00  0.93894852243E+03  0.93894852244E+03  0.50400001928E-02 0.  1.
        1   -1    0    0  501    0  0.00000000000E+00  0.00000000000E+00 -0.14076100933E+04  0.14076100933E+04  0.50400001928E-02 0. -1.
    10030    2    1    2    0    0  0.00000000000E+00  0.00000000000E+00 -0.46866157091E+03  0.23465586158E+04  0.22992811201E+04 0.  0.
        5    1    3    3  502    0  0.17967404029E+03 -0.11327279338E+04 -0.31530961640E+03  0.11894526376E+04  0.46999998093E+01 0.  1.
       -5    1    3    3    0  502 -0.17967404029E+03  0.11327279338E+04 -0.15335195451E+03  0.11571059782E+04  0.46999998093E+01 0. -1.
</event>
<event>
 5   0  0.2816178E-05  0.2302966E+04  0.7818609E-02  0.8476753E-01
       -2   -1    0    0    0  501  0.00000000000E+00  0.00000000000E+00  0.11652921440E+04  0.11652921440E+04  0.25500000920E-02 0.  1.
        2   -1    0    0  501    0  0.00000000000E+00  0.00000000000E+00 -0.11378373764E+04  0.11378373764E+04  0.25500000920E-02 0. -1.
    10030    2    1    2    0    0  0.00000000000E+00  0.00000000000E+00  0.27454767609E+02  0.23031295204E+04  0.23029658754E+04 0.  0.
        1    1    3    3  502    0  0.49237823479E+03 -0.10408986255E+04  0.16312380963E+02  0.11515955750E+04  0.50400001928E-02 0.  1.
       -1    1    3    3    0  502 -0.49237823479E+03  0.10408986255E+04  0.11142386646E+02  0.11515339454E+04  0.50400001928E-02 0. -1.
</event>
<event>
 5   0  0.1303224E-05  0.2304110E+04  0.7818609E-02  0.8476303E-01
       -1   -1    0    0    0  501  0.00000000000E+00  0.00000000000E+00  0.59317855676E+03  0.59317855679E+03  0.50400001928E-02 0.  1.
        1   -1    0    0  501    0  0.00000000000E+00  0.00000000000E+00 -0.22374886411E+04  0.22374886411E+04  0.50400001928E-02 0. -1.
    10030    2    1    2    0    0  0.00000000000E+00  0.00000000000E+00 -0.16443100844E+04  0.28306671979E+04  0.23041096180E+04 0.  0.
        2    1    3    3  502    0  0.77185509713E+03 -0.74092532609E+03 -0.13469826799E+04  0.17202014329E+04  0.25500000920E-02 0. -1.
       -2    1    3    3    0  502 -0.77185509713E+03  0.74092532609E+03 -0.29732740446E+03  0.11104657650E+04  0.25500000920E-02 0.  1.
</event>
<event>
 5   0  0.2910126E-05  0.2302324E+04  0.7818609E-02  0.8477005E-01
       -2   -1    0    0    0  501  0.00000000000E+00  0.00000000000E+00  0.82007134077E+03  0.82007134077E+03  0.25500000920E-02 0.  1.
        2   -1    0    0  501    0  0.00000000000E+00  0.00000000000E+00 -0.16159249538E+04  0.16159249538E+04  0.25500000920E-02 0. -1.
    10030    2    1    2    0    0  0.00000000000E+00  0.00000000000E+00 -0.79585361300E+03  0.24359962945E+04  0.23023238203E+04 0.  0.
        5    1    3    3  502    0  0.85405012169E+03 -0.17140792576E+03  0.39834271745E+03  0.95785244057E+03  0.46999998093E+01 0.  1.
       -5    1    3    3    0  502 -0.85405012169E+03  0.17140792576E+03 -0.11941963305E+04  0.14781438540E+04  0.46999998093E+01 0. -1.
</event>
<event>
 5   0  0.1371753E-05  0.2295465E+04  0.7818609E-02  0.8479712E-01
        1   -1    0    0  501    0  0.00000000000E+00  0.00000000000E+00  0.11507887661E+04  0.11507887661E+04  0.50400001928E-02 0.  1.
       -1   -1    0    0    0  501  0.00000000000E+00  0.00000000000E+00 -0.11446838661E+04  0.11446838661E+04  0.50400001928E-02 0. -1.
    10030    2    1    2    0    0  0.00000000000E+00  0.00000000000E+00  0.61049000422E+01  0.22954726322E+04  0.22954645140E+04 0.  0.
        3    1    3    3  502    0  0.11148577212E+04 -0.25661122769E+03 -0.89318126060E+02  0.11474906529E+04  0.10100000352E+00 0. -1.
       -3    1    3    3    0  502 -0.11148577212E+04  0.25661122769E+03  0.95423026102E+02  0.11479819793E+04  0.10100000352E+00 0.  1.
</event>
<event>
 5   0  0.1371753E-05  0.2295692E+04  0.7818609E-02  0.8479622E-01
       -1   -1    0    0    0  501  0.00000000000E+00  0.00000000000E+00  0.12692610584E+04  0.12692610584E+04  0.50400001928E-02 0. -1.
        1   -1    0    0  501    0  0.00000000000E+00  0.00000000000E+00 -0.10380449657E+04  0.10380449658E+04  0.50400001928E-02 0.  1.
    10030    2    1    2    0    0  0.00000000000E+00  0.00000000000E+00  0.23121609263E+03  0.23073060241E+04  0.22956916621E+04 0.  0.
        3    1    3    3  502    0 -0.64408404607E+03  0.76356006851E+03  0.68387264622E+03  0.12105990431E+04  0.10100000352E+00 0. -1.
       -3    1    3    3    0  502  0.64408404607E+03 -0.76356006851E+03 -0.45265655359E+03  0.10967069811E+04  0.10100000352E+00 0.  1.
</event>
<event>
 5   0  0.1371753E-05  0.2315137E+04  0.7818609E-02  0.8471976E-01
        1   -1    0    0  501    0  0.00000000000E+00  0.00000000000E+00  0.10707586766E+04  0.10707586766E+04  0.50400001928E-02 0.  1.
       -1   -1    0    0    0  501  0.00000000000E+00  0.00000000000E+00 -0.12514167051E+04  0.12514167051E+04  0.50400001928E-02 0. -1.
    10030    2    1    2    0    0  0.00000000000E+00  0.00000000000E+00 -0.18065802849E+03  0.23221753818E+04  0.23151373999E+04 0.  0.
        3    1    3    3  502    0  0.54630029970E+03  0.85936555719E+03 -0.64246777494E+03  0.12040423707E+04  0.10100000352E+00 0. -1.
       -3    1    3    3    0  502 -0.54630029970E+03 -0.85936555719E+03  0.46180974645E+03  0.11181330111E+04  0.10100000352E+00 0.  1.
</event>
<event>
 5   0  0.1303224E-05  0.2306782E+04  0.7818609E-02  0.8475252E-01
        1   -1    0    0  501    0  0.00000000000E+00  0.00000000000E+00  0.14043013744E+04  0.14043013744E+04  0.50400001928E-02 0. -1.
       -1   -1    0    0    0  501  0.00000000000E+00  0.00000000000E+00 -0.94731164338E+03  0.94731164339E+03  0.50400001928E-02 0.  1.
    10030    2    1    2    0    0  0.00000000000E+00  0.00000000000E+00  0.45698973105E+03  0.23516130178E+04  0.23067822115E+04 0.  0.
        2    1    3    3  502    0 -0.67988606098E+03 -0.42058793308E+03  0.10760193627E+04  0.13405062232E+04  0.25500000920E-02 0. -1.
       -2    1    3    3    0  502  0.67988606098E+03  0.42058793308E+03 -0.61902963166E+03  0.10111067947E+04  0.25500000920E-02 0.  1.
</event>
<event>
 5   0  0.1308224E-05  0.2336573E+04  0.7818609E-02  0.8463639E-01
       -1   -1    0    0    0  501  0.00000000000E+00  0.00000000000E+00  0.91698783577E+03  0.91698783578E+03  0.50400001928E-02 0.  1.
        1   -1    0    0  501    0  0.00000000000E+00  0.00000000000E+00 -0.14884530192E+04  0.14884530192E+04  0.50400001928E-02 0. -1.
    10030    2    1    2    0    0  0.00000000000E+00  0.00000000000E+00 -0.57146518339E+03  0.24054408550E+04  0.23365729714E+04 0.  0.
        5    1    3    3  502    0 -0.95491777873E+03 -0.58574426304E+03  0.55560774533E+02  0.11216387099E+04  0.46999998093E+01 0. -1.
       -5    1    3    3    0  502  0.95491777873E+03  0.58574426304E+03 -0.62702595792E+03  0.12838021451E+04  0.46999998093E+01 0.  1.
</event>
<event>
 5   0  0.2910126E-05  0.2300938E+04  0.7818609E-02  0.8477551E-01
        2   -1    0    0  501    0  0.00000000000E+00  0.00000000000E+00  0.22706519928E+04  0.22706519929E+04  0.25500000920E-02 0.  1.
       -2   -1    0    0    0  501  0.00000000000E+00  0.00000000000E+00 -0.58290723726E+03  0.58290723727E+03  0.25500000920E-02 0. -1.
    10030    2    1    2    0    0  0.00000000000E+00  0.00000000000E+00  0.16877447556E+04  0.28535592301E+04  0.23009384867E+04 0.  0.
        5    1    3    3  502    0  0.16114909358E+03  0.89949396161E+03 -0.22917259120E+02  0.91411471276E+03  0.46999998093E+01 0. -1.
       -5    1    3    3    0  502 -0.16114909358E+03 -0.89949396161E+03  0.17106620147E+04  0.19394445174E+04  0.46999998093E+01 0.  1.
</event>
<event>
 5   0  0.1017200E-05  0.2340651E+04  0.7818609E-02  0.8462063E-01
        3   -1    0    0  501    0  0.00000000000E+00  0.00000000000E+00  0.20275922517E+04  0.20275922542E+04  0.10100000352E+00 0. -1.
       -3   -1    0    0    0  501  0.00000000000E+00  0.00000000000E+00 -0.67551147729E+03  0.67551148484E+03  0.10100000352E+00 0.  1.
    10030    2    1    2    0    0  0.00000000000E+00  0.00000000000E+00  0.13520807744E+04  0.27031037391E+04  0.23406510640E+04 0.  0.
        4    1    3    3  502    0  0.67505583469E+03  0.47995334926E+02  0.17787003556E+04  0.19030976066E+04  0.12699999809E+01 0. -1.
       -4    1    3    3    0  502 -0.67505583469E+03 -0.47995334926E+02 -0.42661958117E+03  0.80000613252E+03  0.12699999809E+01 0.  1.
</event>
<event>
 5   0  0.2816178E-05  0.2318688E+04  0.7818609E-02  0.8470589E-01
        2   -1    0    0  501    0  0.00000000000E+00  0.00000000000E+00  0.27142281951E+04  0.27142281951E+04  0.25500000920E-02 0. -1.
       -2   -1    0    0    0  501  0.00000000000E+00  0.00000000000E+00 -0.49519742674E+03  0.49519742674E+03  0.25500000920E-02 0.  1.
    10030    2    1    2    0    0  0.00000000000E+00  0.00000000000E+00  0.22190307684E+04  0.32094256218E+04  0.23186882652E+04 0.  0.
        1    1    3    3  502    0 -0.86980299458E+03 -0.20885316930E+03  0.88704603124E+02  0.89891345654E+03  0.50400001928E-02 0.  1.
       -1    1    3    3    0  502  0.86980299458E+03  0.20885316930E+03  0.21303261652E+04  0.23105121653E+04  0.50400001928E-02 0. -1.
</event>
<event>
 5   0  0.1327820E-05  0.2277184E+04  0.7818609E-02  0.8486972E-01
       -1   -1    0    0    0  501  0.00000000000E+00  0.00000000000E+00  0.58470676637E+03  0.58470676639E+03  0.50400001928E-02 0. -1.
        1   -1    0    0  501    0  0.00000000000E+00  0.00000000000E+00 -0.22171664606E+04  0.22171664607E+04  0.50400001928E-02 0.  1.
    10030    2    1    2    0    0  0.00000000000E+00  0.00000000000E+00 -0.16324596943E+04  0.28018732270E+04  0.22771844297E+04 0.  0.
        1    1    3    3  502    0  0.61110796973E+03 -0.11685113205E+03  0.35704648939E+03  0.71734882263E+03  0.50400001928E-02 0. -1.
       -1    1    3    3    0  502 -0.61110796973E+03  0.11685113205E+03 -0.19895061837E+04  0.20845244044E+04  0.50400001928E-02 0.  1.
</event>
<event>
 5   0  0.2994157E-05  0.2053638E+04  0.7818609E-02  0.8581946E-01
       -2   -1    0    0    0  501  0.00000000000E+00  0.00000000000E+00  0.56629417416E+03  0.56629417417E+03  0.25500000920E-02 0.  1.
        2   -1    0    0  501    0  0.00000000000E+00  0.00000000000E+00 -0.18618549070E+04  0.18618549070E+04  0.25500000920E-02 0. -1.
    10030    2    1    2    0    0  0.00000000000E+00  0.00000000000E+00 -0.12955607328E+04  0.24281490811E+04  0.20536383196E+04 0.  0.
        4    1    3    3  502    0  0.73771048324E+02 -0.36412224951E+03  0.48403882857E+03  0.61018225198E+03  0.12699999809E+01 0.  1.
       -4    1    3    3    0  502 -0.73771048324E+02  0.36412224951E+03 -0.17795995614E+04  0.18179668292E+04  0.12699999809E+01 0. -1.
</event>
<event>
 5   0  0.2871888E-05  0.2301145E+04  0.7818609E-02  0.8477470E-01
        2   -1    0    0  501    0  0.00000000000E+00  0.00000000000E+00  0.16619671565E+04  0.16619671565E+04  0.25500000920E-02 0. -1.
       -2   -1    0    0    0  501  0.00000000000E+00  0.00000000000E+00 -0.79653592281E+03  0.79653592282E+03  0.25500000920E-02 0.  1.
    10030    2    1    2    0    0  0.00000000000E+00  0.00000000000E+00  0.86543123370E+03  0.24585030793E+04  0.23011445350E+04 0.  0.
        3    1    3    3  502    0 -0.57347010870E+03 -0.12583870470E+03  0.14898819135E+04  0.16013904806E+04  0.10100000352E+00 0.  1.
       -3    1    3    3    0  502  0.57347010870E+03  0.12583870470E+03 -0.62445067977E+03  0.85711259870E+03  0.10100000352E+00 0. -1.
</event>
<event>
 5   0  0.1371753E-05  0.2304157E+04  0.7818609E-02  0.8476284E-01
       -1   -1    0    0    0  501  0.00000000000E+00  0.00000000000E+00  0.42724661431E+03  0.42724661434E+03  0.50400001928E-02 0.  1.
        1   -1    0    0  501    0  0.00000000000E+00  0.00000000000E+00 -0.31066003862E+04  0.31066003862E+04  0.50400001928E-02 0. -1.
    10030    2    1    2    0    0  0.00000000000E+00  0.00000000000E+00 -0.26793537718E+04  0.35338470005E+04  0.23041566761E+04 0.  0.
        3    1    3    3  502    0 -0.67974285625E+03  0.71612652769E+03 -0.42923590973E+03  0.10766294770E+04  0.10100000352E+00 0.  1.
       -3    1    3    3    0  502  0.67974285625E+03 -0.71612652769E+03 -0.22501178621E+04  0.24572175235E+04  0.10100000352E+00 0. -1.
</event>
<event>
 5   0  0.1308224E-05  0.2351539E+04  0.7818609E-02  0.8457873E-01
       -1   -1    0    0    0  501  0.00000000000E+00  0.00000000000E+00  0.80509875956E+03  0.80509875958E+03  0.50400001928E-02 0.  1.
        1   -1    0    0  501    0  0.00000000000E+00  0.00000000000E+00 -0.17170986318E+04  0.17170986318E+04  0.50400001928E-02 0. -1.
    10030    2    1    2    0    0  0.00000000000E+00  0.00000000000E+00 -0.91199987219E+03  0.25221973913E+04  0.23515390522E+04 0.  0.
        5    1    3    3  502    0 -0.72029167966E+03  0.76287202015E+03 -0.10251897667E+04  0.14669117119E+04  0.46999998093E+01 0. -1.
       -5    1    3    3    0  502  0.72029167966E+03 -0.76287202015E+03  0.11318989449E+03  0.10552856794E+04  0.46999998093E+01 0.  1.
</event>
<event>
 5   0  0.1284837E-05  0.2299878E+04  0.7818609E-02  0.8477969E-01
        1   -1    0    0  501    0  0.00000000000E+00  0.00000000000E+00  0.15137581260E+04  0.15137581260E+04  0.50400001928E-02 0.  1.
       -1   -1    0    0    0  501  0.00000000000E+00  0.00000000000E+00 -0.87356082070E+03  0.87356082072E+03  0.50400001928E-02 0. -1.
    10030    2    1    2    0    0  0.00000000000E+00  0.00000000000E+00  0.64019730529E+03  0.23873189467E+04  0.22998780758E+04 0.  0.
        4    1    3    3  502    0 -0.17047172410E+03  0.33831712584E+03  0.14471219563E+04  0.14958885840E+04  0.12699999809E+01 0.  1.
       -4    1    3    3    0  502  0.17047172410E+03 -0.33831712584E+03 -0.80692465100E+03  0.89143036276E+03  0.12699999809E+01 0. -1.
</event>
<event>
 5   0  0.2871888E-05  0.2298999E+04  0.7818609E-02  0.8478316E-01
       -2   -1    0    0    0  501  0.00000000000E+00  0.00000000000E+00  0.91713450206E+03  0.91713450206E+03  0.25500000920E-02 0.  1.
        2   -1    0    0  501    0  0.00000000000E+00  0.00000000000E+00 -0.14407369486E+04  0.14407369486E+04  0.25500000920E-02 0. -1.
    10030    2    1    2    0    0  0.00000000000E+00  0.00000000000E+00 -0.52360244654E+03  0.23578714507E+04  0.22989994032E+04 0.  0.
        3    1    3    3  502    0 -0.51779020181E+03  0.22118049933E+03 -0.12896228789E+04  0.14071796923E+04  0.10100000352E+00 0. -1.
       -3    1    3    3    0  502  0.51779020181E+03 -0.22118049933E+03  0.76602043238E+03  0.95069175836E+03  0.10100000352E+00 0.  1.
</event>
<event>
 5   0  0.2938972E-05  0.2289061E+04  0.7818609E-02  0.8482247E-01
        2   -1    0    0  501    0  0.00000000000E+00  0.00000000000E+00  0.96846391043E+03  0.96846391043E+03  0.25500000920E-02 0.  1.
       -2   -1    0    0    0  501  0.00000000000E+00  0.00000000000E+00 -0.13526056212E+04  0.13526056212E+04  0.25500000920E-02 0. -1.
    10030    2    1    2    0    0  0.00000000000E+00  0.00000000000E+00 -0.38414171080E+03  0.23210695317E+04  0.22890607062E+04 0.  0.
        2    1    3    3  502    0 -0.64781888845E+03 -0.56877451633E+03  0.57130171967E+03  0.10341950578E+04  0.25500000920E-02 0.  1.
       -2    1    3    3    0  502  0.64781888845E+03  0.56877451633E+03 -0.95544343047E+03  0.12868744739E+04  0.25500000920E-02 0. -1.
</event>
<event>
 5   0  0.2871888E-05  0.2312480E+04  0.7818609E-02  0.8473017E-01
        2   -1    0    0  501    0  0.00000000000E+00  0.00000000000E+00  0.11653931360E+04  0.11653931360E+04  0.25500000920E-02 0.  1.
       -2   -1    0    0    0  501  0.00000000000E+00  0.00000000000E+00 -0.11471588679E+04  0.11471588679E+04  0.25500000920E-02 0. -1.
    10030    2    1    2    0    0  0.00000000000E+00  0.00000000000E+00  0.18234268095E+02  0.23125520039E+04  0.23124801150E+04 0.  0.
        3    1    3    3  502    0 -0.22378624225E+03 -0.86870353118E+03 -0.72040191353E+03  0.11505238088E+04  0.10100000352E+00 0. -1.
       -3    1    3    3    0  502  0.22378624225E+03  0.86870353118E+03  0.73863618162E+03  0.11620281951E+04  0.10100000352E+00 0.  1.
</event>
<event>
 5   0  0.2938972E-05  0.2307750E+04  0.7818609E-02  0.8474872E-01
        2   -1    0    0  501    0  0.00000000000E+00  0.00000000000E+00  0.11283721740E+04  0.11283721740E+04  0.25500000920E-02 0. -1.
       -2   -1    0    0    0  501  0.00000000000E+00  0.00000000000E+00 -0.11799544048E+04  0.11799544048E+04  0.25500000920E-02 0.  1.
    10030    2    1    2    0    0  0.00000000000E+00  0.00000000000E+00 -0.51582230774E+02  0.23083265787E+04  0.23077501744E+04 0.  0.
        2    1    3    3  502    0  0.71676077320E+03 -0.99670182298E+02  0.87318114032E+03  0.11340747132E+04  0.25500000920E-02 0. -1.
       -2    1    3    3    0  502 -0.71676077320E+03  0.99670182298E+02 -0.92476337109E+03  0.11742518656E+04  0.25500000920E-02 0.  1.
</event>
<event>
 5   0  0.2871888E-05  0.2309465E+04  0.7818609E-02  0.8474199E-01
       -2   -1    0    0    0  501  0.00000000000E+00  0.00000000000E+00  0.97430185810E+03  0.97430185811E+03  0.25500000920E-02 0. -1.
        2   -1    0    0  501    0  0.00000000000E+00  0.00000000000E+00 -0.13685770798E+04  0.13685770798E+04  0.25500000920E-02 0.  1.
    10030    2    1    2    0    0  0.00000000000E+00  0.00000000000E+00 -0.39427522174E+03  0.23428789380E+04  0.23094650392E+04 0.  0.
        3    1    3    3  502    0  0.14297644055E+02 -0.23408023277E+03 -0.13441639751E+04  0.13644686805E+04  0.10100000352E+00 0.  1.
       -3    1    3    3    0  502 -0.14297644055E+02  0.23408023277E+03  0.94988875332E+03  0.97841025745E+03  0.10100000352E+00 0. -1.
</event>
<event>
 5   0  0.2910126E-05  0.2283266E+04  0.7818609E-02  0.8484548E-01
       -2   -1    0    0    0  501  0.00000000000E+00  0.00000000000E+00  0.11600542866E+04  0.11600542866E+04  0.25500000920E-02 0. -1.
        2   -1    0    0  501    0  0.00000000000E+00  0.00000000000E+00 -0.11235047100E+04  0.11235047100E+04  0.25500000920E-02 0.  1.
    10030    2    1    2    0    0  0.00000000000E+00  0.00000000000E+00  0.36549576623E+02  0.22835589967E+04  0.22832664802E+04 0.  0.
        5    1    3    3  502    0 -0.82135018078E+03  0.19697867922E+03 -0.74986504257E+03  0.11294850117E+04  0.46999998093E+01 0.  1.
       -5    1    3    3    0  502  0.82135018078E+03 -0.19697867922E+03  0.78641461919E+03  0.11540739850E+04  0.46999998093E+01 0. -1.
</event>
<event>
 5   0  0.2994157E-05  0.2290959E+04  0.7818609E-02  0.8481495E-01
        2   -1    0    0  501    0  0.00000000000E+00  0.00000000000E+00  0.14185099369E+04  0.14185099369E+04  0.25500000920E-02 0. -1.
       -2   -1    0    0    0  501  0.00000000000E+00  0.00000000000E+00 -0.92500077939E+03  0.92500077940E+03  0.25500000920E-02 0.  1.
    10030    2    1    2    0    0  0.00000000000E+00  0.00000000000E+00  0.49350915752E+03  0.23435107163E+04  0.22909585742E+04 0.  0.
        4    1    3    3  502    0  0.95286275353E+02 -0.85038873026E+03 -0.53221238835E+03  0.10077162825E+04  0.12699999809E+01 0.  1.
       -4    1    3    3    0  502 -0.95286275353E+02  0.85038873026E+03  0.10257215459E+04  0.13357944338E+04  0.12699999809E+01 0. -1.
</event>
<event>
 5   0  0.2994157E-05  0.2276752E+04  0.7818609E-02  0.8487144E-01
       -2   -1    0    0    0  501  0.00000000000E+00  0.00000000000E+00  0.10549947745E+04  0.10549947746E+04  0.25500000920E-02 0. -1.
        2   -1    0    0  501    0  0.00000000000E+00  0.00000000000E+00 -0.12283475447E+04  0.12283475447E+04  0.25500000920E-02 0.  1.
    10030    2    1    2    0    0  0.00000000000E+00  0.00000000000E+00 -0.17335277018E+03  0.22833423193E+04  0.22767522843E+04 0.  0.
        4    1    3    3  502    0 -0.10109480328E+04  0.29236210863E+03 -0.52199163151E+03  0.11747205641E+04  0.12699999809E+01 0.  1.
       -4    1    3    3    0  502  0.10109480328E+04 -0.29236210863E+03  0.34863886133E+03  0.11086217552E+04  0.12699999809E+01 0. -1.
</event>
<event>
 5   0  0.1327820E-05  0.2291195E+04  0.7818609E-02  0.8481401E-01
       -1   -1    0    0    0  501  0.00000000000E+00  0.00000000000E+00  0.69945375183E+03  0.69945375184E+03  0.50400001928E-02 0. -1.
        1   -1    0    0  501    0  0.00000000000E+00  0.00000000000E+00 -0.18763121300E+04  0.18763121300E+04  0.50400001928E-02 0.  1.
    10030    2    1    2    0    0  0.00000000000E+00  0.00000000000E+00 -0.11768583782E+04  0.25757658819E+04  0.22911949362E+04 0.  0.
        1    1    3    3  502    0 -0.10427372353E+04 -0.34002832761E+03 -0.96039117387E+03  0.14578310644E+04  0.50400001928E-02 0.  1.
       -1    1    3    3    0  502  0.10427372353E+04  0.34002832761E+03 -0.21646720431E+03  0.11179348174E+04  0.50400001928E-02 0. -1.
</event>
<event>
 5   0  0.2938972E-05  0.2297249E+04  0.7818609E-02  0.8479006E-01
        2   -1    0    0  501    0  0.00000000000E+00  0.00000000000E+00  0.14814798819E+04  0.14814798819E+04  0.25500000920E-02 0.  1.
       -2   -1    0    0    0  501  0.00000000000E+00  0.00000000000E+00 -0.89055461599E+03  0.89055461600E+03  0.25500000920E-02 0. -1.
    10030    2    1    2    0    0  0.00000000000E+00  0.00000000000E+00  0.59092526589E+03  0.23720344979E+04  0.22972494399E+04 0.  0.
        2    1    3    3  502    0 -0.20562503449E+03 -0.20117244309E+03 -0.85275745189E+03  0.89997070976E+03  0.25500000920E-02 0. -1.
       -2    1    3    3    0  502  0.20562503449E+03  0.20117244309E+03  0.14436827178E+04  0.14720637881E+04  0.25500000920E-02 0.  1.
</event>
<event>
 5   0  0.1308224E-05  0.2284617E+04  0.7818609E-02  0.8484011E-01
       -1   -1    0    0    0  501  0.00000000000E+00  0.00000000000E+00  0.69879657105E+03  0.69879657107E+03  0.50400001928E-02 0.  1.
        1   -1    0    0  501    0  0.00000000000E+00  0.00000000000E+00 -0.18673091714E+04  0.18673091714E+04  0.50400001928E-02 0. -1.
    10030    2    1    2    0    0  0.00000000000E+00  0.00000000000E+00 -0.11685126004E+04  0.25661057425E+04  0.22846174701E+04 0.  0.
        5    1    3    3  502    0 -0.11973244991E+03 -0.57673709567E+03  0.51504788574E+03  0.78246913784E+03  0.46999998093E+01 0.  1.
       -5    1    3    3    0  502  0.11973244991E+03  0.57673709567E+03 -0.16835604861E+04  0.17836366047E+04  0.46999998093E+01 0. -1.
</event>
<event>
 5   0  0.1284837E-05  0.2301490E+04  0.7818609E-02  0.8477334E-01
       -1   -1    0    0    0  501  0.00000000000E+00  0.00000000000E+00  0.15271470267E+04  0.15271470267E+04  0.50400001928E-02 0. -1.
        1   -1    0    0  501    0  0.00000000000E+00  0.00000000000E+00 -0.86711593258E+03  0.86711593259E+03  0.50400001928E-02 0.  1.
    10030    2    1    2    0    0  0.00000000000E+00  0.00000000000E+00  0.66003109415E+03  0.23942629593E+04  0.23014895336E+04 0.  0.
        4    1    3    3  502    0 -0.10677115139E+04  0.42917821573E+03  0.33331968654E+03  0.11980423382E+04  0.12699999809E+01 0.  1.
       -4    1    3    3    0  502  0.10677115139E+04 -0.42917821573E+03  0.32671140761E+03  0.11962206212E+04  0.12699999809E+01 0. -1.
</event>
<event>
 5   0  0.1308224E-05  0.2308985E+04  0.7818609E-02  0.8474387E-01
       -1   -1    0    0    0  501  0.00000000000E+00  0.00000000000E+00  0.17255893265E+04  0.17255893266E+04  0.50400001928E-02 0.  1.
        1   -1    0    0  501    0  0.00000000000E+00  0.00000000000E+00 -0.77240417837E+03  0.77240417838E+03  0.50400001928E-02 0. -1.
    10030    2    1    2    0    0  0.00000000000E+00  0.00000000000E+00  0.95318514818E+03  0.24979935049E+04  0.23089845439E+04 0.  0.
        5    1    3    3  502    0  0.24863472659E+02  0.12190569242E+03  0.17183050724E+04  0.17228097986E+04  0.46999998093E+01 0.  1.
       -5    1    3    3    0  502 -0.24863472659E+02 -0.12190569242E+03 -0.76511992426E+03  0.77518370636E+03  0.46999998093E+01 0. -1.
</event>
<event>
 5   0  0.2816178E-05  0.2343127E+04  0.7818609E-02  0.8461108E-01
        2   -1    0    0  501    0  0.00000000000E+00  0.00000000000E+00  0.17696312046E+04  0.17696312046E+04  0.25500000920E-02 0. -1.
       -2   -1    0    0    0  501  0.00000000000E+00  0.00000000000E+00 -0.77561979708E+03  0.77561979708E+03  0.25500000920E-02 0.  1.
    10030    2    1    2    0    0  0.00000000000E+00  0.00000000000E+00  0.99401140750E+03  0.25452510017E+04  0.23431269669E+04 0.  0.
        1    1    3    3  502    0 -0.60867538834E+02  0.94460780725E+03 -0.25288705580E+03  0.97976559943E+03  0.50400001928E-02 0.  1.
       -1    1    3    3    0  502  0.60867538834E+02 -0.94460780725E+03  0.12468984633E+04  0.15654854022E+04  0.50400001928E-02 0. -1.
</event>
<event>
 5   0  0.2871888E-05  0.2285014E+04  0.7818609E-02  0.8483853E-01
        2   -1    0    0  501    0  0.00000000000E+00  0.00000000000E+00  0.19683181052E+04  0.19683181052E+04  0.25500000920E-02 0.  1.
       -2   -1    0    0    0  501  0.00000000000E+00  0.00000000000E+00 -0.66316646934E+03  0.66316646935E+03  0.25500000920E-02 0. -1.
    10030    2    1    2    0    0  0.00000000000E+00  0.00000000000E+00  0.13051516358E+04  0.26314845745E+04  0.22850142830E+04 0.  0.
        3    1    3    3  502    0 -0.35543651657E+03 -0.55612887767E+03  0.17265619413E+04  0.18484129931E+04  0.10100000352E+00 0.  1.
       -3    1    3    3    0  502  0.35543651657E+03  0.55612887767E+03 -0.42141030544E+03  0.78307158141E+03  0.10100000352E+00 0. -1.
</event>
<event>
 5   0  0.2910126E-05  0.2288690E+04  0.7818609E-02  0.8482394E-01
       -2   -1    0    0    0  501  0.00000000000E+00  0.00000000000E+00  0.17326747672E+04  0.17326747672E+04  0.25500000920E-02 0. -1.
        2   -1    0    0  501    0  0.00000000000E+00  0.00000000000E+00 -0.75578253072E+03  0.75578253073E+03  0.25500000920E-02 0.  1.
    10030    2    1    2    0    0  0.00000000000E+00  0.00000000000E+00  0.97689223649E+03  0.24884572979E+04  0.22886898615E+04 0.  0.
        5    1    3    3  502    0  0.19251691468E+03  0.16467314954E+03  0.17017910773E+04  0.17205507750E+04  0.46999998093E+01 0. -1.
       -5    1    3    3    0  502 -0.19251691468E+03 -0.16467314954E+03 -0.72489884079E+03  0.76790652295E+03  0.46999998093E+01 0.  1.
</event>
<event>
 5   0  0.1308224E-05  0.2299751E+04  0.7818609E-02  0.8478019E-01
        1   -1    0    0  501    0  0.00000000000E+00  0.00000000000E+00  0.19428740776E+04  0.19428740776E+04  0.50400001928E-02 0.  1.
       -1   -1    0    0    0  501  0.00000000000E+00  0.00000000000E+00 -0.68054544132E+03  0.68054544133E+03  0.50400001928E-02 0. -1.
    10030    2    1    2    0    0  0.00000000000E+00  0.00000000000E+00  0.12623286363E+04  0.26234195189E+04  0.22997513749E+04 0.  0.
        5    1    3    3  502    0 -0.42969552929E+02  0.10221423592E+04  0.32334639605E+02  0.10235668048E+04  0.46999998093E+01 0.  1.
       -5    1    3    3    0  502  0.42969552929E+02 -0.10221423592E+04  0.12299939967E+04  0.15998527141E+04  0.46999998093E+01 0. -1.
</event>
<event>
 5   0  0.2871888E-05  0.2294909E+04  0.7818609E-02  0.8479931E-01
       -2   -1    0    0    0  501  0.00000000000E+00  0.00000000000E+00  0.57184982257E+03  0.57184982258E+03  0.25500000920E-02 0. -1.
        2   -1    0    0  501    0  0.00000000000E+00  0.00000000000E+00 -0.23024434389E+04  0.23024434389E+04  0.25500000920E-02 0.  1.
    10030    2    1    2    0    0  0.00000000000E+00  0.00000000000E+00 -0.17305936164E+04  0.28742932615E+04  0.22949090370E+04 0.  0.
        3    1    3    3  502    0 -0.88184292512E+03  0.19648924679E+03  0.20681120341E+02  0.90370497821E+03  0.10100000352E+00 0. -1.
       -3    1    3    3    0  502  0.88184292512E+03 -0.19648924679E+03 -0.17512747367E+04  0.19705882833E+04  0.10100000352E+00 0.  1.
</event>
<event>
 5   0  0.2994157E-05  0.2302300E+04  0.7818609E-02  0.8477015E-01
        2   -1    0    0  501    0  0.00000000000E+00  0.00000000000E+00  0.25542529341E+04  0.25542529341E+04  0.25500000920E-02 0. -1.
       -2   -1    0    0    0  501  0.00000000000E+00  0.00000000000E+00 -0.51879996747E+03  0.51879996747E+03  0.25500000920E-02 0.  1.
    10030    2    1    2    0    0  0.00000000000E+00  0.00000000000E+00  0.20354529666E+04  0.30730529015E+04  0.23023000144E+04 0.  0.
        4    1    3    3  502    0  0.10187682817E+04 -0.69210374272E+02  0.30832664327E+03  0.10666516861E+04  0.12699999809E+01 0.  1.
       -4    1    3    3    0  502 -0.10187682817E+04  0.69210374272E+02  0.17271263233E+04  0.20064012154E+04  0.12699999809E+01 0. -1.
</event>
<event>
 5   0  0.2910126E-05  0.2292832E+04  0.7818609E-02  0.8480753E-01
       -2   -1    0    0    0  501  0.00000000000E+00  0.00000000000E+00  0.76433042150E+03  0.76433042150E+03  0.25500000920E-02 0. -1.
        2   -1    0    0  501    0  0.00000000000E+00  0.00000000000E+00 -0.17195052687E+04  0.17195052687E+04  0.25500000920E-02 0.  1.
    10030    2    1    2    0    0  0.00000000000E+00  0.00000000000E+00 -0.95517484721E+03  0.24838356902E+04  0.22928324726E+04 0.  0.
        5    1    3    3  502    0  0.94899829790E+03 -0.55249152442E+03 -0.83426193669E+03  0.13790793026E+04  0.46999998093E+01 0.  1.
       -5    1    3    3    0  502 -0.94899829790E+03  0.55249152442E+03 -0.12091291052E+03  0.11047563876E+04  0.46999998093E+01 0. -1.
</event>
<event>
 5   0  0.1308224E-05  0.2286060E+04  0.7818609E-02  0.8483438E-01
        1   -1    0    0  501    0  0.00000000000E+00  0.00000000000E+00  0.15198302462E+04  0.15198302462E+04  0.50400001928E-02 0. -1.
       -1   -1    0    0    0  501  0.00000000000E+00  0.00000000000E+00 -0.85964699134E+03  0.85964699135E+03  0.50400001928E-02 0.  1.
    10030    2    1    2    0    0  0.00000000000E+00  0.00000000000E+00  0.66018325486E+03  0.23794772376E+04  0.22860599279E+04 0.  0.
        5    1    3    3  502    0 -0.37981943377E+02  0.14535517593E+03  0.15094986588E+04  0.15169637590E+04  0.46999998093E+01 0. -1.
       -5    1    3    3    0  502  0.37981943377E+02 -0.14535517593E+03 -0.84931540398E+03  0.86251347852E+03  0.46999998093E+01 0.  1.
</event>
<event>
 5   0  0.2871888E-05  0.2285888E+04  0.7818609E-02  0.8483506E-01
        2   -1    0    0  501    0  0.00000000000E+00  0.00000000000E+00  0.16387015284E+04  0.16387015284E+04  0.25500000920E-02 0. -1.
       -2   -1    0    0    0  501  0.00000000000E+00  0.00000000000E+00 -0.79716804314E+03  0.79716804315E+03  0.25500000920E-02 0.  1.
    10030    2    1    2    0    0  0.00000000000E+00  0.00000000000E+00  0.84153348527E+03  0.24358695716E+04  0.22858875657E+04 0.  0.
        3    1    3    3  502    0 -0.10958975495E+04 -0.28468909683E+03  0.58681482965E+03  0.12753003471E+04  0.10100000352E+00 0.  1.
       -3    1    3    3    0  502  0.10958975495E+04  0.28468909683E+03  0.25471865562E+03  0.11605692244E+04  0.10100000352E+00 0. -1.
</event>
<event>
 5   0  0.2816178E-05  0.2317665E+04  0.7818609E-02  0.8470988E-01
        2   -1    0    0  501    0  0.00000000000E+00  0.00000000000E+00  0.18466912521E+04  0.18466912521E+04  0.25500000920E-02 0.  1.
       -2   -1    0    0    0  501  0.00000000000E+00  0.00000000000E+00 -0.72718857639E+03  0.72718857639E+03  0.25500000920E-02 0. -1.
    10030    2    1    2    0    0  0.00000000000E+00  0.00000000000E+00  0.11195026757E+04  0.25738798285E+04  0.23176650169E+04 0.  0.
        1    1    3    3  502    0  0.22893920924E+03  0.11071904510E+04  0.27746889790E+03  0.11641618640E+04  0.50400001928E-02 0. -1.
       -1    1    3    3    0  502 -0.22893920924E+03 -0.11071904510E+04  0.84203377777E+03  0.14097179644E+04  0.50400001928E-02 0.  1.
</event>
<event>
 5   0  0.2994157E-05  0.2316265E+04  0.7818609E-02  0.8471535E-01
        2   -1    0    0  501    0  0.00000000000E+00  0.00000000000E+00  0.12245403380E+04  0.12245403380E+04  0.25500000920E-02 0.  1.
       -2   -1    0    0    0  501  0.00000000000E+00  0.00000000000E+00 -0.10953261589E+04  0.10953261589E+04  0.25500000920E-02 0. -1.
    10030    2    1    2    0    0  0.00000000000E+00  0.00000000000E+00  0.12921417914E+03  0.23198664969E+04  0.23162651531E+04 0.  0.
        4    1    3    3  502    0 -0.62373276750E+03  0.74167668629E+03 -0.57052601422E+03  0.11245569875E+04  0.12699999809E+01 0. -1.
       -4    1    3    3    0  502  0.62373276750E+03 -0.74167668629E+03  0.69974019336E+03  0.11953095094E+04  0.12699999809E+01 0.  1.
</event>
<event>
 5   0  0.2816178E-05  0.2300100E+04  0.7818609E-02  0.8477882E-01
       -2   -1    0    0    0  501  0.00000000000E+00  0.00000000000E+00  0.11789566596E+04  0.11789566596E+04  0.25500000920E-02 0. -1.
        2   -1    0    0  501    0  0.00000000000E+00  0.00000000000E+00 -0.11218520873E+04  0.11218520873E+04  0.25500000920E-02 0.  1.
    10030    2    1    2    0    0  0.00000000000E+00  0.00000000000E+00  0.57104572350E+02  0.23008087469E+04  0.23000999886E+04 0.  0.
        1    1    3    3  502    0  0.15662089722E+03 -0.58038495687E+03  0.10092819500E+04  0.11747454440E+04  0.50400001928E-02 0. -1.
       -1    1    3    3    0  502 -0.15662089722E+03  0.58038495687E+03 -0.95217737766E+03  0.11260633029E+04  0.50400001928E-02 0.  1.
</event>
<event>
 5   0  0.2871888E-05  0.2300585E+04  0.7818609E-02  0.8477691E-01
        2   -1    0    0  501    0  0.00000000000E+00  0.00000000000E+00  0.14677245489E+04  0.14677245489E+04  0.25500000920E-02 0.  1.
       -2   -1    0    0    0  501  0.00000000000E+00  0.00000000000E+00 -0.90151293595E+03  0.90151293595E+03  0.25500000920E-02 0. -1.
    10030    2    1    2    0    0  0.00000000000E+00  0.00000000000E+00  0.56621161292E+03  0.23692374848E+04  0.23005848537E+04 0.  0.
        3    1    3    3  502    0 -0.47368985280E+03 -0.20822924358E+03 -0.77489328673E+03  0.93177310036E+03  0.10100000352E+00 0. -1.
       -3    1    3    3    0  502  0.47368985280E+03  0.20822924358E+03  0.13411048997E+04  0.14374643845E+04  0.10100000352E+00 0.  1.
</event>
<event>
 5   0  0.2938972E-05  0.2295492E+04  0.7818609E-02  0.8479701E-01
       -2   -1    0    0    0  501  0.00000000000E+00  0.00000000000E+00  0.58247687343E+03  0.58247687343E+03  0.25500000920E-02 0. -1.
        2   -1    0    0  501    0  0.00000000000E+00  0.00000000000E+00 -0.22615843138E+04  0.22615843138E+04  0.25500000920E-02 0.  1.
    10030    2    1    2    0    0  0.00000000000E+00  0.00000000000E+00 -0.16791074404E+04  0.28440611873E+04  0.22954917209E+04 0.  0.
        2    1    3    3  502    0 -0.98875162918E+03 -0.16276296825E+03 -0.14617041192E+03  0.10126634966E+04  0.25500000920E-02 0. -1.
       -2    1    3    3    0  502  0.98875162918E+03  0.16276296825E+03 -0.15329370285E+04  0.18313976907E+04  0.25500000920E-02 0.  1.
</event>
<event>
 5   0  0.2816178E-05  0.2293030E+04  0.7818609E-02  0.8480675E-01
        2   -1    0    0  501    0  0.00000000000E+00  0.00000000000E+00  0.20323091131E+04  0.20323091131E+04  0.25500000920E-02 0.  1.
       -2   -1    0    0    0  501  0.00000000000E+00  0.00000000000E+00 -0.64679934321E+03  0.64679934322E+03  0.25500000920E-02 0. -1.
    10030    2    1    2    0    0  0.00000000000E+00  0.00000000000E+00  0.13855097698E+04  0.26791084563E+04  0.22930296113E+04 0.  0.
        1    1    3    3  502    0  0.22059018568E+03 -0.47907304232E+02 -0.62057949049E+03  0.66035902648E+03  0.50400001928E-02 0. -1.
       -1    1    3    3    0  502 -0.22059018568E+03  0.47907304232E+02  0.20060892603E+04  0.20187494298E+04  0.50400001928E-02 0.  1.
</event>
<event>
 5   0  0.2938972E-05  0.2284396E+04  0.7818609E-02  0.8484099E-01
       -2   -1    0    0    0  501  0.00000000000E+00  0.00000000000E+00  0.69588699517E+03  0.69588699517E+03  0.25500000920E-02 0. -1.
        2   -1    0    0  501    0  0.00000000000E+00  0.00000000000E+00 -0.18747532014E+04  0.18747532014E+04  0.25500000920E-02 0.  1.
    10030    2    1    2    0    0  0.00000000000E+00  0.00000000000E+00 -0.11788662063E+04  0.25706401966E+04  0.22843960883E+04 0.  0.
        2    1    3    3  502    0 -0.47922901017E+03  0.75930810374E+03 -0.13838747633E+04  0.16496419615E+04  0.25500000920E-02 0.  1.
       -2    1    3    3    0  502  0.47922901017E+03 -0.75930810374E+03  0.20500855705E+03  0.92099823510E+03  0.25500000920E-02 0. -1.
</event>
<event>
 5   0  0.1327820E-05  0.2344958E+04  0.7818609E-02  0.8460403E-01
        1   -1    0    0  501    0  0.00000000000E+00  0.00000000000E+00  0.89466875424E+03  0.89466875425E+03  0.50400001928E-02 0.  1.
       -1   -1    0    0    0  501  0.00000000000E+00  0.00000000000E+00 -0.15365535166E+04  0.15365535166E+04  0.50400001928E-02 0. -1.
    10030    2    1    2    0    0  0.00000000000E+00  0.00000000000E+00 -0.64188476239E+03  0.24312222709E+04  0.23449575012E+04 0.  0.
        1    1    3    3  502    0  0.93919312274E+03 -0.70088083053E+03 -0.35957937360E+03  0.12258119702E+04  0.50400001928E-02 0.  1.
       -1    1    3    3    0  502 -0.93919312274E+03  0.70088083053E+03 -0.28230538879E+03  0.12054103007E+04  0.50400001928E-02 0. -1.
</event>
<event>
 5   0  0.1303224E-05  0.2304348E+04  0.7818609E-02  0.8476209E-01
        1   -1    0    0  501    0  0.00000000000E+00  0.00000000000E+00  0.11977796947E+04  0.11977796947E+04  0.50400001928E-02 0. -1.
       -1   -1    0    0    0  501  0.00000000000E+00  0.00000000000E+00 -0.11083045827E+04  0.11083045827E+04  0.50400001928E-02 0.  1.
    10030    2    1    2    0    0  0.00000000000E+00  0.00000000000E+00  0.89475112063E+02  0.23060842774E+04  0.23043478250E+04 0.  0.
        2    1    3    3  502    0 -0.23159798913E+03  0.84761414837E+03  0.79056242944E+03  0.11819798340E+04  0.25500000920E-02 0. -1.
       -2    1    3    3    0  502  0.23159798913E+03 -0.84761414837E+03 -0.70108731738E+03  0.11241044434E+04  0.25500000920E-02 0.  1.
</event>
<event>
 5   0  0.1284837E-05  0.2303853E+04  0.7818609E-02  0.8476404E-01
        1   -1    0    0  501    0  0.00000000000E+00  0.00000000000E+00  0.15927523981E+04  0.15927523981E+04  0.50400001928E-02 0.  1.
       -1   -1    0    0    0  501  0.00000000000E+00  0.00000000000E+00 -0.83310790318E+03  0.83310790320E+03  0.50400001928E-02 0. -1.
    10030    2    1    2    0    0  0.00000000000E+00  0.00000000000E+00  0.75964449491E+03  0.24258603013E+04  0.23038529560E+04 0.  0.
        4    1    3    3  502    0 -0.66500836960E+03 -0.12685236968E+03  0.13611685236E+04  0.15202332117E+04  0.12699999809E+01 0.  1.
       -4    1    3    3    0  502  0.66500836960E+03  0.12685236968E+03 -0.60152402874E+03  0.90562708958E+03  0.12699999809E+01 0. -1.
</event>
<event>
 5   0  0.1017200E-05  0.2319744E+04  0.7818609E-02  0.8470177E-01
        3   -1    0    0  501    0  0.00000000000E+00  0.00000000000E+00  0.10381931232E+04  0.10381931281E+04  0.10100000352E+00 0. -1.
       -3   -1    0    0    0  501  0.00000000000E+00  0.00000000000E+00 -0.12958116607E+04  0.12958116647E+04  0.10100000352E+00 0.  1.
    10030    2    1    2    0    0  0.00000000000E+00  0.00000000000E+00 -0.25761853757E+03  0.23340047928E+04  0.23197437491E+04 0.  0.
        2    1    3    3  502    0 -0.17163868736E+03  0.12906942067E+03  0.10180154994E+04  0.10404202571E+04  0.25500000920E-02 0. -1.
       -2    1    3    3    0  502  0.17163868736E+03 -0.12906942067E+03 -0.12756340370E+04  0.12935845356E+04  0.25500000920E-02 0.  1.
</event>
<event>
 5   0  0.2871888E-05  0.2307346E+04  0.7818609E-02  0.8475030E-01
        2   -1    0    0  501    0  0.00000000000E+00  0.00000000000E+00  0.11502490825E+04  0.11502490825E+04  0.25500000920E-02 0.  1.
       -2   -1    0    0    0  501  0.00000000000E+00  0.00000000000E+00 -0.11571074510E+04  0.11571074510E+04  0.25500000920E-02 0. -1.
    10030    2    1    2    0    0  0.00000000000E+00  0.00000000000E+00 -0.68583685017E+01  0.23073565336E+04  0.23073463407E+04 0.  0.
        3    1    3    3  502    0 -0.76173676888E+03  0.86493985066E+03 -0.54399237745E+02  0.11538297698E+04  0.10100000352E+00 0.  1.
       -3    1    3    3    0  502  0.76173676888E+03 -0.86493985066E+03  0.47540869243E+02  0.11535267638E+04  0.10100000352E+00 0. -1.
</event>
<event>
 5   0  0.2871888E-05  0.2292561E+04  0.7818609E-02  0.8480860E-01
        2   -1    0    0  501    0  0.00000000000E+00  0.00000000000E+00  0.12792570836E+04  0.12792570836E+04  0.25500000920E-02 0. -1.
       -2   -1    0    0    0  501  0.00000000000E+00  0.00000000000E+00 -0.10271268454E+04  0.10271268454E+04  0.25500000920E-02 0.  1.
    10030    2    1    2    0    0  0.00000000000E+00  0.00000000000E+00  0.25213023829E+03  0.23063839290E+04  0.22925612687E+04 0.  0.
        3    1    3    3  502    0 -0.42537604403E+03  0.16572755410E+03 -0.93172529474E+03  0.10375559918E+04  0.10100000352E+00 0.  1.
       -3    1    3    3    0  502  0.42537604403E+03 -0.16572755410E+03  0.11838555330E+04  0.12688279372E+04  0.10100000352E+00 0. -1.
</event>
<event>
 5   0  0.1371753E-05  0.2302015E+04  0.7818609E-02  0.8477127E-01
        1   -1    0    0  501    0  0.00000000000E+00  0.00000000000E+00  0.51565232493E+03  0.51565232495E+03  0.50400001928E-02 0.  1.
       -1   -1    0    0    0  501  0.00000000000E+00  0.00000000000E+00 -0.25692080962E+04  0.25692080962E+04  0.50400001928E-02 0. -1.
    10030    2    1    2    0    0  0.00000000000E+00  0.00000000000E+00 -0.20535557712E+04  0.30848604211E+04  0.23020148810E+04 0.  0.
        3    1    3    3  502    0  0.96408948915E+03 -0.54888256351E+03 -0.14378048279E+04  0.18160460746E+04  0.10100000352E+00 0. -1.
       -3    1    3    3    0  502 -0.96408948915E+03  0.54888256351E+03 -0.61575094334E+03  0.12688143466E+04  0.10100000352E+00 0.  1.
</event>
<event>
 5   0  0.1284837E-05  0.2299805E+04  0.7818609E-02  0.8477998E-01
        1   -1    0    0  501    0  0.00000000000E+00  0.00000000000E+00  0.10657113289E+04  0.10657113290E+04  0.50400001928E-02 0.  1.
       -1   -1    0    0    0  501  0.00000000000E+00  0.00000000000E+00 -0.12407448356E+04  0.12407448356E+04  0.50400001928E-02 0. -1.
    10030    2    1    2    0    0  0.00000000000E+00  0.00000000000E+00 -0.17503350666E+03  0.23064561646E+04  0.22998050593E+04 0.  0.
        4    1    3    3  502    0 -0.66813778600E+02 -0.11363893611E+04  0.75524480077E+02  0.11408551271E+04  0.12699999809E+01 0. -1.
       -4    1    3    3    0  502  0.66813778600E+02  0.11363893611E+04 -0.25055798674E+03  0.11656010375E+04  0.12699999809E+01 0.  1.
</event>
<event>
 5   0  0.1308224E-05  0.2292132E+04  0.7818609E-02  0.8481030E-01
       -1   -1    0    0    0  501  0.00000000000E+00  0.00000000000E+00  0.48039130066E+03  0.48039130069E+03  0.50400001928E-02 0.  1.
        1   -1    0    0  501    0  0.00000000000E+00  0.00000000000E+00 -0.27341602410E+04  0.27341602410E+04  0.50400001928E-02 0. -1.
    10030    2    1    2    0    0  0.00000000000E+00  0.00000000000E+00 -0.22537689404E+04  0.32145515417E+04  0.22921315795E+04 0.  0.
        5    1    3    3  502    0  0.56291856199E+03 -0.64618071431E+03 -0.21940378322E+04  0.23554725475E+04  0.46999998093E+01 0. -1.
       -5    1    3    3    0  502 -0.56291856199E+03  0.64618071431E+03 -0.59731108156E+02  0.85907899419E+03  0.46999998093E+01 0.  1.
</event>
<event>
 5   0  0.2994157E-05  0.2303438E+04  0.7818609E-02  0.8476567E-01
        2   -1    0    0  501    0  0.00000000000E+00  0.00000000000E+00  0.14335771034E+04  0.14335771034E+04  0.25500000920E-02 0.  1.
       -2   -1    0    0    0  501  0.00000000000E+00  0.00000000000E+00 -0.92527754983E+03  0.92527754984E+03  0.25500000920E-02 0. -1.
    10030    2    1    2    0    0  0.00000000000E+00  0.00000000000E+00  0.50829955357E+03  0.23588546532E+04  0.23034380476E+04 0.  0.
        4    1    3    3  502    0 -0.15018627344E+03 -0.92619129174E+03 -0.42980219202E+03  0.10320454267E+04  0.12699999809E+01 0. -1.
       -4    1    3    3    0  502  0.15018627344E+03  0.92619129174E+03  0.93810174559E+03  0.13268092265E+04  0.12699999809E+01 0.  1.
</event>
<event>
 5   0  0.2994157E-05  0.2310396E+04  0.7818609E-02  0.8473833E-01
       -2   -1    0    0    0  501  0.00000000000E+00  0.00000000000E+00  0.21221568267E+04  0.21221568267E+04  0.25500000920E-02 0.  1.
        2   -1    0    0  501    0  0.00000000000E+00  0.00000000000E+00 -0.62883327226E+03  0.62883327226E+03  0.25500000920E-02 0. -1.
    10030    2    1    2    0    0  0.00000000000E+00  0.00000000000E+00  0.14933235544E+04  0.27509900989E+04  0.23103963483E+04 0.  0.
        4    1    3    3  502    0 -0.21447681777E+03 -0.86479036981E+02  0.20943129362E+04  0.21070422912E+04  0.12699999809E+01 0.  1.
       -4    1    3    3    0  502  0.21447681777E+03  0.86479036981E+02 -0.60098938178E+03  0.64394780776E+03  0.12699999809E+01 0. -1.
</event>
<event>
 5   0  0.2871888E-05  0.2333312E+04  0.7818609E-02  0.8464901E-01
       -2   -1    0    0    0  501  0.00000000000E+00  0.00000000000E+00  0.75417293109E+03  0.75417293109E+03  0.25500000920E-02 0. -1.
        2   -1    0    0  501    0  0.00000000000E+00  0.00000000000E+00 -0.18047409174E+04  0.18047409174E+04  0.25500000920E-02 0.  1.
    10030    2    1    2    0    0  0.00000000000E+00  0.00000000000E+00 -0.10505679863E+04  0.25589138485E+04  0.23333124502E+04 0.  0.
        3    1    3    3  502    0  0.43187659755E+03  0.63254207285E+03 -0.14904060146E+04  0.16756899976E+04  0.10100000352E+00 0.  1.
       -3    1    3    3    0  502 -0.43187659755E+03 -0.63254207285E+03  0.43983802831E+03  0.88322385089E+03  0.10100000352E+00 0. -1.
</event>
<event>
 5   0  0.1327820E-05  0.2309685E+04  0.7818609E-02  0.8474112E-01
        1   -1    0    0  501    0  0.00000000000E+00  0.00000000000E+00  0.27567206922E+04  0.27567206922E+04  0.50400001928E-02 0. -1.
       -1   -1    0    0    0  501  0.00000000000E+00  0.00000000000E+00 -0.48378537327E+03  0.48378537329E+03  0.50400001928E-02 0.  1.
    10030    2    1    2    0    0  0.00000000000E+00  0.00000000000E+00  0.22729353190E+04  0.32405060655E+04  0.23096849561E+04 0.  0.
        1    1    3    3  502    0 -0.68999302718E+03  0.81040284990E+03  0.50774168360E+03  0.11792560256E+04  0.50400001928E-02 0.  1.
       -1    1    3    3    0  502  0.68999302718E+03 -0.81040284990E+03  0.17651936354E+04  0.20612500399E+04  0.50400001928E-02 0. -1.
</event>
<event>
 5   0  0.2994157E-05  0.2268870E+04  0.7818609E-02  0.8490297E-01
       -2   -1    0    0    0  501  0.00000000000E+00  0.00000000000E+00  0.19982861911E+04  0.19982861911E+04  0.25500000920E-02 0. -1.
        2   -1    0    0  501    0  0.00000000000E+00  0.00000000000E+00 -0.64402314748E+03  0.64402314748E+03  0.25500000920E-02 0.  1.
    10030    2    1    2    0    0  0.00000000000E+00  0.00000000000E+00  0.13542630437E+04  0.26423093386E+04  0.22688698177E+04 0.  0.
        4    1    3    3  502    0 -0.10747340940E+04 -0.28069817011E+03  0.94548390115E+03  0.14586933385E+04  0.12699999809E+01 0. -1.
       -4    1    3    3    0  502  0.10747340940E+04  0.28069817011E+03  0.40877914252E+03  0.11836160001E+04  0.12699999809E+01 0.  1.
</event>
<event>
 5   0  0.1284837E-05  0.2317995E+04  0.7818609E-02  0.8470860E-01
       -1   -1    0    0    0  501  0.00000000000E+00  0.00000000000E+00  0.92696448701E+03  0.92696448703E+03  0.50400001928E-02 0.  1.
        1   -1    0    0  501    0  0.00000000000E+00  0.00000000000E+00 -0.14491116910E+04  0.14491116910E+04  0.50400001928E-02 0. -1.
    10030    2    1    2    0    0  0.00000000000E+00  0.00000000000E+00 -0.52214720396E+03  0.23760761780E+04  0.23179948881E+04 0.  0.
        4    1    3    3  502    0  0.66382725595E+03  0.82307232951E+03 -0.74747221390E+03  0.12949250978E+04  0.12699999809E+01 0. -1.
       -4    1    3    3    0  502 -0.66382725595E+03 -0.82307232951E+03  0.22532500994E+03  0.10811510803E+04  0.12699999809E+01 0.  1.
</event>
<event>
 5   0  0.2816178E-05  0.2301047E+04  0.7818609E-02  0.8477508E-01
       -2   -1    0    0    0  501  0.00000000000E+00  0.00000000000E+00  0.68674919891E+03  0.68674919892E+03  0.25500000920E-02 0.  1.
        2   -1    0    0  501    0  0.00000000000E+00  0.00000000000E+00 -0.19274938755E+04  0.19274938755E+04  0.25500000920E-02 0. -1.
    10030    2    1    2    0    0  0.00000000000E+00  0.00000000000E+00 -0.12407446766E+04  0.26142430744E+04  0.23010474788E+04 0.  0.
        1    1    3    3  502    0 -0.37431158988E+02  0.11081123628E+04 -0.27132433227E+03  0.11414600272E+04  0.50400001928E-02 0. -1.
       -1    1    3    3    0  502  0.37431158988E+02 -0.11081123628E+04 -0.96942034429E+03  0.14727830472E+04  0.50400001928E-02 0.  1.
</event>
<event>
 5   0  0.2910126E-05  0.2312386E+04  0.7818609E-02  0.8473053E-01
       -2   -1    0    0    0  501  0.00000000000E+00  0.00000000000E+00  0.10363503530E+04  0.10363503530E+04  0.25500000920E-02 0.  1.
        2   -1    0    0  501    0  0.00000000000E+00  0.00000000000E+00 -0.12898944493E+04  0.12898944493E+04  0.25500000920E-02 0. -1.
    10030    2    1    2    0    0  0.00000000000E+00  0.00000000000E+00 -0.25354409624E+03  0.23262448023E+04  0.23123862721E+04 0.  0.
        5    1    3    3  502    0  0.90079481754E+03 -0.47603756949E+03 -0.67659808091E+03  0.12230495182E+04  0.46999998093E+01 0. -1.
       -5    1    3    3    0  502 -0.90079481754E+03  0.47603756949E+03  0.42305398468E+03  0.11031952841E+04  0.46999998093E+01 0.  1.
</event>
<event>
 5   0  0.1327820E-05  0.2306277E+04  0.7818609E-02  0.8475450E-01
       -1   -1    0    0    0  501  0.00000000000E+00  0.00000000000E+00  0.86862150129E+03  0.86862150130E+03  0.50400001928E-02 0.  1.
        1   -1    0    0  501    0  0.00000000000E+00  0.00000000000E+00 -0.15308494339E+04  0.15308494339E+04  0.50400001928E-02 0. -1.
    10030    2    1    2    0    0  0.00000000000E+00  0.00000000000E+00 -0.66222793258E+03  0.23994709352E+04  0.23062772891E+04 0.  0.
        1    1    3    3  502    0  0.62629929151E+03  0.83706135430E+03  0.17517740312E+03  0.10600045453E+04  0.50400001928E-02 0.  1.
       -1    1    3    3    0  502 -0.62629929151E+03 -0.83706135430E+03 -0.83740533571E+03  0.13394663899E+04  0.50400001928E-02 0. -1.
</event>
<event>
 5   0  0.1327820E-05  0.2312440E+04  0.7818609E-02  0.8473032E-01
       -1   -1    0    0    0  501  0.00000000000E+00  0.00000000000E+00  0.10342269624E+04  0.10342269624E+04  0.50400001928E-02 0.  1.
        1   -1    0    0  501    0  0.00000000000E+00  0.00000000000E+00 -0.12926032340E+04  0.12926032340E+04  0.50400001928E-02 0. -1.
    10030    2    1    2    0    0  0.00000000000E+00  0.00000000000E+00 -0.25837627154E+03  0.23268301964E+04  0.23124403701E+04 0.  0.
        1    1    3    3  502    0 -0.15806603104E+03  0.11240681979E+04  0.92022873044E+02  0.11388513480E+04  0.50400001928E-02 0. -1.
       -1    1    3    3    0  502  0.15806603104E+03 -0.11240681979E+04 -0.35039914458E+03  0.11879788484E+04  0.50400001928E-02 0.  1.
</event>
<event>
 5   0  0.1284837E-05  0.2268738E+04  0.7818609E-02  0.8490350E-01
        1   -1    0    0  501    0  0.00000000000E+00  0.00000000000E+00  0.95208232075E+03  0.95208232076E+03  0.50400001928E-02 0. -1.
       -1   -1    0    0    0  501  0.00000000000E+00  0.00000000000E+00 -0.13515565035E+04  0.13515565035E+04  0.50400001928E-02 0.  1.
    10030    2    1    2    0    0  0.00000000000E+00  0.00000000000E+00 -0.39947418279E+03  0.23036388243E+04  0.22687380215E+04 0.  0.
        4    1    3    3  502    0 -0.75676777244E+03 -0.78850234054E+03  0.10884263331E+03  0.10983085788E+04  0.12699999809E+01 0.  1.
       -4    1    3    3    0  502  0.75676777244E+03  0.78850234054E+03 -0.50831681610E+03  0.12053302456E+04  0.12699999809E+01 0. -1.
</event>
<event>
 5   0  0.2994157E-05  0.2326153E+04  0.7818609E-02  0.8467680E-01
       -2   -1    0    0    0  501  0.00000000000E+00  0.00000000000E+00  0.95729407013E+03  0.95729407014E+03  0.25500000920E-02 0. -1.
        2   -1    0    0  501    0  0.00000000000E+00  0.00000000000E+00 -0.14130945892E+04  0.14130945892E+04  0.25500000920E-02 0.  1.
    10030    2    1    2    0    0  0.00000000000E+00  0.00000000000E+00 -0.45580051904E+03  0.23703886593E+04  0.23261531083E+04 0.  0.
        4    1    3    3  502    0  0.21928855579E+03 -0.19522774972E+03 -0.13747101353E+04  0.14057136671E+04  0.12699999809E+01 0.  1.
       -4    1    3    3    0  502 -0.21928855579E+03  0.19522774972E+03  0.91890961621E+03  0.96467499223E+03  0.12699999809E+01 0. -1.
</event>
<event>
 5   0  0.1327820E-05  0.2306495E+04  0.7818609E-02  0.8475365E-01
        1   -1    0    0  501    0  0.00000000000E+00  0.00000000000E+00  0.24490111470E+04  0.24490111471E+04  0.50400001928E-02 0.  1.
       -1   -1    0    0    0  501  0.00000000000E+00  0.00000000000E+00 -0.54306810242E+03  0.54306810245E+03  0.50400001928E-02 0. -1.
    10030    2    1    2    0    0  0.00000000000E+00  0.00000000000E+00  0.19059430446E+04  0.29920792495E+04  0.23064950349E+04 0.  0.
        1    1    3    3  502    0 -0.43871792473E+03  0.10137253115E+04  0.13829582148E+04  0.17699395043E+04  0.50400001928E-02 0.  1.
       -1    1    3    3    0  502  0.43871792473E+03 -0.10137253115E+04  0.52298482978E+03  0.12221397452E+04  0.50400001928E-02 0. -1.
</event>
<event>
 5   0  0.2816178E-05  0.2011155E+04  0.7818609E-02  0.8601423E-01
       -2   -1    0    0    0  501  0.00000000000E+00  0.00000000000E+00  0.51465709522E+03  0.51465709523E+03  0.25500000920E-02 0. -1.
        2   -1    0    0  501    0  0.00000000000E+00  0.00000000000E+00 -0.19647763250E+04  0.19647763250E+04  0.25500000920E-02 0.  1.
    10030    2    1    2    0    0  0.00000000000E+00  0.00000000000E+00 -0.14501192298E+04  0.24794334203E+04  0.20111549679E+04 0.  0.
        1    1    3    3  502    0 -0.40262823506E+03  0.33753808458E+03 -0.17821042027E+04  0.18579388697E+04  0.50400001928E-02 0.  1.
       -1    1    3    3    0  502  0.40262823506E+03 -0.33753808458E+03  0.33198497285E+03  0.62149455061E+03  0.50400001928E-02 0. -1.
</event>
<event>
 5   0  0.1017200E-05  0.2309577E+04  0.7818609E-02  0.8474155E-01
       -3   -1    0    0    0  501  0.00000000000E+00  0.00000000000E+00  0.17243063095E+04  0.17243063125E+04  0.10100000352E+00 0. -1.
        3   -1    0    0  501    0  0.00000000000E+00  0.00000000000E+00 -0.77337545957E+03  0.77337546617E+03  0.10100000352E+00 0.  1.
    10030    2    1    2    0    0  0.00000000000E+00  0.00000000000E+00  0.95093084996E+03  0.24976817787E+04  0.23095767547E+04 0.  0.
        2    1    3    3  502    0  0.11212518268E+04  0.16395233615E+03  0.23498009123E+03  0.11572820187E+04  0.25500000920E-02 0. -1.
       -2    1    3    3    0  502 -0.11212518268E+04 -0.16395233615E+03  0.71595075873E+03  0.13403997600E+04  0.25500000920E-02 0.  1.
</event>
<event>
 5   0  0.2871888E-05  0.2307364E+04  0.7818609E-02  0.8475023E-01
        2   -1    0    0  501    0  0.00000000000E+00  0.00000000000E+00  0.25259006383E+04  0.25259006383E+04  0.25500000920E-02 0. -1.
       -2   -1    0    0    0  501  0.00000000000E+00  0.00000000000E+00 -0.52693382193E+03  0.52693382194E+03  0.25500000920E-02 0.  1.
    10030    2    1    2    0    0  0.00000000000E+00  0.00000000000E+00  0.19989668163E+04  0.30528344602E+04  0.23073642774E+04 0.  0.
        3    1    3    3  502    0 -0.91779952086E+03  0.24099548790E+01  0.74629745374E+02  0.92083189425E+03  0.10100000352E+00 0.  1.
       -3    1    3    3    0  502  0.91779952086E+03 -0.24099548790E+01  0.19243370710E+04  0.21320025660E+04  0.10100000352E+00 0. -1.
</event>
<event>
 5   0  0.1327820E-05  0.2332954E+04  0.7818609E-02  0.8465040E-01
       -1   -1    0    0    0  501  0.00000000000E+00  0.00000000000E+00  0.90171432628E+03  0.90171432630E+03  0.50400001928E-02 0. -1.
        1   -1    0    0  501    0  0.00000000000E+00  0.00000000000E+00 -0.15089802073E+04  0.15089802073E+04  0.50400001928E-02 0.  1.
    10030    2    1    2    0    0  0.00000000000E+00  0.00000000000E+00 -0.60726588101E+03  0.24106945336E+04  0.23329544111E+04 0.  0.
        1    1    3    3  502    0 -0.66678912767E+03 -0.93059544972E+03 -0.53481434214E+03  0.12635830057E+04  0.50400001928E-02 0. -1.
       -1    1    3    3    0  502  0.66678912767E+03  0.93059544972E+03 -0.72451538870E+02  0.11471115279E+04  0.50400001928E-02 0.  1.
</event>
<event>
 5   0  0.1017200E-05  0.2289056E+04  0.7818609E-02  0.8482249E-01
       -3   -1    0    0    0  501  0.00000000000E+00  0.00000000000E+00  0.90337191325E+03  0.90337191890E+03  0.10100000352E+00 0. -1.
        3   -1    0    0  501    0  0.00000000000E+00  0.00000000000E+00 -0.14500605078E+04  0.14500605114E+04  0.10100000352E+00 0.  1.
    10030    2    1    2    0    0  0.00000000000E+00  0.00000000000E+00 -0.54668859460E+03  0.23534324303E+04  0.22890556534E+04 0.  0.
        2    1    3    3  502    0 -0.17173884645E+03  0.79004580522E+03 -0.11062370568E+04  0.13701923338E+04  0.25500000920E-02 0.  1.
       -2    1    3    3    0  502  0.17173884645E+03 -0.79004580522E+03  0.55954846221E+03  0.98324009647E+03  0.25500000920E-02 0. -1.
</event>
<event>
 5   0  0.2910126E-05  0.2314427E+04  0.7818609E-02  0.8472254E-01
       -2   -1    0    0    0  501  0.00000000000E+00  0.00000000000E+00  0.17113879145E+04  0.17113879145E+04  0.25500000920E-02 0. -1.
        2   -1    0    0  501    0  0.00000000000E+00  0.00000000000E+00 -0.78248970764E+03  0.78248970764E+03  0.25500000920E-02 0.  1.
    10030    2    1    2    0    0  0.00000000000E+00  0.00000000000E+00  0.92889820684E+03  0.24938776221E+04  0.23144272975E+04 0.  0.
        5    1    3    3  502    0 -0.25499485381E+03  0.73307604875E+03 -0.46041192429E+03  0.90245448569E+03  0.46999998093E+01 0.  1.
       -5    1    3    3    0  502  0.25499485381E+03 -0.73307604875E+03  0.13893101311E+04  0.15914231364E+04  0.46999998093E+01 0. -1.
</event>
<event>
 5   0  0.1327820E-05  0.2304823E+04  0.7818609E-02  0.8476022E-01
        1   -1    0    0  501    0  0.00000000000E+00  0.00000000000E+00  0.13314519877E+04  0.13314519878E+04  0.50400001928E-02 0.  1.
       -1   -1    0    0    0  501  0.00000000000E+00  0.00000000000E+00 -0.99744692391E+03  0.99744692392E+03  0.50400001928E-02 0. -1.
    10030    2    1    2    0    0  0.00000000000E+00  0.00000000000E+00  0.33400506384E+03  0.23288989117E+04  0.23048233681E+04 0.  0.
        1    1    3    3  502    0  0.10382258285E+04  0.23242334297E+03  0.61448194015E+03  0.12286258731E+04  0.50400001928E-02 0.  1.
       -1    1    3    3    0  502 -0.10382258285E+04 -0.23242334297E+03 -0.28047687631E+03  0.11002730386E+04  0.50400001928E-02 0. -1.
</event>
<event>
 5   0  0.1308224E-05  0.2099835E+04  0.7818609E-02  0.8561316E-01
        1   -1    0    0  501    0  0.00000000000E+00  0.00000000000E+00  0.15725681404E+04  0.15725681404E+04  0.50400001928E-02 0.  1.
       -1   -1    0    0    0  501  0.00000000000E+00  0.00000000000E+00 -0.70097248089E+03  0.70097248090E+03  0.50400001928E-02 0. -1.
    10030    2    1    2    0    0  0.00000000000E+00  0.00000000000E+00  0.87159565948E+03  0.22735406213E+04  0.20998352228E+04 0.  0.
        5    1    3    3  502    0 -0.10112295290E+04  0.55068888717E+02  0.13596524894E+03  0.10218250251E+04  0.46999998093E+01 0.  1.
       -5    1    3    3    0  502  0.10112295290E+04 -0.55068888717E+02  0.73563041053E+03  0.12517155962E+04  0.46999998093E+01 0. -1.
</event>
<event>
 5   0  0.1371753E-05  0.2274193E+04  0.7818609E-02  0.8488167E-01
        1   -1    0    0  501    0  0.00000000000E+00  0.00000000000E+00  0.12579608105E+04  0.12579608105E+04  0.50400001928E-02 0.  1.
       -1   -1    0    0    0  501  0.00000000000E+00  0.00000000000E+00 -0.10278446701E+04  0.10278446701E+04  0.50400001928E-02 0. -1.
    10030    2    1    2    0    0  0.00000000000E+00  0.00000000000E+00  0.23011614040E+03  0.22858054806E+04  0.22741928803E+04 0.  0.
        3    1    3    3  502    0 -0.53495879869E+03 -0.50730436925E+03 -0.75507005960E+03  0.10553053797E+04  0.10100000352E+00 0. -1.
       -3    1    3    3    0  502  0.53495879869E+03  0.50730436925E+03  0.98518620000E+03  0.12305001009E+04  0.10100000352E+00 0.  1.
</event>
<event>
 5   0  0.2994157E-05  0.2281522E+04  0.7818609E-02  0.8485242E-01
       -2   -1    0    0    0  501  0.00000000000E+00  0.00000000000E+00  0.63230315579E+03  0.63230315580E+03  0.25500000920E-02 0. -1.
        2   -1    0    0  501    0  0.00000000000E+00  0.00000000000E+00 -0.20580885493E+04  0.20580885493E+04  0.25500000920E-02 0.  1.
    10030    2    1    2    0    0  0.00000000000E+00  0.00000000000E+00 -0.14257853935E+04  0.26903917051E+04  0.22815221977E+04 0.  0.
        4    1    3    3  502    0 -0.90529341368E+03  0.35978147717E+03 -0.14128458173E+04  0.17161392113E+04  0.12699999809E+01 0. -1.
       -4    1    3    3    0  502  0.90529341368E+03 -0.35978147717E+03 -0.12939576225E+02  0.97425249382E+03  0.12699999809E+01 0.  1.
</event>
<event>
 5   0  0.1303224E-05  0.2287659E+04  0.7818609E-02  0.8482803E-01
       -1   -1    0    0    0  501  0.00000000000E+00  0.00000000000E+00  0.91357735602E+03  0.91357735603E+03  0.50400001928E-02 0. -1.
        1   -1    0    0  501    0  0.00000000000E+00  0.00000000000E+00 -0.14321134217E+04  0.14321134217E+04  0.50400001928E-02 0.  1.
    10030    2    1    2    0    0  0.00000000000E+00  0.00000000000E+00 -0.51853606571E+03  0.23456907778E+04  0.22876594094E+04 0.  0.
        2    1    3    3  502    0 -0.89443271109E+02  0.19859182458E+03  0.89211817281E+03  0.91832110168E+03  0.25500000920E-02 0. -1.
       -2    1    3    3    0  502  0.89443271109E+02 -0.19859182458E+03 -0.14106542385E+04  0.14273696761E+04  0.25500000920E-02 0.  1.
</event>
<event>
 5   0  0.1017200E-05  0.2290124E+04  0.7818609E-02  0.8481825E-01
       -3   -1    0    0    0  501  0.00000000000E+00  0.00000000000E+00  0.23298550705E+04  0.23298550727E+04  0.10100000352E+00 0. -1.
        3   -1    0    0  501    0  0.00000000000E+00  0.00000000000E+00 -0.56276765177E+03  0.56276766083E+03  0.10100000352E+00 0.  1.
    10030    2    1    2    0    0  0.00000000000E+00  0.00000000000E+00  0.17670874188E+04  0.28926227335E+04  0.22901240868E+04 0.  0.
        5    1    3    3  502    0  0.32737123932E+03 -0.10223352254E+04  0.13868856970E+04  0.17538002361E+04  0.46999998093E+01 0. -1.
       -5    1    3    3    0  502 -0.32737123932E+03  0.10223352254E+04  0.38020172177E+03  0.11388224975E+04  0.46999998093E+01 0.  1.
</event>
<event>
 5   0  0.2816178E-05  0.2359986E+04  0.7818609E-02  0.8454638E-01
       -2   -1    0    0    0  501  0.00000000000E+00  0.00000000000E+00  0.12266523622E+04  0.12266523622E+04  0.25500000920E-02 0. -1.
        2   -1    0    0  501    0  0.00000000000E+00  0.00000000000E+00 -0.11351087860E+04  0.11351087860E+04  0.25500000920E-02 0.  1.
    10030    2    1    2    0    0  0.00000000000E+00  0.00000000000E+00  0.91543576203E+02  0.23617611483E+04  0.23599863337E+04 0.  0.
        1    1    3    3  502    0  0.23528680447E+03 -0.11552322967E+04  0.95431015971E+02  0.11828054018E+04  0.50400001928E-02 0.  1.
       -1    1    3    3    0  502 -0.23528680447E+03  0.11552322967E+04 -0.38874397677E+01  0.11789557464E+04  0.50400001928E-02 0. -1.
</event>
<event>
 5   0  0.2994157E-05  0.2310416E+04  0.7818609E-02  0.8473826E-01
       -2   -1    0    0    0  501  0.00000000000E+00  0.00000000000E+00  0.10399079469E+04  0.10399079470E+04  0.25500000920E-02 0.  1.
        2   -1    0    0  501    0  0.00000000000E+00  0.00000000000E+00 -0.12832915231E+04  0.12832915231E+04  0.25500000920E-02 0. -1.
    10030    2    1    2    0    0  0.00000000000E+00  0.00000000000E+00 -0.24338357614E+03  0.23231994700E+04  0.23104155930E+04 0.  0.
        4    1    3    3  502    0 -0.47112069400E+03  0.19473308636E+03 -0.11640702278E+04  0.12708016334E+04  0.12699999809E+01 0. -1.
       -4    1    3    3    0  502  0.47112069400E+03 -0.19473308636E+03  0.92068665165E+03  0.10523978367E+04  0.12699999809E+01 0.  1.
</event>
<event>
 5   0  0.2994157E-05  0.2291488E+04  0.7818609E-02  0.8481285E-01
        2   -1    0    0  501    0  0.00000000000E+00  0.00000000000E+00  0.32630354707E+04  0.32630354707E+04  0.25500000920E-02 0. -1.
       -2   -1    0    0    0  501  0.00000000000E+00  0.00000000000E+00 -0.40230306980E+03  0.40230306981E+03  0.25500000920E-02 0.  1.
    10030    2    1    2    0    0  0.00000000000E+00  0.00000000000E+00  0.28607324009E+04  0.36653385405E+04  0.22914878893E+04 0.  0.
        4    1    3    3  502    0  0.17926313177E+03  0.61988238789E+03  0.29447378219E+04  0.30146097423E+04  0.12699999809E+01 0. -1.
       -4    1    3    3    0  502 -0.17926313177E+03 -0.61988238789E+03 -0.84005421027E+02  0.65072879826E+03  0.12699999809E+01 0.  1.
</event>
<event>
 5   0  0.2938972E-05  0.2294445E+04  0.7818609E-02  0.8480115E-01
        2   -1    0    0  501    0  0.00000000000E+00  0.00000000000E+00  0.10302597158E+04  0.10302597158E+04  0.25500000920E-02 0.  1.
       -2   -1    0    0    0  501  0.00000000000E+00  0.00000000000E+00 -0.12774637485E+04  0.12774637485E+04  0.25500000920E-02 0. -1.
    10030    2    1    2    0    0  0.00000000000E+00  0.00000000000E+00 -0.24720403272E+03  0.23077234643E+04  0.22944449773E+04 0.  0.
        2    1    3    3  502    0 -0.18455964754E+03 -0.10955524592E+04  0.16409881814E+03  0.11230431321E+04  0.25500000920E-02 0. -1.
       -2    1    3    3    0  502  0.18455964754E+03  0.10955524592E+04 -0.41130285087E+03  0.11846803322E+04  0.25500000920E-02 0.  1.
</event>
<event>
 5   0  0.2871888E-05  0.2318946E+04  0.7818609E-02  0.8470488E-01
        2   -1    0    0  501    0  0.00000000000E+00  0.00000000000E+00  0.96355330511E+03  0.96355330511E+03  0.25500000920E-02 0. -1.
       -2   -1    0    0    0  501  0.00000000000E+00  0.00000000000E+00 -0.13952294031E+04  0.13952294031E+04  0.25500000920E-02 0.  1.
    10030    2    1    2    0    0  0.00000000000E+00  0.00000000000E+00 -0.43167609803E+03  0.23587827082E+04  0.23189462286E+04 0.  0.
        3    1    3    3  502    0 -0.40934218883E+03 -0.12048274676E+03 -0.13124589531E+04  0.13800817489E+04  0.10100000352E+00 0.  1.
       -3    1    3    3    0  502  0.40934218883E+03  0.12048274676E+03  0.88078285509E+03  0.97870095935E+03  0.10100000352E+00 0. -1.
</event>
<event>
 5   0  0.1371753E-05  0.2359812E+04  0.7818609E-02  0.8454704E-01
       -1   -1    0    0    0  501  0.00000000000E+00  0.00000000000E+00  0.72062968114E+03  0.72062968115E+03  0.50400001928E-02 0. -1.
        1   -1    0    0  501    0  0.00000000000E+00  0.00000000000E+00 -0.19318917925E+04  0.19318917925E+04  0.50400001928E-02 0.  1.
    10030    2    1    2    0    0  0.00000000000E+00  0.00000000000E+00 -0.12112621114E+04  0.26525214737E+04  0.23598123370E+04 0.  0.
        3    1    3    3  502    0 -0.79958354631E+03 -0.13845799166E+03 -0.15684242976E+04  0.17659159806E+04  0.10100000352E+00 0.  1.
       -3    1    3    3    0  502  0.79958354631E+03  0.13845799166E+03  0.35716218619E+03  0.88660549312E+03  0.10100000352E+00 0. -1.
</event>
<event>
 5   0  0.1284837E-05  0.2307078E+04  0.7818609E-02  0.8475136E-01
        1   -1    0    0  501    0  0.00000000000E+00  0.00000000000E+00  0.16171208339E+04  0.16171208339E+04  0.50400001928E-02 0.  1.
       -1   -1    0    0    0  501  0.00000000000E+00  0.00000000000E+00 -0.82285279683E+03  0.82285279684E+03  0.50400001928E-02 0. -1.
    10030    2    1    2    0    0  0.00000000000E+00  0.00000000000E+00  0.79426803706E+03  0.24399736307E+04  0.23070781530E+04 0.  0.
        4    1    3    3  502    0 -0.11078197674E+04 -0.87118123389E+02  0.72447308316E+03  0.13265432769E+04  0.12699999809E+01 0. -1.
       -4    1    3    3    0  502  0.11078197674E+04  0.87118123389E+02  0.69794953900E+02  0.11134303538E+04  0.12699999809E+01 0.  1.
</event>
<event>
 5   0  0.2871888E-05  0.2240189E+04  0.7818609E-02  0.8501884E-01
       -2   -1    0    0    0  501  0.00000000000E+00  0.00000000000E+00  0.94341055688E+03  0.94341055688E+03  0.25500000920E-02 0. -1.
        2   -1    0    0  501    0  0.00000000000E+00  0.00000000000E+00 -0.13298680248E+04  0.13298680248E+04  0.25500000920E-02 0.  1.
    10030    2    1    2    0    0  0.00000000000E+00  0.00000000000E+00 -0.38645746788E+03  0.22732785816E+04  0.22401888615E+04 0.  0.
        3    1    3    3  502    0  0.86966211611E+03  0.62303375314E+03 -0.52998635651E+03  0.11938881028E+04  0.10100000352E+00 0.  1.
       -3    1    3    3    0  502 -0.86966211611E+03 -0.62303375314E+03  0.14352888862E+03  0.10793904788E+04  0.10100000352E+00 0. -1.
</event>
<event>
 5   0  0.2938972E-05  0.2317388E+04  0.7818609E-02  0.8471097E-01
       -2   -1    0    0    0  501  0.00000000000E+00  0.00000000000E+00  0.84756893198E+03  0.84756893198E+03  0.25500000920E-02 0. -1.
        2   -1    0    0  501    0  0.00000000000E+00  0.00000000000E+00 -0.15840263137E+04  0.15840263137E+04  0.25500000920E-02 0.  1.
    10030    2    1    2    0    0  0.00000000000E+00  0.00000000000E+00 -0.73645738172E+03  0.24315952457E+04  0.23173877457E+04 0.  0.
        2    1    3    3  502    0  0.59035652382E+03  0.22555177521E+03  0.65080652981E+03  0.90716237122E+03  0.25500000920E-02 0. -1.
       -2    1    3    3    0  502 -0.59035652382E+03 -0.22555177521E+03 -0.13872639115E+04  0.15244328745E+04  0.25500000920E-02 0.  1.
</event>
<event>
 5   0  0.1327820E-05  0.2310353E+04  0.7818609E-02  0.8473850E-01
       -1   -1    0    0    0  501  0.00000000000E+00  0.00000000000E+00  0.10777101830E+04  0.10777101830E+04  0.50400001928E-02 0. -1.
        1   -1    0    0  501    0  0.00000000000E+00  0.00000000000E+00 -0.12382108316E+04  0.12382108317E+04  0.50400001928E-02 0.  1.
    10030    2    1    2    0    0  0.00000000000E+00  0.00000000000E+00 -0.16050064864E+03  0.23159210147E+04  0.23103527194E+04 0.  0.
        1    1    3    3  502    0  0.10375017025E+04  0.46012706258E+03 -0.29595661073E+03  0.11729096350E+04  0.50400001928E-02 0. -1.
       -1    1    3    3    0  502 -0.10375017025E+04 -0.46012706258E+03  0.13545596209E+03  0.11430113797E+04  0.50400001928E-02 0.  1.
</event>
<event>
 5   0  0.2816178E-05  0.2300179E+04  0.7818609E-02  0.8477850E-01
       -2   -1    0    0    0  501  0.00000000000E+00  0.00000000000E+00  0.68982690409E+03  0.68982690409E+03  0.25500000920E-02 0. -1.
        2   -1    0    0  501    0  0.00000000000E+00  0.00000000000E+00 -0.19174463044E+04  0.19174463044E+04  0.25500000920E-02 0.  1.
    10030    2    1    2    0    0  0.00000000000E+00  0.00000000000E+00 -0.12276194003E+04  0.26072732085E+04  0.23001791651E+04 0.  0.
        1    1    3    3  502    0  0.71604189298E+03 -0.81599892675E+03 -0.18347058891E+03  0.11010139409E+04  0.50400001928E-02 0. -1.
       -1    1    3    3    0  502 -0.71604189298E+03  0.81599892675E+03 -0.10441488114E+04  0.15062592676E+04  0.50400001928E-02 0.  1.
</event>
<event>
 5   0  0.1303224E-05  0.2292206E+04  0.7818609E-02  0.8481001E-01
       -1   -1    0    0    0  501  0.00000000000E+00  0.00000000000E+00  0.11624332204E+04  0.11624332204E+04  0.50400001928E-02 0. -1.
        1   -1    0    0  501    0  0.00000000000E+00  0.00000000000E+00 -0.11300021624E+04  0.11300021625E+04  0.50400001928E-02 0.  1.
    10030    2    1    2    0    0  0.00000000000E+00  0.00000000000E+00  0.32431057998E+02  0.22924353829E+04  0.22922059705E+04 0.  0.
        2    1    3    3  502    0  0.67441018344E+03 -0.37363840236E+03 -0.83187718560E+03  0.11342197332E+04  0.25500000920E-02 0.  1.
       -2    1    3    3    0  502 -0.67441018344E+03  0.37363840236E+03  0.86430824360E+03  0.11582156497E+04  0.25500000920E-02 0. -1.
</event>
<event>
 5   0  0.2910126E-05  0.2302305E+04  0.7818609E-02  0.8477013E-01
        2   -1    0    0  501    0  0.00000000000E+00  0.00000000000E+00  0.11007470368E+04  0.11007470368E+04  0.25500000920E-02 0.  1.
       -2   -1    0    0    0  501  0.00000000000E+00  0.00000000000E+00 -0.12038660800E+04  0.12038660800E+04  0.25500000920E-02 0. -1.
    10030    2    1    2    0    0  0.00000000000E+00  0.00000000000E+00 -0.10311904326E+03  0.23046131168E+04  0.23023049496E+04 0.  0.
        5    1    3    3  502    0  0.34849170319E+02 -0.32875219119E+03  0.10521961357E+04  0.11029194285E+04  0.46999998093E+01 0.  1.
       -5    1    3    3    0  502 -0.34849170319E+02  0.32875219119E+03 -0.11553151789E+04  0.12016936883E+04  0.46999998093E+01 0. -1.
</event>
<event>
 5   0  0.1303224E-05  0.2305099E+04  0.7818609E-02  0.8475913E-01
       -1   -1    0    0    0  501  0.00000000000E+00  0.00000000000E+00  0.16150679615E+04  0.16150679615E+04  0.50400001928E-02 0. -1.
        1   -1    0    0  501    0  0.00000000000E+00  0.00000000000E+00 -0.82248564104E+03  0.82248564105E+03  0.50400001928E-02 0.  1.
    10030    2    1    2    0    0  0.00000000000E+00  0.00000000000E+00  0.79258232049E+03  0.24375536026E+04  0.23050988766E+04 0.  0.
        2    1    3    3  502    0  0.10215760067E+04 -0.44974667265E+03  0.92594145187E+02  0.11200282508E+04  0.25500000920E-02 0.  1.
       -2    1    3    3    0  502 -0.10215760067E+04  0.44974667265E+03  0.69998817530E+03  0.13175253518E+04  0.25500000920E-02 0. -1.
</event>
<event>
 5   0  0.1371753E-05  0.2311607E+04  0.7818609E-02  0.8473359E-01
        1   -1    0    0  501    0  0.00000000000E+00  0.00000000000E+00  0.14621761508E+04  0.14621761508E+04  0.50400001928E-02 0. -1.
       -1   -1    0    0    0  501  0.00000000000E+00  0.00000000000E+00 -0.91362602560E+03  0.91362602561E+03  0.50400001928E-02 0.  1.
    10030    2    1    2    0    0  0.00000000000E+00  0.00000000000E+00  0.54855012518E+03  0.23758021764E+04  0.23116073935E+04 0.  0.
        3    1    3    3  502    0  0.67119131422E+03  0.39278270065E+02  0.12405115277E+04  0.14109958977E+04  0.10100000352E+00 0. -1.
       -3    1    3    3    0  502 -0.67119131422E+03 -0.39278270065E+02 -0.69196140247E+03  0.96480627874E+03  0.10100000352E+00 0.  1.
</event>
<event>
 5   0  0.1308224E-05  0.2230202E+04  0.7818609E-02  0.8505961E-01
       -1   -1    0    0    0  501  0.00000000000E+00  0.00000000000E+00  0.68140184871E+03  0.68140184873E+03  0.50400001928E-02 0.  1.
        1   -1    0    0  501    0  0.00000000000E+00  0.00000000000E+00 -0.18248417375E+04  0.18248417375E+04  0.50400001928E-02 0. -1.
    10030    2    1    2    0    0  0.00000000000E+00  0.00000000000E+00 -0.11434398888E+04  0.25062435862E+04  0.22302022631E+04 0.  0.
        5    1    3    3  502    0 -0.26333805198E+03  0.29584508686E+03 -0.17431202232E+04  0.17875573970E+04  0.46999998093E+01 0. -1.
       -5    1    3    3    0  502  0.26333805198E+03 -0.29584508686E+03  0.59968033445E+03  0.71868618921E+03  0.46999998093E+01 0.  1.
</event>
<event>
 5   0  0.2816178E-05  0.2298336E+04  0.7818609E-02  0.8478578E-01
       -2   -1    0    0    0  501  0.00000000000E+00  0.00000000000E+00  0.16035045881E+04  0.16035045881E+04  0.25500000920E-02 0. -1.
        2   -1    0    0  501    0  0.00000000000E+00  0.00000000000E+00 -0.82356277269E+03  0.82356277270E+03  0.25500000920E-02 0.  1.
    10030    2    1    2    0    0  0.00000000000E+00  0.00000000000E+00  0.77994181543E+03  0.24270673608E+04  0.22983356453E+04 0.  0.
        1    1    3    3  502    0 -0.31955449819E+03 -0.60198556356E+03  0.13670434707E+04  0.15275174457E+04  0.50400001928E-02 0. -1.
       -1    1    3    3    0  502  0.31955449819E+03  0.60198556356E+03 -0.58710165532E+03  0.89954991510E+03  0.50400001928E-02 0.  1.
</event>
<event>
 5   0  0.1371753E-05  0.2298492E+04  0.7818609E-02  0.8478516E-01
        1   -1    0    0  501    0  0.00000000000E+00  0.00000000000E+00  0.14473728007E+04  0.14473728008E+04  0.50400001928E-02 0. -1.
       -1   -1    0    0    0  501  0.00000000000E+00  0.00000000000E+00 -0.91252671596E+03  0.91252671597E+03  0.50400001928E-02 0.  1.
    10030    2    1    2    0    0  0.00000000000E+00  0.00000000000E+00  0.53484608479E+03  0.23598995167E+04  0.22984919827E+04 0.  0.
        3    1    3    3  502    0 -0.54875627136E+03 -0.61500051832E+03 -0.55485265030E+03  0.99358973255E+03  0.10100000352E+00 0.  1.
       -3    1    3    3    0  502  0.54875627136E+03  0.61500051832E+03  0.10896987351E+04  0.13663097842E+04  0.10100000352E+00 0. -1.
</event>
<event>
 5   0  0.2938972E-05  0.2288292E+04  0.7818609E-02  0.8482552E-01
       -2   -1    0    0    0  501  0.00000000000E+00  0.00000000000E+00  0.15527665087E+04  0.15527665087E+04  0.25500000920E-02 0. -1.
        2   -1    0    0  501    0  0.00000000000E+00  0.00000000000E+00 -0.84305685006E+03  0.84305685006E+03  0.25500000920E-02 0.  1.
    10030    2    1    2    0    0  0.00000000000E+00  0.00000000000E+00  0.70970965862E+03  0.23958233587E+04  0.22882923255E+04 0.  0.
        2    1    3    3  502    0 -0.33990265042E+03  0.10680593899E+04  0.59540281207E+03  0.12691686968E+04  0.25500000920E-02 0. -1.
       -2    1    3    3    0  502  0.33990265042E+03 -0.10680593899E+04  0.11430684655E+03  0.11266546620E+04  0.25500000920E-02 0.  1.
</event>
<event>
 5   0  0.1284837E-05  0.2243839E+04  0.7818609E-02  0.8500400E-01
       -1   -1    0    0    0  501  0.00000000000E+00  0.00000000000E+00  0.10864150184E+04  0.10864150184E+04  0.50400001928E-02 0. -1.
        1   -1    0    0  501    0  0.00000000000E+00  0.00000000000E+00 -0.11585843546E+04  0.11585843547E+04  0.50400001928E-02 0.  1.
    10030    2    1    2    0    0  0.00000000000E+00  0.00000000000E+00 -0.72169336249E+02  0.22449993731E+04  0.22438390700E+04 0.  0.
        4    1    3    3  502    0  0.22304017597E+03 -0.70433749096E+03  0.80866443771E+03  0.10953437848E+04  0.12699999809E+01 0. -1.
       -4    1    3    3    0  502 -0.22304017597E+03  0.70433749096E+03 -0.88083377396E+03  0.11496555882E+04  0.12699999809E+01 0.  1.
</event>
<event>
 5   0  0.1308224E-05  0.2302946E+04  0.7818609E-02  0.8476760E-01
        1   -1    0    0  501    0  0.00000000000E+00  0.00000000000E+00  0.79403310378E+03  0.79403310379E+03  0.50400001928E-02 0.  1.
       -1   -1    0    0    0  501  0.00000000000E+00  0.00000000000E+00 -0.16698171453E+04  0.16698171454E+04  0.50400001928E-02 0. -1.
    10030    2    1    2    0    0  0.00000000000E+00  0.00000000000E+00 -0.87578404157E+03  0.24638502491E+04  0.23029460182E+04 0.  0.
        5    1    3    3  502    0 -0.13478435878E+02  0.12732463497E+03 -0.16621674056E+04  0.16670980191E+04  0.46999998093E+01 0. -1.
       -5    1    3    3    0  502  0.13478435878E+02 -0.12732463497E+03  0.78638336404E+03  0.79675223008E+03  0.46999998093E+01 0.  1.
</event>
<event>
 5   0  0.2910126E-05  0.2300993E+04  0.7818609E-02  0.8477530E-01
       -2   -1    0    0    0  501  0.00000000000E+00  0.00000000000E+00  0.89399828785E+03  0.89399828785E+03  0.25500000920E-02 0. -1.
        2   -1    0    0  501    0  0.00000000000E+00  0.00000000000E+00 -0.14805865704E+04  0.14805865704E+04  0.25500000920E-02 0.  1.
    10030    2    1    2    0    0  0.00000000000E+00  0.00000000000E+00 -0.58658828251E+03  0.23745848582E+04  0.23009927066E+04 0.  0.
        5    1    3    3  502    0  0.97737483933E+03 -0.34000238506E+03 -0.81212246755E+03  0.13154574074E+04  0.46999998093E+01 0.  1.
       -5    1    3    3    0  502 -0.97737483933E+03  0.34000238506E+03  0.22553418504E+03  0.10591274508E+04  0.46999998093E+01 0. -1.
</event>
<event>
 5   0  0.1308224E-05  0.2281815E+04  0.7818609E-02  0.8485126E-01
       -1   -1    0    0    0  501  0.00000000000E+00  0.00000000000E+00  0.12165786997E+04  0.12165786997E+04  0.50400001928E-02 0. -1.
        1   -1    0    0  501    0  0.00000000000E+00  0.00000000000E+00 -0.10699429312E+04  0.10699429313E+04  0.50400001928E-02 0.  1.
    10030    2    1    2    0    0  0.00000000000E+00  0.00000000000E+00  0.14663576849E+03  0.22865216310E+04  0.22818148743E+04 0.  0.
        5    1    3    3  502    0  0.43392362891E+03  0.13428728485E+03  0.11220543946E+04  0.12105168091E+04  0.46999998093E+01 0. -1.
       -5    1    3    3    0  502 -0.43392362891E+03 -0.13428728485E+03 -0.97541862613E+03  0.10760048219E+04  0.46999998093E+01 0.  1.
</event>
<event>
 5   0  0.1303224E-05  0.2394984E+04  0.7818609E-02  0.8441384E-01
       -1   -1    0    0    0  501  0.00000000000E+00  0.00000000000E+00  0.89560545299E+03  0.89560545300E+03  0.50400001928E-02 0.  1.
        1   -1    0    0  501    0  0.00000000000E+00  0.00000000000E+00 -0.16011369807E+04  0.16011369807E+04  0.50400001928E-02 0. -1.
    10030    2    1    2    0    0  0.00000000000E+00  0.00000000000E+00 -0.70553152767E+03  0.24967424337E+04  0.23949839339E+04 0.  0.
        2    1    3    3  502    0 -0.56962914107E+03 -0.11962146056E+03  0.73821709387E+03  0.94008038479E+03  0.25500000920E-02 0.  1.
       -2    1    3    3    0  502  0.56962914107E+03  0.11962146056E+03 -0.14437486215E+04  0.15566620489E+04  0.25500000920E-02 0. -1.
</event>
<event>
 5   0  0.2816178E-05  0.2279438E+04  0.7818609E-02  0.8486073E-01
        2   -1    0    0  501    0  0.00000000000E+00  0.00000000000E+00  0.88294702615E+03  0.88294702616E+03  0.25500000920E-02 0.  1.
       -2   -1    0    0    0  501  0.00000000000E+00  0.00000000000E+00 -0.14711629782E+04  0.14711629782E+04  0.25500000920E-02 0. -1.
    10030    2    1    2    0    0  0.00000000000E+00  0.00000000000E+00 -0.58821595203E+03  0.23541100043E+04  0.22794376294E+04 0.  0.
        1    1    3    3  502    0 -0.24301748770E+03  0.10702425264E+04 -0.61155738654E+03  0.12563753427E+04  0.50400001928E-02 0. -1.
       -1    1    3    3    0  502  0.24301748770E+03 -0.10702425264E+04  0.23341434513E+02  0.10977346616E+04  0.50400001928E-02 0.  1.
</event>
<event>
 5   0  0.1284837E-05  0.2275116E+04  0.7818609E-02  0.8487798E-01
       -1   -1    0    0    0  501  0.00000000000E+00  0.00000000000E+00  0.16974154698E+04  0.16974154698E+04  0.50400001928E-02 0.  1.
        1   -1    0    0  501    0  0.00000000000E+00  0.00000000000E+00 -0.76235775889E+03  0.76235775890E+03  0.50400001928E-02 0. -1.
    10030    2    1    2    0    0  0.00000000000E+00  0.00000000000E+00  0.93505771089E+03  0.24597732287E+04  0.22751156924E+04 0.  0.
        4    1    3    3  502    0  0.79633369986E+03 -0.52264619959E+03 -0.20482116146E+03  0.97429961128E+03  0.12699999809E+01 0. -1.
       -4    1    3    3    0  502 -0.79633369986E+03  0.52264619959E+03  0.11398788723E+04  0.14854736174E+04  0.12699999809E+01 0.  1.
</event>
<event>
 5   0  0.2816178E-05  0.2179417E+04  0.7818609E-02  0.8527044E-01
        2   -1    0    0  501    0  0.00000000000E+00  0.00000000000E+00  0.18475568007E+04  0.18475568007E+04  0.25500000920E-02 0.  1.
       -2   -1    0    0    0  501  0.00000000000E+00  0.00000000000E+00 -0.64272135948E+03  0.64272135948E+03  0.25500000920E-02 0. -1.
    10030    2    1    2    0    0  0.00000000000E+00  0.00000000000E+00  0.12048354413E+04  0.24902781602E+04  0.21794166363E+04 0.  0.
        1    1    3    3  502    0  0.61974868967E+01 -0.39109036654E+03 -0.55974627413E+03  0.68286600082E+03  0.50400001928E-02 0. -1.
       -1    1    3    3    0  502 -0.61974868967E+01  0.39109036654E+03  0.17645817154E+04  0.18074121594E+04  0.50400001928E-02 0.  1.
</event>
<event>
 5   0  0.2816178E-05  0.2285621E+04  0.7818609E-02  0.8483612E-01
       -2   -1    0    0    0  501  0.00000000000E+00  0.00000000000E+00  0.61443211406E+03  0.61443211407E+03  0.25500000920E-02 0.  1.
        2   -1    0    0  501    0  0.00000000000E+00  0.00000000000E+00 -0.21255659492E+04  0.21255659492E+04  0.25500000920E-02 0. -1.
    10030    2    1    2    0    0  0.00000000000E+00  0.00000000000E+00 -0.15111338352E+04  0.27399980633E+04  0.22856211233E+04 0.  0.
        1    1    3    3  502    0 -0.10929586268E+04  0.25318974293E+03 -0.49470126956E+03  0.12261292558E+04  0.50400001928E-02 0.  1.
       -1    1    3    3    0  502  0.10929586268E+04 -0.25318974293E+03 -0.10164325656E+04  0.15138688075E+04  0.50400001928E-02 0. -1.
</event>
<event>
 5   0  0.1284837E-05  0.2314041E+04  0.7818609E-02  0.8472405E-01
        1   -1    0    0  501    0  0.00000000000E+00  0.00000000000E+00  0.16257209542E+04  0.16257209542E+04  0.50400001928E-02 0. -1.
       -1   -1    0    0    0  501  0.00000000000E+00  0.00000000000E+00 -0.82344812893E+03  0.82344812895E+03  0.50400001928E-02 0.  1.
    10030    2    1    2    0    0  0.00000000000E+00  0.00000000000E+00  0.80227282527E+03  0.24491690832E+04  0.23140413807E+04 0.  0.
        4    1    3    3  502    0 -0.10216148371E+04  0.46275737113E+03  0.70208923197E+03  0.13231674734E+04  0.12699999809E+01 0. -1.
       -4    1    3    3    0  502  0.10216148371E+04 -0.46275737113E+03  0.10018359330E+03  0.11260016098E+04  0.12699999809E+01 0.  1.
</event>
<event>
 5   0  0.1371753E-05  0.2293739E+04  0.7818609E-02  0.8480394E-01
        1   -1    0    0  501    0  0.00000000000E+00  0.00000000000E+00  0.20876833620E+04  0.20876833620E+04  0.50400001928E-02 0. -1.
       -1   -1    0    0    0  501  0.00000000000E+00  0.00000000000E+00 -0.63003327407E+03  0.63003327409E+03  0.50400001928E-02 0.  1.
    10030    2    1    2    0    0  0.00000000000E+00  0.00000000000E+00  0.14576500880E+04  0.27177166361E+04  0.22937392910E+04 0.  0.
        3    1    3    3  502    0  0.34467904933E+03 -0.20744179138E+03  0.20013434330E+04  0.20413748531E+04  0.10100000352E+00 0. -1.
       -3    1    3    3    0  502 -0.34467904933E+03  0.20744179138E+03 -0.54369334502E+03  0.67634178304E+03  0.10100000352E+00 0.  1.
</event>
<event>
 5   0  0.2994157E-05  0.2274895E+04  0.7818609E-02  0.8487886E-01
       -2   -1    0    0    0  501  0.00000000000E+00  0.00000000000E+00  0.22903688129E+04  0.22903688129E+04  0.25500000920E-02 0. -1.
        2   -1    0    0  501    0  0.00000000000E+00  0.00000000000E+00 -0.56488136316E+03  0.56488136317E+03  0.25500000920E-02 0.  1.
    10030    2    1    2    0    0  0.00000000000E+00  0.00000000000E+00  0.17254874498E+04  0.28552501761E+04  0.22748948611E+04 0.  0.
        4    1    3    3  502    0  0.27709996237E+03 -0.72146970242E+03  0.19102046344E+04  0.20606276419E+04  0.12699999809E+01 0. -1.
       -4    1    3    3    0  502 -0.27709996237E+03  0.72146970242E+03 -0.18471718458E+03  0.79462253418E+03  0.12699999809E+01 0.  1.
</event>
<event>
 5   0  0.1284837E-05  0.2304052E+04  0.7818609E-02  0.8476325E-01
       -1   -1    0    0    0  501  0.00000000000E+00  0.00000000000E+00  0.14594945241E+04  0.14594945241E+04  0.50400001928E-02 0. -1.
        1   -1    0    0  501    0  0.00000000000E+00  0.00000000000E+00 -0.90933116331E+03  0.90933116332E+03  0.50400001928E-02 0.  1.
    10030    2    1    2    0    0  0.00000000000E+00  0.00000000000E+00  0.55016336083E+03  0.23688256875E+04  0.23040519556E+04 0.  0.
        4    1    3    3  502    0  0.12887284358E+02  0.10411931235E+04 -0.23163622250E+03  0.10667268418E+04  0.12699999809E+01 0.  1.
       -4    1    3    3    0  502 -0.12887284358E+02 -0.10411931235E+04  0.78179958333E+03  0.13020988457E+04  0.12699999809E+01 0. -1.
</event>
<event>
 5   0  0.1327820E-05  0.2055610E+04  0.7818609E-02  0.8581054E-01
        1   -1    0    0  501    0  0.00000000000E+00  0.00000000000E+00  0.81173565743E+03  0.81173565745E+03  0.50400001928E-02 0. -1.
       -1   -1    0    0    0  501  0.00000000000E+00  0.00000000000E+00 -0.13013882230E+04  0.13013882230E+04  0.50400001928E-02 0.  1.
    10030    2    1    2    0    0  0.00000000000E+00  0.00000000000E+00 -0.48965256560E+03  0.21131238805E+04  0.20556101039E+04 0.  0.
        1    1    3    3  502    0  0.69060856549E+03 -0.76032702688E+03 -0.20711407652E+03  0.10478232767E+04  0.50400001928E-02 0.  1.
       -1    1    3    3    0  502 -0.69060856549E+03  0.76032702688E+03 -0.28253848909E+03  0.10653006038E+04  0.50400001928E-02 0. -1.
</event>
<event>
 5   0  0.1308224E-05  0.2306498E+04  0.7818609E-02  0.8475363E-01
       -1   -1    0    0    0  501  0.00000000000E+00  0.00000000000E+00  0.65380475097E+03  0.65380475099E+03  0.50400001928E-02 0. -1.
        1   -1    0    0  501    0  0.00000000000E+00  0.00000000000E+00 -0.20342216562E+04  0.20342216562E+04  0.50400001928E-02 0.  1.
    10030    2    1    2    0    0  0.00000000000E+00  0.00000000000E+00 -0.13804169053E+04  0.26880264072E+04  0.23064984573E+04 0.  0.
        5    1    3    3  502    0 -0.86249750251E+03  0.56776182357E+03 -0.12886759719E+04  0.16513519554E+04  0.46999998093E+01 0.  1.
       -5    1    3    3    0  502  0.86249750251E+03 -0.56776182357E+03 -0.91740933351E+02  0.10366744518E+04  0.46999998093E+01 0. -1.
</event>
<event>
 5   0  0.2994157E-05  0.2309594E+04  0.7818609E-02  0.8474148E-01
       -2   -1    0    0    0  501  0.00000000000E+00  0.00000000000E+00  0.63228834118E+03  0.63228834118E+03  0.25500000920E-02 0. -1.
        2   -1    0    0  501    0  0.00000000000E+00  0.00000000000E+00 -0.21090951179E+04  0.21090951179E+04  0.25500000920E-02 0.  1.
    10030    2    1    2    0    0  0.00000000000E+00  0.00000000000E+00 -0.14768067767E+04  0.27413834591E+04  0.23095941232E+04 0.  0.
        4    1    3    3  502    0  0.15258742205E+03 -0.11330902785E+04 -0.93118082768E+03  0.14745425892E+04  0.12699999809E+01 0.  1.
       -4    1    3    3    0  502 -0.15258742205E+03  0.11330902785E+04 -0.54562594901E+03  0.12668408699E+04  0.12699999809E+01 0. -1.
</event>
<event>
 5   0  0.2938972E-05  0.2321013E+04  0.7818609E-02  0.8469682E-01
       -2   -1    0    0    0  501  0.00000000000E+00  0.00000000000E+00  0.95286558241E+03  0.95286558241E+03  0.25500000920E-02 0.  1.
        2   -1    0    0  501    0  0.00000000000E+00  0.00000000000E+00 -0.14133954182E+04  0.14133954182E+04  0.25500000920E-02 0. -1.
    10030    2    1    2    0    0  0.00000000000E+00  0.00000000000E+00 -0.46052983582E+03  0.23662610006E+04  0.23210134410E+04 0.  0.
        2    1    3    3  502    0  0.54919330431E+03  0.83170283377E+03 -0.83635686533E+03  0.13010901949E+04  0.25500000920E-02 0. -1.
       -2    1    3    3    0  502 -0.54919330431E+03 -0.83170283377E+03  0.37582702951E+03  0.10651708057E+04  0.25500000920E-02 0.  1.
</event>
<event>
 5   0  0.1308224E-05  0.2331194E+04  0.7818609E-02  0.8465722E-01
       -1   -1    0    0    0  501  0.00000000000E+00  0.00000000000E+00  0.93606740592E+03  0.93606740593E+03  0.50400001928E-02 0.  1.
        1   -1    0    0  501    0  0.00000000000E+00  0.00000000000E+00 -0.14514092754E+04  0.14514092754E+04  0.50400001928E-02 0. -1.
    10030    2    1    2    0    0  0.00000000000E+00  0.00000000000E+00 -0.51534186944E+03  0.23874766813E+04  0.23311944709E+04 0.  0.
        5    1    3    3  502    0 -0.50138306763E+03 -0.95270205590E+03 -0.71518745483E+03  0.12924942450E+04  0.46999998093E+01 0. -1.
       -5    1    3    3    0  502  0.50138306763E+03  0.95270205590E+03  0.19984558539E+03  0.10949824363E+04  0.46999998093E+01 0.  1.
</event>
<event>
 5   0  0.1327820E-05  0.2334762E+04  0.7818609E-02  0.8464340E-01
        1   -1    0    0  501    0  0.00000000000E+00  0.00000000000E+00  0.13764412045E+04  0.13764412045E+04  0.50400001928E-02 0. -1.
       -1   -1    0    0    0  501  0.00000000000E+00  0.00000000000E+00 -0.99007399832E+03  0.99007399833E+03  0.50400001928E-02 0.  1.
    10030    2    1    2    0    0  0.00000000000E+00  0.00000000000E+00  0.38636720616E+03  0.23665152028E+04  0.23347622121E+04 0.  0.
        1    1    3    3  502    0 -0.28134431896E+03  0.10992900129E+04  0.47111246948E+03  0.12286334348E+04  0.50400001928E-02 0. -1.
       -1    1    3    3    0  502  0.28134431896E+03 -0.10992900129E+04 -0.84745263315E+02  0.11378817680E+04  0.50400001928E-02 0.  1.
</event>
<event>
 5   0  0.2871888E-05  0.2319563E+04  0.7818609E-02  0.8470248E-01
       -2   -1    0    0    0  501  0.00000000000E+00  0.00000000000E+00  0.94305243660E+03  0.94305243660E+03  0.25500000920E-02 0.  1.
        2   -1    0    0  501    0  0.00000000000E+00  0.00000000000E+00 -0.14263181705E+04  0.14263181705E+04  0.25500000920E-02 0. -1.
    10030    2    1    2    0    0  0.00000000000E+00  0.00000000000E+00 -0.48326573391E+03  0.23693706071E+04  0.23195627399E+04 0.  0.
        3    1    3    3  502    0  0.44260135134E+03  0.78324809047E+03  0.50601227269E+03  0.10321927910E+04  0.10100000352E+00 0.  1.
       -3    1    3    3    0  502 -0.44260135134E+03 -0.78324809047E+03 -0.98927800660E+03  0.13371778161E+04  0.10100000352E+00 0. -1.
</event>
<event>
 5   0  0.2994157E-05  0.2291211E+04  0.7818609E-02  0.8481395E-01
        2   -1    0    0  501    0  0.00000000000E+00  0.00000000000E+00  0.13146144096E+04  0.13146144096E+04  0.25500000920E-02 0.  1.
       -2   -1    0    0    0  501  0.00000000000E+00  0.00000000000E+00 -0.99832474776E+03  0.99832474777E+03  0.25500000920E-02 0. -1.
    10030    2    1    2    0    0  0.00000000000E+00  0.00000000000E+00  0.31628966179E+03  0.23129391573E+04  0.22912111198E+04 0.  0.
        4    1    3    3  502    0 -0.31627317725E+03 -0.44103308244E+03  0.11766086266E+04  0.12957424032E+04  0.12699999809E+01 0.  1.
       -4    1    3    3    0  502  0.31627317725E+03  0.44103308244E+03 -0.86031896480E+03  0.10171967541E+04  0.12699999809E+01 0. -1.
</event>
<event>
 5   0  0.2994157E-05  0.2287782E+04  0.7818609E-02  0.8482754E-01
       -2   -1    0    0    0  501  0.00000000000E+00  0.00000000000E+00  0.13641233215E+04  0.13641233215E+04  0.25500000920E-02 0.  1.
        2   -1    0    0  501    0  0.00000000000E+00  0.00000000000E+00 -0.95921399400E+03  0.95921399400E+03  0.25500000920E-02 0. -1.
    10030    2    1    2    0    0  0.00000000000E+00  0.00000000000E+00  0.40490932750E+03  0.23233373155E+04  0.22877816150E+04 0.  0.
        4    1    3    3  502    0 -0.66175931288E+03 -0.37689758447E+03 -0.66433691385E+03  0.10106049304E+04  0.12699999809E+01 0. -1.
       -4    1    3    3    0  502  0.66175931288E+03  0.37689758447E+03  0.10692462414E+04  0.13127323851E+04  0.12699999809E+01 0.  1.
</event>
<event>
 5   0  0.1371753E-05  0.2302009E+04  0.7818609E-02  0.8477130E-01
       -1   -1    0    0    0  501  0.00000000000E+00  0.00000000000E+00  0.11208655769E+04  0.11208655769E+04  0.50400001928E-02 0.  1.
        1   -1    0    0  501    0  0.00000000000E+00  0.00000000000E+00 -0.11819533788E+04  0.11819533788E+04  0.50400001928E-02 0. -1.
    10030    2    1    2    0    0  0.00000000000E+00  0.00000000000E+00 -0.61087801857E+02  0.23028189557E+04  0.23020085628E+04 0.  0.
        3    1    3    3  502    0 -0.56633952177E+03  0.85973149949E+03  0.48435289002E+03  0.11377506042E+04  0.10100000352E+00 0.  1.
       -3    1    3    3    0  502  0.56633952177E+03 -0.85973149949E+03 -0.54544069188E+03  0.11650683515E+04  0.10100000352E+00 0. -1.
</event>
<event>
 5   0  0.1371753E-05  0.2296849E+04  0.7818609E-02  0.8479164E-01
       -1   -1    0    0    0  501  0.00000000000E+00  0.00000000000E+00  0.13006704228E+04  0.13006704228E+04  0.50400001928E-02 0.  1.
        1   -1    0    0  501    0  0.00000000000E+00  0.00000000000E+00 -0.10139994903E+04  0.10139994904E+04  0.50400001928E-02 0. -1.
    10030    2    1    2    0    0  0.00000000000E+00  0.00000000000E+00  0.28667093241E+03  0.23146699131E+04  0.22968492731E+04 0.  0.
        3    1    3    3  502    0 -0.20219165489E+03 -0.10459969660E+04  0.57548424046E+03  0.12108564074E+04  0.10100000352E+00 0. -1.
       -3    1    3    3    0  502  0.20219165489E+03  0.10459969660E+04 -0.28881330804E+03  0.11038135057E+04  0.10100000352E+00 0.  1.
</event>
<event>
 5   0  0.1327820E-05  0.2295820E+04  0.7818609E-02  0.8479571E-01
        1   -1    0    0  501    0  0.00000000000E+00  0.00000000000E+00  0.82618963170E+03  0.82618963171E+03  0.50400001928E-02 0.  1.
       -1   -1    0    0    0  501  0.00000000000E+00  0.00000000000E+00 -0.15949093841E+04  0.15949093841E+04  0.50400001928E-02 0. -1.
    10030    2    1    2    0    0  0.00000000000E+00  0.00000000000E+00 -0.76871975243E+03  0.24210990158E+04  0.22958201991E+04 0.  0.
        1    1    3    3  502    0  0.24204276536E+03  0.31017505546E+03  0.75286584199E+03  0.84947056533E+03  0.50400001928E-02 0.  1.
       -1    1    3    3    0  502 -0.24204276536E+03 -0.31017505546E+03 -0.15215855944E+04  0.15716284505E+04  0.50400001928E-02 0. -1.
</event>
<event>
 5   0  0.1303224E-05  0.2312652E+04  0.7818609E-02  0.8472949E-01
       -1   -1    0    0    0  501  0.00000000000E+00  0.00000000000E+00  0.13878651412E+04  0.13878651412E+04  0.50400001928E-02 0. -1.
        1   -1    0    0  501    0  0.00000000000E+00  0.00000000000E+00 -0.96341467159E+03  0.96341467160E+03  0.50400001928E-02 0.  1.
    10030    2    1    2    0    0  0.00000000000E+00  0.00000000000E+00  0.42445046958E+03  0.23512798128E+04  0.23126518451E+04 0.  0.
        2    1    3    3  502    0 -0.10345839325E+02 -0.79646216685E+03 -0.64000628710E+03  0.10217960007E+04  0.25500000920E-02 0.  1.
       -2    1    3    3    0  502  0.10345839325E+02  0.79646216685E+03  0.10644567567E+04  0.13294838120E+04  0.25500000920E-02 0. -1.
</event>
<event>
 5   0  0.2871888E-05  0.2299477E+04  0.7818609E-02  0.8478127E-01
       -2   -1    0    0    0  501  0.00000000000E+00  0.00000000000E+00  0.14113486627E+04  0.14113486627E+04  0.25500000920E-02 0.  1.
        2   -1    0    0  501    0  0.00000000000E+00  0.00000000000E+00 -0.93662127026E+03  0.93662127026E+03  0.25500000920E-02 0. -1.
    10030    2    1    2    0    0  0.00000000000E+00  0.00000000000E+00  0.47472739242E+03  0.23479699329E+04  0.22994774861E+04 0.  0.
        3    1    3    3  502    0  0.25865670206E+03 -0.50494454194E+03  0.12584658866E+04  0.13804378573E+04  0.10100000352E+00 0.  1.
       -3    1    3    3    0  502 -0.25865670206E+03  0.50494454194E+03 -0.78373849417E+03  0.96753207564E+03  0.10100000352E+00 0. -1.
</event>
<event>
 5   0  0.2871888E-05  0.2229569E+04  0.7818609E-02  0.8506221E-01
       -2   -1    0    0    0  501  0.00000000000E+00  0.00000000000E+00  0.58414132113E+03  0.58414132113E+03  0.25500000920E-02 0.  1.
        2   -1    0    0  501    0  0.00000000000E+00  0.00000000000E+00 -0.21274714875E+04  0.21274714875E+04  0.25500000920E-02 0. -1.
    10030    2    1    2    0    0  0.00000000000E+00  0.00000000000E+00 -0.15433301663E+04  0.27116128086E+04  0.22295685729E+04 0.  0.
        3    1    3    3  502    0 -0.27528903103E+03 -0.36571684764E+03 -0.20079010675E+04  0.20594172891E+04  0.10100000352E+00 0. -1.
       -3    1    3    3    0  502  0.27528903103E+03  0.36571684764E+03  0.46457090121E+03  0.65219551954E+03  0.10100000352E+00 0.  1.
</event>
<event>
 5   0  0.1371753E-05  0.2290578E+04  0.7818609E-02  0.8481645E-01
       -1   -1    0    0    0  501  0.00000000000E+00  0.00000000000E+00  0.10345639680E+04  0.10345639680E+04  0.50400001928E-02 0.  1.
        1   -1    0    0  501    0  0.00000000000E+00  0.00000000000E+00 -0.12678644132E+04  0.12678644132E+04  0.50400001928E-02 0. -1.
    10030    2    1    2    0    0  0.00000000000E+00  0.00000000000E+00 -0.23330044515E+03  0.23024283812E+04  0.22905779517E+04 0.  0.
        3    1    3    3  502    0 -0.89190371645E+03  0.68380380220E+03 -0.33826067144E+03  0.11736695324E+04  0.10100000352E+00 0. -1.
       -3    1    3    3    0  502  0.89190371645E+03 -0.68380380220E+03  0.10496022630E+03  0.11287588487E+04  0.10100000352E+00 0.  1.
</event>
<event>
 5   0  0.2938972E-05  0.2278687E+04  0.7818609E-02  0.8486372E-01
       -2   -1    0    0    0  501  0.00000000000E+00  0.00000000000E+00  0.11792718221E+04  0.11792718221E+04  0.25500000920E-02 0. -1.
        2   -1    0    0  501    0  0.00000000000E+00  0.00000000000E+00 -0.11007671567E+04  0.11007671567E+04  0.25500000920E-02 0.  1.
    10030    2    1    2    0    0  0.00000000000E+00  0.00000000000E+00  0.78504665430E+02  0.22800389787E+04  0.22786870698E+04 0.  0.
        2    1    3    3  502    0 -0.10128334524E+04 -0.40664218945E+03  0.36642371986E+03  0.11512844197E+04  0.25500000920E-02 0. -1.
       -2    1    3    3    0  502  0.10128334524E+04  0.40664218945E+03 -0.28791905443E+03  0.11287545590E+04  0.25500000920E-02 0.  1.
</event>
<event>
 5   0  0.2816178E-05  0.2297726E+04  0.7818609E-02  0.8478818E-01
       -2   -1    0    0    0  501  0.00000000000E+00  0.00000000000E+00  0.80074054610E+03  0.80074054611E+03  0.25500000920E-02 0.  1.
        2   -1    0    0  501    0  0.00000000000E+00  0.00000000000E+00 -0.16483318238E+04  0.16483318238E+04  0.25500000920E-02 0. -1.
    10030    2    1    2    0    0  0.00000000000E+00  0.00000000000E+00 -0.84759127770E+03  0.24490723699E+04  0.22977259408E+04 0.  0.
        1    1    3    3  502    0 -0.10797477850E+04  0.28146720627E+03 -0.13227139560E+03  0.11236435332E+04  0.50400001928E-02 0.  1.
       -1    1    3    3    0  502  0.10797477850E+04 -0.28146720627E+03 -0.71531988211E+03  0.13254288367E+04  0.50400001928E-02 0. -1.
</event>
<event>
 5   0  0.2994157E-05  0.2107845E+04  0.7818609E-02  0.8557796E-01
        2   -1    0    0  501    0  0.00000000000E+00  0.00000000000E+00  0.14911425584E+04  0.14911425584E+04  0.25500000920E-02 0.  1.
       -2   -1    0    0    0  501  0.00000000000E+00  0.00000000000E+00 -0.74490020715E+03  0.74490020716E+03  0.25500000920E-02 0. -1.
    10030    2    1    2    0    0  0.00000000000E+00  0.00000000000E+00  0.74624235123E+03  0.22360427655E+04  0.21078447767E+04 0.  0.
        4    1    3    3  502    0 -0.77215591687E+03  0.53593025215E+03 -0.13264033521E+03  0.94923182972E+03  0.12699999809E+01 0. -1.
       -4    1    3    3    0  502  0.77215591687E+03 -0.53593025215E+03  0.87888268643E+03  0.12868109358E+04  0.12699999809E+01 0.  1.
</event>
<event>
 5   0  0.1308224E-05  0.2323597E+04  0.7818609E-02  0.8468675E-01
        1   -1    0    0  501    0  0.00000000000E+00  0.00000000000E+00  0.11199953514E+04  0.11199953514E+04  0.50400001928E-02 0. -1.
       -1   -1    0    0    0  501  0.00000000000E+00  0.00000000000E+00 -0.12051617652E+04  0.12051617652E+04  0.50400001928E-02 0.  1.
    10030    2    1    2    0    0  0.00000000000E+00  0.00000000000E+00 -0.85166413827E+02  0.23251571167E+04  0.23235968452E+04 0.  0.
        5    1    3    3  502    0 -0.10153362484E+04  0.42918140662E+03  0.32460884009E+03  0.11491289598E+04  0.46999998093E+01 0. -1.
       -5    1    3    3    0  502  0.10153362484E+04 -0.42918140662E+03 -0.40977525392E+03  0.11760281569E+04  0.46999998093E+01 0.  1.
</event>
<event>
 5   0  0.2816178E-05  0.2299821E+04  0.7818609E-02  0.8477992E-01
        2   -1    0    0  501    0  0.00000000000E+00  0.00000000000E+00  0.13011798541E+04  0.13011798541E+04  0.25500000920E-02 0.  1.
       -2   -1    0    0    0  501  0.00000000000E+00  0.00000000000E+00 -0.10162273072E+04  0.10162273072E+04  0.25500000920E-02 0. -1.
    10030    2    1    2    0    0  0.00000000000E+00  0.00000000000E+00  0.28495254691E+03  0.23174071613E+04  0.22998212968E+04 0.  0.
        1    1    3    3  502    0  0.19239890941E+03 -0.83311445154E+03 -0.63229683185E+03  0.10634360880E+04  0.50400001928E-02 0. -1.
       -1    1    3    3    0  502 -0.19239890941E+03  0.83311445154E+03  0.91724937876E+03  0.12539710733E+04  0.50400001928E-02 0.  1.
</event>
<event>
 5   0  0.2871888E-05  0.2307380E+04  0.7818609E-02  0.8475017E-01
       -2   -1    0    0    0  501  0.00000000000E+00  0.00000000000E+00  0.46032509132E+03  0.46032509133E+03  0.25500000920E-02 0. -1.
        2   -1    0    0  501    0  0.00000000000E+00  0.00000000000E+00 -0.28914363186E+04  0.28914363186E+04  0.25500000920E-02 0.  1.
    10030    2    1    2    0    0  0.00000000000E+00  0.00000000000E+00 -0.24311112273E+04  0.33517614100E+04  0.23073800618E+04 0.  0.
        3    1    3    3  502    0  0.20024669288E+03  0.16090278024E+03  0.41825353581E+03  0.49084057810E+03  0.10100000352E+00 0. -1.
       -3    1    3    3    0  502 -0.20024669288E+03 -0.16090278024E+03 -0.28493647631E+04  0.28609208319E+04  0.10100000352E+00 0.  1.
</event>
<event>
 5   0  0.1284837E-05  0.2306808E+04  0.7818609E-02  0.8475242E-01
       -1   -1    0    0    0  501  0.00000000000E+00  0.00000000000E+00  0.49404410014E+03  0.49404410016E+03  0.50400001928E-02 0.  1.
        1   -1    0    0  501    0  0.00000000000E+00  0.00000000000E+00 -0.26927572883E+04  0.26927572883E+04  0.50400001928E-02 0. -1.
    10030    2    1    2    0    0  0.00000000000E+00  0.00000000000E+00 -0.21987131882E+04  0.31868013885E+04  0.23068080557E+04 0.  0.
        4    1    3    3  502    0  0.82806398627E+03  0.53739897462E+03 -0.27526020899E+03  0.10248206764E+04  0.12699999809E+01 0.  1.
       -4    1    3    3    0  502 -0.82806398627E+03 -0.53739897462E+03 -0.19234529792E+04  0.21619807121E+04  0.12699999809E+01 0. -1.
</event>
<event>
 5   0  0.2910126E-05  0.2304530E+04  0.7818609E-02  0.8476137E-01
        2   -1    0    0  501    0  0.00000000000E+00  0.00000000000E+00  0.95749995557E+03  0.95749995557E+03  0.25500000920E-02 0.  1.
       -2   -1    0    0    0  501  0.00000000000E+00  0.00000000000E+00 -0.13866476608E+04  0.13866476608E+04  0.25500000920E-02 0. -1.
    10030    2    1    2    0    0  0.00000000000E+00  0.00000000000E+00 -0.42914770523E+03  0.23441476164E+04  0.23045303848E+04 0.  0.
        5    1    3    3  502    0  0.43570342009E+02 -0.11049031191E+04 -0.54415584017E+03  0.12324110296E+04  0.46999998093E+01 0. -1.
       -5    1    3    3    0  502 -0.43570342009E+02  0.11049031191E+04  0.11500813494E+03  0.11117365868E+04  0.46999998093E+01 0.  1.
</event>
<event>
 5   0  0.2938972E-05  0.2318303E+04  0.7818609E-02  0.8470739E-01
        2   -1    0    0  501    0  0.00000000000E+00  0.00000000000E+00  0.13927641658E+04  0.13927641658E+04  0.25500000920E-02 0.  1.
       -2   -1    0    0    0  501  0.00000000000E+00  0.00000000000E+00 -0.96472328127E+03  0.96472328127E+03  0.25500000920E-02 0. -1.
    10030    2    1    2    0    0  0.00000000000E+00  0.00000000000E+00  0.42804088450E+03  0.23574874470E+04  0.23183028413E+04 0.  0.
        2    1    3    3  502    0  0.18882941329E+03  0.11145857470E+04 -0.46580645597E+02  0.11314272806E+04  0.25500000920E-02 0. -1.
       -2    1    3    3    0  502 -0.18882941329E+03 -0.11145857470E+04  0.47462153009E+03  0.12260601664E+04  0.25500000920E-02 0.  1.
</event>
<event>
 5   0  0.2938972E-05  0.2290850E+04  0.7818609E-02  0.8481537E-01
        2   -1    0    0  501    0  0.00000000000E+00  0.00000000000E+00  0.24945419531E+04  0.24945419531E+04  0.25500000920E-02 0. -1.
       -2   -1    0    0    0  501  0.00000000000E+00  0.00000000000E+00 -0.52594772148E+03  0.52594772148E+03  0.25500000920E-02 0.  1.
    10030    2    1    2    0    0  0.00000000000E+00  0.00000000000E+00  0.19685942316E+04  0.30204896745E+04  0.22908501971E+04 0.  0.
        2    1    3    3  502    0  0.69987538096E+03 -0.25975508280E+03 -0.16113130822E+03  0.76371562142E+03  0.25500000920E-02 0.  1.
       -2    1    3    3    0  502 -0.69987538096E+03  0.25975508280E+03  0.21297255398E+04  0.22567740531E+04  0.25500000920E-02 0. -1.
</event>
<event>
 5   0  0.1371753E-05  0.2300144E+04  0.7818609E-02  0.8477864E-01
        1   -1    0    0  501    0  0.00000000000E+00  0.00000000000E+00  0.12160806217E+04  0.12160806218E+04  0.50400001928E-02 0.  1.
       -1   -1    0    0    0  501  0.00000000000E+00  0.00000000000E+00 -0.10876464752E+04  0.10876464752E+04  0.50400001928E-02 0. -1.
    10030    2    1    2    0    0  0.00000000000E+00  0.00000000000E+00  0.12843414658E+03  0.23037270969E+04  0.23001441709E+04 0.  0.
        3    1    3    3  502    0  0.70438378245E+03 -0.77250549620E+03 -0.41584629629E+03  0.11250997320E+04  0.10100000352E+00 0.  1.
       -3    1    3    3    0  502 -0.70438378245E+03  0.77250549620E+03  0.54428044287E+03  0.11786273649E+04  0.10100000352E+00 0. -1.
</event>
<event>
 5   0  0.1303224E-05  0.2277292E+04  0.7818609E-02  0.8486929E-01
        1   -1    0    0  501    0  0.00000000000E+00  0.00000000000E+00  0.15534857492E+04  0.15534857492E+04  0.50400001928E-02 0. -1.
       -1   -1    0    0    0  501  0.00000000000E+00  0.00000000000E+00 -0.83458400508E+03  0.83458400509E+03  0.50400001928E-02 0.  1.
    10030    2    1    2    0    0  0.00000000000E+00  0.00000000000E+00  0.71890174412E+03  0.23880697543E+04  0.22772916883E+04 0.  0.
        2    1    3    3  502    0 -0.27637501762E+03 -0.70826502001E+03 -0.52942123073E+03  0.92644985211E+03  0.25500000920E-02 0.  1.
       -2    1    3    3    0  502  0.27637501762E+03  0.70826502001E+03  0.12483229748E+04  0.14616199022E+04  0.25500000920E-02 0. -1.
</event>
<event>
 5   0  0.2816178E-05  0.2294537E+04  0.7818609E-02  0.8480078E-01
       -2   -1    0    0    0  501  0.00000000000E+00  0.00000000000E+00  0.14343448336E+04  0.14343448337E+04  0.25500000920E-02 0. -1.
        2   -1    0    0  501    0  0.00000000000E+00  0.00000000000E+00 -0.91764856736E+03  0.91764856736E+03  0.25500000920E-02 0.  1.
    10030    2    1    2    0    0  0.00000000000E+00  0.00000000000E+00  0.51669626629E+03  0.23519934010E+04  0.22945365386E+04 0.  0.
        1    1    3    3  502    0 -0.31259141609E+03  0.10471682748E+04 -0.99609374746E+02  0.10973590191E+04  0.50400001928E-02 0.  1.
       -1    1    3    3    0  502  0.31259141609E+03 -0.10471682748E+04  0.61630564104E+03  0.12546343819E+04  0.50400001928E-02 0. -1.
</event>
<event>
 5   0  0.1303224E-05  0.2302396E+04  0.7818609E-02  0.8476977E-01
        1   -1    0    0  501    0  0.00000000000E+00  0.00000000000E+00  0.21957621028E+04  0.21957621028E+04  0.50400001928E-02 0.  1.
       -1   -1    0    0    0  501  0.00000000000E+00  0.00000000000E+00 -0.60355220216E+03  0.60355220218E+03  0.50400001928E-02 0. -1.
    10030    2    1    2    0    0  0.00000000000E+00  0.00000000000E+00  0.15922099007E+04  0.27993143050E+04  0.23023961888E+04 0.  0.
        2    1    3    3  502    0 -0.17220786421E+03 -0.11125603478E+04  0.50377268017E+03  0.12333827424E+04  0.25500000920E-02 0. -1.
       -2    1    3    3    0  502  0.17220786421E+03  0.11125603478E+04  0.10884372205E+04  0.15659315626E+04  0.25500000920E-02 0.  1.
</event>
<event>
 5   0  0.1308224E-05  0.2305189E+04  0.7818609E-02  0.8475878E-01
       -1   -1    0    0    0  501  0.00000000000E+00  0.00000000000E+00  0.66751435880E+03  0.66751435882E+03  0.50400001928E-02 0.  1.
        1   -1    0    0  501    0  0.00000000000E+00  0.00000000000E+00 -0.19901800499E+04  0.19901800499E+04  0.50400001928E-02 0. -1.
    10030    2    1    2    0    0  0.00000000000E+00  0.00000000000E+00 -0.13226656911E+04  0.26576944087E+04  0.23051887210E+04 0.  0.
        5    1    3    3  502    0 -0.48667644023E+03 -0.81202531650E+03  0.96628865272E+02  0.95162928691E+03  0.46999998093E+01 0.  1.
       -5    1    3    3    0  502  0.48667644023E+03  0.81202531650E+03 -0.14192945563E+04  0.17060651218E+04  0.46999998093E+01 0. -1.
</event>
<event>
 5   0  0.2910126E-05  0.2301181E+04  0.7818609E-02  0.8477456E-01
       -2   -1    0    0    0  501  0.00000000000E+00  0.00000000000E+00  0.50940340756E+03  0.50940340757E+03  0.25500000920E-02 0.  1.
        2   -1    0    0  501    0  0.00000000000E+00  0.00000000000E+00 -0.25988409027E+04  0.25988409027E+04  0.25500000920E-02 0. -1.
    10030    2    1    2    0    0  0.00000000000E+00  0.00000000000E+00 -0.20894374951E+04  0.31082443102E+04  0.23011809242E+04 0.  0.
        5    1    3    3  502    0  0.66881516751E+03  0.91186702326E+03 -0.13313163508E+04  0.17467800412E+04  0.46999998093E+01 0. -1.
       -5    1    3    3    0  502 -0.66881516751E+03 -0.91186702326E+03 -0.75812114426E+03  0.13614642690E+04  0.46999998093E+01 0.  1.
</event>
<event>
 5   0  0.1303224E-05  0.2298058E+04  0.7818609E-02  0.8478687E-01
       -1   -1    0    0    0  501  0.00000000000E+00  0.00000000000E+00  0.73415836743E+03  0.73415836745E+03  0.50400001928E-02 0. -1.
        1   -1    0    0  501    0  0.00000000000E+00  0.00000000000E+00 -0.17983420838E+04  0.17983420838E+04  0.50400001928E-02 0.  1.
    10030    2    1    2    0    0  0.00000000000E+00  0.00000000000E+00 -0.10641837164E+04  0.25325004513E+04  0.22980582137E+04 0.  0.
        2    1    3    3  502    0  0.49577334822E+03  0.97302279277E+02  0.60518219959E+03  0.78835552961E+03  0.25500000920E-02 0.  1.
       -2    1    3    3    0  502 -0.49577334822E+03 -0.97302279277E+02 -0.16693659160E+04  0.17441449216E+04  0.25500000920E-02 0. -1.
</event>
<event>
 5   0  0.1371753E-05  0.2319998E+04  0.7818609E-02  0.8470078E-01
       -1   -1    0    0    0  501  0.00000000000E+00  0.00000000000E+00  0.10267706632E+04  0.10267706632E+04  0.50400001928E-02 0.  1.
        1   -1    0    0  501    0  0.00000000000E+00  0.00000000000E+00 -0.13105147114E+04  0.13105147114E+04  0.50400001928E-02 0. -1.
    10030    2    1    2    0    0  0.00000000000E+00  0.00000000000E+00 -0.28374404818E+03  0.23372853746E+04  0.23199983270E+04 0.  0.
        3    1    3    3  502    0 -0.29924937824E+03  0.10370846576E+04 -0.56989453363E+03  0.12206041811E+04  0.10100000352E+00 0. -1.
       -3    1    3    3    0  502  0.29924937824E+03 -0.10370846576E+04  0.28615048545E+03  0.11166811935E+04  0.10100000352E+00 0.  1.
</event>
<event>
 5   0  0.1308224E-05  0.2373740E+04  0.7818609E-02  0.8449401E-01
       -1   -1    0    0    0  501  0.00000000000E+00  0.00000000000E+00  0.10184084499E+04  0.10184084499E+04  0.50400001928E-02 0. -1.
        1   -1    0    0  501    0  0.00000000000E+00  0.00000000000E+00 -0.13831978571E+04  0.13831978571E+04  0.50400001928E-02 0.  1.
    10030    2    1    2    0    0  0.00000000000E+00  0.00000000000E+00 -0.36478940712E+03  0.24016063070E+04  0.23737399905E+04 0.  0.
        5    1    3    3  502    0  0.91245961229E+03  0.38197716832E+03 -0.84595168973E+03  0.13015934283E+04  0.46999998093E+01 0.  1.
       -5    1    3    3    0  502 -0.91245961229E+03 -0.38197716832E+03  0.48116228261E+03  0.11000128787E+04  0.46999998093E+01 0. -1.
</event>
<event>
 5   0  0.2938972E-05  0.2304818E+04  0.7818609E-02  0.8476024E-01
        2   -1    0    0  501    0  0.00000000000E+00  0.00000000000E+00  0.18932748774E+04  0.18932748774E+04  0.25500000920E-02 0. -1.
       -2   -1    0    0    0  501  0.00000000000E+00  0.00000000000E+00 -0.70145476710E+03  0.70145476710E+03  0.25500000920E-02 0.  1.
    10030    2    1    2    0    0  0.00000000000E+00  0.00000000000E+00  0.11918201103E+04  0.25947296445E+04  0.23048181605E+04 0.  0.
        2    1    3    3  502    0  0.54913480320E+03 -0.77882887950E+03 -0.13361531204E+03  0.96227673112E+03  0.25500000920E-02 0.  1.
       -2    1    3    3    0  502 -0.54913480320E+03  0.77882887950E+03  0.13254354224E+04  0.16324529134E+04  0.25500000920E-02 0. -1.
</event>
<event>
 5   0  0.2816178E-05  0.2283823E+04  0.7818609E-02  0.8484327E-01
       -2   -1    0    0    0  501  0.00000000000E+00  0.00000000000E+00  0.12760417566E+04  0.12760417566E+04  0.25500000920E-02 0. -1.
        2   -1    0    0  501    0  0.00000000000E+00  0.00000000000E+00 -0.10218804703E+04  0.10218804703E+04  0.25500000920E-02 0.  1.
    10030    2    1    2    0    0  0.00000000000E+00  0.00000000000E+00  0.25416128636E+03  0.22979222269E+04  0.22838232421E+04 0.  0.
        1    1    3    3  502    0  0.36905564556E+03 -0.16656304996E+03 -0.94722651424E+03  0.10301375580E+04  0.50400001928E-02 0.  1.
       -1    1    3    3    0  502 -0.36905564556E+03  0.16656304996E+03  0.12013878006E+04  0.12677846689E+04  0.50400001928E-02 0. -1.
</event>
<event>
 5   0  0.1371753E-05  0.2318029E+04  0.7818609E-02  0.8470846E-01
        1   -1    0    0  501    0  0.00000000000E+00  0.00000000000E+00  0.84428398138E+03  0.84428398140E+03  0.50400001928E-02 0.  1.
       -1   -1    0    0    0  501  0.00000000000E+00  0.00000000000E+00 -0.15910694849E+04  0.15910694849E+04  0.50400001928E-02 0. -1.
    10030    2    1    2    0    0  0.00000000000E+00  0.00000000000E+00 -0.74678550347E+03  0.24353534663E+04  0.23180288862E+04 0.  0.
        3    1    3    3  502    0  0.81204591002E+03 -0.80991787003E+03 -0.54897090921E+03  0.12715166478E+04  0.10100000352E+00 0. -1.
       -3    1    3    3    0  502 -0.81204591002E+03  0.80991787003E+03 -0.19781459426E+03  0.11638368185E+04  0.10100000352E+00 0.  1.
</event>
<event>
 5   0  0.2816178E-05  0.2310080E+04  0.7818609E-02  0.8473957E-01
       -2   -1    0    0    0  501  0.00000000000E+00  0.00000000000E+00  0.21640196683E+04  0.21640196683E+04  0.25500000920E-02 0.  1.
        2   -1    0    0  501    0  0.00000000000E+00  0.00000000000E+00 -0.61649991695E+03  0.61649991696E+03  0.25500000920E-02 0. -1.
    10030    2    1    2    0    0  0.00000000000E+00  0.00000000000E+00  0.15475197514E+04  0.27805195853E+04  0.23100804712E+04 0.  0.
        1    1    3    3  502    0 -0.54795027505E+03  0.45588599528E+03  0.18677123193E+04  0.19991075140E+04  0.50400001928E-02 0.  1.
       -1    1    3    3    0  502  0.54795027505E+03 -0.45588599528E+03 -0.32019256794E+03  0.78141207132E+03  0.50400001928E-02 0. -1.
</event>
<event>
 5   0  0.2816178E-05  0.2324132E+04  0.7818609E-02  0.8468467E-01
       -2   -1    0    0    0  501  0.00000000000E+00  0.00000000000E+00  0.10313390826E+04  0.10313390826E+04  0.25500000920E-02 0.  1.
        2   -1    0    0  501    0  0.00000000000E+00  0.00000000000E+00 -0.13093632168E+04  0.13093632168E+04  0.25500000920E-02 0. -1.
    10030    2    1    2    0    0  0.00000000000E+00  0.00000000000E+00 -0.27802413426E+03  0.23407022994E+04  0.23241320607E+04 0.  0.
        1    1    3    3  502    0  0.57088987732E+03 -0.88688404272E+03 -0.63025900147E+03  0.12287005193E+04  0.50400001928E-02 0. -1.
       -1    1    3    3    0  502 -0.57088987732E+03  0.88688404272E+03  0.35223486721E+03  0.11120017801E+04  0.50400001928E-02 0.  1.
</event>
<event>
 5   0  0.2910126E-05  0.2314980E+04  0.7818609E-02  0.8472038E-01
       -2   -1    0    0    0  501  0.00000000000E+00  0.00000000000E+00  0.50815880116E+03  0.50815880117E+03  0.25500000920E-02 0. -1.
        2   -1    0    0  501    0  0.00000000000E+00  0.00000000000E+00 -0.26365433449E+04  0.26365433449E+04  0.25500000920E-02 0.  1.
    10030    2    1    2    0    0  0.00000000000E+00  0.00000000000E+00 -0.21283845437E+04  0.31447021461E+04  0.23149796590E+04 0.  0.
        5    1    3    3  502    0 -0.28940782646E+03 -0.54311735023E+03 -0.23958732405E+04  0.24736539816E+04  0.46999998093E+01 0.  1.
       -5    1    3    3    0  502  0.28940782646E+03  0.54311735023E+03  0.26748869677E+03  0.67104816447E+03  0.46999998093E+01 0. -1.
</event>
<event>
 5   0  0.2871888E-05  0.2303838E+04  0.7818609E-02  0.8476410E-01
        2   -1    0    0  501    0  0.00000000000E+00  0.00000000000E+00  0.16634675487E+04  0.16634675488E+04  0.25500000920E-02 0.  1.
       -2   -1    0    0    0  501  0.00000000000E+00  0.00000000000E+00 -0.79768128929E+03  0.79768128929E+03  0.25500000920E-02 0. -1.
    10030    2    1    2    0    0  0.00000000000E+00  0.00000000000E+00  0.86578625946E+03  0.24611488380E+04  0.23038376149E+04 0.  0.
        3    1    3    3  502    0  0.36782122454E+03 -0.89402867005E+03 -0.23624497959E+03  0.99518411195E+03  0.10100000352E+00 0. -1.
       -3    1    3    3    0  502 -0.36782122454E+03  0.89402867005E+03  0.11020312391E+04  0.14659647261E+04  0.10100000352E+00 0.  1.
</event>
<event>
 5   0  0.1327820E-05  0.2302438E+04  0.7818609E-02  0.8476961E-01
       -1   -1    0    0    0  501  0.00000000000E+00  0.00000000000E+00  0.10383414913E+04  0.10383414913E+04  0.50400001928E-02 0.  1.
        1   -1    0    0  501    0  0.00000000000E+00  0.00000000000E+00 -0.12763670671E+04  0.12763670671E+04  0.50400001928E-02 0. -1.
    10030    2    1    2    0    0  0.00000000000E+00  0.00000000000E+00 -0.23802557585E+03  0.23147085584E+04  0.23024377376E+04 0.  0.
        1    1    3    3  502    0  0.92049909470E+03 -0.64294823912E+03 -0.37454029859E+03  0.11836306252E+04  0.50400001928E-02 0.  1.
       -1    1    3    3    0  502 -0.92049909470E+03  0.64294823912E+03  0.13651472274E+03  0.11310779333E+04  0.50400001928E-02 0. -1.
</event>
<event>
 5   0  0.1327820E-05  0.2287596E+04  0.7818609E-02  0.8482828E-01
        1   -1    0    0  501    0  0.00000000000E+00  0.00000000000E+00  0.17094594921E+04  0.17094594921E+04  0.50400001928E-02 0. -1.
       -1   -1    0    0    0  501  0.00000000000E+00  0.00000000000E+00 -0.76531426027E+03  0.76531426029E+03  0.50400001928E-02 0.  1.
    10030    2    1    2    0    0  0.00000000000E+00  0.00000000000E+00  0.94414523179E+03  0.24747737524E+04  0.22875958792E+04 0.  0.
        1    1    3    3  502    0 -0.10108199957E+04  0.46066146811E+02  0.10489942807E+04  0.14574869311E+04  0.50400001928E-02 0. -1.
       -1    1    3    3    0  502  0.10108199957E+04 -0.46066146811E+02 -0.10484904888E+03  0.10172868212E+04  0.50400001928E-02 0.  1.
</event>
<event>
 5   0  0.1327820E-05  0.2329829E+04  0.7818609E-02  0.8466252E-01
        1   -1    0    0  501    0  0.00000000000E+00  0.00000000000E+00  0.81373636843E+03  0.81373636844E+03  0.50400001928E-02 0. -1.
       -1   -1    0    0    0  501  0.00000000000E+00  0.00000000000E+00 -0.16676482045E+04  0.16676482045E+04  0.50400001928E-02 0.  1.
    10030    2    1    2    0    0  0.00000000000E+00  0.00000000000E+00 -0.85391183605E+03  0.24813845729E+04  0.23298291729E+04 0.  0.
        1    1    3    3  502    0  0.78851794850E+03  0.89934732639E+02 -0.13351739503E+04  0.15532347823E+04  0.50400001928E-02 0.  1.
       -1    1    3    3    0  502 -0.78851794850E+03 -0.89934732639E+02  0.48126211426E+03  0.92814979065E+03  0.50400001928E-02 0. -1.
</event>
<event>
 5   0  0.2910126E-05  0.2303538E+04  0.7818609E-02  0.8476528E-01
        2   -1    0    0  501    0  0.00000000000E+00  0.00000000000E+00  0.11190572548E+04  0.11190572548E+04  0.25500000920E-02 0.  1.
       -2   -1    0    0    0  501  0.00000000000E+00  0.00000000000E+00 -0.11854365998E+04  0.11854365998E+04  0.25500000920E-02 0. -1.
    10030    2    1    2    0    0  0.00000000000E+00  0.00000000000E+00 -0.66379344990E+02  0.23044938546E+04  0.23035376508E+04 0.  0.
        5    1    3    3  502    0  0.84709362685E+03  0.45611113256E+03  0.60027484442E+03  0.11340004218E+04  0.46999998093E+01 0.  1.
       -5    1    3    3    0  502 -0.84709362685E+03 -0.45611113256E+03 -0.66665418941E+03  0.11704934328E+04  0.46999998093E+01 0. -1.
</event>
<event>
 5   0  0.2816178E-05  0.2287130E+04  0.7818609E-02  0.8483013E-01
       -2   -1    0    0    0  501  0.00000000000E+00  0.00000000000E+00  0.54039112376E+03  0.54039112377E+03  0.25500000920E-02 0.  1.
        2   -1    0    0  501    0  0.00000000000E+00  0.00000000000E+00 -0.24199891628E+04  0.24199891628E+04  0.25500000920E-02 0. -1.
    10030    2    1    2    0    0  0.00000000000E+00  0.00000000000E+00 -0.18795980391E+04  0.29603802866E+04  0.22871297849E+04 0.  0.
        1    1    3    3  502    0  0.82748952483E+03 -0.72797385667E+03 -0.54495237752E+03  0.12294949953E+04  0.50400001928E-02 0.  1.
       -1    1    3    3    0  502 -0.82748952483E+03  0.72797385667E+03 -0.13346456615E+04  0.17308852913E+04  0.50400001928E-02 0. -1.
</event>
<event>
 5   0  0.1308224E-05  0.2312236E+04  0.7818609E-02  0.8473112E-01
        1   -1    0    0  501    0  0.00000000000E+00  0.00000000000E+00  0.17171736335E+04  0.17171736335E+04  0.50400001928E-02 0. -1.
       -1   -1    0    0    0  501  0.00000000000E+00  0.00000000000E+00 -0.77837726185E+03  0.77837726186E+03  0.50400001928E-02 0.  1.
    10030    2    1    2    0    0  0.00000000000E+00  0.00000000000E+00  0.93879637164E+03  0.24955508954E+04  0.23122360701E+04 0.  0.
        5    1    3    3  502    0 -0.57124624817E+02 -0.24360411569E+03  0.16875899883E+04  0.17060446203E+04  0.46999998093E+01 0. -1.
       -5    1    3    3    0  502  0.57124624817E+02  0.24360411569E+03 -0.74879361666E+03  0.78950627502E+03  0.46999998093E+01 0.  1.
</event>
<event>
 5   0  0.1308224E-05  0.2302314E+04  0.7818609E-02  0.8477009E-01
        1   -1    0    0  501    0  0.00000000000E+00  0.00000000000E+00  0.11951527249E+04  0.11951527249E+04  0.50400001928E-02 0.  1.
       -1   -1    0    0    0  501  0.00000000000E+00  0.00000000000E+00 -0.11087809417E+04  0.11087809417E+04  0.50400001928E-02 0. -1.
    10030    2    1    2    0    0  0.00000000000E+00  0.00000000000E+00  0.86371783137E+02  0.23039336666E+04  0.23023141087E+04 0.  0.
        5    1    3    3  502    0  0.30530786807E+03 -0.91545255595E+03 -0.58484956295E+03  0.11284225174E+04  0.46999998093E+01 0. -1.
       -5    1    3    3    0  502 -0.30530786807E+03  0.91545255595E+03  0.67122134609E+03  0.11755111492E+04  0.46999998093E+01 0.  1.
</event>
<event>
 5   0  0.2816178E-05  0.2291609E+04  0.7818609E-02  0.8481237E-01
       -2   -1    0    0    0  501  0.00000000000E+00  0.00000000000E+00  0.28645351264E+04  0.28645351264E+04  0.25500000920E-02 0.  1.
        2   -1    0    0  501    0  0.00000000000E+00  0.00000000000E+00 -0.45831794119E+03  0.45831794119E+03  0.25500000920E-02 0. -1.
    10030    2    1    2    0    0  0.00000000000E+00  0.00000000000E+00  0.24062171852E+04  0.33228530675E+04  0.22916089034E+04 0.  0.
        1    1    3    3  502    0  0.10319049772E+04 -0.23877076203E+03  0.56935607133E+03  0.12024997691E+04  0.50400001928E-02 0. -1.
       -1    1    3    3    0  502 -0.10319049772E+04  0.23877076203E+03  0.18368611138E+04  0.21203532985E+04  0.50400001928E-02 0.  1.
</event>
<event>
 5   0  0.1371753E-05  0.2293367E+04  0.7818609E-02  0.8480541E-01
       -1   -1    0    0    0  501  0.00000000000E+00  0.00000000000E+00  0.69854247557E+03  0.69854247559E+03  0.50400001928E-02 0. -1.
        1   -1    0    0  501    0  0.00000000000E+00  0.00000000000E+00 -0.18823241201E+04  0.18823241201E+04  0.50400001928E-02 0.  1.
    10030    2    1    2    0    0  0.00000000000E+00  0.00000000000E+00 -0.11837816445E+04  0.25808665957E+04  0.22933672630E+04 0.  0.
        3    1    3    3  502    0  0.72189543667E+03  0.15738161015E+03 -0.15787378801E+04  0.17430763887E+04  0.10100000352E+00 0.  1.
       -3    1    3    3    0  502 -0.72189543667E+03 -0.15738161015E+03  0.39495623556E+03  0.83779020698E+03  0.10100000352E+00 0. -1.
</event>
<event>
 5   0  0.1303224E-05  0.2459748E+04  0.7818609E-02  0.8417467E-01
       -1   -1    0    0    0  501  0.00000000000E+00  0.00000000000E+00  0.84124541505E+03  0.84124541507E+03  0.50400001928E-02 0. -1.
        1   -1    0    0  501    0  0.00000000000E+00  0.00000000000E+00 -0.17980364769E+04  0.17980364769E+04  0.50400001928E-02 0.  1.
    10030    2    1    2    0    0  0.00000000000E+00  0.00000000000E+00 -0.95679106183E+03  0.26392818920E+04  0.24597479077E+04 0.  0.
        2    1    3    3  502    0  0.83346434849E+03  0.71153439135E+03  0.12060320990E+03  0.11024922424E+04  0.25500000920E-02 0. -1.
       -2    1    3    3    0  502 -0.83346434849E+03 -0.71153439135E+03 -0.10773942717E+04  0.15367896496E+04  0.25500000920E-02 0.  1.
</event>
<event>
 5   0  0.1284837E-05  0.2309717E+04  0.7818609E-02  0.8474100E-01
       -1   -1    0    0    0  501  0.00000000000E+00  0.00000000000E+00  0.20512634723E+04  0.20512634723E+04  0.50400001928E-02 0. -1.
        1   -1    0    0  501    0  0.00000000000E+00  0.00000000000E+00 -0.65018393320E+03  0.65018393322E+03  0.50400001928E-02 0.  1.
    10030    2    1    2    0    0  0.00000000000E+00  0.00000000000E+00  0.14010795391E+04  0.27014474055E+04  0.23097173442E+04 0.  0.
        4    1    3    3  502    0  0.66305079007E+03 -0.73112900591E+03 -0.74394256567E+00  0.98700969592E+03  0.12699999809E+01 0.  1.
       -4    1    3    3    0  502 -0.66305079007E+03  0.73112900591E+03  0.14018234816E+04  0.17144377096E+04  0.12699999809E+01 0. -1.
</event>
<event>
 5   0  0.1284837E-05  0.2312847E+04  0.7818609E-02  0.8472873E-01
        1   -1    0    0  501    0  0.00000000000E+00  0.00000000000E+00  0.13835534046E+04  0.13835534046E+04  0.50400001928E-02 0. -1.
       -1   -1    0    0    0  501  0.00000000000E+00  0.00000000000E+00 -0.96658014421E+03  0.96658014422E+03  0.50400001928E-02 0.  1.
    10030    2    1    2    0    0  0.00000000000E+00  0.00000000000E+00  0.41697326041E+03  0.23501335488E+04  0.23128469464E+04 0.  0.
        4    1    3    3  502    0 -0.25686580079E+03 -0.66023597239E+02  0.13522326137E+04  0.13779963024E+04  0.12699999809E+01 0. -1.
       -4    1    3    3    0  502  0.25686580079E+03  0.66023597239E+02 -0.93525935331E+03  0.97213724641E+03  0.12699999809E+01 0.  1.
</event>
<event>
 5   0  0.1327820E-05  0.2310786E+04  0.7818609E-02  0.8473680E-01
       -1   -1    0    0    0  501  0.00000000000E+00  0.00000000000E+00  0.12858181604E+04  0.12858181605E+04  0.50400001928E-02 0. -1.
        1   -1    0    0  501    0  0.00000000000E+00  0.00000000000E+00 -0.10381977627E+04  0.10381977627E+04  0.50400001928E-02 0.  1.
    10030    2    1    2    0    0  0.00000000000E+00  0.00000000000E+00  0.24762039778E+03  0.23240159231E+04  0.23107864786E+04 0.  0.
        1    1    3    3  502    0  0.94249677643E+02  0.64103919610E+03 -0.83828519504E+03  0.10594981458E+04  0.50400001928E-02 0.  1.
       -1    1    3    3    0  502 -0.94249677643E+02 -0.64103919610E+03  0.10859055928E+04  0.12645177773E+04  0.50400001928E-02 0. -1.
</event>
<event>
 5   0  0.1371753E-05  0.2229174E+04  0.7818609E-02  0.8506382E-01
        1   -1    0    0  501    0  0.00000000000E+00  0.00000000000E+00  0.17591390042E+04  0.17591390042E+04  0.50400001928E-02 0. -1.
       -1   -1    0    0    0  501  0.00000000000E+00  0.00000000000E+00 -0.70620024491E+03  0.70620024493E+03  0.50400001928E-02 0.  1.
    10030    2    1    2    0    0  0.00000000000E+00  0.00000000000E+00  0.10529387593E+04  0.24653392491E+04  0.22291741929E+04 0.  0.
        3    1    3    3  502    0  0.96415165715E+03 -0.49557324071E+03  0.23994024717E+03  0.11102939193E+04  0.10100000352E+00 0. -1.
       -3    1    3    3    0  502 -0.96415165715E+03  0.49557324071E+03  0.81299851213E+03  0.13550453298E+04  0.10100000352E+00 0.  1.
</event>
<event>
 5   0  0.1284837E-05  0.2249588E+04  0.7818609E-02  0.8498067E-01
        1   -1    0    0  501    0  0.00000000000E+00  0.00000000000E+00  0.11729889913E+04  0.11729889913E+04  0.50400001928E-02 0. -1.
       -1   -1    0    0    0  501  0.00000000000E+00  0.00000000000E+00 -0.10785792808E+04  0.10785792808E+04  0.50400001928E-02 0.  1.
    10030    2    1    2    0    0  0.00000000000E+00  0.00000000000E+00  0.94409710467E+02  0.22515682722E+04  0.22495880713E+04 0.  0.
        4    1    3    3  502    0  0.12036144448E+03 -0.10728299767E+04  0.36325008698E+03  0.11390361166E+04  0.12699999809E+01 0. -1.
       -4    1    3    3    0  502 -0.12036144448E+03  0.10728299767E+04 -0.26884037651E+03  0.11125321556E+04  0.12699999809E+01 0.  1.
</event>
<event>
 5   0  0.2871888E-05  0.2285938E+04  0.7818609E-02  0.8483486E-01
       -2   -1    0    0    0  501  0.00000000000E+00  0.00000000000E+00  0.72888885039E+03  0.72888885040E+03  0.25500000920E-02 0. -1.
        2   -1    0    0  501    0  0.00000000000E+00  0.00000000000E+00 -0.17922867073E+04  0.17922867073E+04  0.25500000920E-02 0.  1.
    10030    2    1    2    0    0  0.00000000000E+00  0.00000000000E+00 -0.10633978569E+04  0.25211755577E+04  0.22859377049E+04 0.  0.
        3    1    3    3  502    0 -0.22014486558E+03 -0.81569789917E+03 -0.13806869272E+04  0.16186794697E+04  0.10100000352E+00 0.  1.
       -3    1    3    3    0  502  0.22014486558E+03  0.81569789917E+03  0.31728907027E+03  0.90249608800E+03  0.10100000352E+00 0. -1.
</event>
<event>
 5   0  0.1303224E-05  0.2312045E+04  0.7818609E-02  0.8473187E-01
        1   -1    0    0  501    0  0.00000000000E+00  0.00000000000E+00  0.11846159255E+04  0.11846159255E+04  0.50400001928E-02 0. -1.
       -1   -1    0    0    0  501  0.00000000000E+00  0.00000000000E+00 -0.11281190919E+04  0.11281190919E+04  0.50400001928E-02 0.  1.
    10030    2    1    2    0    0  0.00000000000E+00  0.00000000000E+00  0.56496833609E+02  0.23127350174E+04  0.23120448457E+04 0.  0.
        2    1    3    3  502    0  0.96460409311E+03 -0.41819900024E+03  0.50905434066E+03  0.11681129149E+04  0.25500000920E-02 0.  1.
       -2    1    3    3    0  502 -0.96460409311E+03  0.41819900024E+03 -0.45255750705E+03  0.11446221025E+04  0.25500000920E-02 0. -1.
</event>
<event>
 5   0  0.1371753E-05  0.2292117E+04  0.7818609E-02  0.8481036E-01
       -1   -1    0    0    0  501  0.00000000000E+00  0.00000000000E+00  0.13164913640E+04  0.13164913640E+04  0.50400001928E-02 0.  1.
        1   -1    0    0  501    0  0.00000000000E+00  0.00000000000E+00 -0.99769004297E+03  0.99769004298E+03  0.50400001928E-02 0. -1.
    10030    2    1    2    0    0  0.00000000000E+00  0.00000000000E+00  0.31880132105E+03  0.23141814070E+04  0.22921172095E+04 0.  0.
        3    1    3    3  502    0 -0.46758124763E+03  0.24433156747E+03 -0.86780159702E+03  0.10155834579E+04  0.10100000352E+00 0. -1.
       -3    1    3    3    0  502  0.46758124763E+03 -0.24433156747E+03  0.11866029181E+04  0.12985979491E+04  0.10100000352E+00 0.  1.
</event>
<event>
 5   0  0.1303224E-05  0.2308001E+04  0.7818609E-02  0.8474773E-01
        1   -1    0    0  501    0  0.00000000000E+00  0.00000000000E+00  0.11743954881E+04  0.11743954881E+04  0.50400001928E-02 0.  1.
       -1   -1    0    0    0  501  0.00000000000E+00  0.00000000000E+00 -0.11339600202E+04  0.11339600202E+04  0.50400001928E-02 0. -1.
    10030    2    1    2    0    0  0.00000000000E+00  0.00000000000E+00  0.40435467923E+02  0.23083555083E+04  0.23080013270E+04 0.  0.
        2    1    3    3  502    0 -0.29562578925E+03  0.82470853448E+01  0.11358506578E+04  0.11737202982E+04  0.25500000920E-02 0.  1.
       -2    1    3    3    0  502  0.29562578925E+03 -0.82470853448E+01 -0.10954151899E+04  0.11346352101E+04  0.25500000920E-02 0. -1.
</event>
<event>
 5   0  0.2816178E-05  0.2291604E+04  0.7818609E-02  0.8481239E-01
       -2   -1    0    0    0  501  0.00000000000E+00  0.00000000000E+00  0.74378495508E+03  0.74378495508E+03  0.25500000920E-02 0. -1.
        2   -1    0    0  501    0  0.00000000000E+00  0.00000000000E+00 -0.17651093492E+04  0.17651093492E+04  0.25500000920E-02 0.  1.
    10030    2    1    2    0    0  0.00000000000E+00  0.00000000000E+00 -0.10213243941E+04  0.25088943043E+04  0.22916036115E+04 0.  0.
        1    1    3    3  502    0  0.14018938486E+03  0.10987968449E+04 -0.83145429416E+03  0.13850356722E+04  0.50400001928E-02 0.  1.
       -1    1    3    3    0  502 -0.14018938486E+03 -0.10987968449E+04 -0.18987009999E+03  0.11238586321E+04  0.50400001928E-02 0. -1.
</event>
<event>
 5   0  0.1327820E-05  0.2238495E+04  0.7818609E-02  0.8502575E-01
        1   -1    0    0  501    0  0.00000000000E+00  0.00000000000E+00  0.16589294939E+04  0.16589294939E+04  0.50400001928E-02 0. -1.
       -1   -1    0    0    0  501  0.00000000000E+00  0.00000000000E+00 -0.75513425120E+03  0.75513425122E+03  0.50400001928E-02 0.  1.
    10030    2    1    2    0    0  0.00000000000E+00  0.00000000000E+00  0.90379524265E+03  0.24140637451E+04  0.22384945666E+04 0.  0.
        1    1    3    3  502    0 -0.42942874222E+03  0.75251728867E+03  0.12160053081E+04  0.14931042240E+04  0.50400001928E-02 0. -1.
       -1    1    3    3    0  502  0.42942874222E+03 -0.75251728867E+03 -0.31221006549E+03  0.92095952104E+03  0.50400001928E-02 0.  1.
</event>
<event>
 5   0  0.2938972E-05  0.2304558E+04  0.7818609E-02  0.8476126E-01
       -2   -1    0    0    0  501  0.00000000000E+00  0.00000000000E+00  0.11056122816E+04  0.11056122816E+04  0.25500000920E-02 0.  1.
        2   -1    0    0  501    0  0.00000000000E+00  0.00000000000E+00 -0.12009156800E+04  0.12009156800E+04  0.25500000920E-02 0. -1.
    10030    2    1    2    0    0  0.00000000000E+00  0.00000000000E+00 -0.95303398402E+02  0.23065279617E+04  0.23045582007E+04 0.  0.
        2    1    3    3  502    0 -0.39972483563E+03 -0.52492800621E+03 -0.99313779784E+03  0.11923305085E+04  0.25500000920E-02 0. -1.
       -2    1    3    3    0  502  0.39972483563E+03  0.52492800621E+03  0.89783439944E+03  0.11141974532E+04  0.25500000920E-02 0.  1.
</event>
<event>
 5   0  0.1017200E-05  0.2282145E+04  0.7818609E-02  0.8484995E-01
        3   -1    0    0  501    0  0.00000000000E+00  0.00000000000E+00  0.12174860084E+04  0.12174860126E+04  0.10100000352E+00 0. -1.
       -3   -1    0    0    0  501  0.00000000000E+00  0.00000000000E+00 -0.10694545047E+04  0.10694545094E+04  0.10100000352E+00 0.  1.
    10030    2    1    2    0    0  0.00000000000E+00  0.00000000000E+00  0.14803150377E+03  0.22869405221E+04  0.22821445233E+04 0.  0.
        1    1    3    3  502    0 -0.49445555001E+03  0.31646130660E+03 -0.90651479207E+03  0.10800014434E+04  0.50400001928E-02 0.  1.
       -1    1    3    3    0  502  0.49445555001E+03 -0.31646130660E+03  0.10545462958E+04  0.12069390787E+04  0.50400001928E-02 0. -1.
</event>
<event>
 5   0  0.1327820E-05  0.2307643E+04  0.7818609E-02  0.8474914E-01
       -1   -1    0    0    0  501  0.00000000000E+00  0.00000000000E+00  0.60680539163E+03  0.60680539166E+03  0.50400001928E-02 0. -1.
        1   -1    0    0  501    0  0.00000000000E+00  0.00000000000E+00 -0.21939557800E+04  0.21939557800E+04  0.50400001928E-02 0.  1.
    10030    2    1    2    0    0  0.00000000000E+00  0.00000000000E+00 -0.15871503884E+04  0.28007611717E+04  0.23076431235E+04 0.  0.
        1    1    3    3  502    0  0.49371142412E+03  0.12727222548E+03 -0.20498195762E+04  0.21122759016E+04  0.50400001928E-02 0.  1.
       -1    1    3    3    0  502 -0.49371142412E+03 -0.12727222548E+03  0.46266918781E+03  0.68848527004E+03  0.50400001928E-02 0. -1.
</event>
<event>
 5   0  0.1371753E-05  0.2287655E+04  0.7818609E-02  0.8482805E-01
       -1   -1    0    0    0  501  0.00000000000E+00  0.00000000000E+00  0.13588682756E+04  0.13588682756E+04  0.50400001928E-02 0. -1.
        1   -1    0    0  501    0  0.00000000000E+00  0.00000000000E+00 -0.96281670153E+03  0.96281670154E+03  0.50400001928E-02 0.  1.
    10030    2    1    2    0    0  0.00000000000E+00  0.00000000000E+00  0.39605157404E+03  0.23216849771E+04  0.22876547562E+04 0.  0.
        3    1    3    3  502    0 -0.46787528216E+03 -0.80111258567E+03  0.87704688689E+03  0.12766753333E+04  0.10100000352E+00 0.  1.
       -3    1    3    3    0  502  0.46787528216E+03  0.80111258567E+03 -0.48099531284E+03  0.10450096439E+04  0.10100000352E+00 0. -1.
</event>
<event>
 5   0  0.2871888E-05  0.2310791E+04  0.7818609E-02  0.8473679E-01
        2   -1    0    0  501    0  0.00000000000E+00  0.00000000000E+00  0.14532672746E+04  0.14532672746E+04  0.25500000920E-02 0. -1.
       -2   -1    0    0    0  501  0.00000000000E+00  0.00000000000E+00 -0.91857727078E+03  0.91857727078E+03  0.25500000920E-02 0.  1.
    10030    2    1    2    0    0  0.00000000000E+00  0.00000000000E+00  0.53469000380E+03  0.23718445454E+04  0.23107905892E+04 0.  0.
        3    1    3    3  502    0  0.10977806362E+03  0.10394432484E+04  0.77274129939E+03  0.12998548442E+04  0.10100000352E+00 0. -1.
       -3    1    3    3    0  502 -0.10977806362E+03 -0.10394432484E+04 -0.23805129559E+03  0.10719897012E+04  0.10100000352E+00 0.  1.
</event>
<event>
 5   0  0.2994157E-05  0.2287656E+04  0.7818609E-02  0.8482804E-01
        2   -1    0    0  501    0  0.00000000000E+00  0.00000000000E+00  0.16236456725E+04  0.16236456725E+04  0.25500000920E-02 0. -1.
       -2   -1    0    0    0  501  0.00000000000E+00  0.00000000000E+00 -0.80580574455E+03  0.80580574455E+03  0.25500000920E-02 0.  1.
    10030    2    1    2    0    0  0.00000000000E+00  0.00000000000E+00  0.81783992797E+03  0.24294514171E+04  0.22876564515E+04 0.  0.
        4    1    3    3  502    0 -0.37409193695E+03  0.13324235991E+02 -0.73891529762E+03  0.82832345284E+03  0.12699999809E+01 0.  1.
       -4    1    3    3    0  502  0.37409193695E+03 -0.13324235991E+02  0.15567552256E+04  0.16011279642E+04  0.12699999809E+01 0. -1.
</event>
<event>
 5   0  0.1327820E-05  0.2288272E+04  0.7818609E-02  0.8482560E-01
        1   -1    0    0  501    0  0.00000000000E+00  0.00000000000E+00  0.13444554266E+04  0.13444554266E+04  0.50400001928E-02 0. -1.
       -1   -1    0    0    0  501  0.00000000000E+00  0.00000000000E+00 -0.97366346929E+03  0.97366346930E+03  0.50400001928E-02 0.  1.
    10030    2    1    2    0    0  0.00000000000E+00  0.00000000000E+00  0.37079195732E+03  0.23181188959E+04  0.22882719550E+04 0.  0.
        1    1    3    3  502    0 -0.65691851064E+03  0.54019707135E+03  0.96068357765E+03  0.12830696559E+04  0.50400001928E-02 0. -1.
       -1    1    3    3    0  502  0.65691851064E+03 -0.54019707135E+03 -0.58989162032E+03  0.10350492400E+04  0.50400001928E-02 0.  1.
</event>
<event>
 5   0  0.1308224E-05  0.2281871E+04  0.7818609E-02  0.8485103E-01
       -1   -1    0    0    0  501  0.00000000000E+00  0.00000000000E+00  0.58004371941E+03  0.58004371943E+03  0.50400001928E-02 0. -1.
        1   -1    0    0  501    0  0.00000000000E+00  0.00000000000E+00 -0.22442001604E+04  0.22442001604E+04  0.50400001928E-02 0.  1.
    10030    2    1    2    0    0  0.00000000000E+00  0.00000000000E+00 -0.16641564410E+04  0.28242438798E+04  0.22818713445E+04 0.  0.
        5    1    3    3  502    0  0.64879522422E+03 -0.67284583088E+03 -0.16418469710E+04  0.18892697852E+04  0.46999998093E+01 0.  1.
       -5    1    3    3    0  502 -0.64879522422E+03  0.67284583088E+03 -0.22309469934E+02  0.93497409458E+03  0.46999998093E+01 0. -1.
</event>
<event>
 5   0  0.2871888E-05  0.2299749E+04  0.7818609E-02  0.8478020E-01
        2   -1    0    0  501    0  0.00000000000E+00  0.00000000000E+00  0.23561790728E+04  0.23561790728E+04  0.25500000920E-02 0. -1.
       -2   -1    0    0    0  501  0.00000000000E+00  0.00000000000E+00 -0.56116769760E+03  0.56116769760E+03  0.25500000920E-02 0.  1.
    10030    2    1    2    0    0  0.00000000000E+00  0.00000000000E+00  0.17950113752E+04  0.29173467704E+04  0.22997491910E+04 0.  0.
        3    1    3    3  502    0 -0.43017967178E+03  0.15052474279E+03  0.22367119920E+04  0.22826722922E+04  0.10100000352E+00 0. -1.
       -3    1    3    3    0  502  0.43017967178E+03 -0.15052474279E+03 -0.44170061680E+03  0.63467447820E+03  0.10100000352E+00 0.  1.
</event>
<event>
 5   0  0.1284837E-05  0.2302303E+04  0.7818609E-02  0.8477013E-01
        1   -1    0    0  501    0  0.00000000000E+00  0.00000000000E+00  0.12085225090E+04  0.12085225090E+04  0.50400001928E-02 0.  1.
       -1   -1    0    0    0  501  0.00000000000E+00  0.00000000000E+00 -0.10965044210E+04  0.10965044210E+04  0.50400001928E-02 0. -1.
    10030    2    1    2    0    0  0.00000000000E+00  0.00000000000E+00  0.11201808795E+03  0.23050269300E+04  0.23023034326E+04 0.  0.
        4    1    3    3  502    0  0.26240055485E+03 -0.14241038786E+03  0.11690858126E+04  0.12066059920E+04  0.12699999809E+01 0.  1.
       -4    1    3    3    0  502 -0.26240055485E+03  0.14241038786E+03 -0.10570677246E+04  0.10984209380E+04  0.12699999809E+01 0. -1.
</event>
<event>
 5   0  0.2871888E-05  0.2331724E+04  0.7818609E-02  0.8465517E-01
       -2   -1    0    0    0  501  0.00000000000E+00  0.00000000000E+00  0.14311818912E+04  0.14311818912E+04  0.25500000920E-02 0. -1.
        2   -1    0    0  501    0  0.00000000000E+00  0.00000000000E+00 -0.94972855147E+03  0.94972855147E+03  0.25500000920E-02 0.  1.
    10030    2    1    2    0    0  0.00000000000E+00  0.00000000000E+00  0.48145333972E+03  0.23809104427E+04  0.23317240869E+04 0.  0.
        3    1    3    3  502    0 -0.45766587999E+03  0.10503068834E+04  0.20227750594E+02  0.11458672607E+04  0.10100000352E+00 0.  1.
       -3    1    3    3    0  502  0.45766587999E+03 -0.10503068834E+04  0.46122558912E+03  0.12350431820E+04  0.10100000352E+00 0. -1.
</event>
<event>
 5   0  0.1017200E-05  0.2314673E+04  0.7818609E-02  0.8472158E-01
        3   -1    0    0  501    0  0.00000000000E+00  0.00000000000E+00  0.92420345300E+03  0.92420345851E+03  0.10100000352E+00 0.  1.
       -3   -1    0    0    0  501  0.00000000000E+00  0.00000000000E+00 -0.14492776623E+04  0.14492776658E+04  0.10100000352E+00 0. -1.
    10030    2    1    2    0    0  0.00000000000E+00  0.00000000000E+00 -0.52507420931E+03  0.23734811243E+04  0.23146727031E+04 0.  0.
        4    1    3    3  502    0 -0.42914960241E+03 -0.22023081376E+02  0.83936802709E+03  0.94297120590E+03  0.12699999809E+01 0.  1.
       -4    1    3    3    0  502  0.42914960241E+03  0.22023081376E+02 -0.13644422364E+04  0.14305099184E+04  0.12699999809E+01 0. -1.
</event>
<event>
 5   0  0.1303224E-05  0.2291234E+04  0.7818609E-02  0.8481385E-01
       -1   -1    0    0    0  501  0.00000000000E+00  0.00000000000E+00  0.13858779394E+04  0.13858779394E+04  0.50400001928E-02 0. -1.
        1   -1    0    0  501    0  0.00000000000E+00  0.00000000000E+00 -0.94700870962E+03  0.94700870964E+03  0.50400001928E-02 0.  1.
    10030    2    1    2    0    0  0.00000000000E+00  0.00000000000E+00  0.43886922980E+03  0.23328866491E+04  0.22912341470E+04 0.  0.
        2    1    3    3  502    0  0.10857646573E+04 -0.25019865048E+03  0.49064935557E+03  0.12174650081E+04  0.25500000920E-02 0. -1.
       -2    1    3    3    0  502 -0.10857646573E+04  0.25019865048E+03 -0.51780125765E+02  0.11154216410E+04  0.25500000920E-02 0.  1.
</event>
<event>
 5   0  0.2910126E-05  0.2291185E+04  0.7818609E-02  0.8481405E-01
        2   -1    0    0  501    0  0.00000000000E+00  0.00000000000E+00  0.11665292028E+04  0.11665292028E+04  0.25500000920E-02 0. -1.
       -2   -1    0    0    0  501  0.00000000000E+00  0.00000000000E+00 -0.11250317788E+04  0.11250317788E+04  0.25500000920E-02 0.  1.
    10030    2    1    2    0    0  0.00000000000E+00  0.00000000000E+00  0.41497424003E+02  0.22915609817E+04  0.22911852165E+04 0.  0.
        5    1    3    3  502    0  0.32032599072E+03 -0.53883341186E+03 -0.93826731912E+03  0.11284138594E+04  0.46999998093E+01 0.  1.
       -5    1    3    3    0  502 -0.32032599072E+03  0.53883341186E+03  0.97976474312E+03  0.11631471222E+04  0.46999998093E+01 0. -1.
</event>
<event>
 5   0  0.1327820E-05  0.2296166E+04  0.7818609E-02  0.8479434E-01
        1   -1    0    0  501    0  0.00000000000E+00  0.00000000000E+00  0.11919981856E+04  0.11919981856E+04  0.50400001928E-02 0.  1.
       -1   -1    0    0    0  501  0.00000000000E+00  0.00000000000E+00 -0.11057855020E+04  0.11057855020E+04  0.50400001928E-02 0. -1.
    10030    2    1    2    0    0  0.00000000000E+00  0.00000000000E+00  0.86212683657E+02  0.22977836876E+04  0.22961657711E+04 0.  0.
        1    1    3    3  502    0  0.21272764005E+03 -0.68366711041E+03 -0.85498942076E+03  0.11151953534E+04  0.50400001928E-02 0. -1.
       -1    1    3    3    0  502 -0.21272764005E+03  0.68366711041E+03  0.94120210441E+03  0.11825883342E+04  0.50400001928E-02 0.  1.
</event>
<event>
 5   0  0.1327820E-05  0.2302510E+04  0.7818609E-02  0.8476932E-01
       -1   -1    0    0    0  501  0.00000000000E+00  0.00000000000E+00  0.99588976814E+03  0.99588976815E+03  0.50400001928E-02 0. -1.
        1   -1    0    0  501    0  0.00000000000E+00  0.00000000000E+00 -0.13308586568E+04  0.13308586568E+04  0.50400001928E-02 0.  1.
    10030    2    1    2    0    0  0.00000000000E+00  0.00000000000E+00 -0.33496888865E+03  0.23267484249E+04  0.23025103858E+04 0.  0.
        1    1    3    3  502    0  0.24342045414E+03 -0.70470872476E+03  0.71897314013E+03  0.10357558981E+04  0.50400001928E-02 0. -1.
       -1    1    3    3    0  502 -0.24342045414E+03  0.70470872476E+03 -0.10539420288E+04  0.12909925268E+04  0.50400001928E-02 0.  1.
</event>
<event>
 5   0  0.2871888E-05  0.2303383E+04  0.7818609E-02  0.8476588E-01
        2   -1    0    0  501    0  0.00000000000E+00  0.00000000000E+00  0.14000694683E+04  0.14000694683E+04  0.25500000920E-02 0.  1.
       -2   -1    0    0    0  501  0.00000000000E+00  0.00000000000E+00 -0.94737689187E+03  0.94737689188E+03  0.25500000920E-02 0. -1.
    10030    2    1    2    0    0  0.00000000000E+00  0.00000000000E+00  0.45269257640E+03  0.23474463602E+04  0.23033831303E+04 0.  0.
        3    1    3    3  502    0  0.66537104629E+03 -0.49316751933E+03 -0.58925088357E+03  0.10164395926E+04  0.10100000352E+00 0. -1.
       -3    1    3    3    0  502 -0.66537104629E+03  0.49316751933E+03  0.10419434600E+04  0.13310067676E+04  0.10100000352E+00 0.  1.
</event>
<event>
 5   0  0.1284837E-05  0.2292082E+04  0.7818609E-02  0.8481050E-01
        1   -1    0    0  501    0  0.00000000000E+00  0.00000000000E+00  0.20114801837E+04  0.20114801837E+04  0.50400001928E-02 0. -1.
       -1   -1    0    0    0  501  0.00000000000E+00  0.00000000000E+00 -0.65295689106E+03  0.65295689108E+03  0.50400001928E-02 0.  1.
    10030    2    1    2    0    0  0.00000000000E+00  0.00000000000E+00  0.13585232926E+04  0.26644370748E+04  0.22920818896E+04 0.  0.
        4    1    3    3  502    0 -0.54672994723E+02 -0.10053151616E+04  0.42814185880E+02  0.10077114557E+04  0.12699999809E+01 0.  1.
       -4    1    3    3    0  502  0.54672994723E+02  0.10053151616E+04  0.13157091067E+04  0.16567256191E+04  0.12699999809E+01 0. -1.
</event>
<event>
 5   0  0.1327820E-05  0.2303082E+04  0.7818609E-02  0.8476707E-01
       -1   -1    0    0    0  501  0.00000000000E+00  0.00000000000E+00  0.70106494293E+03  0.70106494295E+03  0.50400001928E-02 0. -1.
        1   -1    0    0  501    0  0.00000000000E+00  0.00000000000E+00 -0.18914749502E+04  0.18914749502E+04  0.50400001928E-02 0.  1.
    10030    2    1    2    0    0  0.00000000000E+00  0.00000000000E+00 -0.11904100072E+04  0.25925398931E+04  0.23030820897E+04 0.  0.
        1    1    3    3  502    0  0.71349778699E+03 -0.27694411151E+03 -0.15637303720E+04  0.17409852984E+04  0.50400001928E-02 0.  1.
       -1    1    3    3    0  502 -0.71349778699E+03  0.27694411151E+03  0.37332036479E+03  0.85155459469E+03  0.50400001928E-02 0. -1.
</event>
<event>
 5   0  0.2910126E-05  0.2300244E+04  0.7818609E-02  0.8477825E-01
        2   -1    0    0  501    0  0.00000000000E+00  0.00000000000E+00  0.12781723671E+04  0.12781723671E+04  0.25500000920E-02 0. -1.
       -2   -1    0    0    0  501  0.00000000000E+00  0.00000000000E+00 -0.10348999090E+04  0.10348999090E+04  0.25500000920E-02 0.  1.
    10030    2    1    2    0    0  0.00000000000E+00  0.00000000000E+00  0.24327245807E+03  0.23130722761E+04  0.23002438709E+04 0.  0.
        5    1    3    3  502    0  0.43580727169E+03 -0.82584191955E+03  0.79680873936E+03  0.12275459711E+04  0.46999998093E+01 0. -1.
       -5    1    3    3    0  502 -0.43580727169E+03  0.82584191955E+03 -0.55353628129E+03  0.10855263050E+04  0.46999998093E+01 0.  1.
</event>
<event>
 5   0  0.1308224E-05  0.2312342E+04  0.7818609E-02  0.8473070E-01
       -1   -1    0    0    0  501  0.00000000000E+00  0.00000000000E+00  0.81434202638E+03  0.81434202639E+03  0.50400001928E-02 0. -1.
        1   -1    0    0  501    0  0.00000000000E+00  0.00000000000E+00 -0.16414871279E+04  0.16414871279E+04  0.50400001928E-02 0.  1.
    10030    2    1    2    0    0  0.00000000000E+00  0.00000000000E+00 -0.82714510155E+03  0.24558291543E+04  0.23123424954E+04 0.  0.
        5    1    3    3  502    0  0.89555478904E+03  0.32892140686E+03 -0.11071686212E+04  0.14615239026E+04  0.46999998093E+01 0.  1.
       -5    1    3    3    0  502 -0.89555478904E+03 -0.32892140686E+03  0.28002351966E+03  0.99430525173E+03  0.46999998093E+01 0. -1.
</event>
<event>
 5   0  0.2871888E-05  0.2305395E+04  0.7818609E-02  0.8475797E-01
       -2   -1    0    0    0  501  0.00000000000E+00  0.00000000000E+00  0.13193104849E+04  0.13193104849E+04  0.25500000920E-02 0. -1.
        2   -1    0    0  501    0  0.00000000000E+00  0.00000000000E+00 -0.10071255321E+04  0.10071255321E+04  0.25500000920E-02 0.  1.
    10030    2    1    2    0    0  0.00000000000E+00  0.00000000000E+00  0.31218495274E+03  0.23264360170E+04  0.23053947810E+04 0.  0.
        3    1    3    3  502    0  0.89283413191E+03  0.30780249759E+03 -0.51086036228E+03  0.10737194627E+04  0.10100000352E+00 0.  1.
       -3    1    3    3    0  502 -0.89283413191E+03 -0.30780249759E+03  0.82304531502E+03  0.12527165543E+04  0.10100000352E+00 0. -1.
</event>
<event>
 5   0  0.1303224E-05  0.2300951E+04  0.7818609E-02  0.8477546E-01
       -1   -1    0    0    0  501  0.00000000000E+00  0.00000000000E+00  0.14057649199E+04  0.14057649199E+04  0.50400001928E-02 0.  1.
        1   -1    0    0  501    0  0.00000000000E+00  0.00000000000E+00 -0.94154671673E+03  0.94154671674E+03  0.50400001928E-02 0. -1.
    10030    2    1    2    0    0  0.00000000000E+00  0.00000000000E+00  0.46421820320E+03  0.23473116367E+04  0.23009505383E+04 0.  0.
        2    1    3    3  502    0  0.47437632957E+03 -0.14756767228E+03  0.12906991596E+04  0.13830088361E+04  0.25500000920E-02 0.  1.
       -2    1    3    3    0  502 -0.47437632957E+03  0.14756767228E+03 -0.82648095642E+03  0.96430280062E+03  0.25500000920E-02 0. -1.
</event>
<event>
 5   0  0.1284837E-05  0.2294308E+04  0.7818609E-02  0.8480169E-01
        1   -1    0    0  501    0  0.00000000000E+00  0.00000000000E+00  0.99363367324E+03  0.99363367325E+03  0.50400001928E-02 0. -1.
       -1   -1    0    0    0  501  0.00000000000E+00  0.00000000000E+00 -0.13243942506E+04  0.13243942507E+04  0.50400001928E-02 0.  1.
    10030    2    1    2    0    0  0.00000000000E+00  0.00000000000E+00 -0.33076057740E+03  0.23180279239E+04  0.22943083700E+04 0.  0.
        4    1    3    3  502    0  0.11273466034E+04  0.18033362902E+03 -0.52283159286E+02  0.11428760753E+04  0.12699999809E+01 0.  1.
       -4    1    3    3    0  502 -0.11273466034E+04 -0.18033362902E+03 -0.27847741812E+03  0.11751518486E+04  0.12699999809E+01 0. -1.
</event>
<event>
 5   0  0.1327820E-05  0.2299026E+04  0.7818609E-02  0.8478305E-01
        1   -1    0    0  501    0  0.00000000000E+00  0.00000000000E+00  0.13525158977E+04  0.13525158977E+04  0.50400001928E-02 0. -1.
       -1   -1    0    0    0  501  0.00000000000E+00  0.00000000000E+00 -0.97697915696E+03  0.97697915697E+03  0.50400001928E-02 0.  1.
    10030    2    1    2    0    0  0.00000000000E+00  0.00000000000E+00  0.37553674072E+03  0.23294950547E+04  0.22990257428E+04 0.  0.
        1    1    3    3  502    0  0.38891567047E+02 -0.10136884333E+04  0.73558426669E+03  0.12530606559E+04  0.50400001928E-02 0. -1.
       -1    1    3    3    0  502 -0.38891567047E+02  0.10136884333E+04 -0.36004752598E+03  0.10764343988E+04  0.50400001928E-02 0.  1.
</event>
<event>
 5   0  0.1284837E-05  0.2321705E+04  0.7818609E-02  0.8469412E-01
       -1   -1    0    0    0  501  0.00000000000E+00  0.00000000000E+00  0.75198868619E+03  0.75198868621E+03  0.50400001928E-02 0.  1.
        1   -1    0    0  501    0  0.00000000000E+00  0.00000000000E+00 -0.17920193334E+04  0.17920193334E+04  0.50400001928E-02 0. -1.
    10030    2    1    2    0    0  0.00000000000E+00  0.00000000000E+00 -0.10400306472E+04  0.25440080197E+04  0.23217047738E+04 0.  0.
        4    1    3    3  502    0  0.44487276336E+03  0.15537427400E+03 -0.16825042000E+04  0.17472478177E+04  0.12699999809E+01 0. -1.
       -4    1    3    3    0  502 -0.44487276336E+03 -0.15537427400E+03  0.64247355272E+03  0.79676020197E+03  0.12699999809E+01 0.  1.
</event>
<event>
 5   0  0.2938972E-05  0.2292505E+04  0.7818609E-02  0.8480882E-01
       -2   -1    0    0    0  501  0.00000000000E+00  0.00000000000E+00  0.75600228519E+03  0.75600228520E+03  0.25500000920E-02 0.  1.
        2   -1    0    0  501    0  0.00000000000E+00  0.00000000000E+00 -0.17379510040E+04  0.17379510040E+04  0.25500000920E-02 0. -1.
    10030    2    1    2    0    0  0.00000000000E+00  0.00000000000E+00 -0.98194871878E+03  0.24939532892E+04  0.22925051194E+04 0.  0.
        2    1    3    3  502    0  0.21057210231E+03  0.10779383994E+04 -0.13412045911E+03  0.11064719159E+04  0.25500000920E-02 0.  1.
       -2    1    3    3    0  502 -0.21057210231E+03 -0.10779383994E+04 -0.84782825967E+03  0.13874813732E+04  0.25500000920E-02 0. -1.
</event>
<event>
 5   0  0.2816178E-05  0.2267359E+04  0.7818609E-02  0.8490903E-01
       -2   -1    0    0    0  501  0.00000000000E+00  0.00000000000E+00  0.64855630059E+03  0.64855630059E+03  0.25500000920E-02 0. -1.
        2   -1    0    0  501    0  0.00000000000E+00  0.00000000000E+00 -0.19816763392E+04  0.19816763392E+04  0.25500000920E-02 0.  1.
    10030    2    1    2    0    0  0.00000000000E+00  0.00000000000E+00 -0.13331200386E+04  0.26302326398E+04  0.22673585297E+04 0.  0.
        1    1    3    3  502    0 -0.41587202102E+03  0.15408391467E+03  0.54374718486E+03  0.70167826794E+03  0.50400001928E-02 0. -1.
       -1    1    3    3    0  502  0.41587202102E+03 -0.15408391467E+03 -0.18768672235E+04  0.19285543719E+04  0.50400001928E-02 0.  1.
</event>
<event>
 5   0  0.2871888E-05  0.2295724E+04  0.7818609E-02  0.8479609E-01
       -2   -1    0    0    0  501  0.00000000000E+00  0.00000000000E+00  0.65415743097E+03  0.65415743097E+03  0.25500000920E-02 0. -1.
        2   -1    0    0  501    0  0.00000000000E+00  0.00000000000E+00 -0.20141748491E+04  0.20141748491E+04  0.25500000920E-02 0.  1.
    10030    2    1    2    0    0  0.00000000000E+00  0.00000000000E+00 -0.13600174182E+04  0.26683322801E+04  0.22957242385E+04 0.  0.
        3    1    3    3  502    0 -0.10413232137E+04 -0.23329822240E+03 -0.18852352416E+03  0.10836619516E+04  0.10100000352E+00 0. -1.
       -3    1    3    3    0  502  0.10413232137E+04  0.23329822240E+03 -0.11714938940E+04  0.15846703285E+04  0.10100000352E+00 0.  1.
</event>
<event>
 5   0  0.2816178E-05  0.2309795E+04  0.7818609E-02  0.8474069E-01
        2   -1    0    0  501    0  0.00000000000E+00  0.00000000000E+00  0.14586484679E+04  0.14586484679E+04  0.25500000920E-02 0. -1.
       -2   -1    0    0    0  501  0.00000000000E+00  0.00000000000E+00 -0.91439971625E+03  0.91439971625E+03  0.25500000920E-02 0.  1.
    10030    2    1    2    0    0  0.00000000000E+00  0.00000000000E+00  0.54424875166E+03  0.23730481842E+04  0.23097945754E+04 0.  0.
        1    1    3    3  502    0 -0.39113182955E+03  0.10818025750E+04  0.37743421827E+03  0.12106764673E+04  0.50400001928E-02 0. -1.
       -1    1    3    3    0  502  0.39113182955E+03 -0.10818025750E+04  0.16681453339E+03  0.11623717168E+04  0.50400001928E-02 0.  1.
</event>
<event>
 5   0  0.2994157E-05  0.2304882E+04  0.7818609E-02  0.8475999E-01
        2   -1    0    0  501    0  0.00000000000E+00  0.00000000000E+00  0.13972294972E+04  0.13972294972E+04  0.25500000920E-02 0.  1.
       -2   -1    0    0    0  501  0.00000000000E+00  0.00000000000E+00 -0.95053871672E+03  0.95053871672E+03  0.25500000920E-02 0. -1.
    10030    2    1    2    0    0  0.00000000000E+00  0.00000000000E+00  0.44669078051E+03  0.23477682140E+04  0.23048824120E+04 0.  0.
        4    1    3    3  502    0  0.21896134047E+02 -0.45130734056E+03  0.13032418960E+04  0.13793472401E+04  0.12699999809E+01 0.  1.
       -4    1    3    3    0  502 -0.21896134047E+02  0.45130734056E+03 -0.85655111548E+03  0.96842097388E+03  0.12699999809E+01 0. -1.
</event>
<event>
 5   0  0.1371753E-05  0.2201640E+04  0.7818609E-02  0.8517746E-01
        1   -1    0    0  501    0  0.00000000000E+00  0.00000000000E+00  0.15193300175E+04  0.15193300175E+04  0.50400001928E-02 0.  1.
       -1   -1    0    0    0  501  0.00000000000E+00  0.00000000000E+00 -0.79759114218E+03  0.79759114219E+03  0.50400001928E-02 0. -1.
    10030    2    1    2    0    0  0.00000000000E+00  0.00000000000E+00  0.72173887531E+03  0.23169211597E+04  0.22016395382E+04 0.  0.
        3    1    3    3  502    0 -0.34314528900E+03  0.79144695039E+03 -0.35880071403E+03  0.93427775700E+03  0.10100000352E+00 0. -1.
       -3    1    3    3    0  502  0.34314528900E+03 -0.79144695039E+03  0.10805395893E+04  0.13826434027E+04  0.10100000352E+00 0.  1.
</event>
<event>
 5   0  0.1327820E-05  0.2292145E+04  0.7818609E-02  0.8481025E-01
       -1   -1    0    0    0  501  0.00000000000E+00  0.00000000000E+00  0.86543366336E+03  0.86543366337E+03  0.50400001928E-02 0. -1.
        1   -1    0    0  501    0  0.00000000000E+00  0.00000000000E+00 -0.15177156614E+04  0.15177156614E+04  0.50400001928E-02 0.  1.
    10030    2    1    2    0    0  0.00000000000E+00  0.00000000000E+00 -0.65228199806E+03  0.23831493248E+04  0.22921450433E+04 0.  0.
        1    1    3    3  502    0 -0.27182810283E+03 -0.65343253679E+03  0.61110216013E+03  0.93504569287E+03  0.50400001928E-02 0. -1.
       -1    1    3    3    0  502  0.27182810283E+03  0.65343253679E+03 -0.12633841582E+04  0.14481036319E+04  0.50400001928E-02 0.  1.
</event>
<event>
 5   0  0.1017200E-05  0.2323546E+04  0.7818609E-02  0.8468695E-01
       -3   -1    0    0    0  501  0.00000000000E+00  0.00000000000E+00  0.73447577189E+03  0.73447577883E+03  0.10100000352E+00 0. -1.
        3   -1    0    0  501    0  0.00000000000E+00  0.00000000000E+00 -0.18376604180E+04  0.18376604208E+04  0.10100000352E+00 0.  1.
    10030    2    1    2    0    0  0.00000000000E+00  0.00000000000E+00 -0.11031846462E+04  0.25721361996E+04  0.23235464846E+04 0.  0.
        1    1    3    3  502    0 -0.34529741850E+03 -0.13717805165E+03 -0.17701177167E+04  0.18086914762E+04  0.50400001928E-02 0.  1.
       -1    1    3    3    0  502  0.34529741850E+03  0.13717805165E+03  0.66693307057E+03  0.76344472342E+03  0.50400001928E-02 0. -1.
</event>
<event>
 5   0  0.1327820E-05  0.2243344E+04  0.7818609E-02  0.8500601E-01
        1   -1    0    0  501    0  0.00000000000E+00  0.00000000000E+00  0.13498697436E+04  0.13498697436E+04  0.50400001928E-02 0. -1.
       -1   -1    0    0    0  501  0.00000000000E+00  0.00000000000E+00 -0.93205111308E+03  0.93205111310E+03  0.50400001928E-02 0.  1.
    10030    2    1    2    0    0  0.00000000000E+00  0.00000000000E+00  0.41781863049E+03  0.22819208567E+04  0.22433435734E+04 0.  0.
        1    1    3    3  502    0  0.86683297346E+03 -0.61891991485E+03 -0.14882915158E+03  0.10754586841E+04  0.50400001928E-02 0.  1.
       -1    1    3    3    0  502 -0.86683297346E+03  0.61891991485E+03  0.56664778207E+03  0.12064621726E+04  0.50400001928E-02 0. -1.
</event>
<event>
 5   0  0.1284837E-05  0.2424771E+04  0.7818609E-02  0.8430287E-01
       -1   -1    0    0    0  501  0.00000000000E+00  0.00000000000E+00  0.59757457278E+03  0.59757457280E+03  0.50400001928E-02 0. -1.
        1   -1    0    0  501    0  0.00000000000E+00  0.00000000000E+00 -0.24597417038E+04  0.24597417038E+04  0.50400001928E-02 0.  1.
    10030    2    1    2    0    0  0.00000000000E+00  0.00000000000E+00 -0.18621671310E+04  0.30573162766E+04  0.24247714101E+04 0.  0.
        4    1    3    3  502    0  0.99750951441E+03 -0.12023279490E+03 -0.17866140550E+04  0.20497493873E+04  0.12699999809E+01 0.  1.
       -4    1    3    3    0  502 -0.99750951441E+03  0.12023279490E+03 -0.75553076082E+02  0.10075668894E+04  0.12699999809E+01 0. -1.
</event>
<event>
 5   0  0.1371753E-05  0.2298348E+04  0.7818609E-02  0.8478573E-01
       -1   -1    0    0    0  501  0.00000000000E+00  0.00000000000E+00  0.70822425233E+03  0.70822425235E+03  0.50400001928E-02 0.  1.
        1   -1    0    0  501    0  0.00000000000E+00  0.00000000000E+00 -0.18646640947E+04  0.18646640947E+04  0.50400001928E-02 0. -1.
    10030    2    1    2    0    0  0.00000000000E+00  0.00000000000E+00 -0.11564398423E+04  0.25728883470E+04  0.22983475232E+04 0.  0.
        3    1    3    3  502    0 -0.37955511873E+03 -0.72214386896E+03 -0.14842472501E+04  0.16936775860E+04  0.10100000352E+00 0. -1.
       -3    1    3    3    0  502  0.37955511873E+03  0.72214386896E+03  0.32780740772E+03  0.87921076107E+03  0.10100000352E+00 0.  1.
</event>
<event>
 5   0  0.2994157E-05  0.2221658E+04  0.7818609E-02  0.8509467E-01
        2   -1    0    0  501    0  0.00000000000E+00  0.00000000000E+00  0.18872588377E+04  0.18872588377E+04  0.25500000920E-02 0. -1.
       -2   -1    0    0    0  501  0.00000000000E+00  0.00000000000E+00 -0.65382731881E+03  0.65382731882E+03  0.25500000920E-02 0.  1.
    10030    2    1    2    0    0  0.00000000000E+00  0.00000000000E+00  0.12334315189E+04  0.25410861565E+04  0.22216582867E+04 0.  0.
        4    1    3    3  502    0  0.91219172052E+03  0.38972249830E+03  0.11885622799E+04  0.15481147460E+04  0.12699999809E+01 0. -1.
       -4    1    3    3    0  502 -0.91219172052E+03 -0.38972249830E+03  0.44869239025E+02  0.99297141055E+03  0.12699999809E+01 0.  1.
</event>
<event>
 5   0  0.1303224E-05  0.2307357E+04  0.7818609E-02  0.8475026E-01
       -1   -1    0    0    0  501  0.00000000000E+00  0.00000000000E+00  0.16554741059E+04  0.16554741059E+04  0.50400001928E-02 0.  1.
        1   -1    0    0  501    0  0.00000000000E+00  0.00000000000E+00 -0.80398338432E+03  0.80398338433E+03  0.50400001928E-02 0. -1.
    10030    2    1    2    0    0  0.00000000000E+00  0.00000000000E+00  0.85149072153E+03  0.24594574902E+04  0.23073566472E+04 0.  0.
        2    1    3    3  502    0 -0.14561102142E+03 -0.61555113153E+03  0.14541608793E+04  0.15857772946E+04  0.25500000920E-02 0.  1.
       -2    1    3    3    0  502  0.14561102142E+03  0.61555113153E+03 -0.60267015779E+03  0.87368019560E+03  0.25500000920E-02 0. -1.
</event>
<event>
 5   0  0.1371753E-05  0.2310417E+04  0.7818609E-02  0.8473825E-01
        1   -1    0    0  501    0  0.00000000000E+00  0.00000000000E+00  0.17666651120E+04  0.17666651120E+04  0.50400001928E-02 0. -1.
       -1   -1    0    0    0  501  0.00000000000E+00  0.00000000000E+00 -0.75538197187E+03  0.75538197188E+03  0.50400001928E-02 0.  1.
    10030    2    1    2    0    0  0.00000000000E+00  0.00000000000E+00  0.10112831401E+04  0.25220470839E+04  0.23104172575E+04 0.  0.
        3    1    3    3  502    0  0.68577768096E+03  0.13546417182E+03 -0.49831147104E+03  0.85846135726E+03  0.10100000352E+00 0.  1.
       -3    1    3    3    0  502 -0.68577768096E+03 -0.13546417182E+03  0.15095946111E+04  0.16635857266E+04  0.10100000352E+00 0. -1.
</event>
<event>
 5   0  0.2910126E-05  0.2307819E+04  0.7818609E-02  0.8474844E-01
       -2   -1    0    0    0  501  0.00000000000E+00  0.00000000000E+00  0.18155750851E+04  0.18155750851E+04  0.25500000920E-02 0.  1.
        2   -1    0    0  501    0  0.00000000000E+00  0.00000000000E+00 -0.73338051578E+03  0.73338051579E+03  0.25500000920E-02 0. -1.
    10030    2    1    2    0    0  0.00000000000E+00  0.00000000000E+00  0.10821945693E+04  0.25489556009E+04  0.23078192237E+04 0.  0.
        5    1    3    3  502    0 -0.65952085677E+03 -0.44803398154E+03  0.14623895391E+04  0.16656252469E+04  0.46999998093E+01 0.  1.
       -5    1    3    3    0  502  0.65952085677E+03  0.44803398154E+03 -0.38019496980E+03  0.88333035394E+03  0.46999998093E+01 0. -1.
</event>
<event>
 5   0  0.1303224E-05  0.2299535E+04  0.7818609E-02  0.8478104E-01
        1   -1    0    0  501    0  0.00000000000E+00  0.00000000000E+00  0.12798018497E+04  0.12798018497E+04  0.50400001928E-02 0. -1.
       -1   -1    0    0    0  501  0.00000000000E+00  0.00000000000E+00 -0.10329455652E+04  0.10329455652E+04  0.50400001928E-02 0.  1.
    10030    2    1    2    0    0  0.00000000000E+00  0.00000000000E+00  0.24685628458E+03  0.23127474149E+04  0.22995352965E+04 0.  0.
        2    1    3    3  502    0  0.70277115006E+02  0.93124205195E+03  0.79796408667E+03  0.12283718150E+04  0.25500000920E-02 0. -1.
       -2    1    3    3    0  502 -0.70277115006E+02 -0.93124205195E+03 -0.55110780209E+03  0.10843755999E+04  0.25500000920E-02 0.  1.
</event>
<event>
 5   0  0.1308224E-05  0.2289478E+04  0.7818609E-02  0.8482082E-01
        1   -1    0    0  501    0  0.00000000000E+00  0.00000000000E+00  0.16455298834E+04  0.16455298834E+04  0.50400001928E-02 0.  1.
       -1   -1    0    0    0  501  0.00000000000E+00  0.00000000000E+00 -0.79635557655E+03  0.79635557656E+03  0.50400001928E-02 0. -1.
    10030    2    1    2    0    0  0.00000000000E+00  0.00000000000E+00  0.84917430681E+03  0.24418854599E+04  0.22894775815E+04 0.  0.
        5    1    3    3  502    0  0.74777791091E+03  0.33178621378E+03 -0.42943478324E+03  0.92395358041E+03  0.46999998093E+01 0. -1.
       -5    1    3    3    0  502 -0.74777791091E+03 -0.33178621378E+03  0.12786090901E+04  0.15179318795E+04  0.46999998093E+01 0.  1.
</event>
<event>
 5   0  0.1308224E-05  0.2324357E+04  0.7818609E-02  0.8468379E-01
       -1   -1    0    0    0  501  0.00000000000E+00  0.00000000000E+00  0.79153017465E+03  0.79153017466E+03  0.50400001928E-02 0. -1.
        1   -1    0    0  501    0  0.00000000000E+00  0.00000000000E+00 -0.17063894666E+04  0.17063894666E+04  0.50400001928E-02 0.  1.
    10030    2    1    2    0    0  0.00000000000E+00  0.00000000000E+00 -0.91485929197E+03  0.24979196413E+04  0.23243569025E+04 0.  0.
        5    1    3    3  502    0  0.57007616575E+03 -0.90477952551E+03  0.31544420774E+02  0.10698738080E+04  0.46999998093E+01 0. -1.
       -5    1    3    3    0  502 -0.57007616575E+03  0.90477952551E+03 -0.94640371274E+03  0.14280458333E+04  0.46999998093E+01 0.  1.
</event>
<event>
 5   0  0.2938972E-05  0.2300483E+04  0.7818609E-02  0.8477731E-01
       -2   -1    0    0    0  501  0.00000000000E+00  0.00000000000E+00  0.68966013293E+03  0.68966013294E+03  0.25500000920E-02 0. -1.
        2   -1    0    0  501    0  0.00000000000E+00  0.00000000000E+00 -0.19184169412E+04  0.19184169412E+04  0.25500000920E-02 0.  1.
    10030    2    1    2    0    0  0.00000000000E+00  0.00000000000E+00 -0.12287568082E+04  0.26080770741E+04  0.23004831516E+04 0.  0.
        2    1    3    3  502    0 -0.11450514406E+04 -0.86405469096E+02 -0.68998048513E+03  0.13396573355E+04  0.25500000920E-02 0. -1.
       -2    1    3    3    0  502  0.11450514406E+04  0.86405469096E+02 -0.53877632310E+03  0.12684197386E+04  0.25500000920E-02 0.  1.
</event>
<event>
 5   0  0.2938972E-05  0.2308696E+04  0.7818609E-02  0.8474500E-01
        2   -1    0    0  501    0  0.00000000000E+00  0.00000000000E+00  0.90267384680E+03  0.90267384680E+03  0.25500000920E-02 0.  1.
       -2   -1    0    0    0  501  0.00000000000E+00  0.00000000000E+00 -0.14761913971E+04  0.14761913971E+04  0.25500000920E-02 0. -1.
    10030    2    1    2    0    0  0.00000000000E+00  0.00000000000E+00 -0.57351755032E+03  0.23788652439E+04  0.23086960537E+04 0.  0.
        2    1    3    3  502    0 -0.17859676470E+03 -0.73195168881E+03  0.61439040518E+03  0.97217572954E+03  0.25500000920E-02 0.  1.
       -2    1    3    3    0  502  0.17859676470E+03  0.73195168881E+03 -0.11879079555E+04  0.14066895144E+04  0.25500000920E-02 0. -1.
</event>
<event>
 5   0  0.2871888E-05  0.2330511E+04  0.7818609E-02  0.8465987E-01
        2   -1    0    0  501    0  0.00000000000E+00  0.00000000000E+00  0.21686050242E+04  0.21686050242E+04  0.25500000920E-02 0. -1.
       -2   -1    0    0    0  501  0.00000000000E+00  0.00000000000E+00 -0.62612600474E+03  0.62612600474E+03  0.25500000920E-02 0.  1.
    10030    2    1    2    0    0  0.00000000000E+00  0.00000000000E+00  0.15424790195E+04  0.27947310290E+04  0.23305106734E+04 0.  0.
        3    1    3    3  502    0  0.50798832852E+03  0.80124188320E+03 -0.40126840287E+02  0.94955298474E+03  0.10100000352E+00 0.  1.
       -3    1    3    3    0  502 -0.50798832852E+03 -0.80124188320E+03  0.15826058598E+04  0.18451780442E+04  0.10100000352E+00 0. -1.
</event>
<event>
 5   0  0.2994157E-05  0.2288565E+04  0.7818609E-02  0.8482443E-01
       -2   -1    0    0    0  501  0.00000000000E+00  0.00000000000E+00  0.12973140479E+04  0.12973140479E+04  0.25500000920E-02 0. -1.
        2   -1    0    0  501    0  0.00000000000E+00  0.00000000000E+00 -0.10093025505E+04  0.10093025505E+04  0.25500000920E-02 0.  1.
    10030    2    1    2    0    0  0.00000000000E+00  0.00000000000E+00  0.28801149737E+03  0.23066165984E+04  0.22885649454E+04 0.  0.
        4    1    3    3  502    0  0.87690131019E+03  0.66450903900E+03  0.46089404960E+03  0.11928759821E+04  0.12699999809E+01 0. -1.
       -4    1    3    3    0  502 -0.87690131019E+03 -0.66450903900E+03 -0.17288255223E+03  0.11137406163E+04  0.12699999809E+01 0.  1.
</event>
<event>
 5   0  0.1327820E-05  0.2304444E+04  0.7818609E-02  0.8476171E-01
        1   -1    0    0  501    0  0.00000000000E+00  0.00000000000E+00  0.10399590673E+04  0.10399590673E+04  0.50400001928E-02 0. -1.
       -1   -1    0    0    0  501  0.00000000000E+00  0.00000000000E+00 -0.12766036241E+04  0.12766036241E+04  0.50400001928E-02 0.  1.
    10030    2    1    2    0    0  0.00000000000E+00  0.00000000000E+00 -0.23664455676E+03  0.23165626914E+04  0.23044439800E+04 0.  0.
        1    1    3    3  502    0 -0.10004182055E+04  0.46654151599E+03 -0.45038948305E+03  0.11922031112E+04  0.50400001928E-02 0.  1.
       -1    1    3    3    0  502  0.10004182055E+04 -0.46654151599E+03  0.21374492630E+03  0.11243595802E+04  0.50400001928E-02 0. -1.
</event>
<event>
 5   0  0.2994157E-05  0.2168150E+04  0.7818609E-02  0.8531803E-01
       -2   -1    0    0    0  501  0.00000000000E+00  0.00000000000E+00  0.76915922689E+03  0.76915922689E+03  0.25500000920E-02 0. -1.
        2   -1    0    0  501    0  0.00000000000E+00  0.00000000000E+00 -0.15279265170E+04  0.15279265170E+04  0.25500000920E-02 0.  1.
    10030    2    1    2    0    0  0.00000000000E+00  0.00000000000E+00 -0.75876729008E+03  0.22970857439E+04  0.21681501595E+04 0.  0.
        4    1    3    3  502    0 -0.34449417394E+03 -0.54095303413E+03  0.54661245791E+03  0.84267028727E+03  0.12699999809E+01 0. -1.
       -4    1    3    3    0  502  0.34449417394E+03  0.54095303413E+03 -0.13053797480E+04  0.14544154566E+04  0.12699999809E+01 0.  1.
</event>
<event>
 5   0  0.1284837E-05  0.2307855E+04  0.7818609E-02  0.8474830E-01
       -1   -1    0    0    0  501  0.00000000000E+00  0.00000000000E+00  0.82723330219E+03  0.82723330220E+03  0.50400001928E-02 0. -1.
        1   -1    0    0  501    0  0.00000000000E+00  0.00000000000E+00 -0.16096409652E+04  0.16096409652E+04  0.50400001928E-02 0.  1.
    10030    2    1    2    0    0  0.00000000000E+00  0.00000000000E+00 -0.78240766301E+03  0.24368742674E+04  0.23078549443E+04 0.  0.
        4    1    3    3  502    0 -0.50148551519E+03  0.53108505272E+03  0.55204922337E+03  0.91558670430E+03  0.12699999809E+01 0. -1.
       -4    1    3    3    0  502  0.50148551519E+03 -0.53108505272E+03 -0.13344568864E+04  0.15212875631E+04  0.12699999809E+01 0.  1.
</event>
<event>
 5   0  0.2816178E-05  0.2285655E+04  0.7818609E-02  0.8483599E-01
       -2   -1    0    0    0  501  0.00000000000E+00  0.00000000000E+00  0.52550548479E+03  0.52550548479E+03  0.25500000920E-02 0.  1.
        2   -1    0    0  501    0  0.00000000000E+00  0.00000000000E+00 -0.24853307686E+04  0.24853307686E+04  0.25500000920E-02 0. -1.
    10030    2    1    2    0    0  0.00000000000E+00  0.00000000000E+00 -0.19598252838E+04  0.30108362534E+04  0.22856552237E+04 0.  0.
        1    1    3    3  502    0  0.10349240532E+04  0.37266385094E+03 -0.57153870857E+03  0.12395977723E+04  0.50400001928E-02 0.  1.
       -1    1    3    3    0  502 -0.10349240532E+04 -0.37266385094E+03 -0.13882865753E+04  0.17712384811E+04  0.50400001928E-02 0. -1.
</event>
<event>
 5   0  0.1371753E-05  0.2301161E+04  0.7818609E-02  0.8477463E-01
       -1   -1    0    0    0  501  0.00000000000E+00  0.00000000000E+00  0.13857956751E+04  0.13857956751E+04  0.50400001928E-02 0. -1.
        1   -1    0    0  501    0  0.00000000000E+00  0.00000000000E+00 -0.95528934543E+03  0.95528934545E+03  0.50400001928E-02 0.  1.
    10030    2    1    2    0    0  0.00000000000E+00  0.00000000000E+00  0.43050632963E+03  0.23410850205E+04  0.23011613097E+04 0.  0.
        3    1    3    3  502    0 -0.48995290636E+03 -0.88388225126E+03 -0.34432057340E+03  0.10676414904E+04  0.10100000352E+00 0.  1.
       -3    1    3    3    0  502  0.48995290636E+03  0.88388225126E+03  0.77482690303E+03  0.12734435301E+04  0.10100000352E+00 0. -1.
</event>
<event>
 5   0  0.2871888E-05  0.2310360E+04  0.7818609E-02  0.8473847E-01
       -2   -1    0    0    0  501  0.00000000000E+00  0.00000000000E+00  0.10224827777E+04  0.10224827777E+04  0.25500000920E-02 0.  1.
        2   -1    0    0  501    0  0.00000000000E+00  0.00000000000E+00 -0.13050988785E+04  0.13050988785E+04  0.25500000920E-02 0. -1.
    10030    2    1    2    0    0  0.00000000000E+00  0.00000000000E+00 -0.28261610084E+03  0.23275816562E+04  0.23103602546E+04 0.  0.
        3    1    3    3  502    0 -0.57190947365E+03 -0.94581710094E+02  0.86534720047E+03  0.10415622562E+04  0.10100000352E+00 0.  1.
       -3    1    3    3    0  502  0.57190947365E+03  0.94581710094E+02 -0.11479633013E+04  0.12860194000E+04  0.10100000352E+00 0. -1.
</event>
<event>
 5   0  0.1308224E-05  0.2313288E+04  0.7818609E-02  0.8472700E-01
       -1   -1    0    0    0  501  0.00000000000E+00  0.00000000000E+00  0.12418151406E+04  0.12418151406E+04  0.50400001928E-02 0.  1.
        1   -1    0    0  501    0  0.00000000000E+00  0.00000000000E+00 -0.10773148037E+04  0.10773148037E+04  0.50400001928E-02 0. -1.
    10030    2    1    2    0    0  0.00000000000E+00  0.00000000000E+00  0.16450033690E+03  0.23191299444E+04  0.23132884252E+04 0.  0.
        5    1    3    3  502    0  0.91932447629E+03 -0.19804416065E+03  0.75731878071E+03  0.12074488842E+04  0.46999998093E+01 0.  1.
       -5    1    3    3    0  502 -0.91932447629E+03  0.19804416065E+03 -0.59281844381E+03  0.11116810602E+04  0.46999998093E+01 0. -1.
</event>
<event>
 5   0  0.2816178E-05  0.2270544E+04  0.7818609E-02  0.8489626E-01
       -2   -1    0    0    0  501  0.00000000000E+00  0.00000000000E+00  0.17063228726E+04  0.17063228726E+04  0.25500000920E-02 0.  1.
        2   -1    0    0  501    0  0.00000000000E+00  0.00000000000E+00 -0.75533356662E+03  0.75533356662E+03  0.25500000920E-02 0. -1.
    10030    2    1    2    0    0  0.00000000000E+00  0.00000000000E+00  0.95098930602E+03  0.24616564393E+04  0.22705443763E+04 0.  0.
        1    1    3    3  502    0 -0.10651991967E+03 -0.55207167475E+03 -0.59378148787E+03  0.81774450944E+03  0.50400001928E-02 0. -1.
       -1    1    3    3    0  502  0.10651991967E+03  0.55207167475E+03  0.15447707939E+04  0.16439119298E+04  0.50400001928E-02 0.  1.
</event>
<event>
 5   0  0.2871888E-05  0.2290640E+04  0.7818609E-02  0.8481621E-01
        2   -1    0    0  501    0  0.00000000000E+00  0.00000000000E+00  0.10370065841E+04  0.10370065841E+04  0.25500000920E-02 0.  1.
       -2   -1    0    0    0  501  0.00000000000E+00  0.00000000000E+00 -0.12649461283E+04  0.12649461283E+04  0.25500000920E-02 0. -1.
    10030    2    1    2    0    0  0.00000000000E+00  0.00000000000E+00 -0.22793954422E+03  0.23019527124E+04  0.22906396169E+04 0.  0.
        3    1    3    3  502    0 -0.77359011993E+03  0.30527467685E+03  0.67739844295E+03  0.10726150114E+04  0.10100000352E+00 0.  1.
       -3    1    3    3    0  502  0.77359011993E+03 -0.30527467685E+03 -0.90533798717E+03  0.12293377010E+04  0.10100000352E+00 0. -1.
</event>
<event>
 5   0  0.1017200E-05  0.2241500E+04  0.7818609E-02  0.8501351E-01
       -3   -1    0    0    0  501  0.00000000000E+00  0.00000000000E+00  0.83006429143E+03  0.83006429758E+03  0.10100000352E+00 0.  1.
        3   -1    0    0  501    0  0.00000000000E+00  0.00000000000E+00 -0.15132322397E+04  0.15132322431E+04  0.10100000352E+00 0. -1.
    10030    2    1    2    0    0  0.00000000000E+00  0.00000000000E+00 -0.68316794831E+03  0.23432965407E+04  0.22414995499E+04 0.  0.
        1    1    3    3  502    0  0.82365482377E+03 -0.75972576396E+03 -0.31845329502E+03  0.11649047198E+04  0.50400001928E-02 0. -1.
       -1    1    3    3    0  502 -0.82365482377E+03  0.75972576396E+03 -0.36471465329E+03  0.11783918209E+04  0.50400001928E-02 0.  1.
</event>
<event>
 5   0  0.1284837E-05  0.2267041E+04  0.7818609E-02  0.8491031E-01
       -1   -1    0    0    0  501  0.00000000000E+00  0.00000000000E+00  0.12491035594E+04  0.12491035594E+04  0.50400001928E-02 0.  1.
        1   -1    0    0  501    0  0.00000000000E+00  0.00000000000E+00 -0.10286325426E+04  0.10286325426E+04  0.50400001928E-02 0. -1.
    10030    2    1    2    0    0  0.00000000000E+00  0.00000000000E+00  0.22047101685E+03  0.22777361020E+04  0.22670408645E+04 0.  0.
        4    1    3    3  502    0  0.20033249466E+03  0.41833380074E+03 -0.92892176724E+03  0.10382839399E+04  0.12699999809E+01 0. -1.
       -4    1    3    3    0  502 -0.20033249466E+03 -0.41833380074E+03  0.11493927841E+04  0.12394521622E+04  0.12699999809E+01 0.  1.
</event>
<event>
 5   0  0.1303224E-05  0.2245255E+04  0.7818609E-02  0.8499824E-01
       -1   -1    0    0    0  501  0.00000000000E+00  0.00000000000E+00  0.16327565134E+04  0.16327565134E+04  0.50400001928E-02 0.  1.
        1   -1    0    0  501    0  0.00000000000E+00  0.00000000000E+00 -0.77188058285E+03  0.77188058286E+03  0.50400001928E-02 0. -1.
    10030    2    1    2    0    0  0.00000000000E+00  0.00000000000E+00  0.86087593051E+03  0.24046370962E+04  0.22452554859E+04 0.  0.
        2    1    3    3  502    0 -0.12366204587E+03 -0.36491009218E+03  0.15597272092E+04  0.16066115411E+04  0.25500000920E-02 0.  1.
       -2    1    3    3    0  502  0.12366204587E+03  0.36491009218E+03 -0.69885127865E+03  0.79802555513E+03  0.25500000920E-02 0. -1.
</event>
<event>
 5   0  0.2994157E-05  0.2307704E+04  0.7818609E-02  0.8474890E-01
       -2   -1    0    0    0  501  0.00000000000E+00  0.00000000000E+00  0.86814666272E+03  0.86814666272E+03  0.25500000920E-02 0.  1.
        2   -1    0    0  501    0  0.00000000000E+00  0.00000000000E+00 -0.15335817959E+04  0.15335817959E+04  0.25500000920E-02 0. -1.
    10030    2    1    2    0    0  0.00000000000E+00  0.00000000000E+00 -0.66543513320E+03  0.24017284586E+04  0.23077035495E+04 0.  0.
        4    1    3    3  502    0  0.34601068180E+02 -0.11448795277E+04 -0.47777329714E+03  0.12410541097E+04  0.12699999809E+01 0. -1.
       -4    1    3    3    0  502 -0.34601068180E+02  0.11448795277E+04 -0.18766183606E+03  0.11606743490E+04  0.12699999809E+01 0.  1.
</event>
<event>
 5   0  0.2816178E-05  0.2294371E+04  0.7818609E-02  0.8480144E-01
        2   -1    0    0  501    0  0.00000000000E+00  0.00000000000E+00  0.85066428119E+03  0.85066428119E+03  0.25500000920E-02 0. -1.
       -2   -1    0    0    0  501  0.00000000000E+00  0.00000000000E+00 -0.15470670491E+04  0.15470670491E+04  0.25500000920E-02 0.  1.
    10030    2    1    2    0    0  0.00000000000E+00  0.00000000000E+00 -0.69640276789E+03  0.23977313303E+04  0.22943710940E+04 0.  0.
        1    1    3    3  502    0 -0.45484894451E+03  0.76926451157E+02  0.74946351476E+03  0.88005727154E+03  0.50400001928E-02 0. -1.
       -1    1    3    3    0  502  0.45484894451E+03 -0.76926451157E+02 -0.14458662826E+04  0.15176740587E+04  0.50400001928E-02 0.  1.
</event>
<event>
 5   0  0.1327820E-05  0.2292003E+04  0.7818609E-02  0.8481081E-01
       -1   -1    0    0    0  501  0.00000000000E+00  0.00000000000E+00  0.53757680673E+03  0.53757680675E+03  0.50400001928E-02 0.  1.
        1   -1    0    0  501    0  0.00000000000E+00  0.00000000000E+00 -0.24430361613E+04  0.24430361613E+04  0.50400001928E-02 0. -1.
    10030    2    1    2    0    0  0.00000000000E+00  0.00000000000E+00 -0.19054593546E+04  0.29806129681E+04  0.22920031225E+04 0.  0.
        1    1    3    3  502    0  0.89926646089E+03 -0.53329725153E+03 -0.34244561989E+03  0.11001614103E+04  0.50400001928E-02 0.  1.
       -1    1    3    3    0  502 -0.89926646089E+03  0.53329725153E+03 -0.15630137347E+04  0.18804515578E+04  0.50400001928E-02 0. -1.
</event>
<event>
 5   0  0.2910126E-05  0.2342032E+04  0.7818609E-02  0.8461530E-01
        2   -1    0    0  501    0  0.00000000000E+00  0.00000000000E+00  0.15784111942E+04  0.15784111942E+04  0.25500000920E-02 0. -1.
       -2   -1    0    0    0  501  0.00000000000E+00  0.00000000000E+00 -0.86877149958E+03  0.86877149959E+03  0.25500000920E-02 0.  1.
    10030    2    1    2    0    0  0.00000000000E+00  0.00000000000E+00  0.70963969460E+03  0.24471826938E+04  0.23420321604E+04 0.  0.
        5    1    3    3  502    0 -0.11339178041E+04 -0.87929389719E+02  0.64618582259E+03  0.13080823259E+04  0.46999998093E+01 0. -1.
       -5    1    3    3    0  502  0.11339178041E+04  0.87929389719E+02  0.63453872017E+02  0.11391003678E+04  0.46999998093E+01 0.  1.
</event>
<event>
 5   0  0.1284837E-05  0.2308317E+04  0.7818609E-02  0.8474649E-01
       -1   -1    0    0    0  501  0.00000000000E+00  0.00000000000E+00  0.66787514791E+03  0.66787514793E+03  0.50400001928E-02 0.  1.
        1   -1    0    0  501    0  0.00000000000E+00  0.00000000000E+00 -0.19945066782E+04  0.19945066782E+04  0.50400001928E-02 0. -1.
    10030    2    1    2    0    0  0.00000000000E+00  0.00000000000E+00 -0.13266315302E+04  0.26623818261E+04  0.23083166531E+04 0.  0.
        4    1    3    3  502    0 -0.14916629292E+03  0.11442592452E+04 -0.63752456676E+03  0.13183394818E+04  0.12699999809E+01 0. -1.
       -4    1    3    3    0  502  0.14916629292E+03 -0.11442592452E+04 -0.68910696348E+03  0.13440423443E+04  0.12699999809E+01 0.  1.
</event>
<event>
 5   0  0.1371753E-05  0.2298800E+04  0.7818609E-02  0.8478395E-01
        1   -1    0    0  501    0  0.00000000000E+00  0.00000000000E+00  0.84923364762E+03  0.84923364764E+03  0.50400001928E-02 0. -1.
       -1   -1    0    0    0  501  0.00000000000E+00  0.00000000000E+00 -0.15556612567E+04  0.15556612567E+04  0.50400001928E-02 0.  1.
    10030    2    1    2    0    0  0.00000000000E+00  0.00000000000E+00 -0.70642760909E+03  0.24048949044E+04  0.22987995855E+04 0.  0.
        3    1    3    3  502    0  0.16947875350E+03 -0.10843500429E+04 -0.71041293147E+03  0.13073731704E+04  0.10100000352E+00 0.  1.
       -3    1    3    3    0  502 -0.16947875350E+03  0.10843500429E+04  0.39853223755E+01  0.10975217339E+04  0.10100000352E+00 0. -1.
</event>
<event>
 5   0  0.1303224E-05  0.2289243E+04  0.7818609E-02  0.8482175E-01
       -1   -1    0    0    0  501  0.00000000000E+00  0.00000000000E+00  0.54262186020E+03  0.54262186022E+03  0.50400001928E-02 0.  1.
        1   -1    0    0  501    0  0.00000000000E+00  0.00000000000E+00 -0.24144953657E+04  0.24144953657E+04  0.50400001928E-02 0. -1.
    10030    2    1    2    0    0  0.00000000000E+00  0.00000000000E+00 -0.18718735055E+04  0.29571172259E+04  0.22892426405E+04 0.  0.
        2    1    3    3  502    0  0.43585234277E+03 -0.76277688483E+03 -0.18837307728E+04  0.20785180935E+04  0.25500000920E-02 0. -1.
       -2    1    3    3    0  502 -0.43585234277E+03  0.76277688483E+03  0.11857267261E+02  0.87859913244E+03  0.25500000920E-02 0.  1.
</event>
<event>
 5   0  0.2994157E-05  0.2257824E+04  0.7818609E-02  0.8494739E-01
       -2   -1    0    0    0  501  0.00000000000E+00  0.00000000000E+00  0.62225335081E+03  0.62225335082E+03  0.25500000920E-02 0.  1.
        2   -1    0    0  501    0  0.00000000000E+00  0.00000000000E+00 -0.20481087550E+04  0.20481087550E+04  0.25500000920E-02 0. -1.
    10030    2    1    2    0    0  0.00000000000E+00  0.00000000000E+00 -0.14258554042E+04  0.26703621058E+04  0.22578242054E+04 0.  0.
        4    1    3    3  502    0 -0.62905779501E+03 -0.93475325784E+03 -0.79625296252E+03  0.13796730612E+04  0.12699999809E+01 0. -1.
       -4    1    3    3    0  502  0.62905779501E+03  0.93475325784E+03 -0.62960244165E+03  0.12906890446E+04  0.12699999809E+01 0.  1.
</event>
<event>
 5   0  0.1327820E-05  0.2277425E+04  0.7818609E-02  0.8486876E-01
       -1   -1    0    0    0  501  0.00000000000E+00  0.00000000000E+00  0.10375414114E+04  0.10375414114E+04  0.50400001928E-02 0.  1.
        1   -1    0    0  501    0  0.00000000000E+00  0.00000000000E+00 -0.12497491966E+04  0.12497491967E+04  0.50400001928E-02 0. -1.
    10030    2    1    2    0    0  0.00000000000E+00  0.00000000000E+00 -0.21220778525E+03  0.22872906081E+04  0.22774253405E+04 0.  0.
        1    1    3    3  502    0 -0.85511739736E+02 -0.22004041108E+03 -0.12249026577E+04  0.12474440112E+04  0.50400001928E-02 0. -1.
       -1    1    3    3    0  502  0.85511739736E+02  0.22004041108E+03  0.10126948725E+04  0.10398465968E+04  0.50400001928E-02 0.  1.
</event>
<event>
 5   0  0.1371753E-05  0.2306957E+04  0.7818609E-02  0.8475183E-01
        1   -1    0    0  501    0  0.00000000000E+00  0.00000000000E+00  0.17229156583E+04  0.17229156583E+04  0.50400001928E-02 0. -1.
       -1   -1    0    0    0  501  0.00000000000E+00  0.00000000000E+00 -0.77224468883E+03  0.77224468885E+03  0.50400001928E-02 0.  1.
    10030    2    1    2    0    0  0.00000000000E+00  0.00000000000E+00  0.95067096949E+03  0.24951603472E+04  0.23069568409E+04 0.  0.
        3    1    3    3  502    0 -0.42326357314E+03  0.69637254891E+03  0.13582829238E+04  0.15839884124E+04  0.10100000352E+00 0. -1.
       -3    1    3    3    0  502  0.42326357314E+03 -0.69637254891E+03 -0.40761195434E+03  0.91117193479E+03  0.10100000352E+00 0.  1.
</event>
<event>
 5   0  0.2938972E-05  0.2293217E+04  0.7818609E-02  0.8480600E-01
        2   -1    0    0  501    0  0.00000000000E+00  0.00000000000E+00  0.73984246017E+03  0.73984246017E+03  0.25500000920E-02 0.  1.
       -2   -1    0    0    0  501  0.00000000000E+00  0.00000000000E+00 -0.17770154929E+04  0.17770154929E+04  0.25500000920E-02 0. -1.
    10030    2    1    2    0    0  0.00000000000E+00  0.00000000000E+00 -0.10371730327E+04  0.25168579530E+04  0.22932174027E+04 0.  0.
        2    1    3    3  502    0 -0.26499581674E+03  0.40067323315E+03  0.62407615383E+03  0.78754864513E+03  0.25500000920E-02 0.  1.
       -2    1    3    3    0  502  0.26499581674E+03 -0.40067323315E+03 -0.16612491865E+04  0.17293093079E+04  0.25500000920E-02 0. -1.
</event>
<event>
 5   0  0.2994157E-05  0.2290907E+04  0.7818609E-02  0.8481515E-01
        2   -1    0    0  501    0  0.00000000000E+00  0.00000000000E+00  0.13684055869E+04  0.13684055869E+04  0.25500000920E-02 0.  1.
       -2   -1    0    0    0  501  0.00000000000E+00  0.00000000000E+00 -0.95882693793E+03  0.95882693793E+03  0.25500000920E-02 0. -1.
    10030    2    1    2    0    0  0.00000000000E+00  0.00000000000E+00  0.40957864894E+03  0.23272325248E+04  0.22909073650E+04 0.  0.
        4    1    3    3  502    0 -0.48085208619E+03  0.86152215496E+03 -0.38635117672E+03  0.10595791603E+04  0.12699999809E+01 0. -1.
       -4    1    3    3    0  502  0.48085208619E+03 -0.86152215496E+03  0.79592982566E+03  0.12676533645E+04  0.12699999809E+01 0.  1.
</event>
<event>
 5   0  0.1308224E-05  0.2320727E+04  0.7818609E-02  0.8469793E-01
        1   -1    0    0  501    0  0.00000000000E+00  0.00000000000E+00  0.14557108665E+04  0.14557108665E+04  0.50400001928E-02 0. -1.
       -1   -1    0    0    0  501  0.00000000000E+00  0.00000000000E+00 -0.92493857972E+03  0.92493857974E+03  0.50400001928E-02 0.  1.
    10030    2    1    2    0    0  0.00000000000E+00  0.00000000000E+00  0.53077228679E+03  0.23806494463E+04  0.23207267322E+04 0.  0.
        5    1    3    3  502    0 -0.40509803833E+03  0.93787336783E+03 -0.29901119310E+03  0.10644907977E+04  0.46999998093E+01 0. -1.
       -5    1    3    3    0  502  0.40509803833E+03 -0.93787336783E+03  0.82978347990E+03  0.13161586486E+04  0.46999998093E+01 0.  1.
</event>
<event>
 5   0  0.2994157E-05  0.2246734E+04  0.7818609E-02  0.8499224E-01
        2   -1    0    0  501    0  0.00000000000E+00  0.00000000000E+00  0.13017876840E+04  0.13017876840E+04  0.25500000920E-02 0. -1.
       -2   -1    0    0    0  501  0.00000000000E+00  0.00000000000E+00 -0.96940054043E+03  0.96940054043E+03  0.25500000920E-02 0.  1.
    10030    2    1    2    0    0  0.00000000000E+00  0.00000000000E+00  0.33238714362E+03  0.22711882245E+04  0.22467342383E+04 0.  0.
        4    1    3    3  502    0 -0.45805222971E+03  0.44241810555E+03  0.11016883938E+04  0.12725032633E+04  0.12699999809E+01 0. -1.
       -4    1    3    3    0  502  0.45805222971E+03 -0.44241810555E+03 -0.76930125016E+03  0.99868496117E+03  0.12699999809E+01 0.  1.
</event>
<event>
 5   0  0.1303224E-05  0.2273153E+04  0.7818609E-02  0.8488582E-01
       -1   -1    0    0    0  501  0.00000000000E+00  0.00000000000E+00  0.12265639871E+04  0.12265639871E+04  0.50400001928E-02 0.  1.
        1   -1    0    0  501    0  0.00000000000E+00  0.00000000000E+00 -0.10531910670E+04  0.10531910670E+04  0.50400001928E-02 0. -1.
    10030    2    1    2    0    0  0.00000000000E+00  0.00000000000E+00  0.17337292006E+03  0.22797550541E+04  0.22731530827E+04 0.  0.
        2    1    3    3  502    0 -0.33193765027E+03 -0.25319082258E+03 -0.97351103655E+03  0.10592506477E+04  0.25500000920E-02 0. -1.
       -2    1    3    3    0  502  0.33193765027E+03  0.25319082258E+03  0.11468839566E+04  0.12205044065E+04  0.25500000920E-02 0.  1.
</event>
<event>
 5   0  0.2910126E-05  0.2301564E+04  0.7818609E-02  0.8477305E-01
       -2   -1    0    0    0  501  0.00000000000E+00  0.00000000000E+00  0.10595206866E+04  0.10595206866E+04  0.25500000920E-02 0. -1.
        2   -1    0    0  501    0  0.00000000000E+00  0.00000000000E+00 -0.12499045116E+04  0.12499045116E+04  0.25500000920E-02 0.  1.
    10030    2    1    2    0    0  0.00000000000E+00  0.00000000000E+00 -0.19038382500E+03  0.23094251982E+04  0.23015644126E+04 0.  0.
        5    1    3    3  502    0 -0.72327415612E+02 -0.59169051035E+03  0.89252196188E+03  0.10732876863E+04  0.46999998093E+01 0. -1.
       -5    1    3    3    0  502  0.72327415612E+02  0.59169051035E+03 -0.10829057869E+04  0.12361375119E+04  0.46999998093E+01 0.  1.
</event>
<event>
 5   0  0.1284837E-05  0.2320274E+04  0.7818609E-02  0.8469970E-01
        1   -1    0    0  501    0  0.00000000000E+00  0.00000000000E+00  0.12984621137E+04  0.12984621137E+04  0.50400001928E-02 0. -1.
       -1   -1    0    0    0  501  0.00000000000E+00  0.00000000000E+00 -0.10365475300E+04  0.10365475300E+04  0.50400001928E-02 0.  1.
    10030    2    1    2    0    0  0.00000000000E+00  0.00000000000E+00  0.26191458372E+03  0.23350096438E+04  0.23202738604E+04 0.  0.
        4    1    3    3  502    0 -0.87885872015E+03  0.75706293089E+03  0.11136178691E+03  0.11653068230E+04  0.12699999809E+01 0. -1.
       -4    1    3    3    0  502  0.87885872015E+03 -0.75706293089E+03  0.15055279681E+03  0.11697028207E+04  0.12699999809E+01 0.  1.
</event>
<event>
 5   0  0.2871888E-05  0.2310000E+04  0.7818609E-02  0.8473988E-01
        2   -1    0    0  501    0  0.00000000000E+00  0.00000000000E+00  0.21099074534E+04  0.21099074534E+04  0.25500000920E-02 0.  1.
       -2   -1    0    0    0  501  0.00000000000E+00  0.00000000000E+00 -0.63226734045E+03  0.63226734046E+03  0.25500000920E-02 0. -1.
    10030    2    1    2    0    0  0.00000000000E+00  0.00000000000E+00  0.14776401130E+04  0.27421747939E+04  0.23100004971E+04 0.  0.
        3    1    3    3  502    0 -0.87998183959E+03  0.35075448756E+02 -0.14826723628E+03  0.89307418990E+03  0.10100000352E+00 0. -1.
       -3    1    3    3    0  502  0.87998183959E+03 -0.35075448756E+02  0.16259073493E+04  0.18491006040E+04  0.10100000352E+00 0.  1.
</event>
<event>
 5   0  0.1017200E-05  0.2309600E+04  0.7818609E-02  0.8474145E-01
        4   -1    0    0  501    0  0.00000000000E+00  0.00000000000E+00  0.99265546102E+03  0.99265627344E+03  0.12699999809E+01 0.  1.
       -4   -1    0    0    0  501  0.00000000000E+00  0.00000000000E+00 -0.13434285057E+04  0.13434291060E+04  0.12699999809E+01 0. -1.
    10030    2    1    2    0    0  0.00000000000E+00  0.00000000000E+00 -0.35077304464E+03  0.23360853794E+04  0.23096002189E+04 0.  0.
        1    1    3    3  502    0 -0.20311628297E+03  0.10915998798E+04 -0.49638486909E+03  0.12162419415E+04  0.50400001928E-02 0. -1.
       -1    1    3    3    0  502  0.20311628297E+03 -0.10915998798E+04  0.14561182444E+03  0.11198434379E+04  0.50400001928E-02 0.  1.
</event>
<event>
 5   0  0.2938972E-05  0.2294805E+04  0.7818609E-02  0.8479972E-01
       -2   -1    0    0    0  501  0.00000000000E+00  0.00000000000E+00  0.92223311599E+03  0.92223311600E+03  0.25500000920E-02 0.  1.
        2   -1    0    0  501    0  0.00000000000E+00  0.00000000000E+00 -0.14275486790E+04  0.14275486790E+04  0.25500000920E-02 0. -1.
    10030    2    1    2    0    0  0.00000000000E+00  0.00000000000E+00 -0.50531556298E+03  0.23497817950E+04  0.22948051477E+04 0.  0.
        2    1    3    3  502    0 -0.80025828742E+02 -0.88658008124E+03 -0.99395193988E+03  0.13343046251E+04  0.25500000920E-02 0. -1.
       -2    1    3    3    0  502  0.80025828742E+02  0.88658008124E+03  0.48863637691E+03  0.10154771699E+04  0.25500000920E-02 0.  1.
</event>
<event>
 5   0  0.1017200E-05  0.2305532E+04  0.7818609E-02  0.8475743E-01
        3   -1    0    0  501    0  0.00000000000E+00  0.00000000000E+00  0.50347959692E+03  0.50347960705E+03  0.10100000352E+00 0. -1.
       -3   -1    0    0    0  501  0.00000000000E+00  0.00000000000E+00 -0.26393710078E+04  0.26393710097E+04  0.10100000352E+00 0.  1.
    10030    2    1    2    0    0  0.00000000000E+00  0.00000000000E+00 -0.21358914109E+04  0.31428506168E+04  0.23055320168E+04 0.  0.
        5    1    3    3  502    0  0.13180057067E+03 -0.30326236804E+03 -0.25733213836E+04  0.25944834722E+04  0.46999998093E+01 0.  1.
       -5    1    3    3    0  502 -0.13180057067E+03  0.30326236804E+03  0.43742997267E+03  0.54836714461E+03  0.46999998093E+01 0. -1.
</event>
<event>
 5   0  0.2994157E-05  0.2315206E+04  0.7818609E-02  0.8471950E-01
        2   -1    0    0  501    0  0.00000000000E+00  0.00000000000E+00  0.23920718288E+04  0.23920718288E+04  0.25500000920E-02 0. -1.
       -2   -1    0    0    0  501  0.00000000000E+00  0.00000000000E+00 -0.56020243502E+03  0.56020243503E+03  0.25500000920E-02 0.  1.
    10030    2    1    2    0    0  0.00000000000E+00  0.00000000000E+00  0.18318693938E+04  0.29522742639E+04  0.23152057907E+04 0.  0.
        4    1    3    3  502    0  0.10236474746E+04 -0.53613367948E+03  0.10038137510E+04  0.15306655853E+04  0.12699999809E+01 0. -1.
       -4    1    3    3    0  502 -0.10236474746E+04  0.53613367948E+03  0.82805564284E+03  0.14216086786E+04  0.12699999809E+01 0.  1.
</event>
<event>
 5   0  0.2910126E-05  0.2302206E+04  0.7818609E-02  0.8477052E-01
       -2   -1    0    0    0  501  0.00000000000E+00  0.00000000000E+00  0.16136242710E+04  0.16136242711E+04  0.25500000920E-02 0. -1.
        2   -1    0    0  501    0  0.00000000000E+00  0.00000000000E+00 -0.82115688490E+03  0.82115688490E+03  0.25500000920E-02 0.  1.
    10030    2    1    2    0    0  0.00000000000E+00  0.00000000000E+00  0.79246738615E+03  0.24347811560E+04  0.23022064893E+04 0.  0.
        5    1    3    3  502    0  0.16207119992E+03  0.11390923555E+04  0.35932225316E+03  0.12053767211E+04  0.46999998093E+01 0.  1.
       -5    1    3    3    0  502 -0.16207119992E+03 -0.11390923555E+04  0.43314513299E+03  0.12294044348E+04  0.46999998093E+01 0. -1.
</event>
<event>
 5   0  0.1284837E-05  0.2202574E+04  0.7818609E-02  0.8517358E-01
        1   -1    0    0  501    0  0.00000000000E+00  0.00000000000E+00  0.13273379108E+04  0.13273379108E+04  0.50400001928E-02 0. -1.
       -1   -1    0    0    0  501  0.00000000000E+00  0.00000000000E+00 -0.91373308710E+03  0.91373308711E+03  0.50400001928E-02 0.  1.
    10030    2    1    2    0    0  0.00000000000E+00  0.00000000000E+00  0.41360482373E+03  0.22410709980E+04  0.22025735556E+04 0.  0.
        4    1    3    3  502    0  0.31451317204E+02  0.48636676252E+03  0.12116307835E+04  0.13059833772E+04  0.12699999809E+01 0. -1.
       -4    1    3    3    0  502 -0.31451317204E+02 -0.48636676252E+03 -0.79802595981E+03  0.93508762074E+03  0.12699999809E+01 0.  1.
</event>
<event>
 5   0  0.1303224E-05  0.2304624E+04  0.7818609E-02  0.8476100E-01
        1   -1    0    0  501    0  0.00000000000E+00  0.00000000000E+00  0.14341050036E+04  0.14341050036E+04  0.50400001928E-02 0. -1.
       -1   -1    0    0    0  501  0.00000000000E+00  0.00000000000E+00 -0.92588972802E+03  0.92588972803E+03  0.50400001928E-02 0.  1.
    10030    2    1    2    0    0  0.00000000000E+00  0.00000000000E+00  0.50821527559E+03  0.23599947316E+04  0.23046241271E+04 0.  0.
        2    1    3    3  502    0 -0.26164458922E+02 -0.79843533552E+03  0.11045051915E+04  0.13631270234E+04  0.25500000920E-02 0. -1.
       -2    1    3    3    0  502  0.26164458922E+02  0.79843533552E+03 -0.59628991590E+03  0.99686770824E+03  0.25500000920E-02 0.  1.
</event>
<event>
 5   0  0.2910126E-05  0.2300295E+04  0.7818609E-02  0.8477805E-01
       -2   -1    0    0    0  501  0.00000000000E+00  0.00000000000E+00  0.90398542005E+03  0.90398542005E+03  0.25500000920E-02 0.  1.
        2   -1    0    0  501    0  0.00000000000E+00  0.00000000000E+00 -0.14633419342E+04  0.14633419342E+04  0.25500000920E-02 0. -1.
    10030    2    1    2    0    0  0.00000000000E+00  0.00000000000E+00 -0.55935651411E+03  0.23673273542E+04  0.23002954358E+04 0.  0.
        5    1    3    3  502    0  0.35790445584E+02  0.63468274672E+03  0.70674883838E+03  0.95058884673E+03  0.46999998093E+01 0.  1.
       -5    1    3    3    0  502 -0.35790445584E+02 -0.63468274672E+03 -0.12661053525E+04  0.14167385075E+04  0.46999998093E+01 0. -1.
</event>
<event>
 5   0  0.1371753E-05  0.2340671E+04  0.7818609E-02  0.8462056E-01
       -1   -1    0    0    0  501  0.00000000000E+00  0.00000000000E+00  0.10740095665E+04  0.10740095666E+04  0.50400001928E-02 0.  1.
        1   -1    0    0  501    0  0.00000000000E+00  0.00000000000E+00 -0.12753005535E+04  0.12753005535E+04  0.50400001928E-02 0. -1.
    10030    2    1    2    0    0  0.00000000000E+00  0.00000000000E+00 -0.20129098699E+03  0.23493101201E+04  0.23406708395E+04 0.  0.
        3    1    3    3  502    0  0.83345155256E+03 -0.51627990419E+03  0.54085244777E+03  0.11196909441E+04  0.10100000352E+00 0.  1.
       -3    1    3    3    0  502 -0.83345155256E+03  0.51627990419E+03 -0.74214343476E+03  0.12296191760E+04  0.10100000352E+00 0. -1.
</event>
<event>
 5   0  0.2816178E-05  0.2180621E+04  0.7818609E-02  0.8526537E-01
       -2   -1    0    0    0  501  0.00000000000E+00  0.00000000000E+00  0.15172289048E+04  0.15172289048E+04  0.25500000920E-02 0. -1.
        2   -1    0    0  501    0  0.00000000000E+00  0.00000000000E+00 -0.78351878537E+03  0.78351878537E+03  0.25500000920E-02 0.  1.
    10030    2    1    2    0    0  0.00000000000E+00  0.00000000000E+00  0.73371011938E+03  0.23007476901E+04  0.21806213322E+04 0.  0.
        1    1    3    3  502    0 -0.14497926842E+03  0.99219846210E+03 -0.84866322768E+02  0.10063195662E+04  0.50400001928E-02 0. -1.
       -1    1    3    3    0  502  0.14497926842E+03 -0.99219846210E+03  0.81857644215E+03  0.12944281240E+04  0.50400001928E-02 0.  1.
</event>
<event>
 5   0  0.1327820E-05  0.2303921E+04  0.7818609E-02  0.8476377E-01
        1   -1    0    0  501    0  0.00000000000E+00  0.00000000000E+00  0.16801002618E+04  0.16801002618E+04  0.50400001928E-02 0. -1.
       -1   -1    0    0    0  501  0.00000000000E+00  0.00000000000E+00 -0.78984179304E+03  0.78984179305E+03  0.50400001928E-02 0.  1.
    10030    2    1    2    0    0  0.00000000000E+00  0.00000000000E+00  0.89025846879E+03  0.24699420549E+04  0.23039213557E+04 0.  0.
        1    1    3    3  502    0 -0.49494626071E+03  0.94836280591E+03 -0.13042682428E+02  0.10698289229E+04  0.50400001928E-02 0.  1.
       -1    1    3    3    0  502  0.49494626071E+03 -0.94836280591E+03  0.90330115122E+03  0.14001131320E+04  0.50400001928E-02 0. -1.
</event>
<event>
 5   0  0.2816178E-05  0.2305420E+04  0.7818609E-02  0.8475787E-01
        2   -1    0    0  501    0  0.00000000000E+00  0.00000000000E+00  0.82901501664E+03  0.82901501665E+03  0.25500000920E-02 0.  1.
       -2   -1    0    0    0  501  0.00000000000E+00  0.00000000000E+00 -0.16027942881E+04  0.16027942881E+04  0.25500000920E-02 0. -1.
    10030    2    1    2    0    0  0.00000000000E+00  0.00000000000E+00 -0.77377927147E+03  0.24318093048E+04  0.23054201643E+04 0.  0.
        1    1    3    3  502    0  0.39798578959E+03 -0.10503066551E+04 -0.66033858732E+03  0.13029135844E+04  0.50400001928E-02 0. -1.
       -1    1    3    3    0  502 -0.39798578959E+03  0.10503066551E+04 -0.11344068415E+03  0.11288957203E+04  0.50400001928E-02 0.  1.
</event>
<event>
 5   0  0.2816178E-05  0.2292222E+04  0.7818609E-02  0.8480994E-01
        2   -1    0    0  501    0  0.00000000000E+00  0.00000000000E+00  0.12051547091E+04  0.12051547091E+04  0.25500000920E-02 0.  1.
       -2   -1    0    0    0  501  0.00000000000E+00  0.00000000000E+00 -0.10899596429E+04  0.10899596429E+04  0.25500000920E-02 0. -1.
    10030    2    1    2    0    0  0.00000000000E+00  0.00000000000E+00  0.11519506626E+03  0.22951143520E+04  0.22922216266E+04 0.  0.
        1    1    3    3  502    0  0.71425009686E+03  0.12638347801E+03  0.94609780589E+03  0.11921522733E+04  0.50400001928E-02 0.  1.
       -1    1    3    3    0  502 -0.71425009686E+03 -0.12638347801E+03 -0.83090273964E+03  0.11029620787E+04  0.50400001928E-02 0. -1.
</event>
<event>
 5   0  0.2910126E-05  0.2306096E+04  0.7818609E-02  0.8475522E-01
       -2   -1    0    0    0  501  0.00000000000E+00  0.00000000000E+00  0.17171995808E+04  0.17171995808E+04  0.25500000920E-02 0. -1.
        2   -1    0    0  501    0  0.00000000000E+00  0.00000000000E+00 -0.77423690655E+03  0.77423690656E+03  0.25500000920E-02 0.  1.
    10030    2    1    2    0    0  0.00000000000E+00  0.00000000000E+00  0.94296267421E+03  0.24914364873E+04  0.23060956540E+04 0.  0.
        5    1    3    3  502    0 -0.45616904506E+03  0.69552394023E+03  0.13341913939E+04  0.15722380592E+04  0.46999998093E+01 0. -1.
       -5    1    3    3    0  502  0.45616904506E+03 -0.69552394023E+03 -0.39122871974E+03  0.91919842812E+03  0.46999998093E+01 0.  1.
</event>
<event>
 5   0  0.2871888E-05  0.2289309E+04  0.7818609E-02  0.8482148E-01
       -2   -1    0    0    0  501  0.00000000000E+00  0.00000000000E+00  0.94764078249E+03  0.94764078250E+03  0.25500000920E-02 0. -1.
        2   -1    0    0  501    0  0.00000000000E+00  0.00000000000E+00 -0.13826276914E+04  0.13826276914E+04  0.25500000920E-02 0.  1.
    10030    2    1    2    0    0  0.00000000000E+00  0.00000000000E+00 -0.43498690887E+03  0.23302684739E+04  0.22893094045E+04 0.  0.
        3    1    3    3  502    0 -0.57564845197E+03 -0.19716936272E+03  0.76938235077E+03  0.98091595446E+03  0.10100000352E+00 0. -1.
       -3    1    3    3    0  502  0.57564845197E+03  0.19716936272E+03 -0.12043692596E+04  0.13493525194E+04  0.10100000352E+00 0.  1.
</event>
<event>
 5   0  0.1303224E-05  0.2305924E+04  0.7818609E-02  0.8475589E-01
       -1   -1    0    0    0  501  0.00000000000E+00  0.00000000000E+00  0.46139574807E+03  0.46139574810E+03  0.50400001928E-02 0.  1.
        1   -1    0    0  501    0  0.00000000000E+00  0.00000000000E+00 -0.28810875781E+04  0.28810875781E+04  0.50400001928E-02 0. -1.
    10030    2    1    2    0    0  0.00000000000E+00  0.00000000000E+00 -0.24196918300E+04  0.33424833262E+04  0.23059241604E+04 0.  0.
        2    1    3    3  502    0  0.20015034231E+03 -0.12505263117E+03  0.42600875094E+03  0.48701311684E+03  0.25500000920E-02 0.  1.
       -2    1    3    3    0  502 -0.20015034231E+03  0.12505263117E+03 -0.28457005809E+04  0.28554702094E+04  0.25500000920E-02 0. -1.
</event>
<event>
 5   0  0.1371753E-05  0.2309620E+04  0.7818609E-02  0.8474138E-01
       -1   -1    0    0    0  501  0.00000000000E+00  0.00000000000E+00  0.75438184397E+03  0.75438184399E+03  0.50400001928E-02 0. -1.
        1   -1    0    0  501    0  0.00000000000E+00  0.00000000000E+00 -0.17677861857E+04  0.17677861857E+04  0.50400001928E-02 0.  1.
    10030    2    1    2    0    0  0.00000000000E+00  0.00000000000E+00 -0.10134043417E+04  0.25221680297E+04  0.23096197112E+04 0.  0.
        3    1    3    3  502    0  0.95544384865E+03  0.41413431993E+03 -0.10518476891E+04  0.14801228848E+04  0.10100000352E+00 0.  1.
       -3    1    3    3    0  502 -0.95544384865E+03 -0.41413431993E+03  0.38443347348E+02  0.10420451449E+04  0.10100000352E+00 0. -1.
</event>
<event>
 5   0  0.1303224E-05  0.2119691E+04  0.7818609E-02  0.8552618E-01
        1   -1    0    0  501    0  0.00000000000E+00  0.00000000000E+00  0.11849510202E+04  0.11849510202E+04  0.50400001928E-02 0. -1.
       -1   -1    0    0    0  501  0.00000000000E+00  0.00000000000E+00 -0.94794888934E+03  0.94794888935E+03  0.50400001928E-02 0.  1.
    10030    2    1    2    0    0  0.00000000000E+00  0.00000000000E+00  0.23700213088E+03  0.21328999096E+04  0.21196914904E+04 0.  0.
        2    1    3    3  502    0  0.25961757138E+03  0.31373522700E+03  0.11030879366E+04  0.11758546134E+04  0.25500000920E-02 0. -1.
       -2    1    3    3    0  502 -0.25961757138E+03 -0.31373522700E+03 -0.86608580572E+03  0.95704529616E+03  0.25500000920E-02 0.  1.
</event>
<event>
 5   0  0.1327820E-05  0.2287637E+04  0.7818609E-02  0.8482812E-01
        1   -1    0    0  501    0  0.00000000000E+00  0.00000000000E+00  0.17055283731E+04  0.17055283731E+04  0.50400001928E-02 0.  1.
       -1   -1    0    0    0  501  0.00000000000E+00  0.00000000000E+00 -0.76710604333E+03  0.76710604334E+03  0.50400001928E-02 0. -1.
    10030    2    1    2    0    0  0.00000000000E+00  0.00000000000E+00  0.93842232977E+03  0.24726344164E+04  0.22876373157E+04 0.  0.
        1    1    3    3  502    0  0.83572570502E+02 -0.89898312122E+03  0.12282593454E+04  0.15243936651E+04  0.50400001928E-02 0.  1.
       -1    1    3    3    0  502 -0.83572570502E+02  0.89898312122E+03 -0.28983701562E+03  0.94824075130E+03  0.50400001928E-02 0. -1.
</event>
<event>
 5   0  0.2816178E-05  0.2321433E+04  0.7818609E-02  0.8469518E-01
       -2   -1    0    0    0  501  0.00000000000E+00  0.00000000000E+00  0.72295614992E+03  0.72295614992E+03  0.25500000920E-02 0. -1.
        2   -1    0    0  501    0  0.00000000000E+00  0.00000000000E+00 -0.18635469225E+04  0.18635469225E+04  0.25500000920E-02 0.  1.
    10030    2    1    2    0    0  0.00000000000E+00  0.00000000000E+00 -0.11405907726E+04  0.25865030724E+04  0.23214329267E+04 0.  0.
        1    1    3    3  502    0 -0.41707524959E+03 -0.65518381054E+03  0.39077787480E+03  0.86943943830E+03  0.50400001928E-02 0. -1.
       -1    1    3    3    0  502  0.41707524959E+03  0.65518381054E+03 -0.15313686474E+04  0.17170636341E+04  0.50400001928E-02 0.  1.
</event>
<event>
 5   0  0.1371753E-05  0.2279773E+04  0.7818609E-02  0.8485939E-01
        1   -1    0    0  501    0  0.00000000000E+00  0.00000000000E+00  0.13863662444E+04  0.13863662444E+04  0.50400001928E-02 0.  1.
       -1   -1    0    0    0  501  0.00000000000E+00  0.00000000000E+00 -0.93722771535E+03  0.93722771537E+03  0.50400001928E-02 0. -1.
    10030    2    1    2    0    0  0.00000000000E+00  0.00000000000E+00  0.44913852904E+03  0.23235939598E+04  0.22797726798E+04 0.  0.
        3    1    3    3  502    0 -0.12494932978E+03 -0.93830813454E+03 -0.42270186029E+03  0.10366828653E+04  0.10100000352E+00 0. -1.
       -3    1    3    3    0  502  0.12494932978E+03  0.93830813454E+03  0.87184038934E+03  0.12869110945E+04  0.10100000352E+00 0.  1.
</event>
<event>
 5   0  0.2938972E-05  0.2303973E+04  0.7818609E-02  0.8476356E-01
        2   -1    0    0  501    0  0.00000000000E+00  0.00000000000E+00  0.10791900664E+04  0.10791900664E+04  0.25500000920E-02 0.  1.
       -2   -1    0    0    0  501  0.00000000000E+00  0.00000000000E+00 -0.12296935296E+04  0.12296935296E+04  0.25500000920E-02 0. -1.
    10030    2    1    2    0    0  0.00000000000E+00  0.00000000000E+00 -0.15050346317E+03  0.23088835960E+04  0.23039731264E+04 0.  0.
        2    1    3    3  502    0  0.73786297790E+03  0.20123990475E+03 -0.93855965255E+03  0.12107161083E+04  0.25500000920E-02 0. -1.
       -2    1    3    3    0  502 -0.73786297790E+03 -0.20123990475E+03  0.78805618938E+03  0.10981674877E+04  0.25500000920E-02 0.  1.
</event>
<event>
 5   0  0.1308224E-05  0.2293139E+04  0.7818609E-02  0.8480631E-01
        1   -1    0    0  501    0  0.00000000000E+00  0.00000000000E+00  0.11178756186E+04  0.11178756186E+04  0.50400001928E-02 0.  1.
       -1   -1    0    0    0  501  0.00000000000E+00  0.00000000000E+00 -0.11760000373E+04  0.11760000374E+04  0.50400001928E-02 0. -1.
    10030    2    1    2    0    0  0.00000000000E+00  0.00000000000E+00 -0.58124418719E+02  0.22938756560E+04  0.22931391316E+04 0.  0.
        5    1    3    3  502    0  0.67315073264E+02  0.10636440074E+04  0.39383803315E+03  0.11362219765E+04  0.46999998093E+01 0.  1.
       -5    1    3    3    0  502 -0.67315073264E+02 -0.10636440074E+04 -0.45196245187E+03  0.11576536794E+04  0.46999998093E+01 0. -1.
</event>
<event>
 5   0  0.2994157E-05  0.2285415E+04  0.7818609E-02  0.8483694E-01
       -2   -1    0    0    0  501  0.00000000000E+00  0.00000000000E+00  0.13040982306E+04  0.13040982307E+04  0.25500000920E-02 0. -1.
        2   -1    0    0  501    0  0.00000000000E+00  0.00000000000E+00 -0.10012896728E+04  0.10012896728E+04  0.25500000920E-02 0.  1.
    10030    2    1    2    0    0  0.00000000000E+00  0.00000000000E+00  0.30280855783E+03  0.23053879035E+04  0.22854147026E+04 0.  0.
        4    1    3    3  502    0 -0.10245751474E+04  0.11008201459E+03  0.64958900569E+03  0.12181296203E+04  0.12699999809E+01 0. -1.
       -4    1    3    3    0  502  0.10245751474E+04 -0.11008201459E+03 -0.34678044786E+03  0.10872582832E+04  0.12699999809E+01 0.  1.
</event>
<event>
 5   0  0.2816178E-05  0.2225706E+04  0.7818609E-02  0.8507804E-01
        2   -1    0    0  501    0  0.00000000000E+00  0.00000000000E+00  0.19226667575E+04  0.19226667575E+04  0.25500000920E-02 0.  1.
       -2   -1    0    0    0  501  0.00000000000E+00  0.00000000000E+00 -0.64412684155E+03  0.64412684156E+03  0.25500000920E-02 0. -1.
    10030    2    1    2    0    0  0.00000000000E+00  0.00000000000E+00  0.12785399160E+04  0.25667935991E+04  0.22257055204E+04 0.  0.
        1    1    3    3  502    0  0.59390541419E+03 -0.67999489378E+03  0.13896132118E+04  0.16571486279E+04  0.50400001928E-02 0.  1.
       -1    1    3    3    0  502 -0.59390541419E+03  0.67999489378E+03 -0.11107329579E+03  0.90964497120E+03  0.50400001928E-02 0. -1.
</event>
<event>
 5   0  0.2816178E-05  0.2320291E+04  0.7818609E-02  0.8469963E-01
       -2   -1    0    0    0  501  0.00000000000E+00  0.00000000000E+00  0.12133141269E+04  0.12133141269E+04  0.25500000920E-02 0.  1.
        2   -1    0    0  501    0  0.00000000000E+00  0.00000000000E+00 -0.11093065738E+04  0.11093065738E+04  0.25500000920E-02 0. -1.
    10030    2    1    2    0    0  0.00000000000E+00  0.00000000000E+00  0.10400755306E+03  0.23226207007E+04  0.23202907896E+04 0.  0.
        1    1    3    3  502    0  0.10929440229E+04 -0.29834480182E+03  0.30205669411E+03  0.11725077844E+04  0.50400001928E-02 0. -1.
       -1    1    3    3    0  502 -0.10929440229E+04  0.29834480182E+03 -0.19804914106E+03  0.11501129163E+04  0.50400001928E-02 0.  1.
</event>
<event>
 5   0  0.1284837E-05  0.2296256E+04  0.7818609E-02  0.8479399E-01
        1   -1    0    0  501    0  0.00000000000E+00  0.00000000000E+00  0.18394900564E+04  0.18394900564E+04  0.50400001928E-02 0. -1.
       -1   -1    0    0    0  501  0.00000000000E+00  0.00000000000E+00 -0.71661064822E+03  0.71661064823E+03  0.50400001928E-02 0.  1.
    10030    2    1    2    0    0  0.00000000000E+00  0.00000000000E+00  0.11228794082E+04  0.25561007046E+04  0.22962562241E+04 0.  0.
        4    1    3    3  502    0 -0.89285387051E+03  0.20921977264E+03 -0.20755620723E+03  0.94023515113E+03  0.12699999809E+01 0.  1.
       -4    1    3    3    0  502  0.89285387051E+03 -0.20921977264E+03  0.13304356154E+04  0.16158655535E+04  0.12699999809E+01 0. -1.
</event>
<event>
 5   0  0.2994157E-05  0.2310165E+04  0.7818609E-02  0.8473924E-01
       -2   -1    0    0    0  501  0.00000000000E+00  0.00000000000E+00  0.13890554374E+04  0.13890554374E+04  0.25500000920E-02 0.  1.
        2   -1    0    0  501    0  0.00000000000E+00  0.00000000000E+00 -0.96051968139E+03  0.96051968139E+03  0.25500000920E-02 0. -1.
    10030    2    1    2    0    0  0.00000000000E+00  0.00000000000E+00  0.42853575602E+03  0.23495751188E+04  0.23101645709E+04 0.  0.
        4    1    3    3  502    0  0.14947143014E+02  0.10689579160E+04 -0.23059431711E+03  0.10936497590E+04  0.12699999809E+01 0. -1.
       -4    1    3    3    0  502 -0.14947143014E+02 -0.10689579160E+04  0.65913007313E+03  0.12559253598E+04  0.12699999809E+01 0.  1.
</event>
<event>
 5   0  0.2994157E-05  0.2312660E+04  0.7818609E-02  0.8472946E-01
        2   -1    0    0  501    0  0.00000000000E+00  0.00000000000E+00  0.11344224229E+04  0.11344224229E+04  0.25500000920E-02 0. -1.
       -2   -1    0    0    0  501  0.00000000000E+00  0.00000000000E+00 -0.11786603193E+04  0.11786603193E+04  0.25500000920E-02 0.  1.
    10030    2    1    2    0    0  0.00000000000E+00  0.00000000000E+00 -0.44237896409E+02  0.23130827423E+04  0.23126596769E+04 0.  0.
        4    1    3    3  502    0  0.31507062021E+03 -0.53625878648E+03 -0.99710705122E+03  0.11751880983E+04  0.12699999809E+01 0.  1.
       -4    1    3    3    0  502 -0.31507062021E+03  0.53625878648E+03  0.95286915481E+03  0.11378946440E+04  0.12699999809E+01 0. -1.
</event>
<event>
 5   0  0.1303224E-05  0.2290945E+04  0.7818609E-02  0.8481500E-01
       -1   -1    0    0    0  501  0.00000000000E+00  0.00000000000E+00  0.11568658548E+04  0.11568658548E+04  0.50400001928E-02 0. -1.
        1   -1    0    0  501    0  0.00000000000E+00  0.00000000000E+00 -0.11341917630E+04  0.11341917630E+04  0.50400001928E-02 0.  1.
    10030    2    1    2    0    0  0.00000000000E+00  0.00000000000E+00  0.22674091787E+02  0.22910576178E+04  0.22909454148E+04 0.  0.
        2    1    3    3  502    0 -0.92260592227E+01 -0.19278389618E+02 -0.11339923525E+04  0.11341937365E+04  0.25500000920E-02 0.  1.
       -2    1    3    3    0  502  0.92260592227E+01  0.19278389618E+02  0.11566664443E+04  0.11568638813E+04  0.25500000920E-02 0. -1.
</event>
<event>
 5   0  0.2816178E-05  0.2300134E+04  0.7818609E-02  0.8477868E-01
        2   -1    0    0  501    0  0.00000000000E+00  0.00000000000E+00  0.12086911127E+04  0.12086911127E+04  0.25500000920E-02 0.  1.
       -2   -1    0    0    0  501  0.00000000000E+00  0.00000000000E+00 -0.10942864696E+04  0.10942864696E+04  0.25500000920E-02 0. -1.
    10030    2    1    2    0    0  0.00000000000E+00  0.00000000000E+00  0.11440464309E+03  0.23029775823E+04  0.23001341966E+04 0.  0.
        1    1    3    3  502    0  0.56502870430E+03 -0.46967032721E+03 -0.82865503589E+03  0.11074821992E+04  0.50400001928E-02 0. -1.
       -1    1    3    3    0  502 -0.56502870430E+03  0.46967032721E+03  0.94305967897E+03  0.11954953831E+04  0.50400001928E-02 0.  1.
</event>
<event>
 5   0  0.1308224E-05  0.2338768E+04  0.7818609E-02  0.8462791E-01
        1   -1    0    0  501    0  0.00000000000E+00  0.00000000000E+00  0.25836494100E+04  0.25836494100E+04  0.50400001928E-02 0.  1.
       -1   -1    0    0    0  501  0.00000000000E+00  0.00000000000E+00 -0.52927404032E+03  0.52927404035E+03  0.50400001928E-02 0. -1.
    10030    2    1    2    0    0  0.00000000000E+00  0.00000000000E+00  0.20543753696E+04  0.31129234503E+04  0.23387676772E+04 0.  0.
        5    1    3    3  502    0 -0.79037026795E+03 -0.69738589106E+03  0.17011629392E+04  0.20012520274E+04  0.46999998093E+01 0.  1.
       -5    1    3    3    0  502  0.79037026795E+03  0.69738589106E+03  0.35321243046E+03  0.11116714229E+04  0.46999998093E+01 0. -1.
</event>
<event>
 5   0  0.1308224E-05  0.2252861E+04  0.7818609E-02  0.8496743E-01
        1   -1    0    0  501    0  0.00000000000E+00  0.00000000000E+00  0.89028831651E+03  0.89028831652E+03  0.50400001928E-02 0. -1.
       -1   -1    0    0    0  501  0.00000000000E+00  0.00000000000E+00 -0.14252071860E+04  0.14252071860E+04  0.50400001928E-02 0.  1.
    10030    2    1    2    0    0  0.00000000000E+00  0.00000000000E+00 -0.53491886952E+03  0.23154955026E+04  0.22528606760E+04 0.  0.
        5    1    3    3  502    0 -0.62938302917E+03  0.60294796458E+03 -0.10008480687E+04  0.13271730076E+04  0.46999998093E+01 0.  1.
       -5    1    3    3    0  502  0.62938302917E+03 -0.60294796458E+03  0.46592919921E+03  0.98832249497E+03  0.46999998093E+01 0. -1.
</event>
<event>
 5   0  0.1308224E-05  0.2296886E+04  0.7818609E-02  0.8479150E-01
        1   -1    0    0  501    0  0.00000000000E+00  0.00000000000E+00  0.61209491671E+03  0.61209491673E+03  0.50400001928E-02 0. -1.
       -1   -1    0    0    0  501  0.00000000000E+00  0.00000000000E+00 -0.21547661149E+04  0.21547661149E+04  0.50400001928E-02 0.  1.
    10030    2    1    2    0    0  0.00000000000E+00  0.00000000000E+00 -0.15426711982E+04  0.27668610316E+04  0.22968860535E+04 0.  0.
        5    1    3    3  502    0 -0.38001934427E+03 -0.27593096246E+03 -0.20337955805E+04  0.20873186511E+04  0.46999998093E+01 0.  1.
       -5    1    3    3    0  502  0.38001934427E+03  0.27593096246E+03  0.49112438229E+03  0.67954238053E+03  0.46999998093E+01 0. -1.
</event>
<event>
 5   0  0.1303224E-05  0.2307978E+04  0.7818609E-02  0.8474782E-01
       -1   -1    0    0    0  501  0.00000000000E+00  0.00000000000E+00  0.11223115679E+04  0.11223115679E+04  0.50400001928E-02 0.  1.
        1   -1    0    0  501    0  0.00000000000E+00  0.00000000000E+00 -0.11865606076E+04  0.11865606076E+04  0.50400001928E-02 0. -1.
    10030    2    1    2    0    0  0.00000000000E+00  0.00000000000E+00 -0.64249039729E+02  0.23088721755E+04  0.23079780726E+04 0.  0.
        2    1    3    3  502    0 -0.48851636697E+03 -0.99995978046E+03  0.27315413573E+03  0.11459410915E+04  0.25500000920E-02 0.  1.
       -2    1    3    3    0  502  0.48851636697E+03  0.99995978046E+03 -0.33740317546E+03  0.11629310840E+04  0.25500000920E-02 0. -1.
</event>
<event>
 5   0  0.2871888E-05  0.2301613E+04  0.7818609E-02  0.8477285E-01
        2   -1    0    0  501    0  0.00000000000E+00  0.00000000000E+00  0.16232096832E+04  0.16232096832E+04  0.25500000920E-02 0.  1.
       -2   -1    0    0    0  501  0.00000000000E+00  0.00000000000E+00 -0.81588698508E+03  0.81588698508E+03  0.25500000920E-02 0. -1.
    10030    2    1    2    0    0  0.00000000000E+00  0.00000000000E+00  0.80732269810E+03  0.24390966683E+04  0.23016130470E+04 0.  0.
        3    1    3    3  502    0 -0.79970583119E+03  0.59312900888E+03  0.10152150567E+04  0.14219680232E+04  0.10100000352E+00 0.  1.
       -3    1    3    3    0  502  0.79970583119E+03 -0.59312900888E+03 -0.20789235856E+03  0.10171286450E+04  0.10100000352E+00 0. -1.
</event>
<event>
 5   0  0.2910126E-05  0.2261033E+04  0.7818609E-02  0.8493446E-01
        2   -1    0    0  501    0  0.00000000000E+00  0.00000000000E+00  0.11311521379E+04  0.11311521379E+04  0.25500000920E-02 0. -1.
       -2   -1    0    0    0  501  0.00000000000E+00  0.00000000000E+00 -0.11298811990E+04  0.11298811990E+04  0.25500000920E-02 0.  1.
    10030    2    1    2    0    0  0.00000000000E+00  0.00000000000E+00  0.12709389830E+01  0.22610333369E+04  0.22610329797E+04 0.  0.
        5    1    3    3  502    0 -0.13444006693E+03 -0.43154917146E+03 -0.10355773292E+04  0.11299342077E+04  0.46999998093E+01 0.  1.
       -5    1    3    3    0  502  0.13444006693E+03  0.43154917146E+03  0.10368482681E+04  0.11310991292E+04  0.46999998093E+01 0. -1.
</event>
<event>
 5   0  0.2938972E-05  0.2296995E+04  0.7818609E-02  0.8479107E-01
        2   -1    0    0  501    0  0.00000000000E+00  0.00000000000E+00  0.12476390670E+04  0.12476390670E+04  0.25500000920E-02 0.  1.
       -2   -1    0    0    0  501  0.00000000000E+00  0.00000000000E+00 -0.10572338401E+04  0.10572338401E+04  0.25500000920E-02 0. -1.
    10030    2    1    2    0    0  0.00000000000E+00  0.00000000000E+00  0.19040522698E+03  0.23048729071E+04  0.22969947687E+04 0.  0.
        2    1    3    3  502    0  0.88552332462E+03 -0.17385334662E+03  0.80804019995E+03  0.12113238664E+04  0.25500000920E-02 0.  1.
       -2    1    3    3    0  502 -0.88552332462E+03  0.17385334662E+03 -0.61763497297E+03  0.10935490407E+04  0.25500000920E-02 0. -1.
</event>
<event>
 5   0  0.1303224E-05  0.2300872E+04  0.7818609E-02  0.8477577E-01
       -1   -1    0    0    0  501  0.00000000000E+00  0.00000000000E+00  0.74991646454E+03  0.74991646455E+03  0.50400001928E-02 0.  1.
        1   -1    0    0  501    0  0.00000000000E+00  0.00000000000E+00 -0.17648668945E+04  0.17648668945E+04  0.50400001928E-02 0. -1.
    10030    2    1    2    0    0  0.00000000000E+00  0.00000000000E+00 -0.10149504300E+04  0.25147833591E+04  0.23008717843E+04 0.  0.
        2    1    3    3  502    0 -0.73849366310E+03 -0.12654546064E+03  0.44667933822E+03  0.87230102330E+03  0.25500000920E-02 0.  1.
       -2    1    3    3    0  502  0.73849366310E+03  0.12654546064E+03 -0.14616297682E+04  0.16424823358E+04  0.25500000920E-02 0. -1.
</event>
<event>
 5   0  0.2816178E-05  0.2283047E+04  0.7818609E-02  0.8484635E-01
       -2   -1    0    0    0  501  0.00000000000E+00  0.00000000000E+00  0.79852914261E+03  0.79852914262E+03  0.25500000920E-02 0. -1.
        2   -1    0    0  501    0  0.00000000000E+00  0.00000000000E+00 -0.16318457018E+04  0.16318457018E+04  0.25500000920E-02 0.  1.
    10030    2    1    2    0    0  0.00000000000E+00  0.00000000000E+00 -0.83331655922E+03  0.24303748445E+04  0.22830473926E+04 0.  0.
        1    1    3    3  502    0 -0.75177743287E+03  0.82758545657E+02  0.49353635356E+03  0.90310376910E+03  0.50400001928E-02 0. -1.
       -1    1    3    3    0  502  0.75177743287E+03 -0.82758545657E+02 -0.13268529128E+04  0.15272710754E+04  0.50400001928E-02 0.  1.
</event>
<event>
 5   0  0.1303224E-05  0.2286771E+04  0.7818609E-02  0.8483156E-01
        1   -1    0    0  501    0  0.00000000000E+00  0.00000000000E+00  0.18636510994E+04  0.18636510994E+04  0.50400001928E-02 0.  1.
       -1   -1    0    0    0  501  0.00000000000E+00  0.00000000000E+00 -0.70148854960E+03  0.70148854962E+03  0.50400001928E-02 0. -1.
    10030    2    1    2    0    0  0.00000000000E+00  0.00000000000E+00  0.11621625498E+04  0.25651396490E+04  0.22867705672E+04 0.  0.
        2    1    3    3  502    0  0.22726525730E+03 -0.10325627359E+04  0.92781138255E+02  0.10613404922E+04  0.25500000920E-02 0. -1.
       -2    1    3    3    0  502 -0.22726525730E+03  0.10325627359E+04  0.10693814115E+04  0.15037991568E+04  0.25500000920E-02 0.  1.
</event>
<event>
 5   0  0.1327820E-05  0.2298520E+04  0.7818609E-02  0.8478505E-01
       -1   -1    0    0    0  501  0.00000000000E+00  0.00000000000E+00  0.10218654619E+04  0.10218654619E+04  0.50400001928E-02 0.  1.
        1   -1    0    0  501    0  0.00000000000E+00  0.00000000000E+00 -0.12925370319E+04  0.12925370319E+04  0.50400001928E-02 0. -1.
    10030    2    1    2    0    0  0.00000000000E+00  0.00000000000E+00 -0.27067156999E+03  0.23144024938E+04  0.22985203511E+04 0.  0.
        1    1    3    3  502    0  0.71232746565E+03  0.68835319205E+03 -0.72207860605E+03  0.12258213771E+04  0.50400001928E-02 0. -1.
       -1    1    3    3    0  502 -0.71232746565E+03 -0.68835319205E+03  0.45140703605E+03  0.10885811167E+04  0.50400001928E-02 0.  1.
</event>
<event>
 5   0  0.1371753E-05  0.2273083E+04  0.7818609E-02  0.8488610E-01
       -1   -1    0    0    0  501  0.00000000000E+00  0.00000000000E+00  0.30187667014E+04  0.30187667014E+04  0.50400001928E-02 0. -1.
        1   -1    0    0  501    0  0.00000000000E+00  0.00000000000E+00 -0.42789864522E+03  0.42789864525E+03  0.50400001928E-02 0.  1.
    10030    2    1    2    0    0  0.00000000000E+00  0.00000000000E+00  0.25908680562E+04  0.34466653467E+04  0.22730826486E+04 0.  0.
        3    1    3    3  502    0 -0.66794108121E+03 -0.76971377038E+03  0.20583004340E+04  0.22967815009E+04  0.10100000352E+00 0. -1.
       -3    1    3    3    0  502  0.66794108121E+03  0.76971377038E+03  0.53256762223E+03  0.11498838458E+04  0.10100000352E+00 0.  1.
</event>
<event>
 5   0  0.1303224E-05  0.2289466E+04  0.7818609E-02  0.8482086E-01
        1   -1    0    0  501    0  0.00000000000E+00  0.00000000000E+00  0.82640165351E+03  0.82640165353E+03  0.50400001928E-02 0. -1.
       -1   -1    0    0    0  501  0.00000000000E+00  0.00000000000E+00 -0.15856858286E+04  0.15856858287E+04  0.50400001928E-02 0.  1.
    10030    2    1    2    0    0  0.00000000000E+00  0.00000000000E+00 -0.75928417514E+03  0.24120874822E+04  0.22894657812E+04 0.  0.
        2    1    3    3  502    0 -0.93615808112E+03  0.14750417637E+03  0.29682485913E+03  0.99310343464E+03  0.25500000920E-02 0. -1.
       -2    1    3    3    0  502  0.93615808112E+03 -0.14750417637E+03 -0.10561090343E+04  0.14189840475E+04  0.25500000920E-02 0.  1.
</event>
<event>
 5   0  0.1371753E-05  0.2313896E+04  0.7818609E-02  0.8472462E-01
       -1   -1    0    0    0  501  0.00000000000E+00  0.00000000000E+00  0.85335706300E+03  0.85335706301E+03  0.50400001928E-02 0.  1.
        1   -1    0    0  501    0  0.00000000000E+00  0.00000000000E+00 -0.15685452573E+04  0.15685452574E+04  0.50400001928E-02 0. -1.
    10030    2    1    2    0    0  0.00000000000E+00  0.00000000000E+00 -0.71518819435E+03  0.24219023204E+04  0.23138964316E+04 0.  0.
        3    1    3    3  502    0  0.38494214362E+03 -0.37157760420E+03  0.71609394453E+03  0.89389088678E+03  0.10100000352E+00 0.  1.
       -3    1    3    3    0  502 -0.38494214362E+03  0.37157760420E+03 -0.14312821389E+04  0.15280114336E+04  0.10100000352E+00 0. -1.
</event>
<event>
 5   0  0.1284837E-05  0.2300841E+04  0.7818609E-02  0.8477590E-01
        1   -1    0    0  501    0  0.00000000000E+00  0.00000000000E+00  0.96375464931E+03  0.96375464932E+03  0.50400001928E-02 0. -1.
       -1   -1    0    0    0  501  0.00000000000E+00  0.00000000000E+00 -0.13732407598E+04  0.13732407598E+04  0.50400001928E-02 0.  1.
    10030    2    1    2    0    0  0.00000000000E+00  0.00000000000E+00 -0.40948611051E+03  0.23369954091E+04  0.23008408610E+04 0.  0.
        4    1    3    3  502    0 -0.48139111534E+03  0.61276854439E+03 -0.10643529983E+04  0.13191177404E+04  0.12699999809E+01 0.  1.
       -4    1    3    3    0  502  0.48139111534E+03 -0.61276854439E+03  0.65486688784E+03  0.10178776688E+04  0.12699999809E+01 0. -1.
</event>
<event>
 5   0  0.1303224E-05  0.2346951E+04  0.7818609E-02  0.8459636E-01
        1   -1    0    0  501    0  0.00000000000E+00  0.00000000000E+00  0.12822063836E+04  0.12822063836E+04  0.50400001928E-02 0.  1.
       -1   -1    0    0    0  501  0.00000000000E+00  0.00000000000E+00 -0.10739646726E+04  0.10739646726E+04  0.50400001928E-02 0. -1.
    10030    2    1    2    0    0  0.00000000000E+00  0.00000000000E+00  0.20824171102E+03  0.23561710562E+04  0.23469506675E+04 0.  0.
        2    1    3    3  502    0 -0.68751160287E+03 -0.10065691699E+03  0.10534787900E+04  0.12619911173E+04  0.25500000920E-02 0.  1.
       -2    1    3    3    0  502  0.68751160287E+03  0.10065691699E+03 -0.84523707899E+03  0.10941799389E+04  0.25500000920E-02 0. -1.
</event>
<event>
 5   0  0.2938972E-05  0.2277706E+04  0.7818609E-02  0.8486763E-01
        2   -1    0    0  501    0  0.00000000000E+00  0.00000000000E+00  0.10094939415E+04  0.10094939415E+04  0.25500000920E-02 0.  1.
       -2   -1    0    0    0  501  0.00000000000E+00  0.00000000000E+00 -0.12847886721E+04  0.12847886721E+04  0.25500000920E-02 0. -1.
    10030    2    1    2    0    0  0.00000000000E+00  0.00000000000E+00 -0.27529473056E+03  0.22942826136E+04  0.22777061976E+04 0.  0.
        2    1    3    3  502    0  0.23235955016E+03 -0.18196071202E+03 -0.12456004879E+04  0.12800864177E+04  0.25500000920E-02 0. -1.
       -2    1    3    3    0  502 -0.23235955016E+03  0.18196071202E+03  0.97030575731E+03  0.10141961960E+04  0.25500000920E-02 0.  1.
</event>
<event>
 5   0  0.1303224E-05  0.2309450E+04  0.7818609E-02  0.8474204E-01
       -1   -1    0    0    0  501  0.00000000000E+00  0.00000000000E+00  0.25365450858E+04  0.25365450858E+04  0.50400001928E-02 0. -1.
        1   -1    0    0  501    0  0.00000000000E+00  0.00000000000E+00 -0.52567179988E+03  0.52567179991E+03  0.50400001928E-02 0.  1.
    10030    2    1    2    0    0  0.00000000000E+00  0.00000000000E+00  0.20108732859E+04  0.30622168857E+04  0.23094503422E+04 0.  0.
        2    1    3    3  502    0 -0.11350336102E+04 -0.21058954877E+03  0.96934334497E+03  0.15074069705E+04  0.25500000920E-02 0.  1.
       -2    1    3    3    0  502  0.11350336102E+04  0.21058954877E+03  0.10415299409E+04  0.15548099151E+04  0.25500000920E-02 0. -1.
</event>
<event>
 5   0  0.1308224E-05  0.2285177E+04  0.7818609E-02  0.8483789E-01
        1   -1    0    0  501    0  0.00000000000E+00  0.00000000000E+00  0.16653547195E+04  0.16653547195E+04  0.50400001928E-02 0.  1.
       -1   -1    0    0    0  501  0.00000000000E+00  0.00000000000E+00 -0.78392215800E+03  0.78392215801E+03  0.50400001928E-02 0. -1.
    10030    2    1    2    0    0  0.00000000000E+00  0.00000000000E+00  0.88143256151E+03  0.24492768775E+04  0.22851769871E+04 0.  0.
        5    1    3    3  502    0 -0.95366907191E+03  0.43835107468E+03  0.92463610256E+03  0.13987888960E+04  0.46999998093E+01 0.  1.
       -5    1    3    3    0  502  0.95366907191E+03 -0.43835107468E+03 -0.43203541052E+02  0.10504879815E+04  0.46999998093E+01 0. -1.
</event>
<event>
 5   0  0.2871888E-05  0.2293656E+04  0.7818609E-02  0.8480427E-01
        2   -1    0    0  501    0  0.00000000000E+00  0.00000000000E+00  0.16591787136E+04  0.16591787136E+04  0.25500000920E-02 0.  1.
       -2   -1    0    0    0  501  0.00000000000E+00  0.00000000000E+00 -0.79269000659E+03  0.79269000660E+03  0.25500000920E-02 0. -1.
    10030    2    1    2    0    0  0.00000000000E+00  0.00000000000E+00  0.86648870699E+03  0.24518687202E+04  0.22936559336E+04 0.  0.
        3    1    3    3  502    0 -0.91372900373E+03  0.62465716488E+03  0.11234224659E+03  0.11125277778E+04  0.10100000352E+00 0. -1.
       -3    1    3    3    0  502  0.91372900373E+03 -0.62465716488E+03  0.75414646040E+03  0.13393409423E+04  0.10100000352E+00 0.  1.
</event>
<event>
 5   0  0.2871888E-05  0.2316640E+04  0.7818609E-02  0.8471389E-01
        2   -1    0    0  501    0  0.00000000000E+00  0.00000000000E+00  0.20844972852E+04  0.20844972852E+04  0.25500000920E-02 0. -1.
       -2   -1    0    0    0  501  0.00000000000E+00  0.00000000000E+00 -0.64365885025E+03  0.64365885025E+03  0.25500000920E-02 0.  1.
    10030    2    1    2    0    0  0.00000000000E+00  0.00000000000E+00  0.14408384349E+04  0.27281561354E+04  0.23166399167E+04 0.  0.
        3    1    3    3  502    0  0.74707202421E+03  0.52597092698E+03 -0.11805611556E+03  0.92124876228E+03  0.10100000352E+00 0.  1.
       -3    1    3    3    0  502 -0.74707202421E+03 -0.52597092698E+03  0.15588945505E+04  0.18069073731E+04  0.10100000352E+00 0. -1.
</event>
<event>
 5   0  0.2994157E-05  0.2292040E+04  0.7818609E-02  0.8481066E-01
        2   -1    0    0  501    0  0.00000000000E+00  0.00000000000E+00  0.10618938850E+04  0.10618938850E+04  0.25500000920E-02 0. -1.
       -2   -1    0    0    0  501  0.00000000000E+00  0.00000000000E+00 -0.12368113154E+04  0.12368113154E+04  0.25500000920E-02 0.  1.
    10030    2    1    2    0    0  0.00000000000E+00  0.00000000000E+00 -0.17491743040E+03  0.22987052004E+04  0.22920404644E+04 0.  0.
        4    1    3    3  502    0 -0.47718384331E+03 -0.21434986248E+03  0.93516817336E+03  0.10715369379E+04  0.12699999809E+01 0. -1.
       -4    1    3    3    0  502  0.47718384331E+03  0.21434986248E+03 -0.11100856038E+04  0.12271682625E+04  0.12699999809E+01 0.  1.
</event>
<event>
 5   0  0.2871888E-05  0.2309646E+04  0.7818609E-02  0.8474127E-01
        2   -1    0    0  501    0  0.00000000000E+00  0.00000000000E+00  0.13010952411E+04  0.13010952411E+04  0.25500000920E-02 0. -1.
       -2   -1    0    0    0  501  0.00000000000E+00  0.00000000000E+00 -0.10249954689E+04  0.10249954689E+04  0.25500000920E-02 0.  1.
    10030    2    1    2    0    0  0.00000000000E+00  0.00000000000E+00  0.27609977218E+03  0.23260907100E+04  0.23096464896E+04 0.  0.
        3    1    3    3  502    0  0.10999557682E+04 -0.16103263091E+03  0.45297822218E+03  0.12004263744E+04  0.10100000352E+00 0. -1.
       -3    1    3    3    0  502 -0.10999557682E+04  0.16103263091E+03 -0.17687844999E+03  0.11256643356E+04  0.10100000352E+00 0.  1.
</event>
<event>
 5   0  0.2816178E-05  0.2192031E+04  0.7818609E-02  0.8521752E-01
       -2   -1    0    0    0  501  0.00000000000E+00  0.00000000000E+00  0.10420872374E+04  0.10420872374E+04  0.25500000920E-02 0. -1.
        2   -1    0    0  501    0  0.00000000000E+00  0.00000000000E+00 -0.11527344078E+04  0.11527344078E+04  0.25500000920E-02 0.  1.
    10030    2    1    2    0    0  0.00000000000E+00  0.00000000000E+00 -0.11064717037E+03  0.21948216452E+04  0.21920308524E+04 0.  0.
        1    1    3    3  502    0  0.28209502038E+03  0.11874518952E+03 -0.11090758369E+04  0.11505334557E+04  0.50400001928E-02 0.  1.
       -1    1    3    3    0  502 -0.28209502038E+03 -0.11874518952E+03  0.99842866654E+03  0.10442881895E+04  0.50400001928E-02 0. -1.
</event>
<event>
 5   0  0.2871888E-05  0.2286936E+04  0.7818609E-02  0.8483090E-01
       -2   -1    0    0    0  501  0.00000000000E+00  0.00000000000E+00  0.14521336765E+04  0.14521336765E+04  0.25500000920E-02 0.  1.
        2   -1    0    0  501    0  0.00000000000E+00  0.00000000000E+00 -0.90041210793E+03  0.90041210793E+03  0.25500000920E-02 0. -1.
    10030    2    1    2    0    0  0.00000000000E+00  0.00000000000E+00  0.55172156852E+03  0.23525457844E+04  0.22869357180E+04 0.  0.
        3    1    3    3  502    0 -0.54266328337E+03  0.34230218824E+03 -0.69779465018E+03  0.94793017212E+03  0.10100000352E+00 0. -1.
       -3    1    3    3    0  502  0.54266328337E+03 -0.34230218824E+03  0.12495162187E+04  0.14046156123E+04  0.10100000352E+00 0.  1.
</event>
<event>
 5   0  0.2910126E-05  0.2319336E+04  0.7818609E-02  0.8470336E-01
        2   -1    0    0  501    0  0.00000000000E+00  0.00000000000E+00  0.89548443328E+03  0.89548443328E+03  0.25500000920E-02 0. -1.
       -2   -1    0    0    0  501  0.00000000000E+00  0.00000000000E+00 -0.15017906825E+04  0.15017906825E+04  0.25500000920E-02 0.  1.
    10030    2    1    2    0    0  0.00000000000E+00  0.00000000000E+00 -0.60630624919E+03  0.23972751158E+04  0.23193362656E+04 0.  0.
        5    1    3    3  502    0 -0.88056956221E+03  0.64539331079E+03 -0.70728144047E+03  0.13008475720E+04  0.46999998093E+01 0.  1.
       -5    1    3    3    0  502  0.88056956221E+03 -0.64539331079E+03  0.10097519128E+03  0.10964275438E+04  0.46999998093E+01 0. -1.
</event>
<event>
 5   0  0.1371753E-05  0.2307260E+04  0.7818609E-02  0.8475064E-01
        1   -1    0    0  501    0  0.00000000000E+00  0.00000000000E+00  0.16454397623E+04  0.16454397623E+04  0.50400001928E-02 0.  1.
       -1   -1    0    0    0  501  0.00000000000E+00  0.00000000000E+00 -0.80881833770E+03  0.80881833772E+03  0.50400001928E-02 0. -1.
    10030    2    1    2    0    0  0.00000000000E+00  0.00000000000E+00  0.83662142463E+03  0.24542581001E+04  0.23072597196E+04 0.  0.
        3    1    3    3  502    0  0.45075761152E+03 -0.83933768660E+03 -0.27366731198E+03  0.99124365538E+03  0.10100000352E+00 0. -1.
       -3    1    3    3    0  502 -0.45075761152E+03  0.83933768660E+03  0.11102887366E+04  0.14630144447E+04  0.10100000352E+00 0.  1.
</event>
<event>
 5   0  0.1327820E-05  0.2294441E+04  0.7818609E-02  0.8480116E-01
       -1   -1    0    0    0  501  0.00000000000E+00  0.00000000000E+00  0.12446545112E+04  0.12446545112E+04  0.50400001928E-02 0. -1.
        1   -1    0    0  501    0  0.00000000000E+00  0.00000000000E+00 -0.10574139691E+04  0.10574139691E+04  0.50400001928E-02 0.  1.
    10030    2    1    2    0    0  0.00000000000E+00  0.00000000000E+00  0.18724054207E+03  0.23020684803E+04  0.22944411667E+04 0.  0.
        1    1    3    3  502    0 -0.69056507759E+03  0.24075061056E+03  0.98045567303E+03  0.12231656918E+04  0.50400001928E-02 0. -1.
       -1    1    3    3    0  502  0.69056507759E+03 -0.24075061056E+03 -0.79321513096E+03  0.10789027884E+04  0.50400001928E-02 0.  1.
</event>
<event>
 5   0  0.1371753E-05  0.2302581E+04  0.7818609E-02  0.8476904E-01
       -1   -1    0    0    0  501  0.00000000000E+00  0.00000000000E+00  0.20363661791E+04  0.20363661792E+04  0.50400001928E-02 0.  1.
        1   -1    0    0  501    0  0.00000000000E+00  0.00000000000E+00 -0.65089944718E+03  0.65089944720E+03  0.50400001928E-02 0. -1.
    10030    2    1    2    0    0  0.00000000000E+00  0.00000000000E+00  0.13854667320E+04  0.26872656264E+04  0.23025808306E+04 0.  0.
        3    1    3    3  502    0  0.57861453629E+03 -0.63825719270E+03  0.15840718597E+04  0.18031779426E+04  0.10100000352E+00 0.  1.
       -3    1    3    3    0  502 -0.57861453629E+03  0.63825719270E+03 -0.19860512776E+03  0.88408768378E+03  0.10100000352E+00 0. -1.
</event>
<event>
 5   0  0.1327820E-05  0.2290210E+04  0.7818609E-02  0.8481791E-01
       -1   -1    0    0    0  501  0.00000000000E+00  0.00000000000E+00  0.85749463274E+03  0.85749463275E+03  0.50400001928E-02 0. -1.
        1   -1    0    0  501    0  0.00000000000E+00  0.00000000000E+00 -0.15291817947E+04  0.15291817948E+04  0.50400001928E-02 0.  1.
    10030    2    1    2    0    0  0.00000000000E+00  0.00000000000E+00 -0.67168716201E+03  0.23866764275E+04  0.22902097559E+04 0.  0.
        1    1    3    3  502    0 -0.27091560567E+03 -0.38848931965E+03 -0.14223248930E+04  0.14991088413E+04  0.50400001928E-02 0.  1.
       -1    1    3    3    0  502  0.27091560567E+03  0.38848931965E+03  0.75063773098E+03  0.88756758620E+03  0.50400001928E-02 0. -1.
</event>
<event>
 5   0  0.1284837E-05  0.2253179E+04  0.7818609E-02  0.8496614E-01
       -1   -1    0    0    0  501  0.00000000000E+00  0.00000000000E+00  0.13338323852E+04  0.13338323852E+04  0.50400001928E-02 0.  1.
        1   -1    0    0  501    0  0.00000000000E+00  0.00000000000E+00 -0.95154695615E+03  0.95154695616E+03  0.50400001928E-02 0. -1.
    10030    2    1    2    0    0  0.00000000000E+00  0.00000000000E+00  0.38228542909E+03  0.22853793414E+04  0.22531792172E+04 0.  0.
        4    1    3    3  502    0 -0.69011019809E+03  0.18760115790E+03 -0.69178942342E+03  0.99499773830E+03  0.12699999809E+01 0. -1.
       -4    1    3    3    0  502  0.69011019809E+03 -0.18760115790E+03  0.10740748525E+04  0.12903816031E+04  0.12699999809E+01 0.  1.
</event>
<event>
 5   0  0.2994157E-05  0.2313432E+04  0.7818609E-02  0.8472644E-01
        2   -1    0    0  501    0  0.00000000000E+00  0.00000000000E+00  0.18143492972E+04  0.18143492972E+04  0.25500000920E-02 0.  1.
       -2   -1    0    0    0  501  0.00000000000E+00  0.00000000000E+00 -0.73745015247E+03  0.73745015247E+03  0.25500000920E-02 0. -1.
    10030    2    1    2    0    0  0.00000000000E+00  0.00000000000E+00  0.10768991447E+04  0.25517994496E+04  0.23134322258E+04 0.  0.
        4    1    3    3  502    0  0.60474986767E+03  0.70412357586E+03 -0.22294758146E+03  0.95457825740E+03  0.12699999809E+01 0. -1.
       -4    1    3    3    0  502 -0.60474986767E+03 -0.70412357586E+03  0.12998467261E+04  0.15972211922E+04  0.12699999809E+01 0.  1.
</event>
<event>
 5   0  0.2910126E-05  0.2247105E+04  0.7818609E-02  0.8499074E-01
       -2   -1    0    0    0  501  0.00000000000E+00  0.00000000000E+00  0.13965208651E+04  0.13965208651E+04  0.25500000920E-02 0. -1.
        2   -1    0    0  501    0  0.00000000000E+00  0.00000000000E+00 -0.90393936582E+03  0.90393936582E+03  0.25500000920E-02 0.  1.
    10030    2    1    2    0    0  0.00000000000E+00  0.00000000000E+00  0.49258149932E+03  0.23004602310E+04  0.22471049688E+04 0.  0.
        5    1    3    3  502    0  0.84652751722E+03  0.18332892443E+03 -0.48633364903E+03  0.99335836440E+03  0.46999998093E+01 0.  1.
       -5    1    3    3    0  502 -0.84652751722E+03 -0.18332892443E+03  0.97891514835E+03  0.13071018666E+04  0.46999998093E+01 0. -1.
</event>
<event>
 5   0  0.1327820E-05  0.2293988E+04  0.7818609E-02  0.8480295E-01
       -1   -1    0    0    0  501  0.00000000000E+00  0.00000000000E+00  0.10865709972E+04  0.10865709972E+04  0.50400001928E-02 0. -1.
        1   -1    0    0  501    0  0.00000000000E+00  0.00000000000E+00 -0.12107773015E+04  0.12107773016E+04  0.50400001928E-02 0.  1.
    10030    2    1    2    0    0  0.00000000000E+00  0.00000000000E+00 -0.12420630439E+03  0.22973482987E+04  0.22939882301E+04 0.  0.
        1    1    3    3  502    0 -0.37973304502E+02 -0.30875684834E+03  0.10435169629E+04  0.10888987167E+04  0.50400001928E-02 0. -1.
       -1    1    3    3    0  502  0.37973304502E+02  0.30875684834E+03 -0.11677232673E+04  0.12084495820E+04  0.50400001928E-02 0.  1.
</event>
<event>
 5   0  0.2871888E-05  0.2250501E+04  0.7818609E-02  0.8497698E-01
       -2   -1    0    0    0  501  0.00000000000E+00  0.00000000000E+00  0.73167064726E+03  0.73167064727E+03  0.25500000920E-02 0. -1.
        2   -1    0    0  501    0  0.00000000000E+00  0.00000000000E+00 -0.17305441999E+04  0.17305441999E+04  0.25500000920E-02 0.  1.
    10030    2    1    2    0    0  0.00000000000E+00  0.00000000000E+00 -0.99887355265E+03  0.24622148472E+04  0.22505007397E+04 0.  0.
        3    1    3    3  502    0  0.43768819741E+03 -0.36687645803E+03 -0.15601918622E+04  0.16614355090E+04  0.10100000352E+00 0.  1.
       -3    1    3    3    0  502 -0.43768819741E+03  0.36687645803E+03  0.56131830953E+03  0.80077933816E+03  0.10100000352E+00 0. -1.
</event>
<event>
 5   0  0.2816178E-05  0.2292377E+04  0.7818609E-02  0.8480933E-01
       -2   -1    0    0    0  501  0.00000000000E+00  0.00000000000E+00  0.80416832341E+03  0.80416832341E+03  0.25500000920E-02 0.  1.
        2   -1    0    0  501    0  0.00000000000E+00  0.00000000000E+00 -0.16336733461E+04  0.16336733461E+04  0.25500000920E-02 0. -1.
    10030    2    1    2    0    0  0.00000000000E+00  0.00000000000E+00 -0.82950502269E+03  0.24378416695E+04  0.22923772427E+04 0.  0.
        1    1    3    3  502    0  0.12936064888E+03 -0.13865490024E+02 -0.16257955570E+04  0.16309928334E+04  0.50400001928E-02 0. -1.
       -1    1    3    3    0  502 -0.12936064888E+03  0.13865490024E+02  0.79629053433E+03  0.80684883614E+03  0.50400001928E-02 0.  1.
</event>
<event>
 5   0  0.2938972E-05  0.2256747E+04  0.7818609E-02  0.8495173E-01
       -2   -1    0    0    0  501  0.00000000000E+00  0.00000000000E+00  0.12101713752E+04  0.12101713752E+04  0.25500000920E-02 0.  1.
        2   -1    0    0  501    0  0.00000000000E+00  0.00000000000E+00 -0.10521043044E+04  0.10521043044E+04  0.25500000920E-02 0. -1.
    10030    2    1    2    0    0  0.00000000000E+00  0.00000000000E+00  0.15806707082E+03  0.22622756797E+04  0.22567467851E+04 0.  0.
        2    1    3    3  502    0 -0.86992506853E+03 -0.67087776663E+03  0.33730773547E+03  0.11491836716E+04  0.25500000920E-02 0.  1.
       -2    1    3    3    0  502  0.86992506853E+03  0.67087776663E+03 -0.17924066465E+03  0.11130920081E+04  0.25500000920E-02 0. -1.
</event>
<event>
 5   0  0.1303224E-05  0.2357675E+04  0.7818609E-02  0.8455522E-01
        1   -1    0    0  501    0  0.00000000000E+00  0.00000000000E+00  0.13960698876E+04  0.13960698876E+04  0.50400001928E-02 0. -1.
       -1   -1    0    0    0  501  0.00000000000E+00  0.00000000000E+00 -0.99540697231E+03  0.99540697232E+03  0.50400001928E-02 0.  1.
    10030    2    1    2    0    0  0.00000000000E+00  0.00000000000E+00  0.40066291533E+03  0.23914768600E+04  0.23576748716E+04 0.  0.
        2    1    3    3  502    0  0.60216418995E+03 -0.92526131232E+03 -0.21905425908E+03  0.11254754445E+04  0.25500000920E-02 0.  1.
       -2    1    3    3    0  502 -0.60216418995E+03  0.92526131232E+03  0.61971717440E+03  0.12660014155E+04  0.25500000920E-02 0. -1.
</event>
<event>
 5   0  0.1284837E-05  0.2262411E+04  0.7818609E-02  0.8492891E-01
        1   -1    0    0  501    0  0.00000000000E+00  0.00000000000E+00  0.25291097996E+04  0.25291097996E+04  0.50400001928E-02 0. -1.
       -1   -1    0    0    0  501  0.00000000000E+00  0.00000000000E+00 -0.50595887443E+03  0.50595887446E+03  0.50400001928E-02 0.  1.
    10030    2    1    2    0    0  0.00000000000E+00  0.00000000000E+00  0.20231509252E+04  0.30350686741E+04  0.22624107033E+04 0.  0.
        4    1    3    3  502    0 -0.85548838890E+03 -0.57198159523E+03  0.16416623271E+04  0.19375448738E+04  0.12699999809E+01 0. -1.
       -4    1    3    3    0  502  0.85548838890E+03  0.57198159523E+03  0.38148859808E+03  0.10975238003E+04  0.12699999809E+01 0.  1.
</event>
<event>
 5   0  0.2910126E-05  0.2312637E+04  0.7818609E-02  0.8472955E-01
       -2   -1    0    0    0  501  0.00000000000E+00  0.00000000000E+00  0.84590522995E+03  0.84590522995E+03  0.25500000920E-02 0. -1.
        2   -1    0    0  501    0  0.00000000000E+00  0.00000000000E+00 -0.15806411208E+04  0.15806411208E+04  0.25500000920E-02 0.  1.
    10030    2    1    2    0    0  0.00000000000E+00  0.00000000000E+00 -0.73473589087E+03  0.24265463508E+04  0.23126371015E+04 0.  0.
        5    1    3    3  502    0 -0.90068728205E+03  0.25332172062E+03 -0.10802756393E+04  0.14291350605E+04  0.46999998093E+01 0.  1.
       -5    1    3    3    0  502  0.90068728205E+03 -0.25332172062E+03  0.34553974847E+03  0.99741129027E+03  0.46999998093E+01 0. -1.
</event>
<event>
 5   0  0.1017200E-05  0.2293920E+04  0.7818609E-02  0.8480322E-01
        4   -1    0    0  501    0  0.00000000000E+00  0.00000000000E+00  0.88837622129E+03  0.88837712907E+03  0.12699999809E+01 0.  1.
       -4   -1    0    0    0  501  0.00000000000E+00  0.00000000000E+00 -0.14808096044E+04  0.14808101490E+04  0.12699999809E+01 0. -1.
    10030    2    1    2    0    0  0.00000000000E+00  0.00000000000E+00 -0.59243338314E+03  0.23691872781E+04  0.22939204531E+04 0.  0.
        1    1    3    3  502    0 -0.65724591470E+03  0.89925707191E+03 -0.57884170088E+03  0.12552661823E+04  0.50400001928E-02 0. -1.
       -1    1    3    3    0  502  0.65724591470E+03 -0.89925707191E+03 -0.13591682263E+02  0.11139210958E+04  0.50400001928E-02 0.  1.
</event>
<event>
 5   0  0.1308224E-05  0.2296654E+04  0.7818609E-02  0.8479242E-01
        1   -1    0    0  501    0  0.00000000000E+00  0.00000000000E+00  0.17882629347E+04  0.17882629347E+04  0.50400001928E-02 0. -1.
       -1   -1    0    0    0  501  0.00000000000E+00  0.00000000000E+00 -0.73739422805E+03  0.73739422806E+03  0.50400001928E-02 0.  1.
    10030    2    1    2    0    0  0.00000000000E+00  0.00000000000E+00  0.10508687066E+04  0.25256571628E+04  0.22966538845E+04 0.  0.
        5    1    3    3  502    0  0.44314356616E+03  0.10353218832E+04  0.27863529359E+03  0.11601410858E+04  0.46999998093E+01 0.  1.
       -5    1    3    3    0  502 -0.44314356616E+03 -0.10353218832E+04  0.77223341305E+03  0.13655160769E+04  0.46999998093E+01 0. -1.
</event>
<event>
 5   0  0.1284837E-05  0.2295382E+04  0.7818609E-02  0.8479744E-01
        1   -1    0    0  501    0  0.00000000000E+00  0.00000000000E+00  0.90359228357E+03  0.90359228359E+03  0.50400001928E-02 0.  1.
       -1   -1    0    0    0  501  0.00000000000E+00  0.00000000000E+00 -0.14577316255E+04  0.14577316255E+04  0.50400001928E-02 0. -1.
    10030    2    1    2    0    0  0.00000000000E+00  0.00000000000E+00 -0.55413934194E+03  0.23613239091E+04  0.22953823632E+04 0.  0.
        4    1    3    3  502    0  0.94390941756E+03 -0.63056481288E+03 -0.45109341422E+03  0.12215006562E+04  0.12699999809E+01 0. -1.
       -4    1    3    3    0  502 -0.94390941756E+03  0.63056481288E+03 -0.10304592772E+03  0.11398232529E+04  0.12699999809E+01 0.  1.
</event>
<event>
 5   0  0.1371753E-05  0.2311883E+04  0.7818609E-02  0.8473251E-01
        1   -1    0    0  501    0  0.00000000000E+00  0.00000000000E+00  0.91305043631E+03  0.91305043632E+03  0.50400001928E-02 0.  1.
       -1   -1    0    0    0  501  0.00000000000E+00  0.00000000000E+00 -0.14634461907E+04  0.14634461907E+04  0.50400001928E-02 0. -1.
    10030    2    1    2    0    0  0.00000000000E+00  0.00000000000E+00 -0.55039575438E+03  0.23764966270E+04  0.23118825082E+04 0.  0.
        3    1    3    3  502    0  0.95412218973E+03  0.25120110512E+02  0.39511611446E+03  0.10330038369E+04  0.10100000352E+00 0.  1.
       -3    1    3    3    0  502 -0.95412218973E+03 -0.25120110512E+02 -0.94551186884E+03  0.13434927902E+04  0.10100000352E+00 0. -1.
</event>
<event>
 5   0  0.1308224E-05  0.2365418E+04  0.7818609E-02  0.8452565E-01
        1   -1    0    0  501    0  0.00000000000E+00  0.00000000000E+00  0.18963040090E+04  0.18963040090E+04  0.50400001928E-02 0.  1.
       -1   -1    0    0    0  501  0.00000000000E+00  0.00000000000E+00 -0.73764583800E+03  0.73764583802E+03  0.50400001928E-02 0. -1.
    10030    2    1    2    0    0  0.00000000000E+00  0.00000000000E+00  0.11586581710E+04  0.26339498470E+04  0.23654181532E+04 0.  0.
        5    1    3    3  502    0  0.26014251857E+03  0.11431274391E+04  0.75313943526E+03  0.13934330163E+04  0.46999998093E+01 0.  1.
       -5    1    3    3    0  502 -0.26014251857E+03 -0.11431274391E+04  0.40551873569E+03  0.12405168306E+04  0.46999998093E+01 0. -1.
</event>
<event>
 5   0  0.1327820E-05  0.2232352E+04  0.7818609E-02  0.8505082E-01
        1   -1    0    0  501    0  0.00000000000E+00  0.00000000000E+00  0.23870380378E+04  0.23870380378E+04  0.50400001928E-02 0.  1.
       -1   -1    0    0    0  501  0.00000000000E+00  0.00000000000E+00 -0.52192265268E+03  0.52192265270E+03  0.50400001928E-02 0. -1.
    10030    2    1    2    0    0  0.00000000000E+00  0.00000000000E+00  0.18651153851E+04  0.29089606905E+04  0.22323523241E+04 0.  0.
        1    1    3    3  502    0 -0.54241185560E+03 -0.31315429304E+03 -0.27135625646E+03  0.68257633294E+03  0.50400001928E-02 0. -1.
       -1    1    3    3    0  502  0.54241185560E+03  0.31315429304E+03  0.21364716415E+04  0.22263843575E+04  0.50400001928E-02 0.  1.
</event>
<event>
 5   0  0.2816178E-05  0.2335419E+04  0.7818609E-02  0.8464085E-01
        2   -1    0    0  501    0  0.00000000000E+00  0.00000000000E+00  0.19992922376E+04  0.19992922376E+04  0.25500000920E-02 0.  1.
       -2   -1    0    0    0  501  0.00000000000E+00  0.00000000000E+00 -0.68201437910E+03  0.68201437910E+03  0.25500000920E-02 0. -1.
    10030    2    1    2    0    0  0.00000000000E+00  0.00000000000E+00  0.13172778585E+04  0.26813066167E+04  0.23354194947E+04 0.  0.
        1    1    3    3  502    0 -0.81245767101E+03  0.68982143062E+03  0.12063764095E+04  0.16097469101E+04  0.50400001928E-02 0.  1.
       -1    1    3    3    0  502  0.81245767101E+03 -0.68982143062E+03  0.11090144903E+03  0.10715597066E+04  0.50400001928E-02 0. -1.
</event>
<event>
 5   0  0.1327820E-05  0.2303047E+04  0.7818609E-02  0.8476721E-01
        1   -1    0    0  501    0  0.00000000000E+00  0.00000000000E+00  0.15106712130E+04  0.15106712130E+04  0.50400001928E-02 0.  1.
       -1   -1    0    0    0  501  0.00000000000E+00  0.00000000000E+00 -0.87776011031E+03  0.87776011032E+03  0.50400001928E-02 0. -1.
    10030    2    1    2    0    0  0.00000000000E+00  0.00000000000E+00  0.63291110266E+03  0.23884313233E+04  0.23030474859E+04 0.  0.
        1    1    3    3  502    0  0.42376499275E+03  0.84183323420E+02 -0.79051781647E+03  0.90087847083E+03  0.50400001928E-02 0. -1.
       -1    1    3    3    0  502 -0.42376499275E+03 -0.84183323420E+02  0.14234289191E+04  0.14875528525E+04  0.50400001928E-02 0.  1.
</event>
<event>
 5   0  0.2994157E-05  0.2301957E+04  0.7818609E-02  0.8477150E-01
        2   -1    0    0  501    0  0.00000000000E+00  0.00000000000E+00  0.13202808121E+04  0.13202808121E+04  0.25500000920E-02 0.  1.
       -2   -1    0    0    0  501  0.00000000000E+00  0.00000000000E+00 -0.10033864206E+04  0.10033864206E+04  0.25500000920E-02 0. -1.
    10030    2    1    2    0    0  0.00000000000E+00  0.00000000000E+00  0.31689439154E+03  0.23236672327E+04  0.23019572874E+04 0.  0.
        4    1    3    3  502    0 -0.28577979260E+03  0.95020312763E+02 -0.96290819543E+03  0.10089067129E+04  0.12699999809E+01 0. -1.
       -4    1    3    3    0  502  0.28577979260E+03 -0.95020312763E+02  0.12798025870E+04  0.13147605197E+04  0.12699999809E+01 0.  1.
</event>
<event>
 5   0  0.2910126E-05  0.2416228E+04  0.7818609E-02  0.8433453E-01
        2   -1    0    0  501    0  0.00000000000E+00  0.00000000000E+00  0.12558610199E+04  0.12558610199E+04  0.25500000920E-02 0. -1.
       -2   -1    0    0    0  501  0.00000000000E+00  0.00000000000E+00 -0.11621823043E+04  0.11621823043E+04  0.25500000920E-02 0.  1.
    10030    2    1    2    0    0  0.00000000000E+00  0.00000000000E+00  0.93678715646E+02  0.24180433242E+04  0.24162280140E+04 0.  0.
        5    1    3    3  502    0  0.88694663584E+03  0.45132420353E+03 -0.63862012349E+03  0.11824659080E+04  0.46999998093E+01 0.  1.
       -5    1    3    3    0  502 -0.88694663584E+03 -0.45132420353E+03  0.73229883914E+03  0.12355774162E+04  0.46999998093E+01 0. -1.
</event>
<event>
 5   0  0.1303224E-05  0.2293915E+04  0.7818609E-02  0.8480324E-01
       -1   -1    0    0    0  501  0.00000000000E+00  0.00000000000E+00  0.91194324586E+03  0.91194324587E+03  0.50400001928E-02 0.  1.
        1   -1    0    0  501    0  0.00000000000E+00  0.00000000000E+00 -0.14425370709E+04  0.14425370709E+04  0.50400001928E-02 0. -1.
    10030    2    1    2    0    0  0.00000000000E+00  0.00000000000E+00 -0.53059382506E+03  0.23544803168E+04  0.22939153766E+04 0.  0.
        2    1    3    3  502    0 -0.92302018673E+03 -0.63545204054E+03 -0.51618119947E+03  0.12337781776E+04  0.25500000920E-02 0.  1.
       -2    1    3    3    0  502  0.92302018673E+03  0.63545204054E+03 -0.14412625596E+02  0.11207021392E+04  0.25500000920E-02 0. -1.
</event>
<event>
 5   0  0.1327820E-05  0.2301905E+04  0.7818609E-02  0.8477170E-01
       -1   -1    0    0    0  501  0.00000000000E+00  0.00000000000E+00  0.76332465371E+03  0.76332465373E+03  0.50400001928E-02 0. -1.
        1   -1    0    0  501    0  0.00000000000E+00  0.00000000000E+00 -0.17354236563E+04  0.17354236563E+04  0.50400001928E-02 0.  1.
    10030    2    1    2    0    0  0.00000000000E+00  0.00000000000E+00 -0.97209900255E+03  0.24987483100E+04  0.23019050037E+04 0.  0.
        1    1    3    3  502    0  0.21515248409E+03  0.48828323229E+03  0.62095076681E+03  0.81871299072E+03  0.50400001928E-02 0. -1.
       -1    1    3    3    0  502 -0.21515248409E+03 -0.48828323229E+03 -0.15930497694E+04  0.16800353193E+04  0.50400001928E-02 0.  1.
</event>
<event>
 5   0  0.2938972E-05  0.2302286E+04  0.7818609E-02  0.8477020E-01
        2   -1    0    0  501    0  0.00000000000E+00  0.00000000000E+00  0.21868013927E+04  0.21868013927E+04  0.25500000920E-02 0. -1.
       -2   -1    0    0    0  501  0.00000000000E+00  0.00000000000E+00 -0.60596744405E+03  0.60596744405E+03  0.25500000920E-02 0.  1.
    10030    2    1    2    0    0  0.00000000000E+00  0.00000000000E+00  0.15808339486E+04  0.27927688367E+04  0.23022862121E+04 0.  0.
        2    1    3    3  502    0  0.64863226404E+03  0.13454554674E+03  0.19324194996E+04  0.20428096927E+04  0.25500000920E-02 0. -1.
       -2    1    3    3    0  502 -0.64863226404E+03 -0.13454554674E+03 -0.35158555096E+03  0.74995914405E+03  0.25500000920E-02 0.  1.
</event>
<event>
 5   0  0.1371753E-05  0.2308488E+04  0.7818609E-02  0.8474582E-01
       -1   -1    0    0    0  501  0.00000000000E+00  0.00000000000E+00  0.10270384026E+04  0.10270384026E+04  0.50400001928E-02 0.  1.
        1   -1    0    0  501    0  0.00000000000E+00  0.00000000000E+00 -0.12972050054E+04  0.12972050054E+04  0.50400001928E-02 0. -1.
    10030    2    1    2    0    0  0.00000000000E+00  0.00000000000E+00 -0.27016660283E+03  0.23242434080E+04  0.23084881256E+04 0.  0.
        3    1    3    3  502    0 -0.56892187674E+03 -0.88113024495E+03 -0.62026087816E+03  0.12185180251E+04  0.10100000352E+00 0.  1.
       -3    1    3    3    0  502  0.56892187674E+03  0.88113024495E+03  0.35009427533E+03  0.11057253828E+04  0.10100000352E+00 0. -1.
</event>
<event>
 5   0  0.1371753E-05  0.2302132E+04  0.7818609E-02  0.8477081E-01
       -1   -1    0    0    0  501  0.00000000000E+00  0.00000000000E+00  0.11392446146E+04  0.11392446147E+04  0.50400001928E-02 0. -1.
        1   -1    0    0  501    0  0.00000000000E+00  0.00000000000E+00 -0.11630095762E+04  0.11630095762E+04  0.50400001928E-02 0.  1.
    10030    2    1    2    0    0  0.00000000000E+00  0.00000000000E+00 -0.23764961561E+02  0.23022541909E+04  0.23021315310E+04 0.  0.
        3    1    3    3  502    0  0.72251908539E+03 -0.89493534716E+03  0.32944922221E+02  0.11506643657E+04  0.10100000352E+00 0. -1.
       -3    1    3    3    0  502 -0.72251908539E+03  0.89493534716E+03 -0.56709883782E+02  0.11515898252E+04  0.10100000352E+00 0.  1.
</event>
<event>
 5   0  0.2938972E-05  0.2165895E+04  0.7818609E-02  0.8532759E-01
       -2   -1    0    0    0  501  0.00000000000E+00  0.00000000000E+00  0.12481949520E+04  0.12481949520E+04  0.25500000920E-02 0.  1.
        2   -1    0    0  501    0  0.00000000000E+00  0.00000000000E+00 -0.93957699492E+03  0.93957699493E+03  0.25500000920E-02 0. -1.
    10030    2    1    2    0    0  0.00000000000E+00  0.00000000000E+00  0.30861795711E+03  0.21877719470E+04  0.21658949763E+04 0.  0.
        2    1    3    3  502    0  0.53291180244E+03 -0.26228715067E+03 -0.76036811017E+03  0.96485708867E+03  0.25500000920E-02 0. -1.
       -2    1    3    3    0  502 -0.53291180244E+03  0.26228715067E+03  0.10689860673E+04  0.12229148583E+04  0.25500000920E-02 0.  1.
</event>
<event>
 5   0  0.1308224E-05  0.2226289E+04  0.7818609E-02  0.8507565E-01
       -1   -1    0    0    0  501  0.00000000000E+00  0.00000000000E+00  0.10059361148E+04  0.10059361148E+04  0.50400001928E-02 0.  1.
        1   -1    0    0  501    0  0.00000000000E+00  0.00000000000E+00 -0.12317787590E+04  0.12317787590E+04  0.50400001928E-02 0. -1.
    10030    2    1    2    0    0  0.00000000000E+00  0.00000000000E+00 -0.22584264422E+03  0.22377148738E+04  0.22262890550E+04 0.  0.
        5    1    3    3  502    0 -0.10363870871E+04  0.25570262919E+03 -0.43011439484E+03  0.11508703279E+04  0.46999998093E+01 0.  1.
       -5    1    3    3    0  502  0.10363870871E+04 -0.25570262919E+03  0.20427175063E+03  0.10868445459E+04  0.46999998093E+01 0. -1.
</event>
<event>
 5   0  0.2871888E-05  0.2302354E+04  0.7818609E-02  0.8476994E-01
       -2   -1    0    0    0  501  0.00000000000E+00  0.00000000000E+00  0.79594484355E+03  0.79594484355E+03  0.25500000920E-02 0.  1.
        2   -1    0    0  501    0  0.00000000000E+00  0.00000000000E+00 -0.16649501509E+04  0.16649501509E+04  0.25500000920E-02 0. -1.
    10030    2    1    2    0    0  0.00000000000E+00  0.00000000000E+00 -0.86900530739E+03  0.24608949945E+04  0.23023540018E+04 0.  0.
        3    1    3    3  502    0 -0.82967971736E+03  0.69623453134E+03 -0.17650498706E+02  0.10832462815E+04  0.10100000352E+00 0.  1.
       -3    1    3    3    0  502  0.82967971736E+03 -0.69623453134E+03 -0.85135480869E+03  0.13776487130E+04  0.10100000352E+00 0. -1.
</event>
<event>
 5   0  0.2871888E-05  0.2291596E+04  0.7818609E-02  0.8481242E-01
       -2   -1    0    0    0  501  0.00000000000E+00  0.00000000000E+00  0.70675202576E+03  0.70675202576E+03  0.25500000920E-02 0. -1.
        2   -1    0    0  501    0  0.00000000000E+00  0.00000000000E+00 -0.18575858311E+04  0.18575858311E+04  0.25500000920E-02 0.  1.
    10030    2    1    2    0    0  0.00000000000E+00  0.00000000000E+00 -0.11508338053E+04  0.25643378568E+04  0.22915955569E+04 0.  0.
        3    1    3    3  502    0  0.88575602720E+03 -0.12456097613E+03  0.22589206017E+03  0.92255428542E+03  0.10100000352E+00 0. -1.
       -3    1    3    3    0  502 -0.88575602720E+03  0.12456097613E+03 -0.13767258655E+04  0.16417835714E+04  0.10100000352E+00 0.  1.
</event>
<event>
 5   0  0.2938972E-05  0.2287259E+04  0.7818609E-02  0.8482962E-01
       -2   -1    0    0    0  501  0.00000000000E+00  0.00000000000E+00  0.16670996764E+04  0.16670996764E+04  0.25500000920E-02 0.  1.
        2   -1    0    0  501    0  0.00000000000E+00  0.00000000000E+00 -0.78452910795E+03  0.78452910796E+03  0.25500000920E-02 0. -1.
    10030    2    1    2    0    0  0.00000000000E+00  0.00000000000E+00  0.88257056848E+03  0.24516287844E+04  0.22872588153E+04 0.  0.
        2    1    3    3  502    0 -0.89711577834E+03  0.39230419652E+03 -0.19208428172E+03  0.99780542875E+03  0.25500000920E-02 0. -1.
       -2    1    3    3    0  502  0.89711577834E+03 -0.39230419652E+03  0.10746548502E+04  0.14538233556E+04  0.25500000920E-02 0.  1.
</event>
<event>
 5   0  0.1284837E-05  0.2297504E+04  0.7818609E-02  0.8478906E-01
        1   -1    0    0  501    0  0.00000000000E+00  0.00000000000E+00  0.48090257004E+03  0.48090257006E+03  0.50400001928E-02 0. -1.
       -1   -1    0    0    0  501  0.00000000000E+00  0.00000000000E+00 -0.27440716269E+04  0.27440716269E+04  0.50400001928E-02 0.  1.
    10030    2    1    2    0    0  0.00000000000E+00  0.00000000000E+00 -0.22631690569E+04  0.32249741970E+04  0.22975039480E+04 0.  0.
        4    1    3    3  502    0 -0.11263167159E+04 -0.20588786747E+03 -0.12621373384E+04  0.17041042904E+04  0.12699999809E+01 0.  1.
       -4    1    3    3    0  502  0.11263167159E+04  0.20588786747E+03 -0.10010317185E+04  0.15208699066E+04  0.12699999809E+01 0. -1.
</event>
<event>
 5   0  0.2816178E-05  0.2297182E+04  0.7818609E-02  0.8479033E-01
        2   -1    0    0  501    0  0.00000000000E+00  0.00000000000E+00  0.19681953179E+04  0.19681953179E+04  0.25500000920E-02 0. -1.
       -2   -1    0    0    0  501  0.00000000000E+00  0.00000000000E+00 -0.67029007816E+03  0.67029007816E+03  0.25500000920E-02 0.  1.
    10030    2    1    2    0    0  0.00000000000E+00  0.00000000000E+00  0.12979052397E+04  0.26384853961E+04  0.22971824424E+04 0.  0.
        1    1    3    3  502    0 -0.99182976503E+03 -0.46519482352E+03  0.10453844135E+04  0.15142526469E+04  0.50400001928E-02 0.  1.
       -1    1    3    3    0  502  0.99182976503E+03  0.46519482352E+03  0.25252082627E+03  0.11242327492E+04  0.50400001928E-02 0. -1.
</event>
<event>
 5   0  0.2938972E-05  0.2303074E+04  0.7818609E-02  0.8476710E-01
        2   -1    0    0  501    0  0.00000000000E+00  0.00000000000E+00  0.11248175884E+04  0.11248175884E+04  0.25500000920E-02 0. -1.
       -2   -1    0    0    0  501  0.00000000000E+00  0.00000000000E+00 -0.11788911840E+04  0.11788911840E+04  0.25500000920E-02 0.  1.
    10030    2    1    2    0    0  0.00000000000E+00  0.00000000000E+00 -0.54073595641E+02  0.23037087724E+04  0.23030740662E+04 0.  0.
        2    1    3    3  502    0  0.46858624606E+02 -0.40087116701E+03 -0.11058256129E+04  0.11771761590E+04  0.25500000920E-02 0.  1.
       -2    1    3    3    0  502 -0.46858624606E+02  0.40087116701E+03  0.10517520173E+04  0.11265326134E+04  0.25500000920E-02 0. -1.
</event>
<event>
 5   0  0.2816178E-05  0.2302824E+04  0.7818609E-02  0.8476809E-01
       -2   -1    0    0    0  501  0.00000000000E+00  0.00000000000E+00  0.14407473209E+04  0.14407473209E+04  0.25500000920E-02 0. -1.
        2   -1    0    0  501    0  0.00000000000E+00  0.00000000000E+00 -0.92018179019E+03  0.92018179019E+03  0.25500000920E-02 0.  1.
    10030    2    1    2    0    0  0.00000000000E+00  0.00000000000E+00  0.52056553067E+03  0.23609291111E+04  0.23028238742E+04 0.  0.
        1    1    3    3  502    0 -0.53581536208E+03 -0.10140333289E+04  0.36477477097E+03  0.12035041869E+04  0.50400001928E-02 0. -1.
       -1    1    3    3    0  502  0.53581536208E+03  0.10140333289E+04  0.15579075970E+03  0.11574249242E+04  0.50400001928E-02 0.  1.
</event>
<event>
 5   0  0.2871888E-05  0.2293296E+04  0.7818609E-02  0.8480569E-01
       -2   -1    0    0    0  501  0.00000000000E+00  0.00000000000E+00  0.11288756158E+04  0.11288756158E+04  0.25500000920E-02 0.  1.
        2   -1    0    0  501    0  0.00000000000E+00  0.00000000000E+00 -0.11647001819E+04  0.11647001819E+04  0.25500000920E-02 0. -1.
    10030    2    1    2    0    0  0.00000000000E+00  0.00000000000E+00 -0.35824566113E+02  0.22935757978E+04  0.22932959993E+04 0.  0.
        3    1    3    3  502    0  0.80812073722E+03 -0.12683841610E+03 -0.82153661925E+03  0.11593401299E+04  0.10100000352E+00 0. -1.
       -3    1    3    3    0  502 -0.80812073722E+03  0.12683841610E+03  0.78571205314E+03  0.11342356679E+04  0.10100000352E+00 0.  1.
</event>
<event>
 5   0  0.1303224E-05  0.2298573E+04  0.7818609E-02  0.8478484E-01
       -1   -1    0    0    0  501  0.00000000000E+00  0.00000000000E+00  0.82254373805E+03  0.82254373807E+03  0.50400001928E-02 0. -1.
        1   -1    0    0  501    0  0.00000000000E+00  0.00000000000E+00 -0.16058233107E+04  0.16058233107E+04  0.50400001928E-02 0.  1.
    10030    2    1    2    0    0  0.00000000000E+00  0.00000000000E+00 -0.78327957268E+03  0.24283670488E+04  0.22985733912E+04 0.  0.
        2    1    3    3  502    0 -0.58215286234E+03  0.82667960103E+03  0.18561944644E+03  0.10279862338E+04  0.25500000920E-02 0.  1.
       -2    1    3    3    0  502  0.58215286234E+03 -0.82667960103E+03 -0.96889901912E+03  0.14003808150E+04  0.25500000920E-02 0. -1.
</event>
<event>
 5   0  0.2816178E-05  0.2300769E+04  0.7818609E-02  0.8477618E-01
        2   -1    0    0  501    0  0.00000000000E+00  0.00000000000E+00  0.13211256636E+04  0.13211256636E+04  0.25500000920E-02 0. -1.
       -2   -1    0    0    0  501  0.00000000000E+00  0.00000000000E+00 -0.10017094809E+04  0.10017094810E+04  0.25500000920E-02 0.  1.
    10030    2    1    2    0    0  0.00000000000E+00  0.00000000000E+00  0.31941618269E+03  0.23228351446E+04  0.23007686566E+04 0.  0.
        1    1    3    3  502    0 -0.44700279775E+03 -0.76317841114E+03 -0.58296342753E+03  0.10592918136E+04  0.50400001928E-02 0.  1.
       -1    1    3    3    0  502  0.44700279775E+03  0.76317841114E+03  0.90237961022E+03  0.12635433310E+04  0.50400001928E-02 0. -1.
</event>
<event>
 5   0  0.2994157E-05  0.2317462E+04  0.7818609E-02  0.8471068E-01
        2   -1    0    0  501    0  0.00000000000E+00  0.00000000000E+00  0.11701347630E+04  0.11701347630E+04  0.25500000920E-02 0. -1.
       -2   -1    0    0    0  501  0.00000000000E+00  0.00000000000E+00 -0.11474384802E+04  0.11474384802E+04  0.25500000920E-02 0.  1.
    10030    2    1    2    0    0  0.00000000000E+00  0.00000000000E+00  0.22696282848E+02  0.23175732432E+04  0.23174621068E+04 0.  0.
        4    1    3    3  502    0  0.13070664604E+03  0.50799227909E+02 -0.11389205865E+04  0.11475218970E+04  0.12699999809E+01 0.  1.
       -4    1    3    3    0  502 -0.13070664604E+03 -0.50799227909E+02  0.11616168693E+04  0.11700513463E+04  0.12699999809E+01 0. -1.
</event>
<event>
 5   0  0.1327820E-05  0.2279226E+04  0.7818609E-02  0.8486157E-01
       -1   -1    0    0    0  501  0.00000000000E+00  0.00000000000E+00  0.11514283651E+04  0.11514283651E+04  0.50400001928E-02 0. -1.
        1   -1    0    0  501    0  0.00000000000E+00  0.00000000000E+00 -0.11279191352E+04  0.11279191352E+04  0.50400001928E-02 0.  1.
    10030    2    1    2    0    0  0.00000000000E+00  0.00000000000E+00  0.23509229935E+02  0.22793475003E+04  0.22792262598E+04 0.  0.
        1    1    3    3  502    0 -0.55948942926E+03  0.18797196224E+03 -0.96315938862E+03  0.11296184701E+04  0.50400001928E-02 0.  1.
       -1    1    3    3    0  502  0.55948942926E+03 -0.18797196224E+03  0.98666861856E+03  0.11497290302E+04  0.50400001928E-02 0. -1.
</event>
<event>
 5   0  0.1303224E-05  0.2292762E+04  0.7818609E-02  0.8480780E-01
        1   -1    0    0  501    0  0.00000000000E+00  0.00000000000E+00  0.12269149647E+04  0.12269149647E+04  0.50400001928E-02 0.  1.
       -1   -1    0    0    0  501  0.00000000000E+00  0.00000000000E+00 -0.10711332938E+04  0.10711332938E+04  0.50400001928E-02 0. -1.
    10030    2    1    2    0    0  0.00000000000E+00  0.00000000000E+00  0.15578167092E+03  0.22980482586E+04  0.22927620613E+04 0.  0.
        2    1    3    3  502    0  0.38638362471E+03  0.48766547696E+03 -0.88717881281E+03  0.10836033263E+04  0.25500000920E-02 0. -1.
       -2    1    3    3    0  502 -0.38638362471E+03 -0.48766547696E+03  0.10429604837E+04  0.12144449323E+04  0.25500000920E-02 0.  1.
</event>
<event>
 5   0  0.1308224E-05  0.2298175E+04  0.7818609E-02  0.8478641E-01
       -1   -1    0    0    0  501  0.00000000000E+00  0.00000000000E+00  0.10739351892E+04  0.10739351893E+04  0.50400001928E-02 0.  1.
        1   -1    0    0  501    0  0.00000000000E+00  0.00000000000E+00 -0.12294993364E+04  0.12294993364E+04  0.50400001928E-02 0. -1.
    10030    2    1    2    0    0  0.00000000000E+00  0.00000000000E+00 -0.15556414715E+03  0.23034345257E+04  0.22981754524E+04 0.  0.
        5    1    3    3  502    0 -0.94012154286E+02  0.51202447743E+03  0.94895127199E+03  0.10823760702E+04  0.46999998093E+01 0.  1.
       -5    1    3    3    0  502  0.94012154286E+02 -0.51202447743E+03 -0.11045154191E+04  0.12210584555E+04  0.46999998093E+01 0. -1.
</event>
<event>
 5   0  0.1371753E-05  0.2295705E+04  0.7818609E-02  0.8479616E-01
       -1   -1    0    0    0  501  0.00000000000E+00  0.00000000000E+00  0.13978031846E+04  0.13978031846E+04  0.50400001928E-02 0. -1.
        1   -1    0    0  501    0  0.00000000000E+00  0.00000000000E+00 -0.94259750302E+03  0.94259750303E+03  0.50400001928E-02 0.  1.
    10030    2    1    2    0    0  0.00000000000E+00  0.00000000000E+00  0.45520568157E+03  0.23404006876E+04  0.22957053744E+04 0.  0.
        3    1    3    3  502    0  0.33340152281E+03 -0.57604122719E+03  0.11810030760E+04  0.13556357721E+04  0.10100000352E+00 0. -1.
       -3    1    3    3    0  502 -0.33340152281E+03  0.57604122719E+03 -0.72579739446E+03  0.98476491552E+03  0.10100000352E+00 0.  1.
</event>
<event>
 5   0  0.2994157E-05  0.2260014E+04  0.7818609E-02  0.8493856E-01
        2   -1    0    0  501    0  0.00000000000E+00  0.00000000000E+00  0.15120588953E+04  0.15120588953E+04  0.25500000920E-02 0. -1.
       -2   -1    0    0    0  501  0.00000000000E+00  0.00000000000E+00 -0.84448824574E+03  0.84448824575E+03  0.25500000920E-02 0.  1.
    10030    2    1    2    0    0  0.00000000000E+00  0.00000000000E+00  0.66757064951E+03  0.23565471410E+04  0.22600141273E+04 0.  0.
        4    1    3    3  502    0  0.71080416949E+03 -0.72955264625E+03 -0.17642526931E+03  0.10337393867E+04  0.12699999809E+01 0.  1.
       -4    1    3    3    0  502 -0.71080416949E+03  0.72955264625E+03  0.84399591883E+03  0.13228077543E+04  0.12699999809E+01 0. -1.
</event>
<event>
 5   0  0.1327820E-05  0.2299094E+04  0.7818609E-02  0.8478279E-01
       -1   -1    0    0    0  501  0.00000000000E+00  0.00000000000E+00  0.54484112640E+03  0.54484112642E+03  0.50400001928E-02 0.  1.
        1   -1    0    0  501    0  0.00000000000E+00  0.00000000000E+00 -0.24254007080E+04  0.24254007080E+04  0.50400001928E-02 0. -1.
    10030    2    1    2    0    0  0.00000000000E+00  0.00000000000E+00 -0.18805595816E+04  0.29702418345E+04  0.22990937813E+04 0.  0.
        1    1    3    3  502    0  0.45490056914E+03 -0.93820205623E+03 -0.15656276458E+04  0.18810495877E+04  0.50400001928E-02 0. -1.
       -1    1    3    3    0  502 -0.45490056914E+03  0.93820205623E+03 -0.31493193581E+03  0.10891922467E+04  0.50400001928E-02 0.  1.
</event>
<event>
 5   0  0.2910126E-05  0.2296835E+04  0.7818609E-02  0.8479170E-01
       -2   -1    0    0    0  501  0.00000000000E+00  0.00000000000E+00  0.63068869556E+03  0.63068869556E+03  0.25500000920E-02 0. -1.
        2   -1    0    0  501    0  0.00000000000E+00  0.00000000000E+00 -0.20911469827E+04  0.20911469827E+04  0.25500000920E-02 0.  1.
    10030    2    1    2    0    0  0.00000000000E+00  0.00000000000E+00 -0.14604582871E+04  0.27218356782E+04  0.22968350073E+04 0.  0.
        5    1    3    3  502    0 -0.22250845494E+03 -0.38112169185E+03 -0.19866354810E+04  0.20350691342E+04  0.46999998093E+01 0.  1.
       -5    1    3    3    0  502  0.22250845494E+03  0.38112169185E+03  0.52617719395E+03  0.68676654400E+03  0.46999998093E+01 0. -1.
</event>
<event>
 5   0  0.2910126E-05  0.2306984E+04  0.7818609E-02  0.8475172E-01
        2   -1    0    0  501    0  0.00000000000E+00  0.00000000000E+00  0.13964991789E+04  0.13964991789E+04  0.25500000920E-02 0.  1.
       -2   -1    0    0    0  501  0.00000000000E+00  0.00000000000E+00 -0.95277105309E+03  0.95277105309E+03  0.25500000920E-02 0. -1.
    10030    2    1    2    0    0  0.00000000000E+00  0.00000000000E+00  0.44372812578E+03  0.23492702320E+04  0.23069841727E+04 0.  0.
        5    1    3    3  502    0 -0.13318131791E+03 -0.44888248338E+03 -0.85163556673E+03  0.97187343612E+03  0.46999998093E+01 0. -1.
       -5    1    3    3    0  502  0.13318131791E+03  0.44888248338E+03  0.12953636925E+04  0.13773967958E+04  0.46999998093E+01 0.  1.
</event>
<event>
 5   0  0.2910126E-05  0.2305700E+04  0.7818609E-02  0.8475677E-01
        2   -1    0    0  501    0  0.00000000000E+00  0.00000000000E+00  0.11799459144E+04  0.11799459144E+04  0.25500000920E-02 0.  1.
       -2   -1    0    0    0  501  0.00000000000E+00  0.00000000000E+00 -0.11263763568E+04  0.11263763568E+04  0.25500000920E-02 0. -1.
    10030    2    1    2    0    0  0.00000000000E+00  0.00000000000E+00  0.53569557605E+02  0.23063222712E+04  0.23057000502E+04 0.  0.
        5    1    3    3  502    0 -0.66601941327E+03  0.92229958241E+01 -0.91441237917E+03  0.11312997002E+04  0.46999998093E+01 0. -1.
       -5    1    3    3    0  502  0.66601941327E+03 -0.92229958241E+01  0.96798193678E+03  0.11750225710E+04  0.46999998093E+01 0.  1.
</event>
<event>
 5   0  0.2938972E-05  0.2297884E+04  0.7818609E-02  0.8478756E-01
       -2   -1    0    0    0  501  0.00000000000E+00  0.00000000000E+00  0.59719383010E+03  0.59719383010E+03  0.25500000920E-02 0.  1.
        2   -1    0    0  501    0  0.00000000000E+00  0.00000000000E+00 -0.22104504119E+04  0.22104504119E+04  0.25500000920E-02 0. -1.
    10030    2    1    2    0    0  0.00000000000E+00  0.00000000000E+00 -0.16132565818E+04  0.28076442420E+04  0.22978836765E+04 0.  0.
        2    1    3    3  502    0  0.10585623243E+04 -0.23990644189E+03 -0.12669845511E+04  0.16683402375E+04  0.25500000920E-02 0. -1.
       -2    1    3    3    0  502 -0.10585623243E+04  0.23990644189E+03 -0.34627203068E+03  0.11393040045E+04  0.25500000920E-02 0.  1.
</event>
<event>
 5   0  0.1284837E-05  0.2299783E+04  0.7818609E-02  0.8478007E-01
       -1   -1    0    0    0  501  0.00000000000E+00  0.00000000000E+00  0.94122801312E+03  0.94122801314E+03  0.50400001928E-02 0. -1.
        1   -1    0    0  501    0  0.00000000000E+00  0.00000000000E+00 -0.14048144298E+04  0.14048144298E+04  0.50400001928E-02 0.  1.
    10030    2    1    2    0    0  0.00000000000E+00  0.00000000000E+00 -0.46358641668E+03  0.23460424430E+04  0.22997832025E+04 0.  0.
        4    1    3    3  502    0  0.42100171400E+03  0.10576306962E+04 -0.39761737662E+03  0.12057886730E+04  0.12699999809E+01 0. -1.
       -4    1    3    3    0  502 -0.42100171400E+03 -0.10576306962E+04 -0.65969040061E+02  0.11402537700E+04  0.12699999809E+01 0.  1.
</event>
<event>
 5   0  0.2816178E-05  0.2289829E+04  0.7818609E-02  0.8481942E-01
        2   -1    0    0  501    0  0.00000000000E+00  0.00000000000E+00  0.10701140877E+04  0.10701140877E+04  0.25500000920E-02 0.  1.
       -2   -1    0    0    0  501  0.00000000000E+00  0.00000000000E+00 -0.12249433033E+04  0.12249433033E+04  0.25500000920E-02 0. -1.
    10030    2    1    2    0    0  0.00000000000E+00  0.00000000000E+00 -0.15482921563E+03  0.22950573909E+04  0.22898288892E+04 0.  0.
        1    1    3    3  502    0  0.75867777923E+03  0.71139453896E+03 -0.55720894226E+03  0.11798965921E+04  0.50400001928E-02 0. -1.
       -1    1    3    3    0  502 -0.75867777923E+03 -0.71139453896E+03  0.40237972664E+03  0.11151607988E+04  0.50400001928E-02 0.  1.
</event>
<event>
 5   0  0.2910126E-05  0.2289946E+04  0.7818609E-02  0.8481896E-01
        2   -1    0    0  501    0  0.00000000000E+00  0.00000000000E+00  0.21565687110E+04  0.21565687110E+04  0.25500000920E-02 0. -1.
       -2   -1    0    0    0  501  0.00000000000E+00  0.00000000000E+00 -0.60789324358E+03  0.60789324359E+03  0.25500000920E-02 0.  1.
    10030    2    1    2    0    0  0.00000000000E+00  0.00000000000E+00  0.15486754674E+04  0.27644619545E+04  0.22899463301E+04 0.  0.
        5    1    3    3  502    0  0.69854903042E+03 -0.87676227566E+03  0.49313489748E+03  0.12246987193E+04  0.46999998093E+01 0.  1.
       -5    1    3    3    0  502 -0.69854903042E+03  0.87676227566E+03  0.10555405699E+04  0.15397632352E+04  0.46999998093E+01 0. -1.
</event>
<event>
 5   0  0.2994157E-05  0.2287812E+04  0.7818609E-02  0.8482742E-01
       -2   -1    0    0    0  501  0.00000000000E+00  0.00000000000E+00  0.91227883747E+03  0.91227883747E+03  0.25500000920E-02 0.  1.
        2   -1    0    0  501    0  0.00000000000E+00  0.00000000000E+00 -0.14343437332E+04  0.14343437332E+04  0.25500000920E-02 0. -1.
    10030    2    1    2    0    0  0.00000000000E+00  0.00000000000E+00 -0.52206489571E+03  0.23466225706E+04  0.22878124341E+04 0.  0.
        4    1    3    3  502    0  0.23523709990E+03 -0.76315153158E+03 -0.11010993477E+04  0.13602051829E+04  0.12699999809E+01 0. -1.
       -4    1    3    3    0  502 -0.23523709990E+03  0.76315153158E+03  0.57903445197E+03  0.98641738771E+03  0.12699999809E+01 0.  1.
</event>
<event>
 5   0  0.2871888E-05  0.2313861E+04  0.7818609E-02  0.8472476E-01
        2   -1    0    0  501    0  0.00000000000E+00  0.00000000000E+00  0.17528584764E+04  0.17528584764E+04  0.25500000920E-02 0. -1.
       -2   -1    0    0    0  501  0.00000000000E+00  0.00000000000E+00 -0.76360311542E+03  0.76360311542E+03  0.25500000920E-02 0.  1.
    10030    2    1    2    0    0  0.00000000000E+00  0.00000000000E+00  0.98925536101E+03  0.25164615918E+04  0.23138610101E+04 0.  0.
        3    1    3    3  502    0 -0.23801629836E+03 -0.87707877352E+03  0.12732544171E+04  0.15643195818E+04  0.10100000352E+00 0. -1.
       -3    1    3    3    0  502  0.23801629836E+03  0.87707877352E+03 -0.28399905606E+03  0.95214201004E+03  0.10100000352E+00 0.  1.
</event>
<event>
 5   0  0.2910126E-05  0.2300059E+04  0.7818609E-02  0.8477898E-01
       -2   -1    0    0    0  501  0.00000000000E+00  0.00000000000E+00  0.12502649254E+04  0.12502649254E+04  0.25500000920E-02 0. -1.
        2   -1    0    0  501    0  0.00000000000E+00  0.00000000000E+00 -0.10578300102E+04  0.10578300102E+04  0.25500000920E-02 0.  1.
    10030    2    1    2    0    0  0.00000000000E+00  0.00000000000E+00  0.19243491520E+03  0.23080949356E+04  0.23000589199E+04 0.  0.
        5    1    3    3  502    0 -0.30426309777E+03 -0.10991048248E+04  0.24485051211E+03  0.11664395877E+04  0.46999998093E+01 0. -1.
       -5    1    3    3    0  502  0.30426309777E+03  0.10991048248E+04 -0.52415596907E+02  0.11416553479E+04  0.46999998093E+01 0.  1.
</event>
<event>
 5   0  0.1284837E-05  0.2302599E+04  0.7818609E-02  0.8476897E-01
       -1   -1    0    0    0  501  0.00000000000E+00  0.00000000000E+00  0.18205732637E+04  0.18205732637E+04  0.50400001928E-02 0.  1.
        1   -1    0    0  501    0  0.00000000000E+00  0.00000000000E+00 -0.72806218913E+03  0.72806218915E+03  0.50400001928E-02 0. -1.
    10030    2    1    2    0    0  0.00000000000E+00  0.00000000000E+00  0.10925110746E+04  0.25486354529E+04  0.23025990149E+04 0.  0.
        4    1    3    3  502    0  0.53165783637E+03  0.47062665506E+03 -0.45685950814E+03  0.84431731387E+03  0.12699999809E+01 0. -1.
       -4    1    3    3    0  502 -0.53165783637E+03 -0.47062665506E+03  0.15493705827E+04  0.17043181390E+04  0.12699999809E+01 0.  1.
</event>
<event>
 5   0  0.1371753E-05  0.2311074E+04  0.7818609E-02  0.8473567E-01
       -1   -1    0    0    0  501  0.00000000000E+00  0.00000000000E+00  0.59071739637E+03  0.59071739639E+03  0.50400001928E-02 0.  1.
        1   -1    0    0  501    0  0.00000000000E+00  0.00000000000E+00 -0.22604147092E+04  0.22604147092E+04  0.50400001928E-02 0. -1.
    10030    2    1    2    0    0  0.00000000000E+00  0.00000000000E+00 -0.16696973128E+04  0.28511321056E+04  0.23110744616E+04 0.  0.
        3    1    3    3  502    0 -0.10284165018E+04 -0.95066406916E+00 -0.18481986753E+03  0.10448922426E+04  0.10100000352E+00 0.  1.
       -3    1    3    3    0  502  0.10284165018E+04  0.95066406916E+00 -0.14848774453E+04  0.18062398630E+04  0.10100000352E+00 0. -1.
</event>
<event>
 5   0  0.1308224E-05  0.2308223E+04  0.7818609E-02  0.8474686E-01
       -1   -1    0    0    0  501  0.00000000000E+00  0.00000000000E+00  0.13523733070E+04  0.13523733070E+04  0.50400001928E-02 0.  1.
        1   -1    0    0  501    0  0.00000000000E+00  0.00000000000E+00 -0.98491523137E+03  0.98491523138E+03  0.50400001928E-02 0. -1.
    10030    2    1    2    0    0  0.00000000000E+00  0.00000000000E+00  0.36745807560E+03  0.23372885384E+04  0.23082227523E+04 0.  0.
        5    1    3    3  502    0 -0.36857458225E+03  0.49143156282E+03  0.11730678526E+04  0.13241837035E+04  0.46999998093E+01 0.  1.
       -5    1    3    3    0  502  0.36857458225E+03 -0.49143156282E+03 -0.80560977704E+03  0.10131048349E+04  0.46999998093E+01 0. -1.
</event>
<event>
 5   0  0.2816178E-05  0.2311252E+04  0.7818609E-02  0.8473498E-01
       -2   -1    0    0    0  501  0.00000000000E+00  0.00000000000E+00  0.79903807038E+03  0.79903807038E+03  0.25500000920E-02 0.  1.
        2   -1    0    0  501    0  0.00000000000E+00  0.00000000000E+00 -0.16713490214E+04  0.16713490214E+04  0.25500000920E-02 0. -1.
    10030    2    1    2    0    0  0.00000000000E+00  0.00000000000E+00 -0.87231095099E+03  0.24703870918E+04  0.23112520390E+04 0.  0.
        1    1    3    3  502    0  0.74129696706E+03 -0.48667514198E+03 -0.12281870199E+04  0.15148654208E+04  0.50400001928E-02 0. -1.
       -1    1    3    3    0  502 -0.74129696706E+03  0.48667514198E+03  0.35587606894E+03  0.95552167095E+03  0.50400001928E-02 0.  1.
</event>
<event>
 5   0  0.2910126E-05  0.2300131E+04  0.7818609E-02  0.8477870E-01
        2   -1    0    0  501    0  0.00000000000E+00  0.00000000000E+00  0.21531819121E+04  0.21531819121E+04  0.25500000920E-02 0. -1.
       -2   -1    0    0    0  501  0.00000000000E+00  0.00000000000E+00 -0.61427712161E+03  0.61427712162E+03  0.25500000920E-02 0.  1.
    10030    2    1    2    0    0  0.00000000000E+00  0.00000000000E+00  0.15389047905E+04  0.27674590337E+04  0.23001307678E+04 0.  0.
        5    1    3    3  502    0 -0.24206489060E+03 -0.32419930359E+03  0.20647120691E+04  0.21039863636E+04  0.46999998093E+01 0. -1.
       -5    1    3    3    0  502  0.24206489060E+03  0.32419930359E+03 -0.52580727866E+03  0.66347267012E+03  0.46999998093E+01 0.  1.
</event>
<event>
 5   0  0.1308224E-05  0.2314186E+04  0.7818609E-02  0.8472349E-01
        1   -1    0    0  501    0  0.00000000000E+00  0.00000000000E+00  0.12851110696E+04  0.12851110696E+04  0.50400001928E-02 0. -1.
       -1   -1    0    0    0  501  0.00000000000E+00  0.00000000000E+00 -0.10418279988E+04  0.10418279988E+04  0.50400001928E-02 0.  1.
    10030    2    1    2    0    0  0.00000000000E+00  0.00000000000E+00  0.24328307082E+03  0.23269390684E+04  0.23141864176E+04 0.  0.
        5    1    3    3  502    0  0.10348111343E+04  0.40300621110E+03  0.44838533034E+03  0.11976308214E+04  0.46999998093E+01 0.  1.
       -5    1    3    3    0  502 -0.10348111343E+04 -0.40300621110E+03 -0.20510225952E+03  0.11293082470E+04  0.46999998093E+01 0. -1.
</event>
<event>
 5   0  0.1327820E-05  0.2311513E+04  0.7818609E-02  0.8473396E-01
       -1   -1    0    0    0  501  0.00000000000E+00  0.00000000000E+00  0.87241848324E+03  0.87241848325E+03  0.50400001928E-02 0. -1.
        1   -1    0    0  501    0  0.00000000000E+00  0.00000000000E+00 -0.15311147401E+04  0.15311147401E+04  0.50400001928E-02 0.  1.
    10030    2    1    2    0    0  0.00000000000E+00  0.00000000000E+00 -0.65869625688E+03  0.24035332234E+04  0.23115127508E+04 0.  0.
        1    1    3    3  502    0  0.45189746884E+03  0.42471605872E+03  0.68476096428E+03  0.92384664913E+03  0.50400001928E-02 0. -1.
       -1    1    3    3    0  502 -0.45189746884E+03 -0.42471605872E+03 -0.13434572212E+04  0.14796865742E+04  0.50400001928E-02 0.  1.
</event>
<event>
 5   0  0.2994157E-05  0.2295917E+04  0.7818609E-02  0.8479533E-01
        2   -1    0    0  501    0  0.00000000000E+00  0.00000000000E+00  0.10239541882E+04  0.10239541882E+04  0.25500000920E-02 0.  1.
       -2   -1    0    0    0  501  0.00000000000E+00  0.00000000000E+00 -0.12869801885E+04  0.12869801885E+04  0.25500000920E-02 0. -1.
    10030    2    1    2    0    0  0.00000000000E+00  0.00000000000E+00 -0.26302600029E+03  0.23109343766E+04  0.22959170317E+04 0.  0.
        4    1    3    3  502    0  0.18138664806E+02 -0.11391420067E+04  0.10240046422E+02  0.11393331357E+04  0.12699999809E+01 0.  1.
       -4    1    3    3    0  502 -0.18138664806E+02  0.11391420067E+04 -0.27326604671E+03  0.11716012410E+04  0.12699999809E+01 0. -1.
</event>
<event>
 5   0  0.1327820E-05  0.2304303E+04  0.7818609E-02  0.8476226E-01
        1   -1    0    0  501    0  0.00000000000E+00  0.00000000000E+00  0.24259406299E+04  0.24259406299E+04  0.50400001928E-02 0. -1.
       -1   -1    0    0    0  501  0.00000000000E+00  0.00000000000E+00 -0.54719102170E+03  0.54719102172E+03  0.50400001928E-02 0.  1.
    10030    2    1    2    0    0  0.00000000000E+00  0.00000000000E+00  0.18787496082E+04  0.29731316516E+04  0.23043028723E+04 0.  0.
        1    1    3    3  502    0  0.58932833915E+03 -0.98537280805E+02 -0.33166135130E+03  0.68338622975E+03  0.50400001928E-02 0.  1.
       -1    1    3    3    0  502 -0.58932833915E+03  0.98537280805E+02  0.22104109595E+04  0.22897454218E+04  0.50400001928E-02 0. -1.
</event>
<event>
 5   0  0.2994157E-05  0.2292523E+04  0.7818609E-02  0.8480875E-01
        2   -1    0    0  501    0  0.00000000000E+00  0.00000000000E+00  0.13833129678E+04  0.13833129678E+04  0.25500000920E-02 0. -1.
       -2   -1    0    0    0  501  0.00000000000E+00  0.00000000000E+00 -0.94983223204E+03  0.94983223204E+03  0.25500000920E-02 0.  1.
    10030    2    1    2    0    0  0.00000000000E+00  0.00000000000E+00  0.43348073575E+03  0.23331451998E+04  0.22925228407E+04 0.  0.
        4    1    3    3  502    0  0.51112737871E+03  0.35313299675E+03 -0.76363549861E+03  0.98442617717E+03  0.12699999809E+01 0.  1.
       -4    1    3    3    0  502 -0.51112737871E+03 -0.35313299675E+03  0.11971162344E+04  0.13487190227E+04  0.12699999809E+01 0. -1.
</event>
<event>
 5   0  0.2816178E-05  0.2304780E+04  0.7818609E-02  0.8476039E-01
       -2   -1    0    0    0  501  0.00000000000E+00  0.00000000000E+00  0.84113713903E+03  0.84113713903E+03  0.25500000920E-02 0. -1.
        2   -1    0    0  501    0  0.00000000000E+00  0.00000000000E+00 -0.15788189160E+04  0.15788189160E+04  0.25500000920E-02 0.  1.
    10030    2    1    2    0    0  0.00000000000E+00  0.00000000000E+00 -0.73768177699E+03  0.24199560551E+04  0.23047804460E+04 0.  0.
        1    1    3    3  502    0  0.60644058837E+03 -0.47823484977E+03 -0.12668739942E+04  0.14837278983E+04  0.50400001928E-02 0.  1.
       -1    1    3    3    0  502 -0.60644058837E+03  0.47823484977E+03  0.52919221725E+03  0.93622815680E+03  0.50400001928E-02 0. -1.
</event>
<event>
 5   0  0.1017200E-05  0.2317909E+04  0.7818609E-02  0.8470893E-01
       -4   -1    0    0    0  501  0.00000000000E+00  0.00000000000E+00  0.15936723931E+04  0.15936728991E+04  0.12699999809E+01 0. -1.
        4   -1    0    0  501    0  0.00000000000E+00  0.00000000000E+00 -0.84281676725E+03  0.84281772410E+03  0.12699999809E+01 0.  1.
    10030    2    1    2    0    0  0.00000000000E+00  0.00000000000E+00  0.75085562583E+03  0.24364906232E+04  0.23179090548E+04 0.  0.
        4    1    3    3  502    0  0.94527073904E+03 -0.56107834730E+03 -0.10546928099E+02  0.10992991097E+04  0.12699999809E+01 0.  1.
       -4    1    3    3    0  502 -0.94527073904E+03  0.56107834730E+03  0.76140255393E+03  0.13371915136E+04  0.12699999809E+01 0. -1.
</event>
<event>
 5   0  0.1327820E-05  0.2307332E+04  0.7818609E-02  0.8475036E-01
       -1   -1    0    0    0  501  0.00000000000E+00  0.00000000000E+00  0.93589231781E+03  0.93589231782E+03  0.50400001928E-02 0.  1.
        1   -1    0    0  501    0  0.00000000000E+00  0.00000000000E+00 -0.14221140552E+04  0.14221140552E+04  0.50400001928E-02 0. -1.
    10030    2    1    2    0    0  0.00000000000E+00  0.00000000000E+00 -0.48622173741E+03  0.23580063731E+04  0.23073323292E+04 0.  0.
        1    1    3    3  502    0 -0.23540294345E+03  0.16252685286E+03 -0.13852952722E+04  0.14145220093E+04  0.50400001928E-02 0. -1.
       -1    1    3    3    0  502  0.23540294345E+03 -0.16252685286E+03  0.89907353477E+03  0.94348436374E+03  0.50400001928E-02 0.  1.
</event>
<event>
 5   0  0.1017200E-05  0.2345872E+04  0.7818609E-02  0.8460051E-01
        3   -1    0    0  501    0  0.00000000000E+00  0.00000000000E+00  0.93939944329E+03  0.93939944872E+03  0.10100000352E+00 0. -1.
       -3   -1    0    0    0  501  0.00000000000E+00  0.00000000000E+00 -0.14645297325E+04  0.14645297360E+04  0.10100000352E+00 0.  1.
    10030    2    1    2    0    0  0.00000000000E+00  0.00000000000E+00 -0.52513028919E+03  0.24039291847E+04  0.23458716300E+04 0.  0.
        3    1    3    3  502    0  0.86626344306E+03 -0.59795229443E+03 -0.79288539805E+03  0.13178112778E+04  0.10100000352E+00 0.  1.
       -3    1    3    3    0  502 -0.86626344306E+03  0.59795229443E+03  0.26775510885E+03  0.10861179069E+04  0.10100000352E+00 0. -1.
</event>
<event>
 5   0  0.2994157E-05  0.2293598E+04  0.7818609E-02  0.8480450E-01
       -2   -1    0    0    0  501  0.00000000000E+00  0.00000000000E+00  0.10914289147E+04  0.10914289147E+04  0.25500000920E-02 0. -1.
        2   -1    0    0  501    0  0.00000000000E+00  0.00000000000E+00 -0.12049778997E+04  0.12049778997E+04  0.25500000920E-02 0.  1.
    10030    2    1    2    0    0  0.00000000000E+00  0.00000000000E+00 -0.11354898492E+03  0.22964068144E+04  0.22935978037E+04 0.  0.
        4    1    3    3  502    0  0.66866503574E+03  0.83721047813E+03  0.35251925784E+03  0.11279653163E+04  0.12699999809E+01 0. -1.
       -4    1    3    3    0  502 -0.66866503574E+03 -0.83721047813E+03 -0.46606824276E+03  0.11684414981E+04  0.12699999809E+01 0.  1.
</event>
<event>
 5   0  0.1284837E-05  0.2222149E+04  0.7818609E-02  0.8509265E-01
        1   -1    0    0  501    0  0.00000000000E+00  0.00000000000E+00  0.27364754965E+04  0.27364754965E+04  0.50400001928E-02 0. -1.
       -1   -1    0    0    0  501  0.00000000000E+00  0.00000000000E+00 -0.45112292777E+03  0.45112292780E+03  0.50400001928E-02 0.  1.
    10030    2    1    2    0    0  0.00000000000E+00  0.00000000000E+00  0.22853525687E+04  0.31875984243E+04  0.22221492639E+04 0.  0.
        4    1    3    3  502    0  0.93192063984E+03 -0.49697782763E+03  0.16375613349E+04  0.19486076513E+04  0.12699999809E+01 0. -1.
       -4    1    3    3    0  502 -0.93192063984E+03  0.49697782763E+03  0.64779123377E+03  0.12389907730E+04  0.12699999809E+01 0.  1.
</event>
<event>
 5   0  0.2994157E-05  0.2307904E+04  0.7818609E-02  0.8474811E-01
        2   -1    0    0  501    0  0.00000000000E+00  0.00000000000E+00  0.23090619906E+04  0.23090619906E+04  0.25500000920E-02 0.  1.
       -2   -1    0    0    0  501  0.00000000000E+00  0.00000000000E+00 -0.57668674452E+03  0.57668674453E+03  0.25500000920E-02 0. -1.
    10030    2    1    2    0    0  0.00000000000E+00  0.00000000000E+00  0.17323752461E+04  0.28857487351E+04  0.23079041941E+04 0.  0.
        4    1    3    3  502    0 -0.91299268441E+03 -0.54799296650E+02  0.17459455230E+04  0.19710114122E+04  0.12699999809E+01 0.  1.
       -4    1    3    3    0  502  0.91299268441E+03  0.54799296650E+02 -0.13570276923E+02  0.91473732296E+03  0.12699999809E+01 0. -1.
</event>
<event>
 5   0  0.1303224E-05  0.2336577E+04  0.7818609E-02  0.8463637E-01
        1   -1    0    0  501    0  0.00000000000E+00  0.00000000000E+00  0.11453155314E+04  0.11453155314E+04  0.50400001928E-02 0. -1.
       -1   -1    0    0    0  501  0.00000000000E+00  0.00000000000E+00 -0.11917220739E+04  0.11917220739E+04  0.50400001928E-02 0.  1.
    10030    2    1    2    0    0  0.00000000000E+00  0.00000000000E+00 -0.46406542538E+02  0.23370376053E+04  0.23365768127E+04 0.  0.
        2    1    3    3  502    0  0.40934632745E+03  0.28997711138E+03 -0.10785163935E+04  0.11894741494E+04  0.25500000920E-02 0.  1.
       -2    1    3    3    0  502 -0.40934632745E+03 -0.28997711138E+03  0.10321098510E+04  0.11475634560E+04  0.25500000920E-02 0. -1.
</event>
<event>
 5   0  0.2816178E-05  0.2175179E+04  0.7818609E-02  0.8528831E-01
        2   -1    0    0  501    0  0.00000000000E+00  0.00000000000E+00  0.87066011433E+03  0.87066011433E+03  0.25500000920E-02 0. -1.
       -2   -1    0    0    0  501  0.00000000000E+00  0.00000000000E+00 -0.13585683052E+04  0.13585683052E+04  0.25500000920E-02 0.  1.
    10030    2    1    2    0    0  0.00000000000E+00  0.00000000000E+00 -0.48790819085E+03  0.22292284195E+04  0.21751792900E+04 0.  0.
        1    1    3    3  502    0  0.57006024942E+03  0.64827942674E+03 -0.92191753227E+03  0.12629991447E+04  0.50400001928E-02 0.  1.
       -1    1    3    3    0  502 -0.57006024942E+03 -0.64827942674E+03  0.43400934141E+03  0.96622927485E+03  0.50400001928E-02 0. -1.
</event>
<event>
 5   0  0.1371753E-05  0.2306230E+04  0.7818609E-02  0.8475469E-01
       -1   -1    0    0    0  501  0.00000000000E+00  0.00000000000E+00  0.20838333707E+04  0.20838333707E+04  0.50400001928E-02 0.  1.
        1   -1    0    0  501    0  0.00000000000E+00  0.00000000000E+00 -0.63809036325E+03  0.63809036327E+03  0.50400001928E-02 0. -1.
    10030    2    1    2    0    0  0.00000000000E+00  0.00000000000E+00  0.14457430074E+04  0.27219237340E+04  0.23062298172E+04 0.  0.
        3    1    3    3  502    0  0.16710511818E+03  0.68262499798E+03 -0.35611877365E+03  0.78785887032E+03  0.10100000352E+00 0. -1.
       -3    1    3    3    0  502 -0.16710511818E+03 -0.68262499798E+03  0.18018617811E+04  0.19340648636E+04  0.10100000352E+00 0.  1.
</event>
<event>
 5   0  0.1327820E-05  0.2244680E+04  0.7818609E-02  0.8500058E-01
        1   -1    0    0  501    0  0.00000000000E+00  0.00000000000E+00  0.16054968806E+04  0.16054968806E+04  0.50400001928E-02 0.  1.
       -1   -1    0    0    0  501  0.00000000000E+00  0.00000000000E+00 -0.78458404837E+03  0.78458404839E+03  0.50400001928E-02 0. -1.
    10030    2    1    2    0    0  0.00000000000E+00  0.00000000000E+00  0.82091283221E+03  0.23900809290E+04  0.22446801485E+04 0.  0.
        1    1    3    3  502    0 -0.22923646890E+03 -0.10549110989E+04  0.83550401384E+02  0.10827591860E+04  0.50400001928E-02 0.  1.
       -1    1    3    3    0  502  0.22923646890E+03  0.10549110989E+04  0.73736243082E+03  0.13073217430E+04  0.50400001928E-02 0. -1.
</event>
<event>
 5   0  0.1371753E-05  0.2343959E+04  0.7818609E-02  0.8460788E-01
       -1   -1    0    0    0  501  0.00000000000E+00  0.00000000000E+00  0.15452461077E+04  0.15452461077E+04  0.50400001928E-02 0. -1.
        1   -1    0    0  501    0  0.00000000000E+00  0.00000000000E+00 -0.88887817916E+03  0.88887817917E+03  0.50400001928E-02 0.  1.
    10030    2    1    2    0    0  0.00000000000E+00  0.00000000000E+00  0.65636792854E+03  0.24341242869E+04  0.23439586571E+04 0.  0.
        3    1    3    3  502    0  0.11556440664E+04  0.19336786450E+03  0.35427404092E+03  0.12240974003E+04  0.10100000352E+00 0.  1.
       -3    1    3    3    0  502 -0.11556440664E+04 -0.19336786450E+03  0.30209388762E+03  0.12100268866E+04  0.10100000352E+00 0. -1.
</event>
<event>
 5   0  0.2871888E-05  0.2307760E+04  0.7818609E-02  0.8474868E-01
       -2   -1    0    0    0  501  0.00000000000E+00  0.00000000000E+00  0.86788986981E+03  0.86788986982E+03  0.25500000920E-02 0. -1.
        2   -1    0    0  501    0  0.00000000000E+00  0.00000000000E+00 -0.15341111616E+04  0.15341111616E+04  0.25500000920E-02 0.  1.
    10030    2    1    2    0    0  0.00000000000E+00  0.00000000000E+00 -0.66622129182E+03  0.24020010315E+04  0.23077604177E+04 0.  0.
        3    1    3    3  502    0  0.35908955350E+03  0.56452490384E+03  0.64538952482E+03  0.92960277724E+03  0.10100000352E+00 0. -1.
       -3    1    3    3    0  502 -0.35908955350E+03 -0.56452490384E+03 -0.13116108166E+04  0.14723982542E+04  0.10100000352E+00 0.  1.
</event>
<event>
 5   0  0.2938972E-05  0.2336242E+04  0.7818609E-02  0.8463767E-01
        2   -1    0    0  501    0  0.00000000000E+00  0.00000000000E+00  0.30457027938E+04  0.30457027938E+04  0.25500000920E-02 0.  1.
       -2   -1    0    0    0  501  0.00000000000E+00  0.00000000000E+00 -0.44801039185E+03  0.44801039185E+03  0.25500000920E-02 0. -1.
    10030    2    1    2    0    0  0.00000000000E+00  0.00000000000E+00  0.25976924020E+04  0.34937131857E+04  0.23362418557E+04 0.  0.
        2    1    3    3  502    0  0.44709798561E+03  0.92220477995E+03  0.46066722722E+03  0.11236425406E+04  0.25500000920E-02 0. -1.
       -2    1    3    3    0  502 -0.44709798561E+03 -0.92220477995E+03  0.21370251747E+04  0.23700706450E+04  0.25500000920E-02 0.  1.
</event>
<event>
 5   0  0.1284837E-05  0.2310879E+04  0.7818609E-02  0.8473644E-01
       -1   -1    0    0    0  501  0.00000000000E+00  0.00000000000E+00  0.65793826244E+03  0.65793826246E+03  0.50400001928E-02 0. -1.
        1   -1    0    0  501    0  0.00000000000E+00  0.00000000000E+00 -0.20291266557E+04  0.20291266557E+04  0.50400001928E-02 0.  1.
    10030    2    1    2    0    0  0.00000000000E+00  0.00000000000E+00 -0.13711883933E+04  0.26870649182E+04  0.23108786781E+04 0.  0.
        4    1    3    3  502    0 -0.47490711483E+03 -0.60130805051E+03  0.32002042949E+03  0.83037511253E+03  0.12699999809E+01 0. -1.
       -4    1    3    3    0  502  0.47490711483E+03  0.60130805051E+03 -0.16912088228E+04  0.18566898057E+04  0.12699999809E+01 0.  1.
</event>
<event>
 5   0  0.2816178E-05  0.2286931E+04  0.7818609E-02  0.8483092E-01
       -2   -1    0    0    0  501  0.00000000000E+00  0.00000000000E+00  0.89472663473E+03  0.89472663473E+03  0.25500000920E-02 0. -1.
        2   -1    0    0  501    0  0.00000000000E+00  0.00000000000E+00 -0.14613551078E+04  0.14613551078E+04  0.25500000920E-02 0.  1.
    10030    2    1    2    0    0  0.00000000000E+00  0.00000000000E+00 -0.56662847302E+03  0.23560817425E+04  0.22869309895E+04 0.  0.
        1    1    3    3  502    0 -0.77463773396E+03  0.43927559771E+03 -0.10222800667E+04  0.13557592723E+04  0.50400001928E-02 0.  1.
       -1    1    3    3    0  502  0.77463773396E+03 -0.43927559771E+03  0.45565159364E+03  0.10003224702E+04  0.50400001928E-02 0. -1.
</event>
<event>
 5   0  0.2910126E-05  0.2308042E+04  0.7818609E-02  0.8474757E-01
        2   -1    0    0  501    0  0.00000000000E+00  0.00000000000E+00  0.17398122772E+04  0.17398122772E+04  0.25500000920E-02 0. -1.
       -2   -1    0    0    0  501  0.00000000000E+00  0.00000000000E+00 -0.76546463313E+03  0.76546463313E+03  0.25500000920E-02 0.  1.
    10030    2    1    2    0    0  0.00000000000E+00  0.00000000000E+00  0.97434764408E+03  0.25052769103E+04  0.23080422583E+04 0.  0.
        5    1    3    3  502    0  0.15085789995E+03 -0.83445162819E+03 -0.36245077583E+03  0.92220403418E+03  0.46999998093E+01 0. -1.
       -5    1    3    3    0  502 -0.15085789995E+03  0.83445162819E+03  0.13367984199E+04  0.15830728762E+04  0.46999998093E+01 0.  1.
</event>
<event>
 5   0  0.1284837E-05  0.2294434E+04  0.7818609E-02  0.8480119E-01
        1   -1    0    0  501    0  0.00000000000E+00  0.00000000000E+00  0.13071838609E+04  0.13071838609E+04  0.50400001928E-02 0.  1.
       -1   -1    0    0    0  501  0.00000000000E+00  0.00000000000E+00 -0.10068260681E+04  0.10068260682E+04  0.50400001928E-02 0. -1.
    10030    2    1    2    0    0  0.00000000000E+00  0.00000000000E+00  0.30035779277E+03  0.23140099291E+04  0.22944339494E+04 0.  0.
        4    1    3    3  502    0 -0.10991320318E+04 -0.32717954449E+03  0.11880890865E+03  0.11529331496E+04  0.12699999809E+01 0. -1.
       -4    1    3    3    0  502  0.10991320318E+04  0.32717954449E+03  0.18154888412E+03  0.11610767795E+04  0.12699999809E+01 0.  1.
</event>
<event>
 5   0  0.2816178E-05  0.2293311E+04  0.7818609E-02  0.8480563E-01
       -2   -1    0    0    0  501  0.00000000000E+00  0.00000000000E+00  0.53568483552E+03  0.53568483552E+03  0.25500000920E-02 0.  1.
        2   -1    0    0  501    0  0.00000000000E+00  0.00000000000E+00 -0.24544627227E+04  0.24544627227E+04  0.25500000920E-02 0. -1.
    10030    2    1    2    0    0  0.00000000000E+00  0.00000000000E+00 -0.19187778872E+04  0.29901475583E+04  0.22933106723E+04 0.  0.
        1    1    3    3  502    0  0.91423981965E+03 -0.15124557611E+03 -0.78818816271E+02  0.93001186979E+03  0.50400001928E-02 0.  1.
       -1    1    3    3    0  502 -0.91423981965E+03  0.15124557611E+03 -0.18399590710E+04  0.20601356885E+04  0.50400001928E-02 0. -1.
</event>
<event>
 5   0  0.1327820E-05  0.2311220E+04  0.7818609E-02  0.8473510E-01
        1   -1    0    0  501    0  0.00000000000E+00  0.00000000000E+00  0.15504824161E+04  0.15504824161E+04  0.50400001928E-02 0. -1.
       -1   -1    0    0    0  501  0.00000000000E+00  0.00000000000E+00 -0.86130255598E+03  0.86130255599E+03  0.50400001928E-02 0.  1.
    10030    2    1    2    0    0  0.00000000000E+00  0.00000000000E+00  0.68917986014E+03  0.24117849721E+04  0.23112199965E+04 0.  0.
        1    1    3    3  502    0  0.75046432392E+03  0.84863783215E+03  0.10651463836E+03  0.11378612568E+04  0.50400001928E-02 0. -1.
       -1    1    3    3    0  502 -0.75046432392E+03 -0.84863783215E+03  0.58266522178E+03  0.12739237153E+04  0.50400001928E-02 0.  1.
</event>
<event>
 5   0  0.2816178E-05  0.2302977E+04  0.7818609E-02  0.8476748E-01
       -2   -1    0    0    0  501  0.00000000000E+00  0.00000000000E+00  0.96600663447E+03  0.96600663447E+03  0.25500000920E-02 0.  1.
        2   -1    0    0  501    0  0.00000000000E+00  0.00000000000E+00 -0.13725845139E+04  0.13725845139E+04  0.25500000920E-02 0. -1.
    10030    2    1    2    0    0  0.00000000000E+00  0.00000000000E+00 -0.40657787946E+03  0.23385911484E+04  0.23029769837E+04 0.  0.
        1    1    3    3  502    0 -0.27693658100E+03  0.10853114263E+04 -0.47449776302E+03  0.12164468295E+04  0.50400001928E-02 0. -1.
       -1    1    3    3    0  502  0.27693658100E+03 -0.10853114263E+04  0.67919883556E+02  0.11221443189E+04  0.50400001928E-02 0.  1.
</event>
<event>
 5   0  0.1284837E-05  0.2258034E+04  0.7818609E-02  0.8494654E-01
        1   -1    0    0  501    0  0.00000000000E+00  0.00000000000E+00  0.78897455648E+03  0.78897455650E+03  0.50400001928E-02 0.  1.
       -1   -1    0    0    0  501  0.00000000000E+00  0.00000000000E+00 -0.16156152123E+04  0.16156152123E+04  0.50400001928E-02 0. -1.
    10030    2    1    2    0    0  0.00000000000E+00  0.00000000000E+00 -0.82664065580E+03  0.24045897688E+04  0.22580339197E+04 0.  0.
        4    1    3    3  502    0  0.88405585284E+03  0.66921547864E+03 -0.63990625220E+03  0.12801897251E+04  0.12699999809E+01 0.  1.
       -4    1    3    3    0  502 -0.88405585284E+03 -0.66921547864E+03 -0.18673440360E+03  0.11244000437E+04  0.12699999809E+01 0. -1.
</event>
<event>
 5   0  0.2938972E-05  0.2305306E+04  0.7818609E-02  0.8475832E-01
       -2   -1    0    0    0  501  0.00000000000E+00  0.00000000000E+00  0.13632602701E+04  0.13632602701E+04  0.25500000920E-02 0. -1.
        2   -1    0    0  501    0  0.00000000000E+00  0.00000000000E+00 -0.97458242532E+03  0.97458242532E+03  0.25500000920E-02 0.  1.
    10030    2    1    2    0    0  0.00000000000E+00  0.00000000000E+00  0.38867784473E+03  0.23378426954E+04  0.23053064875E+04 0.  0.
        2    1    3    3  502    0  0.35298721030E+03 -0.64634954219E+03 -0.70487842712E+03  0.10194220413E+04  0.25500000920E-02 0.  1.
       -2    1    3    3    0  502 -0.35298721030E+03  0.64634954219E+03  0.10935562719E+04  0.13184206541E+04  0.25500000920E-02 0. -1.
</event>
<event>
 5   0  0.2938972E-05  0.2365256E+04  0.7818609E-02  0.8452627E-01
        2   -1    0    0  501    0  0.00000000000E+00  0.00000000000E+00  0.16963420188E+04  0.16963420188E+04  0.25500000920E-02 0. -1.
       -2   -1    0    0    0  501  0.00000000000E+00  0.00000000000E+00 -0.82448536374E+03  0.82448536374E+03  0.25500000920E-02 0.  1.
    10030    2    1    2    0    0  0.00000000000E+00  0.00000000000E+00  0.87185665504E+03  0.25208273825E+04  0.23652561522E+04 0.  0.
        2    1    3    3  502    0 -0.46394422400E+02 -0.21816776518E+02 -0.82330045547E+03  0.82489517767E+03  0.25500000920E-02 0.  1.
       -2    1    3    3    0  502  0.46394422400E+02  0.21816776518E+02  0.16951571105E+04  0.16959322049E+04  0.25500000920E-02 0. -1.
</event>
<event>
 5   0  0.1284837E-05  0.2296370E+04  0.7818609E-02  0.8479354E-01
        1   -1    0    0  501    0  0.00000000000E+00  0.00000000000E+00  0.20063640677E+04  0.20063640677E+04  0.50400001928E-02 0. -1.
       -1   -1    0    0    0  501  0.00000000000E+00  0.00000000000E+00 -0.65707345223E+03  0.65707345224E+03  0.50400001928E-02 0.  1.
    10030    2    1    2    0    0  0.00000000000E+00  0.00000000000E+00  0.13492906154E+04  0.26634375199E+04  0.22963697998E+04 0.  0.
        4    1    3    3  502    0 -0.56760007391E+03 -0.30764776574E+03 -0.42660476787E+03  0.77382829655E+03  0.12699999809E+01 0.  1.
       -4    1    3    3    0  502  0.56760007391E+03  0.30764776574E+03  0.17758953833E+04  0.18896092234E+04  0.12699999809E+01 0. -1.
</event>
<event>
 5   0  0.1308224E-05  0.2247327E+04  0.7818609E-02  0.8498984E-01
        1   -1    0    0  501    0  0.00000000000E+00  0.00000000000E+00  0.17566610192E+04  0.17566610193E+04  0.50400001928E-02 0.  1.
       -1   -1    0    0    0  501  0.00000000000E+00  0.00000000000E+00 -0.71876118724E+03  0.71876118726E+03  0.50400001928E-02 0. -1.
    10030    2    1    2    0    0  0.00000000000E+00  0.00000000000E+00  0.10378998320E+04  0.24754222065E+04  0.22473270877E+04 0.  0.
        5    1    3    3  502    0  0.66945455020E+03 -0.33004559656E+03 -0.40624011530E+03  0.84979562947E+03  0.46999998093E+01 0. -1.
       -5    1    3    3    0  502 -0.66945455020E+03  0.33004559656E+03  0.14441399473E+04  0.16256265770E+04  0.46999998093E+01 0.  1.
</event>
<event>
 5   0  0.1303224E-05  0.2292304E+04  0.7818609E-02  0.8480962E-01
       -1   -1    0    0    0  501  0.00000000000E+00  0.00000000000E+00  0.99582657325E+03  0.99582657326E+03  0.50400001928E-02 0. -1.
        1   -1    0    0  501    0  0.00000000000E+00  0.00000000000E+00 -0.13191702984E+04  0.13191702984E+04  0.50400001928E-02 0.  1.
    10030    2    1    2    0    0  0.00000000000E+00  0.00000000000E+00 -0.32334372512E+03  0.23149968716E+04  0.22923043758E+04 0.  0.
        2    1    3    3  502    0  0.17229222194E+03 -0.89924169060E+03 -0.85794944366E+03  0.12547499654E+04  0.25500000920E-02 0. -1.
       -2    1    3    3    0  502 -0.17229222194E+03  0.89924169060E+03  0.53460571854E+03  0.10602469062E+04  0.25500000920E-02 0.  1.
</event>
<event>
 5   0  0.2871888E-05  0.2303518E+04  0.7818609E-02  0.8476536E-01
        2   -1    0    0  501    0  0.00000000000E+00  0.00000000000E+00  0.27104665462E+04  0.27104665462E+04  0.25500000920E-02 0. -1.
       -2   -1    0    0    0  501  0.00000000000E+00  0.00000000000E+00 -0.48941693863E+03  0.48941693864E+03  0.25500000920E-02 0.  1.
    10030    2    1    2    0    0  0.00000000000E+00  0.00000000000E+00  0.22210496076E+04  0.31998834848E+04  0.23035175183E+04 0.  0.
        3    1    3    3  502    0 -0.32616749443E+03  0.11045812911E+04  0.11215651882E+04  0.16076049094E+04  0.10100000352E+00 0.  1.
       -3    1    3    3    0  502  0.32616749443E+03 -0.11045812911E+04  0.10994844194E+04  0.15922785755E+04  0.10100000352E+00 0. -1.
</event>
<event>
 5   0  0.1303224E-05  0.2299708E+04  0.7818609E-02  0.8478036E-01
       -1   -1    0    0    0  501  0.00000000000E+00  0.00000000000E+00  0.65461868402E+03  0.65461868404E+03  0.50400001928E-02 0. -1.
        1   -1    0    0  501    0  0.00000000000E+00  0.00000000000E+00 -0.20197465735E+04  0.20197465735E+04  0.50400001928E-02 0.  1.
    10030    2    1    2    0    0  0.00000000000E+00  0.00000000000E+00 -0.13651278895E+04  0.26743652576E+04  0.22997076719E+04 0.  0.
        2    1    3    3  502    0  0.65856323015E+03 -0.51653487992E+03 -0.15994620357E+04  0.18052126229E+04  0.25500000920E-02 0. -1.
       -2    1    3    3    0  502 -0.65856323015E+03  0.51653487992E+03  0.23433414618E+03  0.86915263467E+03  0.25500000920E-02 0.  1.
</event>
<event>
 5   0  0.1327820E-05  0.2299372E+04  0.7818609E-02  0.8478169E-01
       -1   -1    0    0    0  501  0.00000000000E+00  0.00000000000E+00  0.90293327673E+03  0.90293327675E+03  0.50400001928E-02 0.  1.
        1   -1    0    0  501    0  0.00000000000E+00  0.00000000000E+00 -0.14638710451E+04  0.14638710451E+04  0.50400001928E-02 0. -1.
    10030    2    1    2    0    0  0.00000000000E+00  0.00000000000E+00 -0.56093776833E+03  0.23668043218E+04  0.22993719834E+04 0.  0.
        1    1    3    3  502    0  0.62081255796E+03 -0.70341740784E+03  0.40352885686E+03  0.10212932097E+04  0.50400001928E-02 0.  1.
       -1    1    3    3    0  502 -0.62081255796E+03  0.70341740784E+03 -0.96446662519E+03  0.13455111121E+04  0.50400001928E-02 0. -1.
</event>
<event>
 5   0  0.2816178E-05  0.2420935E+04  0.7818609E-02  0.8431707E-01
        2   -1    0    0  501    0  0.00000000000E+00  0.00000000000E+00  0.17991137661E+04  0.17991137661E+04  0.25500000920E-02 0. -1.
       -2   -1    0    0    0  501  0.00000000000E+00  0.00000000000E+00 -0.81441879660E+03  0.81441879661E+03  0.25500000920E-02 0.  1.
    10030    2    1    2    0    0  0.00000000000E+00  0.00000000000E+00  0.98469496945E+03  0.26135325627E+04  0.24209354129E+04 0.  0.
        1    1    3    3  502    0 -0.14102891207E+03 -0.40760179351E+03  0.17133443932E+04  0.17667986263E+04  0.50400001928E-02 0. -1.
       -1    1    3    3    0  502  0.14102891207E+03  0.40760179351E+03 -0.72864942380E+03  0.84673393633E+03  0.50400001928E-02 0.  1.
</event>
<event>
 5   0  0.1017200E-05  0.2309699E+04  0.7818609E-02  0.8474107E-01
       -3   -1    0    0    0  501  0.00000000000E+00  0.00000000000E+00  0.10383431161E+04  0.10383431210E+04  0.10100000352E+00 0. -1.
        3   -1    0    0  501    0  0.00000000000E+00  0.00000000000E+00 -0.12844285525E+04  0.12844285565E+04  0.10100000352E+00 0.  1.
    10030    2    1    2    0    0  0.00000000000E+00  0.00000000000E+00 -0.24608543644E+03  0.23227716775E+04  0.23096991631E+04 0.  0.
        4    1    3    3  502    0 -0.74167155241E+03  0.82390076966E+03 -0.44858270260E+03  0.11958750871E+04  0.12699999809E+01 0.  1.
       -4    1    3    3    0  502  0.74167155241E+03 -0.82390076966E+03  0.20249726616E+03  0.11268965905E+04  0.12699999809E+01 0. -1.
</event>
<event>
 5   0  0.1308224E-05  0.2296057E+04  0.7818609E-02  0.8479478E-01
        1   -1    0    0  501    0  0.00000000000E+00  0.00000000000E+00  0.11507652017E+04  0.11507652017E+04  0.50400001928E-02 0.  1.
       -1   -1    0    0    0  501  0.00000000000E+00  0.00000000000E+00 -0.11452980380E+04  0.11452980380E+04  0.50400001928E-02 0. -1.
    10030    2    1    2    0    0  0.00000000000E+00  0.00000000000E+00  0.54671636282E+01  0.22960632397E+04  0.22960567307E+04 0.  0.
        5    1    3    3  502    0 -0.10854536754E+03  0.51028330744E+03 -0.10199011605E+04  0.11455966209E+04  0.46999998093E+01 0. -1.
       -5    1    3    3    0  502  0.10854536754E+03 -0.51028330744E+03  0.10253683242E+04  0.11504666188E+04  0.46999998093E+01 0.  1.
</event>
<event>
 5   0  0.2938972E-05  0.2435048E+04  0.7818609E-02  0.8426498E-01
        2   -1    0    0  501    0  0.00000000000E+00  0.00000000000E+00  0.14230297384E+04  0.14230297384E+04  0.25500000920E-02 0.  1.
       -2   -1    0    0    0  501  0.00000000000E+00  0.00000000000E+00 -0.10416959735E+04  0.10416959735E+04  0.25500000920E-02 0. -1.
    10030    2    1    2    0    0  0.00000000000E+00  0.00000000000E+00  0.38133376491E+03  0.24647257119E+04  0.24350477192E+04 0.  0.
        2    1    3    3  502    0 -0.66918673615E+03 -0.92367438006E+03  0.62174377249E+03  0.12990575687E+04  0.25500000920E-02 0.  1.
       -2    1    3    3    0  502  0.66918673615E+03  0.92367438006E+03 -0.24041000758E+03  0.11656681432E+04  0.25500000920E-02 0. -1.
</event>
<event>
 5   0  0.2938972E-05  0.2298773E+04  0.7818609E-02  0.8478405E-01
       -2   -1    0    0    0  501  0.00000000000E+00  0.00000000000E+00  0.10635321980E+04  0.10635321980E+04  0.25500000920E-02 0.  1.
        2   -1    0    0  501    0  0.00000000000E+00  0.00000000000E+00 -0.12421714735E+04  0.12421714735E+04  0.25500000920E-02 0. -1.
    10030    2    1    2    0    0  0.00000000000E+00  0.00000000000E+00 -0.17863927545E+03  0.23057036715E+04  0.22987730271E+04 0.  0.
        2    1    3    3  502    0  0.21181113736E+03  0.11351489834E+03 -0.12166922549E+04  0.12401974171E+04  0.25500000920E-02 0. -1.
       -2    1    3    3    0  502 -0.21181113736E+03 -0.11351489834E+03  0.10380529795E+04  0.10655062545E+04  0.25500000920E-02 0.  1.
</event>
<event>
 5   0  0.1371753E-05  0.2281410E+04  0.7818609E-02  0.8485287E-01
       -1   -1    0    0    0  501  0.00000000000E+00  0.00000000000E+00  0.13017521569E+04  0.13017521569E+04  0.50400001928E-02 0.  1.
        1   -1    0    0  501    0  0.00000000000E+00  0.00000000000E+00 -0.99958161302E+03  0.99958161304E+03  0.50400001928E-02 0. -1.
    10030    2    1    2    0    0  0.00000000000E+00  0.00000000000E+00  0.30217054384E+03  0.23013337699E+04  0.22814096701E+04 0.  0.
        3    1    3    3  502    0  0.34646611583E+03  0.92626321201E+03  0.72456161107E+03  0.12259656789E+04  0.10100000352E+00 0.  1.
       -3    1    3    3    0  502 -0.34646611583E+03 -0.92626321201E+03 -0.42239106723E+03  0.10753680910E+04  0.10100000352E+00 0. -1.
</event>
<event>
 5   0  0.2910126E-05  0.2339245E+04  0.7818609E-02  0.8462606E-01
        2   -1    0    0  501    0  0.00000000000E+00  0.00000000000E+00  0.17798711854E+04  0.17798711854E+04  0.25500000920E-02 0.  1.
       -2   -1    0    0    0  501  0.00000000000E+00  0.00000000000E+00 -0.76860459226E+03  0.76860459226E+03  0.25500000920E-02 0. -1.
    10030    2    1    2    0    0  0.00000000000E+00  0.00000000000E+00  0.10112665931E+04  0.25484757777E+04  0.23392453199E+04 0.  0.
        5    1    3    3  502    0  0.10340740350E+04 -0.38603501652E+03  0.84167955445E+02  0.11069952478E+04  0.46999998093E+01 0. -1.
       -5    1    3    3    0  502 -0.10340740350E+04  0.38603501652E+03  0.92709863770E+03  0.14414805299E+04  0.46999998093E+01 0.  1.
</event>
<event>
 5   0  0.1284837E-05  0.2293542E+04  0.7818609E-02  0.8480472E-01
       -1   -1    0    0    0  501  0.00000000000E+00  0.00000000000E+00  0.10473836117E+04  0.10473836117E+04  0.50400001928E-02 0.  1.
        1   -1    0    0  501    0  0.00000000000E+00  0.00000000000E+00 -0.12555893690E+04  0.12555893690E+04  0.50400001928E-02 0. -1.
    10030    2    1    2    0    0  0.00000000000E+00  0.00000000000E+00 -0.20820575729E+03  0.23029729806E+04  0.22935420014E+04 0.  0.
        4    1    3    3  502    0  0.30060740403E+03  0.10623188327E+04 -0.41553302870E+03  0.11796420748E+04  0.12699999809E+01 0. -1.
       -4    1    3    3    0  502 -0.30060740403E+03 -0.10623188327E+04  0.20732727141E+03  0.11233309059E+04  0.12699999809E+01 0.  1.
</event>
<event>
 5   0  0.2938972E-05  0.2296667E+04  0.7818609E-02  0.8479237E-01
        2   -1    0    0  501    0  0.00000000000E+00  0.00000000000E+00  0.16109944349E+04  0.16109944349E+04  0.25500000920E-02 0. -1.
       -2   -1    0    0    0  501  0.00000000000E+00  0.00000000000E+00 -0.81854377404E+03  0.81854377405E+03  0.25500000920E-02 0.  1.
    10030    2    1    2    0    0  0.00000000000E+00  0.00000000000E+00  0.79245066088E+03  0.24295382090E+04  0.22966666843E+04 0.  0.
        2    1    3    3  502    0 -0.89805959823E+03 -0.16637992015E+03  0.11325374719E+04  0.14549345157E+04  0.25500000920E-02 0. -1.
       -2    1    3    3    0  502  0.89805959823E+03  0.16637992015E+03 -0.34008681104E+03  0.97460369323E+03  0.25500000920E-02 0.  1.
</event>
<event>
 5   0  0.1308224E-05  0.2301981E+04  0.7818609E-02  0.8477140E-01
       -1   -1    0    0    0  501  0.00000000000E+00  0.00000000000E+00  0.68723346683E+03  0.68723346685E+03  0.50400001928E-02 0.  1.
        1   -1    0    0  501    0  0.00000000000E+00  0.00000000000E+00 -0.19276991615E+04  0.19276991615E+04  0.50400001928E-02 0. -1.
    10030    2    1    2    0    0  0.00000000000E+00  0.00000000000E+00 -0.12404656947E+04  0.26149326284E+04  0.23019812144E+04 0.  0.
        5    1    3    3  502    0 -0.55528346088E+03 -0.93451024074E+02  0.52007210920E+03  0.76653108521E+03  0.46999998093E+01 0.  1.
       -5    1    3    3    0  502  0.55528346088E+03  0.93451024074E+02 -0.17605378039E+04  0.18484015432E+04  0.46999998093E+01 0. -1.
</event>
<event>
 5   0  0.1017200E-05  0.2316025E+04  0.7818609E-02  0.8471629E-01
       -3   -1    0    0    0  501  0.00000000000E+00  0.00000000000E+00  0.11423170334E+04  0.11423170379E+04  0.10100000352E+00 0.  1.
        3   -1    0    0  501    0  0.00000000000E+00  0.00000000000E+00 -0.11739235467E+04  0.11739235510E+04  0.10100000352E+00 0. -1.
    10030    2    1    2    0    0  0.00000000000E+00  0.00000000000E+00 -0.31606513279E+02  0.23162405889E+04  0.23160249338E+04 0.  0.
        4    1    3    3  502    0  0.64752722076E+03 -0.41199336998E+03  0.85143446468E+03  0.11462863076E+04  0.12699999809E+01 0.  1.
       -4    1    3    3    0  502 -0.64752722076E+03  0.41199336998E+03 -0.88304097796E+03  0.11699542812E+04  0.12699999809E+01 0. -1.
</event>
<event>
 5   0  0.1303224E-05  0.2308577E+04  0.7818609E-02  0.8474547E-01
        1   -1    0    0  501    0  0.00000000000E+00  0.00000000000E+00  0.15780840369E+04  0.15780840370E+04  0.50400001928E-02 0. -1.
       -1   -1    0    0    0  501  0.00000000000E+00  0.00000000000E+00 -0.84430358605E+03  0.84430358606E+03  0.50400001928E-02 0.  1.
    10030    2    1    2    0    0  0.00000000000E+00  0.00000000000E+00  0.73378045090E+03  0.24223876230E+04  0.23085770609E+04 0.  0.
        2    1    3    3  502    0 -0.77272817118E+03  0.84316908463E+03  0.53059122802E+03  0.12607814970E+04  0.25500000920E-02 0. -1.
       -2    1    3    3    0  502  0.77272817118E+03 -0.84316908463E+03  0.20318922288E+03  0.11616061261E+04  0.25500000920E-02 0.  1.
</event>
<event>
 5   0  0.1308224E-05  0.2303460E+04  0.7818609E-02  0.8476558E-01
       -1   -1    0    0    0  501  0.00000000000E+00  0.00000000000E+00  0.16847795704E+04  0.16847795704E+04  0.50400001928E-02 0. -1.
        1   -1    0    0  501    0  0.00000000000E+00  0.00000000000E+00 -0.78733248160E+03  0.78733248162E+03  0.50400001928E-02 0.  1.
    10030    2    1    2    0    0  0.00000000000E+00  0.00000000000E+00  0.89744708880E+03  0.24721120520E+04  0.23034597284E+04 0.  0.
        5    1    3    3  502    0 -0.68376482883E+03 -0.47757583035E+03  0.13011352459E+04  0.15455057532E+04  0.46999998093E+01 0. -1.
       -5    1    3    3    0  502  0.68376482883E+03  0.47757583035E+03 -0.40368815713E+03  0.92660629886E+03  0.46999998093E+01 0.  1.
</event>
<event>
 5   0  0.2938972E-05  0.2330040E+04  0.7818609E-02  0.8466170E-01
        2   -1    0    0  501    0  0.00000000000E+00  0.00000000000E+00  0.15145517999E+04  0.15145517999E+04  0.25500000920E-02 0.  1.
       -2   -1    0    0    0  501  0.00000000000E+00  0.00000000000E+00 -0.89615428103E+03  0.89615428103E+03  0.25500000920E-02 0. -1.
    10030    2    1    2    0    0  0.00000000000E+00  0.00000000000E+00  0.61839751886E+03  0.24107060809E+04  0.23300404111E+04 0.  0.
        2    1    3    3  502    0  0.11428207149E+04  0.21599233591E+03  0.37921893746E+03  0.12233147093E+04  0.25500000920E-02 0. -1.
       -2    1    3    3    0  502 -0.11428207149E+04 -0.21599233591E+03  0.23917858141E+03  0.11873913716E+04  0.25500000920E-02 0.  1.
</event>
<event>
 5   0  0.2938972E-05  0.2276744E+04  0.7818609E-02  0.8487148E-01
       -2   -1    0    0    0  501  0.00000000000E+00  0.00000000000E+00  0.87564626341E+03  0.87564626341E+03  0.25500000920E-02 0. -1.
        2   -1    0    0  501    0  0.00000000000E+00  0.00000000000E+00 -0.14799245117E+04  0.14799245117E+04  0.25500000920E-02 0.  1.
    10030    2    1    2    0    0  0.00000000000E+00  0.00000000000E+00 -0.60427824831E+03  0.23555707751E+04  0.22767436121E+04 0.  0.
        2    1    3    3  502    0 -0.80818676514E+03 -0.31287407739E+03 -0.10658241310E+04  0.13736946946E+04  0.25500000920E-02 0.  1.
       -2    1    3    3    0  502  0.80818676514E+03  0.31287407739E+03  0.46154588273E+03  0.98187608053E+03  0.25500000920E-02 0. -1.
</event>
<event>
 5   0  0.1284837E-05  0.2305194E+04  0.7818609E-02  0.8475876E-01
       -1   -1    0    0    0  501  0.00000000000E+00  0.00000000000E+00  0.76788697314E+03  0.76788697316E+03  0.50400001928E-02 0. -1.
        1   -1    0    0  501    0  0.00000000000E+00  0.00000000000E+00 -0.17300459048E+04  0.17300459048E+04  0.50400001928E-02 0.  1.
    10030    2    1    2    0    0  0.00000000000E+00  0.00000000000E+00 -0.96215893170E+03  0.24979328780E+04  0.23051938862E+04 0.  0.
        4    1    3    3  502    0  0.57928323979E+03 -0.57416020270E+03 -0.13635732124E+04  0.15888871982E+04  0.12699999809E+01 0.  1.
       -4    1    3    3    0  502 -0.57928323979E+03  0.57416020270E+03  0.40141428069E+03  0.90904567977E+03  0.12699999809E+01 0. -1.
</event>
<event>
 5   0  0.2994157E-05  0.2262848E+04  0.7818609E-02  0.8492715E-01
       -2   -1    0    0    0  501  0.00000000000E+00  0.00000000000E+00  0.73499073343E+03  0.73499073343E+03  0.25500000920E-02 0.  1.
        2   -1    0    0  501    0  0.00000000000E+00  0.00000000000E+00 -0.17416826533E+04  0.17416826533E+04  0.25500000920E-02 0. -1.
    10030    2    1    2    0    0  0.00000000000E+00  0.00000000000E+00 -0.10066919199E+04  0.24766733867E+04  0.22628483031E+04 0.  0.
        4    1    3    3  502    0 -0.70843707734E+03  0.83044806315E+03 -0.17757651111E+03  0.11059213843E+04  0.12699999809E+01 0.  1.
       -4    1    3    3    0  502  0.70843707734E+03 -0.83044806315E+03 -0.82911540878E+03  0.13707520024E+04  0.12699999809E+01 0. -1.
</event>
<event>
 5   0  0.1017200E-05  0.2350369E+04  0.7818609E-02  0.8458322E-01
        3   -1    0    0  501    0  0.00000000000E+00  0.00000000000E+00  0.14854678694E+04  0.14854678729E+04  0.10100000352E+00 0.  1.
       -3   -1    0    0    0  501  0.00000000000E+00  0.00000000000E+00 -0.92971325903E+03  0.92971326452E+03  0.10100000352E+00 0. -1.
    10030    2    1    2    0    0  0.00000000000E+00  0.00000000000E+00  0.55575461042E+03  0.24151811374E+04  0.23503694900E+04 0.  0.
        5    1    3    3  502    0  0.23719362652E+03  0.89769642765E+03  0.10181004921E+04  0.13779224922E+04  0.46999998093E+01 0.  1.
       -5    1    3    3    0  502 -0.23719362652E+03 -0.89769642765E+03 -0.46234588166E+03  0.10372586452E+04  0.46999998093E+01 0. -1.
</event>
<event>
 5   0  0.1017200E-05  0.2294567E+04  0.7818609E-02  0.8480066E-01
        3   -1    0    0  501    0  0.00000000000E+00  0.00000000000E+00  0.15285932391E+04  0.15285932424E+04  0.10100000352E+00 0. -1.
       -3   -1    0    0    0  501  0.00000000000E+00  0.00000000000E+00 -0.86109181431E+03  0.86109182024E+03  0.10100000352E+00 0.  1.
    10030    2    1    2    0    0  0.00000000000E+00  0.00000000000E+00  0.66750142480E+03  0.23896850627E+04  0.22945667449E+04 0.  0.
        4    1    3    3  502    0 -0.30709256190E+03  0.86206397916E+02 -0.81398616025E+03  0.87424965919E+03  0.12699999809E+01 0.  1.
       -4    1    3    3    0  502  0.30709256190E+03 -0.86206397916E+02  0.14814875850E+04  0.15154354035E+04  0.12699999809E+01 0. -1.
</event>
<event>
 5   0  0.1371753E-05  0.2299300E+04  0.7818609E-02  0.8478197E-01
        1   -1    0    0  501    0  0.00000000000E+00  0.00000000000E+00  0.14623731629E+04  0.14623731629E+04  0.50400001928E-02 0.  1.
       -1   -1    0    0    0  501  0.00000000000E+00  0.00000000000E+00 -0.90380133039E+03  0.90380133041E+03  0.50400001928E-02 0. -1.
    10030    2    1    2    0    0  0.00000000000E+00  0.00000000000E+00  0.55857183255E+03  0.23661744934E+04  0.22992997284E+04 0.  0.
        3    1    3    3  502    0 -0.22484368888E+03  0.94402777487E+03 -0.35504424625E+03  0.10333438688E+04  0.10100000352E+00 0. -1.
       -3    1    3    3    0  502  0.22484368888E+03 -0.94402777487E+03  0.91361607879E+03  0.13328306246E+04  0.10100000352E+00 0.  1.
</event>
<event>
 5   0  0.2938972E-05  0.2295697E+04  0.7818609E-02  0.8479620E-01
       -2   -1    0    0    0  501  0.00000000000E+00  0.00000000000E+00  0.10123566346E+04  0.10123566346E+04  0.25500000920E-02 0.  1.
        2   -1    0    0  501    0  0.00000000000E+00  0.00000000000E+00 -0.13014740146E+04  0.13014740146E+04  0.25500000920E-02 0. -1.
    10030    2    1    2    0    0  0.00000000000E+00  0.00000000000E+00 -0.28911737995E+03  0.23138306492E+04  0.22956967164E+04 0.  0.
        2    1    3    3  502    0 -0.85451524985E+03 -0.15241849426E+03 -0.90157622590E+03  0.12515060530E+04  0.25500000920E-02 0. -1.
       -2    1    3    3    0  502  0.85451524985E+03  0.15241849426E+03  0.61245884595E+03  0.10623245962E+04  0.25500000920E-02 0.  1.
</event>
<event>
 5   0  0.1327820E-05  0.2298403E+04  0.7818609E-02  0.8478551E-01
        1   -1    0    0  501    0  0.00000000000E+00  0.00000000000E+00  0.17834913222E+04  0.17834913222E+04  0.50400001928E-02 0. -1.
       -1   -1    0    0    0  501  0.00000000000E+00  0.00000000000E+00 -0.74049386218E+03  0.74049386219E+03  0.50400001928E-02 0.  1.
    10030    2    1    2    0    0  0.00000000000E+00  0.00000000000E+00  0.10429974600E+04  0.25239851844E+04  0.22984032522E+04 0.  0.
        1    1    3    3  502    0 -0.38383547995E+03 -0.10827055233E+04  0.48535230671E+03  0.12470556473E+04  0.50400001928E-02 0.  1.
       -1    1    3    3    0  502  0.38383547995E+03  0.10827055233E+04  0.55764515334E+03  0.12769295371E+04  0.50400001928E-02 0. -1.
</event>
<event>
 5   0  0.2938972E-05  0.2062082E+04  0.7818609E-02  0.8578133E-01
       -2   -1    0    0    0  501  0.00000000000E+00  0.00000000000E+00  0.93282793624E+03  0.93282793624E+03  0.25500000920E-02 0. -1.
        2   -1    0    0  501    0  0.00000000000E+00  0.00000000000E+00 -0.11395949669E+04  0.11395949669E+04  0.25500000920E-02 0.  1.
    10030    2    1    2    0    0  0.00000000000E+00  0.00000000000E+00 -0.20676703067E+03  0.20724229031E+04  0.20620824631E+04 0.  0.
        2    1    3    3  502    0  0.63311175928E+03 -0.18076025713E+03  0.69403157623E+03  0.95665281012E+03  0.25500000920E-02 0. -1.
       -2    1    3    3    0  502 -0.63311175928E+03  0.18076025713E+03 -0.90079860690E+03  0.11157700930E+04  0.25500000920E-02 0.  1.
</event>
<event>
 5   0  0.2938972E-05  0.2310233E+04  0.7818609E-02  0.8473897E-01
        2   -1    0    0  501    0  0.00000000000E+00  0.00000000000E+00  0.12085559218E+04  0.12085559218E+04  0.25500000920E-02 0.  1.
       -2   -1    0    0    0  501  0.00000000000E+00  0.00000000000E+00 -0.11040397077E+04  0.11040397077E+04  0.25500000920E-02 0. -1.
    10030    2    1    2    0    0  0.00000000000E+00  0.00000000000E+00  0.10451621411E+03  0.23125956295E+04  0.23102326521E+04 0.  0.
        2    1    3    3  502    0 -0.10134046248E+04 -0.41972600395E+00  0.60717574036E+03  0.11813769464E+04  0.25500000920E-02 0.  1.
       -2    1    3    3    0  502  0.10134046248E+04  0.41972600395E+00 -0.50265952624E+03  0.11312186832E+04  0.25500000920E-02 0. -1.
</event>
<event>
 5   0  0.1371753E-05  0.2293046E+04  0.7818609E-02  0.8480668E-01
       -1   -1    0    0    0  501  0.00000000000E+00  0.00000000000E+00  0.10123892301E+04  0.10123892302E+04  0.50400001928E-02 0. -1.
        1   -1    0    0  501    0  0.00000000000E+00  0.00000000000E+00 -0.12984285031E+04  0.12984285031E+04  0.50400001928E-02 0.  1.
    10030    2    1    2    0    0  0.00000000000E+00  0.00000000000E+00 -0.28603927298E+03  0.23108177333E+04  0.22930460377E+04 0.  0.
        3    1    3    3  502    0  0.12998006269E+03  0.10957484950E+04 -0.45680957310E+03  0.11942506342E+04  0.10100000352E+00 0. -1.
       -3    1    3    3    0  502 -0.12998006269E+03 -0.10957484950E+04  0.17077030012E+03  0.11165670991E+04  0.10100000352E+00 0.  1.
</event>
<event>
 5   0  0.1327820E-05  0.2295296E+04  0.7818609E-02  0.8479778E-01
       -1   -1    0    0    0  501  0.00000000000E+00  0.00000000000E+00  0.13082953602E+04  0.13082953602E+04  0.50400001928E-02 0.  1.
        1   -1    0    0  501    0  0.00000000000E+00  0.00000000000E+00 -0.10067264609E+04  0.10067264610E+04  0.50400001928E-02 0. -1.
    10030    2    1    2    0    0  0.00000000000E+00  0.00000000000E+00  0.30156889927E+03  0.23150218212E+04  0.22952956741E+04 0.  0.
        1    1    3    3  502    0 -0.58195996852E+03  0.80316314405E+03  0.73310860106E+03  0.12333680156E+04  0.50400001928E-02 0.  1.
       -1    1    3    3    0  502  0.58195996852E+03 -0.80316314405E+03 -0.43153970179E+03  0.10816538056E+04  0.50400001928E-02 0. -1.
</event>
<event>
 5   0  0.1371753E-05  0.2288975E+04  0.7818609E-02  0.8482281E-01
       -1   -1    0    0    0  501  0.00000000000E+00  0.00000000000E+00  0.61915838667E+03  0.61915838669E+03  0.50400001928E-02 0. -1.
        1   -1    0    0  501    0  0.00000000000E+00  0.00000000000E+00 -0.21155356136E+04  0.21155356136E+04  0.50400001928E-02 0.  1.
    10030    2    1    2    0    0  0.00000000000E+00  0.00000000000E+00 -0.14963772269E+04  0.27346940003E+04  0.22889749824E+04 0.  0.
        3    1    3    3  502    0 -0.22580696428E+03  0.97443513791E+03 -0.14126733650E+04  0.17309415558E+04  0.10100000352E+00 0.  1.
       -3    1    3    3    0  502  0.22580696428E+03 -0.97443513791E+03 -0.83703861889E+02  0.10037524445E+04  0.10100000352E+00 0. -1.
</event>
<event>
 5   0  0.1017200E-05  0.2286530E+04  0.7818609E-02  0.8483251E-01
        3   -1    0    0  501    0  0.00000000000E+00  0.00000000000E+00  0.82874903324E+03  0.82874903939E+03  0.10100000352E+00 0.  1.
       -3   -1    0    0    0  501  0.00000000000E+00  0.00000000000E+00 -0.15771416113E+04  0.15771416145E+04  0.10100000352E+00 0. -1.
    10030    2    1    2    0    0  0.00000000000E+00  0.00000000000E+00 -0.74839257804E+03  0.24058906539E+04  0.22865297697E+04 0.  0.
        3    1    3    3  502    0  0.74372345733E+03  0.31990664425E+03 -0.12235452213E+04  0.14671495359E+04  0.10100000352E+00 0. -1.
       -3    1    3    3    0  502 -0.74372345733E+03 -0.31990664425E+03  0.47515264325E+03  0.93874111798E+03  0.10100000352E+00 0.  1.
</event>
<event>
 5   0  0.1284837E-05  0.2318462E+04  0.7818609E-02  0.8470677E-01
        1   -1    0    0  501    0  0.00000000000E+00  0.00000000000E+00  0.12093987131E+04  0.12093987131E+04  0.50400001928E-02 0. -1.
       -1   -1    0    0    0  501  0.00000000000E+00  0.00000000000E+00 -0.11111444679E+04  0.11111444679E+04  0.50400001928E-02 0.  1.
    10030    2    1    2    0    0  0.00000000000E+00  0.00000000000E+00  0.98254245206E+02  0.23205431810E+04  0.23184621537E+04 0.  0.
        4    1    3    3  502    0 -0.35551735209E+03 -0.83878396490E+03 -0.66835935185E+03  0.11298924566E+04  0.12699999809E+01 0.  1.
       -4    1    3    3    0  502  0.35551735209E+03  0.83878396490E+03  0.76661359706E+03  0.11906507244E+04  0.12699999809E+01 0. -1.
</event>
<event>
 5   0  0.1284837E-05  0.2301518E+04  0.7818609E-02  0.8477323E-01
       -1   -1    0    0    0  501  0.00000000000E+00  0.00000000000E+00  0.93425030851E+03  0.93425030852E+03  0.50400001928E-02 0.  1.
        1   -1    0    0  501    0  0.00000000000E+00  0.00000000000E+00 -0.14174425698E+04  0.14174425698E+04  0.50400001928E-02 0. -1.
    10030    2    1    2    0    0  0.00000000000E+00  0.00000000000E+00 -0.48319226129E+03  0.23516928783E+04  0.23015178975E+04 0.  0.
        4    1    3    3  502    0  0.19062871112E+03 -0.20127567493E+03 -0.13828124105E+04  0.14103272593E+04  0.12699999809E+01 0. -1.
       -4    1    3    3    0  502 -0.19062871112E+03  0.20127567493E+03  0.89962014923E+03  0.94136561900E+03  0.12699999809E+01 0.  1.
</event>
<event>
 5   0  0.2816178E-05  0.2330376E+04  0.7818609E-02  0.8466040E-01
        2   -1    0    0  501    0  0.00000000000E+00  0.00000000000E+00  0.18881603686E+04  0.18881603687E+04  0.25500000920E-02 0.  1.
       -2   -1    0    0    0  501  0.00000000000E+00  0.00000000000E+00 -0.71904032659E+03  0.71904032659E+03  0.25500000920E-02 0. -1.
    10030    2    1    2    0    0  0.00000000000E+00  0.00000000000E+00  0.11691200421E+04  0.26072006952E+04  0.23303763199E+04 0.  0.
        1    1    3    3  502    0  0.59858545700E+03  0.99959363897E+03  0.59920957381E+03  0.13101694951E+04  0.50400001928E-02 0.  1.
       -1    1    3    3    0  502 -0.59858545700E+03 -0.99959363897E+03  0.56991046825E+03  0.12970312002E+04  0.50400001928E-02 0. -1.
</event>
<event>
 5   0  0.2871888E-05  0.2288287E+04  0.7818609E-02  0.8482554E-01
       -2   -1    0    0    0  501  0.00000000000E+00  0.00000000000E+00  0.95884902599E+03  0.95884902599E+03  0.25500000920E-02 0.  1.
        2   -1    0    0  501    0  0.00000000000E+00  0.00000000000E+00 -0.13652459740E+04  0.13652459740E+04  0.25500000920E-02 0. -1.
    10030    2    1    2    0    0  0.00000000000E+00  0.00000000000E+00 -0.40639694799E+03  0.23240950000E+04  0.22882873704E+04 0.  0.
        3    1    3    3  502    0  0.46721323649E+02 -0.20241835099E+03 -0.13459307750E+04  0.13618684709E+04  0.10100000352E+00 0. -1.
       -3    1    3    3    0  502 -0.46721323649E+02  0.20241835099E+03  0.93953382700E+03  0.96222652903E+03  0.10100000352E+00 0.  1.
</event>
<event>
 5   0  0.1017200E-05  0.2288575E+04  0.7818609E-02  0.8482440E-01
        3   -1    0    0  501    0  0.00000000000E+00  0.00000000000E+00  0.15952158832E+04  0.15952158864E+04  0.10100000352E+00 0. -1.
       -3   -1    0    0    0  501  0.00000000000E+00  0.00000000000E+00 -0.82082529663E+03  0.82082530284E+03  0.10100000352E+00 0.  1.
    10030    2    1    2    0    0  0.00000000000E+00  0.00000000000E+00  0.77439058657E+03  0.24160411892E+04  0.22885747197E+04 0.  0.
        4    1    3    3  502    0 -0.45149154142E+03  0.48854655605E+03 -0.59572007190E+03  0.89297612867E+03  0.12699999809E+01 0.  1.
       -4    1    3    3    0  502  0.45149154142E+03 -0.48854655605E+03  0.13701106585E+04  0.15230650606E+04  0.12699999809E+01 0. -1.
</event>
<event>
 5   0  0.2938972E-05  0.2314407E+04  0.7818609E-02  0.8472262E-01
        2   -1    0    0  501    0  0.00000000000E+00  0.00000000000E+00  0.12071205568E+04  0.12071205568E+04  0.25500000920E-02 0. -1.
       -2   -1    0    0    0  501  0.00000000000E+00  0.00000000000E+00 -0.11093507007E+04  0.11093507007E+04  0.25500000920E-02 0.  1.
    10030    2    1    2    0    0  0.00000000000E+00  0.00000000000E+00  0.97769856126E+02  0.23164712575E+04  0.23144070822E+04 0.  0.
        2    1    3    3  502    0  0.19568387768E+03 -0.11346869124E+04  0.16437183180E+03  0.11631099124E+04  0.25500000920E-02 0.  1.
       -2    1    3    3    0  502 -0.19568387768E+03  0.11346869124E+04 -0.66601975679E+02  0.11533613451E+04  0.25500000920E-02 0. -1.
</event>
<event>
 5   0  0.2994157E-05  0.2305334E+04  0.7818609E-02  0.8475821E-01
       -2   -1    0    0    0  501  0.00000000000E+00  0.00000000000E+00  0.93954706601E+03  0.93954706601E+03  0.25500000920E-02 0.  1.
        2   -1    0    0  501    0  0.00000000000E+00  0.00000000000E+00 -0.14141299682E+04  0.14141299682E+04  0.25500000920E-02 0. -1.
    10030    2    1    2    0    0  0.00000000000E+00  0.00000000000E+00 -0.47458290216E+03  0.23536770342E+04  0.23053343901E+04 0.  0.
        4    1    3    3  502    0  0.89328845065E+03  0.51827953883E+03 -0.75994639180E+03  0.12822238758E+04  0.12699999809E+01 0. -1.
       -4    1    3    3    0  502 -0.89328845065E+03 -0.51827953883E+03  0.28536348964E+03  0.10714531584E+04  0.12699999809E+01 0.  1.
</event>
<event>
 5   0  0.1284837E-05  0.2238836E+04  0.7818609E-02  0.8502435E-01
        1   -1    0    0  501    0  0.00000000000E+00  0.00000000000E+00  0.23320706299E+04  0.23320706300E+04  0.50400001928E-02 0. -1.
       -1   -1    0    0    0  501  0.00000000000E+00  0.00000000000E+00 -0.53733224890E+03  0.53733224892E+03  0.50400001928E-02 0.  1.
    10030    2    1    2    0    0  0.00000000000E+00  0.00000000000E+00  0.17947383810E+04  0.28694028789E+04  0.22388360871E+04 0.  0.
        4    1    3    3  502    0  0.29485273209E+03  0.88702082708E+03  0.10798234806E+03  0.94096008506E+03  0.12699999809E+01 0.  1.
       -4    1    3    3    0  502 -0.29485273209E+03 -0.88702082708E+03  0.16867560330E+04  0.19284427938E+04  0.12699999809E+01 0. -1.
</event>
<event>
 5   0  0.2910126E-05  0.2457576E+04  0.7818609E-02  0.8418257E-01
        2   -1    0    0  501    0  0.00000000000E+00  0.00000000000E+00  0.16271043712E+04  0.16271043712E+04  0.25500000920E-02 0.  1.
       -2   -1    0    0    0  501  0.00000000000E+00  0.00000000000E+00 -0.92797951523E+03  0.92797951523E+03  0.25500000920E-02 0. -1.
    10030    2    1    2    0    0  0.00000000000E+00  0.00000000000E+00  0.69912485601E+03  0.25550838865E+04  0.24575756555E+04 0.  0.
        5    1    3    3  502    0 -0.73327034510E+03  0.87851999031E+03  0.81500168811E+03  0.14048959442E+04  0.46999998093E+01 0. -1.
       -5    1    3    3    0  502  0.73327034510E+03 -0.87851999031E+03 -0.11587683210E+03  0.11501879423E+04  0.46999998093E+01 0.  1.
</event>
<event>
 5   0  0.2816178E-05  0.2301519E+04  0.7818609E-02  0.8477322E-01
        2   -1    0    0  501    0  0.00000000000E+00  0.00000000000E+00  0.17204459384E+04  0.17204459384E+04  0.25500000920E-02 0.  1.
       -2   -1    0    0    0  501  0.00000000000E+00  0.00000000000E+00 -0.76971204466E+03  0.76971204466E+03  0.25500000920E-02 0. -1.
    10030    2    1    2    0    0  0.00000000000E+00  0.00000000000E+00  0.95073389377E+03  0.24901579831E+04  0.23015194642E+04 0.  0.
        1    1    3    3  502    0  0.50339335127E+03  0.24665007700E+03  0.15627295813E+04  0.16602303668E+04  0.50400001928E-02 0.  1.
       -1    1    3    3    0  502 -0.50339335127E+03 -0.24665007700E+03 -0.61199568757E+03  0.82992761625E+03  0.50400001928E-02 0. -1.
</event>
<event>
 5   0  0.1284837E-05  0.2296240E+04  0.7818609E-02  0.8479405E-01
        1   -1    0    0  501    0  0.00000000000E+00  0.00000000000E+00  0.20146317277E+04  0.20146317277E+04  0.50400001928E-02 0. -1.
       -1   -1    0    0    0  501  0.00000000000E+00  0.00000000000E+00 -0.65430280797E+03  0.65430280799E+03  0.50400001928E-02 0.  1.
    10030    2    1    2    0    0  0.00000000000E+00  0.00000000000E+00  0.13603289197E+04  0.26689345357E+04  0.22962397057E+04 0.  0.
        4    1    3    3  502    0 -0.61857937630E+03  0.10385556268E+03  0.17978847677E+04  0.19041579959E+04  0.12699999809E+01 0. -1.
       -4    1    3    3    0  502  0.61857937630E+03 -0.10385556268E+03 -0.43755584800E+03  0.76477653972E+03  0.12699999809E+01 0.  1.
</event>
<event>
 5   0  0.1371753E-05  0.2293248E+04  0.7818609E-02  0.8480588E-01
        1   -1    0    0  501    0  0.00000000000E+00  0.00000000000E+00  0.11789879832E+04  0.11789879832E+04  0.50400001928E-02 0.  1.
       -1   -1    0    0    0  501  0.00000000000E+00  0.00000000000E+00 -0.11151482770E+04  0.11151482770E+04  0.50400001928E-02 0. -1.
    10030    2    1    2    0    0  0.00000000000E+00  0.00000000000E+00  0.63839706226E+02  0.22941362602E+04  0.22932478436E+04 0.  0.
        3    1    3    3  502    0 -0.87455143412E+03 -0.70864157663E+02  0.77036872220E+03  0.11676171967E+04  0.10100000352E+00 0.  1.
       -3    1    3    3    0  502  0.87455143412E+03  0.70864157663E+02 -0.70652901598E+03  0.11265190635E+04  0.10100000352E+00 0. -1.
</event>
<event>
 5   0  0.2994157E-05  0.2324510E+04  0.7818609E-02  0.8468319E-01
       -2   -1    0    0    0  501  0.00000000000E+00  0.00000000000E+00  0.57348472280E+03  0.57348472280E+03  0.25500000920E-02 0. -1.
        2   -1    0    0  501    0  0.00000000000E+00  0.00000000000E+00 -0.23554882948E+04  0.23554882948E+04  0.25500000920E-02 0.  1.
    10030    2    1    2    0    0  0.00000000000E+00  0.00000000000E+00 -0.17820035720E+04  0.29289730176E+04  0.23245098854E+04 0.  0.
        4    1    3    3  502    0 -0.47588055058E+03 -0.29433570140E+03 -0.21745969466E+04  0.22454329865E+04  0.12699999809E+01 0.  1.
       -4    1    3    3    0  502  0.47588055058E+03  0.29433570140E+03  0.39259337459E+03  0.68354003117E+03  0.12699999809E+01 0. -1.
</event>
<event>
 5   0  0.2871888E-05  0.2256762E+04  0.7818609E-02  0.8495167E-01
        2   -1    0    0  501    0  0.00000000000E+00  0.00000000000E+00  0.14997251876E+04  0.14997251876E+04  0.25500000920E-02 0.  1.
       -2   -1    0    0    0  501  0.00000000000E+00  0.00000000000E+00 -0.84898451638E+03  0.84898451639E+03  0.25500000920E-02 0. -1.
    10030    2    1    2    0    0  0.00000000000E+00  0.00000000000E+00  0.65074067121E+03  0.23487097040E+04  0.22567618067E+04 0.  0.
        3    1    3    3  502    0  0.36463018668E+03  0.75016294090E+03  0.11162967825E+04  0.13934913447E+04  0.10100000352E+00 0.  1.
       -3    1    3    3    0  502 -0.36463018668E+03 -0.75016294090E+03 -0.46555611129E+03  0.95521835928E+03  0.10100000352E+00 0. -1.
</event>
<event>
 5   0  0.2938972E-05  0.2290842E+04  0.7818609E-02  0.8481541E-01
        2   -1    0    0  501    0  0.00000000000E+00  0.00000000000E+00  0.83093445848E+03  0.83093445849E+03  0.25500000920E-02 0.  1.
       -2   -1    0    0    0  501  0.00000000000E+00  0.00000000000E+00 -0.15789324391E+04  0.15789324391E+04  0.25500000920E-02 0. -1.
    10030    2    1    2    0    0  0.00000000000E+00  0.00000000000E+00 -0.74799798065E+03  0.24098668976E+04  0.22908420909E+04 0.  0.
        2    1    3    3  502    0  0.98163703410E+03 -0.56767060718E+03 -0.20395842724E+03  0.11521546012E+04  0.25500000920E-02 0.  1.
       -2    1    3    3    0  502 -0.98163703410E+03  0.56767060718E+03 -0.54403955341E+03  0.12577122965E+04  0.25500000920E-02 0. -1.
</event>
<event>
 5   0  0.2938972E-05  0.2288386E+04  0.7818609E-02  0.8482515E-01
       -2   -1    0    0    0  501  0.00000000000E+00  0.00000000000E+00  0.93611536834E+03  0.93611536835E+03  0.25500000920E-02 0.  1.
        2   -1    0    0  501    0  0.00000000000E+00  0.00000000000E+00 -0.13985213617E+04  0.13985213617E+04  0.25500000920E-02 0. -1.
    10030    2    1    2    0    0  0.00000000000E+00  0.00000000000E+00 -0.46240599335E+03  0.23346367300E+04  0.22883857539E+04 0.  0.
        2    1    3    3  502    0 -0.66592736306E+03  0.93037688340E+03 -0.24223551350E+03  0.11695035024E+04  0.25500000920E-02 0. -1.
       -2    1    3    3    0  502  0.66592736306E+03 -0.93037688340E+03 -0.22017047985E+03  0.11651332277E+04  0.25500000920E-02 0.  1.
</event>
<event>
 5   0  0.2994157E-05  0.2295431E+04  0.7818609E-02  0.8479725E-01
        2   -1    0    0  501    0  0.00000000000E+00  0.00000000000E+00  0.15529822234E+04  0.15529822234E+04  0.25500000920E-02 0. -1.
       -2   -1    0    0    0  501  0.00000000000E+00  0.00000000000E+00 -0.84820697236E+03  0.84820697236E+03  0.25500000920E-02 0.  1.
    10030    2    1    2    0    0  0.00000000000E+00  0.00000000000E+00  0.70477525109E+03  0.24011891958E+04  0.22954305477E+04 0.  0.
        4    1    3    3  502    0  0.98535755518E+03  0.53620364192E+03  0.98717743484E+02  0.11261397173E+04  0.12699999809E+01 0.  1.
       -4    1    3    3    0  502 -0.98535755518E+03 -0.53620364192E+03  0.60605750760E+03  0.12750494785E+04  0.12699999809E+01 0. -1.
</event>
<event>
 5   0  0.2910126E-05  0.2295745E+04  0.7818609E-02  0.8479601E-01
       -2   -1    0    0    0  501  0.00000000000E+00  0.00000000000E+00  0.75716211867E+03  0.75716211867E+03  0.25500000920E-02 0.  1.
        2   -1    0    0  501    0  0.00000000000E+00  0.00000000000E+00 -0.17401974921E+04  0.17401974921E+04  0.25500000920E-02 0. -1.
    10030    2    1    2    0    0  0.00000000000E+00  0.00000000000E+00 -0.98303537344E+03  0.24973596108E+04  0.22957452995E+04 0.  0.
        5    1    3    3  502    0 -0.66264254769E+03  0.21963486392E+02  0.52779540702E+03  0.84744771073E+03  0.46999998093E+01 0.  1.
       -5    1    3    3    0  502  0.66264254769E+03 -0.21963486392E+02 -0.15108307805E+04  0.16499119001E+04  0.46999998093E+01 0. -1.
</event>
<event>
 5   0  0.2910126E-05  0.2311848E+04  0.7818609E-02  0.8473264E-01
        2   -1    0    0  501    0  0.00000000000E+00  0.00000000000E+00  0.42543990500E+03  0.42543990501E+03  0.25500000920E-02 0. -1.
       -2   -1    0    0    0  501  0.00000000000E+00  0.00000000000E+00 -0.31406554307E+04  0.31406554307E+04  0.25500000920E-02 0.  1.
    10030    2    1    2    0    0  0.00000000000E+00  0.00000000000E+00 -0.27152155257E+04  0.35660953357E+04  0.23118478740E+04 0.  0.
        5    1    3    3  502    0  0.10702850147E+04  0.16112458546E+03 -0.73166176225E+03  0.13064540440E+04  0.46999998093E+01 0. -1.
       -5    1    3    3    0  502 -0.10702850147E+04 -0.16112458546E+03 -0.19835537635E+04  0.22596412917E+04  0.46999998093E+01 0.  1.
</event>
<event>
 5   0  0.2871888E-05  0.2323661E+04  0.7818609E-02  0.8468650E-01
       -2   -1    0    0    0  501  0.00000000000E+00  0.00000000000E+00  0.70034203787E+03  0.70034203787E+03  0.25500000920E-02 0. -1.
        2   -1    0    0  501    0  0.00000000000E+00  0.00000000000E+00 -0.19274159338E+04  0.19274159338E+04  0.25500000920E-02 0.  1.
    10030    2    1    2    0    0  0.00000000000E+00  0.00000000000E+00 -0.12270738959E+04  0.26277579717E+04  0.23236612515E+04 0.  0.
        3    1    3    3  502    0 -0.24502336657E+03 -0.49926493539E+03  0.54003238800E+03  0.77520121012E+03  0.10100000352E+00 0. -1.
       -3    1    3    3    0  502  0.24502336657E+03  0.49926493539E+03 -0.17671062839E+04  0.18525567616E+04  0.10100000352E+00 0.  1.
</event>
<event>
 5   0  0.1327820E-05  0.2312304E+04  0.7818609E-02  0.8473086E-01
        1   -1    0    0  501    0  0.00000000000E+00  0.00000000000E+00  0.14724375459E+04  0.14724375459E+04  0.50400001928E-02 0.  1.
       -1   -1    0    0    0  501  0.00000000000E+00  0.00000000000E+00 -0.90780575049E+03  0.90780575050E+03  0.50400001928E-02 0. -1.
    10030    2    1    2    0    0  0.00000000000E+00  0.00000000000E+00  0.56463179540E+03  0.23802432964E+04  0.23123038480E+04 0.  0.
        1    1    3    3  502    0  0.41238878658E+03 -0.10375215104E+04  0.59142514695E+03  0.12634473081E+04  0.50400001928E-02 0.  1.
       -1    1    3    3    0  502 -0.41238878658E+03  0.10375215104E+04 -0.26793351554E+02  0.11167959883E+04  0.50400001928E-02 0. -1.
</event>
<event>
 5   0  0.1327820E-05  0.2312829E+04  0.7818609E-02  0.8472880E-01
        1   -1    0    0  501    0  0.00000000000E+00  0.00000000000E+00  0.11840193169E+04  0.11840193169E+04  0.50400001928E-02 0.  1.
       -1   -1    0    0    0  501  0.00000000000E+00  0.00000000000E+00 -0.11294533785E+04  0.11294533785E+04  0.50400001928E-02 0. -1.
    10030    2    1    2    0    0  0.00000000000E+00  0.00000000000E+00  0.54565938379E+02  0.23134726955E+04  0.23128291054E+04 0.  0.
        1    1    3    3  502    0 -0.80502836430E+03 -0.23116731747E+03 -0.77030057538E+03  0.11379244142E+04  0.50400001928E-02 0. -1.
       -1    1    3    3    0  502  0.80502836430E+03  0.23116731747E+03  0.82486651376E+03  0.11755482812E+04  0.50400001928E-02 0.  1.
</event>
<event>
 5   0  0.2938972E-05  0.2293402E+04  0.7818609E-02  0.8480527E-01
       -2   -1    0    0    0  501  0.00000000000E+00  0.00000000000E+00  0.75595148301E+03  0.75595148301E+03  0.25500000920E-02 0. -1.
        2   -1    0    0  501    0  0.00000000000E+00  0.00000000000E+00 -0.17394286819E+04  0.17394286819E+04  0.25500000920E-02 0.  1.
    10030    2    1    2    0    0  0.00000000000E+00  0.00000000000E+00 -0.98347719893E+03  0.24953801650E+04  0.22934024433E+04 0.  0.
        2    1    3    3  502    0 -0.24921074384E+03  0.89634498643E+03  0.23766002913E+03  0.96022008883E+03  0.25500000920E-02 0. -1.
       -2    1    3    3    0  502  0.24921074384E+03 -0.89634498643E+03 -0.12211372281E+04  0.15351600761E+04  0.25500000920E-02 0.  1.
</event>
<event>
 5   0  0.2994157E-05  0.2295552E+04  0.7818609E-02  0.8479677E-01
        2   -1    0    0  501    0  0.00000000000E+00  0.00000000000E+00  0.10222106897E+04  0.10222106897E+04  0.25500000920E-02 0.  1.
       -2   -1    0    0    0  501  0.00000000000E+00  0.00000000000E+00 -0.12887654402E+04  0.12887654402E+04  0.25500000920E-02 0. -1.
    10030    2    1    2    0    0  0.00000000000E+00  0.00000000000E+00 -0.26655475049E+03  0.23109761300E+04  0.22955520552E+04 0.  0.
        4    1    3    3  502    0  0.18460420681E+03  0.53977299660E+03  0.86938382869E+03  0.10398381872E+04  0.12699999809E+01 0.  1.
       -4    1    3    3    0  502 -0.18460420681E+03 -0.53977299660E+03 -0.11359385792E+04  0.12711379428E+04  0.12699999809E+01 0. -1.
</event>
<event>
 5   0  0.1308224E-05  0.2184152E+04  0.7818609E-02  0.8525053E-01
       -1   -1    0    0    0  501  0.00000000000E+00  0.00000000000E+00  0.59671174329E+03  0.59671174331E+03  0.50400001928E-02 0.  1.
        1   -1    0    0  501    0  0.00000000000E+00  0.00000000000E+00 -0.19986708903E+04  0.19986708903E+04  0.50400001928E-02 0. -1.
    10030    2    1    2    0    0  0.00000000000E+00  0.00000000000E+00 -0.14019591471E+04  0.25953826337E+04  0.21841523676E+04 0.  0.
        5    1    3    3  502    0  0.70331337763E+03 -0.40436690975E+03 -0.15696806840E+04  0.17669413812E+04  0.46999998093E+01 0. -1.
       -5    1    3    3    0  502 -0.70331337763E+03  0.40436690975E+03  0.16772153693E+03  0.82844125248E+03  0.46999998093E+01 0.  1.
</event>
<event>
 5   0  0.2816178E-05  0.2307407E+04  0.7818609E-02  0.8475006E-01
       -2   -1    0    0    0  501  0.00000000000E+00  0.00000000000E+00  0.56425262504E+03  0.56425262504E+03  0.25500000920E-02 0. -1.
        2   -1    0    0  501    0  0.00000000000E+00  0.00000000000E+00 -0.23589281062E+04  0.23589281062E+04  0.25500000920E-02 0.  1.
    10030    2    1    2    0    0  0.00000000000E+00  0.00000000000E+00 -0.17946754812E+04  0.29231807313E+04  0.23074066622E+04 0.  0.
        1    1    3    3  502    0 -0.59152818105E+03  0.65624489959E+03 -0.18372725404E+04  0.20386596932E+04  0.50400001928E-02 0.  1.
       -1    1    3    3    0  502  0.59152818105E+03 -0.65624489959E+03  0.42597059195E+02  0.88452103802E+03  0.50400001928E-02 0. -1.
</event>
<event>
 5   0  0.1308224E-05  0.2305212E+04  0.7818609E-02  0.8475869E-01
       -1   -1    0    0    0  501  0.00000000000E+00  0.00000000000E+00  0.95111141805E+03  0.95111141807E+03  0.50400001928E-02 0.  1.
        1   -1    0    0  501    0  0.00000000000E+00  0.00000000000E+00 -0.13967880912E+04  0.13967880912E+04  0.50400001928E-02 0. -1.
    10030    2    1    2    0    0  0.00000000000E+00  0.00000000000E+00 -0.44567667310E+03  0.23478995092E+04  0.23052124432E+04 0.  0.
        5    1    3    3  502    0  0.34665942047E+03 -0.93778644165E+03 -0.80692320686E+03  0.12848203437E+04  0.46999998093E+01 0. -1.
       -5    1    3    3    0  502 -0.34665942047E+03  0.93778644165E+03  0.36124653376E+03  0.10630791655E+04  0.46999998093E+01 0.  1.
</event>
<event>
 5   0  0.1284837E-05  0.2297909E+04  0.7818609E-02  0.8478746E-01
        1   -1    0    0  501    0  0.00000000000E+00  0.00000000000E+00  0.18120648918E+04  0.18120648918E+04  0.50400001928E-02 0. -1.
       -1   -1    0    0    0  501  0.00000000000E+00  0.00000000000E+00 -0.72850415724E+03  0.72850415725E+03  0.50400001928E-02 0.  1.
    10030    2    1    2    0    0  0.00000000000E+00  0.00000000000E+00  0.10835607346E+04  0.25405690491E+04  0.22979093167E+04 0.  0.
        4    1    3    3  502    0  0.67858803868E+02  0.66809594231E+03 -0.48894397617E+03  0.83067733214E+03  0.12699999809E+01 0.  1.
       -4    1    3    3    0  502 -0.67858803868E+02 -0.66809594231E+03  0.15725047107E+04  0.17098917169E+04  0.12699999809E+01 0. -1.
</event>
<event>
 5   0  0.1327820E-05  0.2286295E+04  0.7818609E-02  0.8483345E-01
       -1   -1    0    0    0  501  0.00000000000E+00  0.00000000000E+00  0.52458307843E+03  0.52458307845E+03  0.50400001928E-02 0.  1.
        1   -1    0    0  501    0  0.00000000000E+00  0.00000000000E+00 -0.24910942118E+04  0.24910942118E+04  0.50400001928E-02 0. -1.
    10030    2    1    2    0    0  0.00000000000E+00  0.00000000000E+00 -0.19665111334E+04  0.30156772903E+04  0.22862947057E+04 0.  0.
        1    1    3    3  502    0  0.53771594119E+03  0.89326750595E+03 -0.36497151716E+03  0.11046580824E+04  0.50400001928E-02 0.  1.
       -1    1    3    3    0  502 -0.53771594119E+03 -0.89326750595E+03 -0.16015396162E+04  0.19110192079E+04  0.50400001928E-02 0. -1.
</event>
<event>
 5   0  0.1327820E-05  0.2285670E+04  0.7818609E-02  0.8483593E-01
        1   -1    0    0  501    0  0.00000000000E+00  0.00000000000E+00  0.11556718741E+04  0.11556718741E+04  0.50400001928E-02 0.  1.
       -1   -1    0    0    0  501  0.00000000000E+00  0.00000000000E+00 -0.11301405172E+04  0.11301405173E+04  0.50400001928E-02 0. -1.
    10030    2    1    2    0    0  0.00000000000E+00  0.00000000000E+00  0.25531356876E+02  0.22858123914E+04  0.22856698008E+04 0.  0.
        1    1    3    3  502    0  0.23709198643E+03 -0.17270367416E+03 -0.10918540152E+04  0.11305681579E+04  0.50400001928E-02 0. -1.
       -1    1    3    3    0  502 -0.23709198643E+03  0.17270367416E+03  0.11173853721E+04  0.11552442335E+04  0.50400001928E-02 0.  1.
</event>
<event>
 5   0  0.1327820E-05  0.2305348E+04  0.7818609E-02  0.8475815E-01
       -1   -1    0    0    0  501  0.00000000000E+00  0.00000000000E+00  0.14285681717E+04  0.14285681717E+04  0.50400001928E-02 0.  1.
        1   -1    0    0  501    0  0.00000000000E+00  0.00000000000E+00 -0.93006220330E+03  0.93006220331E+03  0.50400001928E-02 0. -1.
    10030    2    1    2    0    0  0.00000000000E+00  0.00000000000E+00  0.49850596838E+03  0.23586303750E+04  0.23053479228E+04 0.  0.
        1    1    3    3  502    0  0.33354502251E+03 -0.53806927244E+03  0.12347851929E+04  0.13876113636E+04  0.50400001928E-02 0.  1.
       -1    1    3    3    0  502 -0.33354502251E+03  0.53806927244E+03 -0.73627922447E+03  0.97101901135E+03  0.50400001928E-02 0. -1.
</event>
<event>
 5   0  0.1303224E-05  0.2306727E+04  0.7818609E-02  0.8475273E-01
        1   -1    0    0  501    0  0.00000000000E+00  0.00000000000E+00  0.19731071022E+04  0.19731071023E+04  0.50400001928E-02 0. -1.
       -1   -1    0    0    0  501  0.00000000000E+00  0.00000000000E+00 -0.67418912234E+03  0.67418912236E+03  0.50400001928E-02 0.  1.
    10030    2    1    2    0    0  0.00000000000E+00  0.00000000000E+00  0.12989179799E+04  0.26472962246E+04  0.23067269848E+04 0.  0.
        2    1    3    3  502    0 -0.44631451587E+03 -0.50818664918E+03 -0.42270933697E+03  0.79757977723E+03  0.25500000920E-02 0.  1.
       -2    1    3    3    0  502  0.44631451587E+03  0.50818664918E+03  0.17216273169E+04  0.18497164474E+04  0.25500000920E-02 0. -1.
</event>
<event>
 5   0  0.1308224E-05  0.2282291E+04  0.7818609E-02  0.8484936E-01
       -1   -1    0    0    0  501  0.00000000000E+00  0.00000000000E+00  0.10187584443E+04  0.10187584443E+04  0.50400001928E-02 0.  1.
        1   -1    0    0  501    0  0.00000000000E+00  0.00000000000E+00 -0.12782354720E+04  0.12782354720E+04  0.50400001928E-02 0. -1.
    10030    2    1    2    0    0  0.00000000000E+00  0.00000000000E+00 -0.25947702769E+03  0.22969939164E+04  0.22822911129E+04 0.  0.
        5    1    3    3  502    0  0.67999958540E+03 -0.65743791053E+03  0.51278398258E+03  0.10759152128E+04  0.46999998093E+01 0. -1.
       -5    1    3    3    0  502 -0.67999958540E+03  0.65743791053E+03 -0.77226101027E+03  0.12210787036E+04  0.46999998093E+01 0.  1.
</event>
<event>
 5   0  0.2871888E-05  0.2297418E+04  0.7818609E-02  0.8478940E-01
        2   -1    0    0  501    0  0.00000000000E+00  0.00000000000E+00  0.18289178042E+04  0.18289178042E+04  0.25500000920E-02 0. -1.
       -2   -1    0    0    0  501  0.00000000000E+00  0.00000000000E+00 -0.72148289832E+03  0.72148289833E+03  0.25500000920E-02 0.  1.
    10030    2    1    2    0    0  0.00000000000E+00  0.00000000000E+00  0.11074349059E+04  0.25504007025E+04  0.22974184801E+04 0.  0.
        3    1    3    3  502    0 -0.23440186838E+03  0.59497924911E+03  0.16130427845E+04  0.17351805605E+04  0.10100000352E+00 0. -1.
       -3    1    3    3    0  502  0.23440186838E+03 -0.59497924911E+03 -0.50560787864E+03  0.81522014199E+03  0.10100000352E+00 0.  1.
</event>
<event>
 5   0  0.1371753E-05  0.2313561E+04  0.7818609E-02  0.8472593E-01
       -1   -1    0    0    0  501  0.00000000000E+00  0.00000000000E+00  0.83267421048E+03  0.83267421050E+03  0.50400001928E-02 0. -1.
        1   -1    0    0  501    0  0.00000000000E+00  0.00000000000E+00 -0.16070404730E+04  0.16070404730E+04  0.50400001928E-02 0.  1.
    10030    2    1    2    0    0  0.00000000000E+00  0.00000000000E+00 -0.77436626253E+03  0.24397146835E+04  0.23135610276E+04 0.  0.
        3    1    3    3  502    0 -0.56477385030E+03 -0.90024673033E+03 -0.86896215146E+03  0.13727741651E+04  0.10100000352E+00 0.  1.
       -3    1    3    3    0  502  0.56477385030E+03  0.90024673033E+03  0.94595888933E+02  0.10669405184E+04  0.10100000352E+00 0. -1.
</event>
<event>
 5   0  0.1303224E-05  0.2298472E+04  0.7818609E-02  0.8478524E-01
       -1   -1    0    0    0  501  0.00000000000E+00  0.00000000000E+00  0.84432388350E+03  0.84432388351E+03  0.50400001928E-02 0. -1.
        1   -1    0    0  501    0  0.00000000000E+00  0.00000000000E+00 -0.15642617428E+04  0.15642617428E+04  0.50400001928E-02 0.  1.
    10030    2    1    2    0    0  0.00000000000E+00  0.00000000000E+00 -0.71993785925E+03  0.24085856263E+04  0.22984721443E+04 0.  0.
        2    1    3    3  502    0  0.69140090984E+02 -0.90795087318E+02  0.83837129350E+03  0.84610314137E+03  0.25500000920E-02 0. -1.
       -2    1    3    3    0  502 -0.69140090984E+02  0.90795087318E+02 -0.15583091528E+04  0.15624824849E+04  0.25500000920E-02 0.  1.
</event>
<event>
 5   0  0.2910126E-05  0.2304015E+04  0.7818609E-02  0.8476340E-01
        2   -1    0    0  501    0  0.00000000000E+00  0.00000000000E+00  0.13000577148E+04  0.13000577148E+04  0.25500000920E-02 0.  1.
       -2   -1    0    0    0  501  0.00000000000E+00  0.00000000000E+00 -0.10208168415E+04  0.10208168415E+04  0.25500000920E-02 0. -1.
    10030    2    1    2    0    0  0.00000000000E+00  0.00000000000E+00  0.27924087325E+03  0.23208745563E+04  0.23040145921E+04 0.  0.
        5    1    3    3  502    0  0.11070943644E+04  0.65433175478E+02 -0.17436434868E+03  0.11226595424E+04  0.46999998093E+01 0. -1.
       -5    1    3    3    0  502 -0.11070943644E+04 -0.65433175478E+02  0.45360522193E+03  0.11982150139E+04  0.46999998093E+01 0.  1.
</event>
<event>
 5   0  0.2871888E-05  0.2302318E+04  0.7818609E-02  0.8477008E-01
       -2   -1    0    0    0  501  0.00000000000E+00  0.00000000000E+00  0.76268213530E+03  0.76268213531E+03  0.25500000920E-02 0. -1.
        2   -1    0    0  501    0  0.00000000000E+00  0.00000000000E+00 -0.17375082263E+04  0.17375082263E+04  0.25500000920E-02 0.  1.
    10030    2    1    2    0    0  0.00000000000E+00  0.00000000000E+00 -0.97482609099E+03  0.25001903616E+04  0.23023175143E+04 0.  0.
        3    1    3    3  502    0 -0.24835872779E+03 -0.10976222913E+04 -0.22428758629E+03  0.11475023676E+04  0.10100000352E+00 0. -1.
       -3    1    3    3    0  502  0.24835872779E+03  0.10976222913E+04 -0.75053850470E+03  0.13526879940E+04  0.10100000352E+00 0.  1.
</event>
<event>
 5   0  0.1327820E-05  0.2332116E+04  0.7818609E-02  0.8465365E-01
        1   -1    0    0  501    0  0.00000000000E+00  0.00000000000E+00  0.25716526017E+04  0.25716526017E+04  0.50400001928E-02 0.  1.
       -1   -1    0    0    0  501  0.00000000000E+00  0.00000000000E+00 -0.52872262553E+03  0.52872262555E+03  0.50400001928E-02 0. -1.
    10030    2    1    2    0    0  0.00000000000E+00  0.00000000000E+00  0.20429299762E+04  0.31003752273E+04  0.23321157052E+04 0.  0.
        1    1    3    3  502    0  0.11036189768E+04 -0.81444909569E+01  0.15218128527E+04  0.18798817881E+04  0.50400001928E-02 0.  1.
       -1    1    3    3    0  502 -0.11036189768E+04  0.81444909569E+01  0.52111712345E+03  0.12204934391E+04  0.50400001928E-02 0. -1.
</event>
<event>
 5   0  0.2994157E-05  0.2303591E+04  0.7818609E-02  0.8476506E-01
        2   -1    0    0  501    0  0.00000000000E+00  0.00000000000E+00  0.14031914576E+04  0.14031914577E+04  0.25500000920E-02 0.  1.
       -2   -1    0    0    0  501  0.00000000000E+00  0.00000000000E+00 -0.94543991324E+03  0.94543991324E+03  0.25500000920E-02 0. -1.
    10030    2    1    2    0    0  0.00000000000E+00  0.00000000000E+00  0.45775154441E+03  0.23486313709E+04  0.23035912919E+04 0.  0.
        4    1    3    3  502    0 -0.12857126345E+03 -0.64974671701E+03 -0.73184869369E+03  0.98706914115E+03  0.12699999809E+01 0. -1.
       -4    1    3    3    0  502  0.12857126345E+03  0.64974671701E+03  0.11896002381E+04  0.13615622297E+04  0.12699999809E+01 0.  1.
</event>
<event>
 5   0  0.2816178E-05  0.2247431E+04  0.7818609E-02  0.8498942E-01
        2   -1    0    0  501    0  0.00000000000E+00  0.00000000000E+00  0.10486963449E+04  0.10486963449E+04  0.25500000920E-02 0.  1.
       -2   -1    0    0    0  501  0.00000000000E+00  0.00000000000E+00 -0.12041013874E+04  0.12041013874E+04  0.25500000920E-02 0. -1.
    10030    2    1    2    0    0  0.00000000000E+00  0.00000000000E+00 -0.15540504254E+03  0.22527977323E+04  0.22474311770E+04 0.  0.
        1    1    3    3  502    0  0.11753878673E+03  0.10933980579E+04  0.15393811066E+03  0.11104195699E+04  0.50400001928E-02 0.  1.
       -1    1    3    3    0  502 -0.11753878673E+03 -0.10933980579E+04 -0.30934315321E+03  0.11423781624E+04  0.50400001928E-02 0. -1.
</event>
<event>
 5   0  0.2871888E-05  0.2312895E+04  0.7818609E-02  0.8472854E-01
       -2   -1    0    0    0  501  0.00000000000E+00  0.00000000000E+00  0.13589416821E+04  0.13589416821E+04  0.25500000920E-02 0.  1.
        2   -1    0    0  501    0  0.00000000000E+00  0.00000000000E+00 -0.98412697882E+03  0.98412697883E+03  0.25500000920E-02 0. -1.
    10030    2    1    2    0    0  0.00000000000E+00  0.00000000000E+00  0.37481470325E+03  0.23430686609E+04  0.23128953041E+04 0.  0.
        3    1    3    3  502    0 -0.80178221877E+03 -0.33526506554E+03  0.96032456198E+03  0.12951759205E+04  0.10100000352E+00 0.  1.
       -3    1    3    3    0  502  0.80178221877E+03  0.33526506554E+03 -0.58550985873E+03  0.10478927404E+04  0.10100000352E+00 0. -1.
</event>
<event>
 5   0  0.1308224E-05  0.2331981E+04  0.7818609E-02  0.8465417E-01
       -1   -1    0    0    0  501  0.00000000000E+00  0.00000000000E+00  0.66500599951E+03  0.66500599952E+03  0.50400001928E-02 0.  1.
        1   -1    0    0  501    0  0.00000000000E+00  0.00000000000E+00 -0.20443941270E+04  0.20443941270E+04  0.50400001928E-02 0. -1.
    10030    2    1    2    0    0  0.00000000000E+00  0.00000000000E+00 -0.13793881275E+04  0.27094001265E+04  0.23319814406E+04 0.  0.
        5    1    3    3  502    0  0.99088709575E+03  0.26829024501E+03 -0.47334364890E+02  0.10276670298E+04  0.46999998093E+01 0.  1.
       -5    1    3    3    0  502 -0.99088709575E+03 -0.26829024501E+03 -0.13320537626E+04  0.16817330967E+04  0.46999998093E+01 0. -1.
</event>
<event>
 5   0  0.1303224E-05  0.2309852E+04  0.7818609E-02  0.8474047E-01
       -1   -1    0    0    0  501  0.00000000000E+00  0.00000000000E+00  0.68437799730E+03  0.68437799732E+03  0.50400001928E-02 0.  1.
        1   -1    0    0  501    0  0.00000000000E+00  0.00000000000E+00 -0.19490025736E+04  0.19490025736E+04  0.50400001928E-02 0. -1.
    10030    2    1    2    0    0  0.00000000000E+00  0.00000000000E+00 -0.12646245763E+04  0.26333805709E+04  0.23098523573E+04 0.  0.
        2    1    3    3  502    0 -0.79759600102E+03  0.68737567957E+03 -0.91280202381E+02  0.10568712226E+04  0.25500000920E-02 0.  1.
       -2    1    3    3    0  502  0.79759600102E+03 -0.68737567957E+03 -0.11733443739E+04  0.15765093484E+04  0.25500000920E-02 0. -1.
</event>
<event>
 5   0  0.1371753E-05  0.2283789E+04  0.7818609E-02  0.8484340E-01
       -1   -1    0    0    0  501  0.00000000000E+00  0.00000000000E+00  0.12505417593E+04  0.12505417593E+04  0.50400001928E-02 0. -1.
        1   -1    0    0  501    0  0.00000000000E+00  0.00000000000E+00 -0.10426865594E+04  0.10426865594E+04  0.50400001928E-02 0.  1.
    10030    2    1    2    0    0  0.00000000000E+00  0.00000000000E+00  0.20785519994E+03  0.22932283187E+04  0.22837890309E+04 0.  0.
        3    1    3    3  502    0  0.54541043536E+02 -0.10675617281E+04  0.50715965812E+03  0.11831625830E+04  0.10100000352E+00 0. -1.
       -3    1    3    3    0  502 -0.54541043536E+02  0.10675617281E+04 -0.29930445817E+03  0.11100657357E+04  0.10100000352E+00 0.  1.
</event>
<event>
 5   0  0.2938972E-05  0.2295955E+04  0.7818609E-02  0.8479518E-01
       -2   -1    0    0    0  501  0.00000000000E+00  0.00000000000E+00  0.99742517000E+03  0.99742517000E+03  0.25500000920E-02 0. -1.
        2   -1    0    0  501    0  0.00000000000E+00  0.00000000000E+00 -0.13212542029E+04  0.13212542029E+04  0.25500000920E-02 0.  1.
    10030    2    1    2    0    0  0.00000000000E+00  0.00000000000E+00 -0.32382903289E+03  0.23186793729E+04  0.22959548758E+04 0.  0.
        2    1    3    3  502    0 -0.19760283029E+02  0.42694312560E+03 -0.12379087993E+04  0.13096141022E+04  0.25500000920E-02 0.  1.
       -2    1    3    3    0  502  0.19760283029E+02 -0.42694312560E+03  0.91407976638E+03  0.10090652707E+04  0.25500000920E-02 0. -1.
</event>
<event>
 5   0  0.2994157E-05  0.2324069E+04  0.7818609E-02  0.8468491E-01
       -2   -1    0    0    0  501  0.00000000000E+00  0.00000000000E+00  0.44461817345E+03  0.44461817346E+03  0.25500000920E-02 0.  1.
        2   -1    0    0  501    0  0.00000000000E+00  0.00000000000E+00 -0.30370422848E+04  0.30370422848E+04  0.25500000920E-02 0. -1.
    10030    2    1    2    0    0  0.00000000000E+00  0.00000000000E+00 -0.25924241114E+04  0.34816604583E+04  0.23240690122E+04 0.  0.
        4    1    3    3  502    0 -0.80362696641E+03 -0.16890504749E+03 -0.25279078877E+04  0.26579437763E+04  0.12699999809E+01 0. -1.
       -4    1    3    3    0  502  0.80362696641E+03  0.16890504749E+03 -0.64516223672E+02  0.82371668201E+03  0.12699999809E+01 0.  1.
</event>
<event>
 5   0  0.1303224E-05  0.2304866E+04  0.7818609E-02  0.8476005E-01
        1   -1    0    0  501    0  0.00000000000E+00  0.00000000000E+00  0.12889297815E+04  0.12889297815E+04  0.50400001928E-02 0.  1.
       -1   -1    0    0    0  501  0.00000000000E+00  0.00000000000E+00 -0.10303914819E+04  0.10303914819E+04  0.50400001928E-02 0. -1.
    10030    2    1    2    0    0  0.00000000000E+00  0.00000000000E+00  0.25853829964E+03  0.23193212634E+04  0.23048663889E+04 0.  0.
        2    1    3    3  502    0  0.48793821781E+03  0.87469746781E+03 -0.44432579770E+03  0.10957211229E+04  0.25500000920E-02 0. -1.
       -2    1    3    3    0  502 -0.48793821781E+03 -0.87469746781E+03  0.70286409734E+03  0.12236001405E+04  0.25500000920E-02 0.  1.
</event>
<event>
 5   0  0.1308224E-05  0.2303624E+04  0.7818609E-02  0.8476494E-01
       -1   -1    0    0    0  501  0.00000000000E+00  0.00000000000E+00  0.16646466451E+04  0.16646466451E+04  0.50400001928E-02 0. -1.
        1   -1    0    0  501    0  0.00000000000E+00  0.00000000000E+00 -0.79696851762E+03  0.79696851763E+03  0.50400001928E-02 0.  1.
    10030    2    1    2    0    0  0.00000000000E+00  0.00000000000E+00  0.86767812750E+03  0.24616151628E+04  0.23036240745E+04 0.  0.
        5    1    3    3  502    0  0.93573071428E+03 -0.57805455277E+03  0.79921007686E+03  0.13595947457E+04  0.46999998093E+01 0. -1.
       -5    1    3    3    0  502 -0.93573071428E+03  0.57805455277E+03  0.68468050634E+02  0.11020204170E+04  0.46999998093E+01 0.  1.
</event>
<event>
 5   0  0.1303224E-05  0.2300901E+04  0.7818609E-02  0.8477566E-01
        1   -1    0    0  501    0  0.00000000000E+00  0.00000000000E+00  0.85501190210E+03  0.85501190212E+03  0.50400001928E-02 0. -1.
       -1   -1    0    0    0  501  0.00000000000E+00  0.00000000000E+00 -0.15479740426E+04  0.15479740427E+04  0.50400001928E-02 0.  1.
    10030    2    1    2    0    0  0.00000000000E+00  0.00000000000E+00 -0.69296214054E+03  0.24029859448E+04  0.23009008937E+04 0.  0.
        2    1    3    3  502    0 -0.54830161606E+03 -0.56934054983E+03 -0.12194828550E+04  0.14532452503E+04  0.25500000920E-02 0.  1.
       -2    1    3    3    0  502  0.54830161606E+03  0.56934054983E+03  0.52652071450E+03  0.94974069444E+03  0.25500000920E-02 0. -1.
</event>
<event>
 5   0  0.2938972E-05  0.2295580E+04  0.7818609E-02  0.8479666E-01
       -2   -1    0    0    0  501  0.00000000000E+00  0.00000000000E+00  0.11720553011E+04  0.11720553012E+04  0.25500000920E-02 0.  1.
        2   -1    0    0  501    0  0.00000000000E+00  0.00000000000E+00 -0.11240268061E+04  0.11240268061E+04  0.25500000920E-02 0. -1.
    10030    2    1    2    0    0  0.00000000000E+00  0.00000000000E+00  0.48028495013E+02  0.22960821073E+04  0.22955797322E+04 0.  0.
        2    1    3    3  502    0 -0.96671308516E+03  0.61059414254E+03 -0.76318127282E+02  0.11459423426E+04  0.25500000920E-02 0.  1.
       -2    1    3    3    0  502  0.96671308516E+03 -0.61059414254E+03  0.12434662230E+03  0.11501397647E+04  0.25500000920E-02 0. -1.
</event>
<event>
 5   0  0.2871888E-05  0.2301660E+04  0.7818609E-02  0.8477267E-01
        2   -1    0    0  501    0  0.00000000000E+00  0.00000000000E+00  0.18531576293E+04  0.18531576293E+04  0.25500000920E-02 0. -1.
       -2   -1    0    0    0  501  0.00000000000E+00  0.00000000000E+00 -0.71467716185E+03  0.71467716185E+03  0.25500000920E-02 0.  1.
    10030    2    1    2    0    0  0.00000000000E+00  0.00000000000E+00  0.11384804675E+04  0.25678347912E+04  0.23016597794E+04 0.  0.
        3    1    3    3  502    0 -0.85401116074E+03  0.39702558788E+03  0.13071235666E+04  0.16110668542E+04  0.10100000352E+00 0. -1.
       -3    1    3    3    0  502  0.85401116074E+03 -0.39702558788E+03 -0.16864309915E+03  0.95676793696E+03  0.10100000352E+00 0.  1.
</event>
<event>
 5   0  0.2938972E-05  0.2404631E+04  0.7818609E-02  0.8437772E-01
        2   -1    0    0  501    0  0.00000000000E+00  0.00000000000E+00  0.15508860367E+04  0.15508860367E+04  0.25500000920E-02 0. -1.
       -2   -1    0    0    0  501  0.00000000000E+00  0.00000000000E+00 -0.93208795350E+03  0.93208795351E+03  0.25500000920E-02 0.  1.
    10030    2    1    2    0    0  0.00000000000E+00  0.00000000000E+00  0.61879808323E+03  0.24829739902E+04  0.24046306927E+04 0.  0.
        2    1    3    3  502    0 -0.29366212013E+03 -0.81421034386E+03  0.11710847366E+04  0.14562332867E+04  0.25500000920E-02 0. -1.
       -2    1    3    3    0  502  0.29366212013E+03  0.81421034386E+03 -0.55228665339E+03  0.10267407036E+04  0.25500000920E-02 0.  1.
</event>
<event>
 5   0  0.1371753E-05  0.2291323E+04  0.7818609E-02  0.8481350E-01
        1   -1    0    0  501    0  0.00000000000E+00  0.00000000000E+00  0.92049853133E+03  0.92049853135E+03  0.50400001928E-02 0. -1.
       -1   -1    0    0    0  501  0.00000000000E+00  0.00000000000E+00 -0.14259019958E+04  0.14259019958E+04  0.50400001928E-02 0.  1.
    10030    2    1    2    0    0  0.00000000000E+00  0.00000000000E+00 -0.50540346449E+03  0.23464005272E+04  0.22913233670E+04 0.  0.
        3    1    3    3  502    0 -0.65632271432E+03  0.10908151747E+03 -0.12077955534E+04  0.13789229101E+04  0.10100000352E+00 0.  1.
       -3    1    3    3    0  502  0.65632271432E+03 -0.10908151747E+03  0.70239208895E+03  0.96747761711E+03  0.10100000352E+00 0. -1.
</event>
<event>
 5   0  0.1308224E-05  0.2296929E+04  0.7818609E-02  0.8479133E-01
       -1   -1    0    0    0  501  0.00000000000E+00  0.00000000000E+00  0.76522023714E+03  0.76522023715E+03  0.50400001928E-02 0.  1.
        1   -1    0    0  501    0  0.00000000000E+00  0.00000000000E+00 -0.17236488751E+04  0.17236488751E+04  0.50400001928E-02 0. -1.
    10030    2    1    2    0    0  0.00000000000E+00  0.00000000000E+00 -0.95842863795E+03  0.24888691122E+04  0.22969292553E+04 0.  0.
        5    1    3    3  502    0 -0.22747929778E+03 -0.11076077345E+04 -0.69702729290E+03  0.13283112819E+04  0.46999998093E+01 0.  1.
       -5    1    3    3    0  502  0.22747929778E+03  0.11076077345E+04 -0.26140134506E+03  0.11605578304E+04  0.46999998093E+01 0. -1.
</event>
<event>
 5   0  0.2910126E-05  0.2270880E+04  0.7818609E-02  0.8489492E-01
        2   -1    0    0  501    0  0.00000000000E+00  0.00000000000E+00  0.14482432184E+04  0.14482432184E+04  0.25500000920E-02 0. -1.
       -2   -1    0    0    0  501  0.00000000000E+00  0.00000000000E+00 -0.89019816600E+03  0.89019816601E+03  0.25500000920E-02 0.  1.
    10030    2    1    2    0    0  0.00000000000E+00  0.00000000000E+00  0.55804505238E+03  0.23384413844E+04  0.22708795274E+04 0.  0.
        5    1    3    3  502    0  0.10887733497E+04  0.17438313190E+03  0.10530828522E+00  0.11026599588E+04  0.46999998093E+01 0.  1.
       -5    1    3    3    0  502 -0.10887733497E+04 -0.17438313190E+03  0.55793974409E+03  0.12357814256E+04  0.46999998093E+01 0. -1.
</event>
<event>
 5   0  0.1308224E-05  0.2288552E+04  0.7818609E-02  0.8482448E-01
       -1   -1    0    0    0  501  0.00000000000E+00  0.00000000000E+00  0.79317371244E+03  0.79317371246E+03  0.50400001928E-02 0. -1.
        1   -1    0    0  501    0  0.00000000000E+00  0.00000000000E+00 -0.16507958456E+04  0.16507958456E+04  0.50400001928E-02 0.  1.
    10030    2    1    2    0    0  0.00000000000E+00  0.00000000000E+00 -0.85762213312E+03  0.24439695580E+04  0.22885522667E+04 0.  0.
        5    1    3    3  502    0 -0.39551473811E+03  0.93986166415E+03 -0.98327575946E+03  0.14165539753E+04  0.46999998093E+01 0.  1.
       -5    1    3    3    0  502  0.39551473811E+03 -0.93986166415E+03  0.12565362634E+03  0.10274155827E+04  0.46999998093E+01 0. -1.
</event>
<event>
 5   0  0.1303224E-05  0.2300677E+04  0.7818609E-02  0.8477654E-01
        1   -1    0    0  501    0  0.00000000000E+00  0.00000000000E+00  0.11981881525E+04  0.11981881525E+04  0.50400001928E-02 0. -1.
       -1   -1    0    0    0  501  0.00000000000E+00  0.00000000000E+00 -0.11043997720E+04  0.11043997720E+04  0.50400001928E-02 0.  1.
    10030    2    1    2    0    0  0.00000000000E+00  0.00000000000E+00  0.93788380526E+02  0.23025879245E+04  0.23006770502E+04 0.  0.
        2    1    3    3  502    0  0.50945845014E+03  0.34503950867E+03 -0.92585883242E+03  0.11116720526E+04  0.25500000920E-02 0.  1.
       -2    1    3    3    0  502 -0.50945845014E+03 -0.34503950867E+03  0.10196472129E+04  0.11909158719E+04  0.25500000920E-02 0. -1.
</event>
<event>
 5   0  0.2910126E-05  0.2296800E+04  0.7818609E-02  0.8479184E-01
        2   -1    0    0  501    0  0.00000000000E+00  0.00000000000E+00  0.19653141442E+04  0.19653141442E+04  0.25500000920E-02 0. -1.
       -2   -1    0    0    0  501  0.00000000000E+00  0.00000000000E+00 -0.67104945180E+03  0.67104945180E+03  0.25500000920E-02 0.  1.
    10030    2    1    2    0    0  0.00000000000E+00  0.00000000000E+00  0.12942646924E+04  0.26363635960E+04  0.22968003650E+04 0.  0.
        5    1    3    3  502    0 -0.43901172538E+03 -0.10601841408E+04  0.69947169168E+03  0.13438766479E+04  0.46999998093E+01 0.  1.
       -5    1    3    3    0  502  0.43901172538E+03  0.10601841408E+04  0.59479300076E+03  0.12924869481E+04  0.46999998093E+01 0. -1.
</event>
<event>
 5   0  0.1327820E-05  0.2168533E+04  0.7818609E-02  0.8531641E-01
        1   -1    0    0  501    0  0.00000000000E+00  0.00000000000E+00  0.13412516997E+04  0.13412516998E+04  0.50400001928E-02 0.  1.
       -1   -1    0    0    0  501  0.00000000000E+00  0.00000000000E+00 -0.87652018066E+03  0.87652018067E+03  0.50400001928E-02 0. -1.
    10030    2    1    2    0    0  0.00000000000E+00  0.00000000000E+00  0.46473151908E+03  0.22177718804E+04  0.21685333128E+04 0.  0.
        1    1    3    3  502    0 -0.30700611651E+03  0.14026987949E+03  0.12861528331E+04  0.13297057963E+04  0.50400001928E-02 0.  1.
       -1    1    3    3    0  502  0.30700611651E+03 -0.14026987949E+03 -0.82142131399E+03  0.88806608412E+03  0.50400001928E-02 0. -1.
</event>
<event>
 5   0  0.2871888E-05  0.2263185E+04  0.7818609E-02  0.8492580E-01
       -2   -1    0    0    0  501  0.00000000000E+00  0.00000000000E+00  0.10305876655E+04  0.10305876655E+04  0.25500000920E-02 0.  1.
        2   -1    0    0  501    0  0.00000000000E+00  0.00000000000E+00 -0.12424965321E+04  0.12424965321E+04  0.25500000920E-02 0. -1.
    10030    2    1    2    0    0  0.00000000000E+00  0.00000000000E+00 -0.21190886658E+03  0.22730841977E+04  0.22631850128E+04 0.  0.
        3    1    3    3  502    0 -0.47278953413E+03  0.93126238108E+03 -0.54343054074E+03  0.11773259229E+04  0.10100000352E+00 0. -1.
       -3    1    3    3    0  502  0.47278953413E+03 -0.93126238108E+03  0.33152167416E+03  0.10957582747E+04  0.10100000352E+00 0.  1.
</event>
<event>
 5   0  0.2816178E-05  0.2306420E+04  0.7818609E-02  0.8475394E-01
       -2   -1    0    0    0  501  0.00000000000E+00  0.00000000000E+00  0.14812842873E+04  0.14812842873E+04  0.25500000920E-02 0.  1.
        2   -1    0    0  501    0  0.00000000000E+00  0.00000000000E+00 -0.89779740313E+03  0.89779740313E+03  0.25500000920E-02 0. -1.
    10030    2    1    2    0    0  0.00000000000E+00  0.00000000000E+00  0.58348688416E+03  0.23790816904E+04  0.23064198980E+04 0.  0.
        1    1    3    3  502    0 -0.65086945366E+03  0.85713764666E+03  0.71901182868E+03  0.12943314880E+04  0.50400001928E-02 0.  1.
       -1    1    3    3    0  502  0.65086945366E+03 -0.85713764666E+03 -0.13552494451E+03  0.10847502024E+04  0.50400001928E-02 0. -1.
</event>
<event>
 5   0  0.2871888E-05  0.2312532E+04  0.7818609E-02  0.8472996E-01
       -2   -1    0    0    0  501  0.00000000000E+00  0.00000000000E+00  0.69830311643E+03  0.69830311643E+03  0.25500000920E-02 0. -1.
        2   -1    0    0  501    0  0.00000000000E+00  0.00000000000E+00 -0.19145704676E+04  0.19145704676E+04  0.25500000920E-02 0.  1.
    10030    2    1    2    0    0  0.00000000000E+00  0.00000000000E+00 -0.12162673511E+04  0.26128735840E+04  0.23125315342E+04 0.  0.
        3    1    3    3  502    0  0.54328946190E+03 -0.28899354233E+03 -0.17141833620E+04  0.18212922104E+04  0.10100000352E+00 0.  1.
       -3    1    3    3    0  502 -0.54328946190E+03  0.28899354233E+03  0.49791601087E+03  0.79158137359E+03  0.10100000352E+00 0. -1.
</event>
<event>
 5   0  0.1303224E-05  0.2304517E+04  0.7818609E-02  0.8476142E-01
        1   -1    0    0  501    0  0.00000000000E+00  0.00000000000E+00  0.16400149794E+04  0.16400149794E+04  0.50400001928E-02 0. -1.
       -1   -1    0    0    0  501  0.00000000000E+00  0.00000000000E+00 -0.80956562967E+03  0.80956562969E+03  0.50400001928E-02 0.  1.
    10030    2    1    2    0    0  0.00000000000E+00  0.00000000000E+00  0.83044934974E+03  0.24495806091E+04  0.23045170943E+04 0.  0.
        2    1    3    3  502    0 -0.65477096089E+03 -0.62701737550E+03 -0.34075740302E+03  0.96849956537E+03  0.25500000920E-02 0.  1.
       -2    1    3    3    0  502  0.65477096089E+03  0.62701737550E+03  0.11712067528E+04  0.14810810437E+04  0.25500000920E-02 0. -1.
</event>
<event>
 5   0  0.2994157E-05  0.2342360E+04  0.7818609E-02  0.8461404E-01
       -2   -1    0    0    0  501  0.00000000000E+00  0.00000000000E+00  0.83110909376E+03  0.83110909376E+03  0.25500000920E-02 0. -1.
        2   -1    0    0  501    0  0.00000000000E+00  0.00000000000E+00 -0.16503996097E+04  0.16503996097E+04  0.25500000920E-02 0.  1.
    10030    2    1    2    0    0  0.00000000000E+00  0.00000000000E+00 -0.81929051591E+03  0.24815087034E+04  0.23423596000E+04 0.  0.
        4    1    3    3  502    0  0.22999198221E+03 -0.62663394905E+03  0.60986075344E+03  0.90415605372E+03  0.12699999809E+01 0. -1.
       -4    1    3    3    0  502 -0.22999198221E+03  0.62663394905E+03 -0.14291512694E+04  0.15773526497E+04  0.12699999809E+01 0.  1.
</event>
<event>
 5   0  0.1308224E-05  0.2313342E+04  0.7818609E-02  0.8472679E-01
        1   -1    0    0  501    0  0.00000000000E+00  0.00000000000E+00  0.13393111509E+04  0.13393111510E+04  0.50400001928E-02 0. -1.
       -1   -1    0    0    0  501  0.00000000000E+00  0.00000000000E+00 -0.99893740964E+03  0.99893740966E+03  0.50400001928E-02 0.  1.
    10030    2    1    2    0    0  0.00000000000E+00  0.00000000000E+00  0.34037374131E+03  0.23382485606E+04  0.23133421812E+04 0.  0.
        5    1    3    3  502    0 -0.84771459579E+02 -0.39025428770E+03 -0.92703314673E+03  0.10094043563E+04  0.46999998093E+01 0.  1.
       -5    1    3    3    0  502  0.84771459579E+02  0.39025428770E+03  0.12674068880E+04  0.13288442043E+04  0.46999998093E+01 0. -1.
</event>
<event>
 5   0  0.1017200E-05  0.2295545E+04  0.7818609E-02  0.8479680E-01
       -4   -1    0    0    0  501  0.00000000000E+00  0.00000000000E+00  0.11189541200E+04  0.11189548407E+04  0.12699999809E+01 0.  1.
        4   -1    0    0  501    0  0.00000000000E+00  0.00000000000E+00 -0.11773313643E+04  0.11773320493E+04  0.12699999809E+01 0. -1.
    10030    2    1    2    0    0  0.00000000000E+00  0.00000000000E+00 -0.58377244392E+02  0.22962868900E+04  0.22955447237E+04 0.  0.
        5    1    3    3  502    0  0.91267433507E+03 -0.57128865261E+03  0.36844981771E+03  0.11380345006E+04  0.46999998093E+01 0.  1.
       -5    1    3    3    0  502 -0.91267433507E+03  0.57128865261E+03 -0.42682706211E+03  0.11582523894E+04  0.46999998093E+01 0. -1.
</event>
<event>
 5   0  0.1303224E-05  0.2244431E+04  0.7818609E-02  0.8500159E-01
        1   -1    0    0  501    0  0.00000000000E+00  0.00000000000E+00  0.67487325366E+03  0.67487325368E+03  0.50400001928E-02 0. -1.
       -1   -1    0    0    0  501  0.00000000000E+00  0.00000000000E+00 -0.18660796129E+04  0.18660796129E+04  0.50400001928E-02 0.  1.
    10030    2    1    2    0    0  0.00000000000E+00  0.00000000000E+00 -0.11912063592E+04  0.25409528666E+04  0.22444306360E+04 0.  0.
        2    1    3    3  502    0 -0.66090543842E+03 -0.90602609738E+03 -0.64211549228E+03  0.12922815456E+04  0.25500000920E-02 0.  1.
       -2    1    3    3    0  502  0.66090543842E+03  0.90602609738E+03 -0.54909086695E+03  0.12486713210E+04  0.25500000920E-02 0. -1.
</event>
<event>
 5   0  0.1371753E-05  0.2295686E+04  0.7818609E-02  0.8479624E-01
       -1   -1    0    0    0  501  0.00000000000E+00  0.00000000000E+00  0.81678839355E+03  0.81678839357E+03  0.50400001928E-02 0.  1.
        1   -1    0    0  501    0  0.00000000000E+00  0.00000000000E+00 -0.16130778373E+04  0.16130778374E+04  0.50400001928E-02 0. -1.
    10030    2    1    2    0    0  0.00000000000E+00  0.00000000000E+00 -0.79628944379E+03  0.24298662309E+04  0.22956857411E+04 0.  0.
        3    1    3    3  502    0 -0.75804136415E+03  0.76101717350E+03  0.30192981576E+02  0.10745629225E+04  0.10100000352E+00 0.  1.
       -3    1    3    3    0  502  0.75804136415E+03 -0.76101717350E+03 -0.82648242536E+03  0.13553033084E+04  0.10100000352E+00 0. -1.
</event>
<event>
 5   0  0.1308224E-05  0.2307577E+04  0.7818609E-02  0.8474940E-01
       -1   -1    0    0    0  501  0.00000000000E+00  0.00000000000E+00  0.16803948337E+04  0.16803948337E+04  0.50400001928E-02 0. -1.
        1   -1    0    0  501    0  0.00000000000E+00  0.00000000000E+00 -0.79221110780E+03  0.79221110782E+03  0.50400001928E-02 0.  1.
    10030    2    1    2    0    0  0.00000000000E+00  0.00000000000E+00  0.88818372588E+03  0.24726059415E+04  0.23075766100E+04 0.  0.
        5    1    3    3  502    0  0.71964390496E+03 -0.19401738608E+03 -0.49961856090E+03  0.89731315183E+03  0.46999998093E+01 0.  1.
       -5    1    3    3    0  502 -0.71964390496E+03  0.19401738608E+03  0.13878022868E+04  0.15752927897E+04  0.46999998093E+01 0. -1.
</event>
<event>
 5   0  0.2910126E-05  0.2308280E+04  0.7818609E-02  0.8474663E-01
       -2   -1    0    0    0  501  0.00000000000E+00  0.00000000000E+00  0.52341153897E+03  0.52341153897E+03  0.25500000920E-02 0.  1.
        2   -1    0    0  501    0  0.00000000000E+00  0.00000000000E+00 -0.25449181875E+04  0.25449181875E+04  0.25500000920E-02 0. -1.
    10030    2    1    2    0    0  0.00000000000E+00  0.00000000000E+00 -0.20215066486E+04  0.30683297265E+04  0.23082803513E+04 0.  0.
        5    1    3    3  502    0 -0.35038442472E+03 -0.44901968569E+03  0.32357872224E+03  0.65506732685E+03  0.46999998093E+01 0.  1.
       -5    1    3    3    0  502  0.35038442472E+03  0.44901968569E+03 -0.23450853708E+04  0.24132623996E+04  0.46999998093E+01 0. -1.
</event>
<event>
 5   0  0.1327820E-05  0.2384623E+04  0.7818609E-02  0.8445283E-01
       -1   -1    0    0    0  501  0.00000000000E+00  0.00000000000E+00  0.87194029198E+03  0.87194029200E+03  0.50400001928E-02 0.  1.
        1   -1    0    0  501    0  0.00000000000E+00  0.00000000000E+00 -0.16303941167E+04  0.16303941167E+04  0.50400001928E-02 0. -1.
    10030    2    1    2    0    0  0.00000000000E+00  0.00000000000E+00 -0.75845382474E+03  0.25023344087E+04  0.23846226722E+04 0.  0.
        1    1    3    3  502    0 -0.83658814943E+03  0.84707562603E+03 -0.44714812625E+03  0.12717540229E+04  0.50400001928E-02 0. -1.
       -1    1    3    3    0  502  0.83658814943E+03 -0.84707562603E+03 -0.31130569849E+03  0.12305803858E+04  0.50400001928E-02 0.  1.
</event>
<event>
 5   0  0.1308224E-05  0.2321926E+04  0.7818609E-02  0.8469326E-01
       -1   -1    0    0    0  501  0.00000000000E+00  0.00000000000E+00  0.16061345620E+04  0.16061345620E+04  0.50400001928E-02 0.  1.
        1   -1    0    0  501    0  0.00000000000E+00  0.00000000000E+00 -0.83917963807E+03  0.83917963809E+03  0.50400001928E-02 0. -1.
    10030    2    1    2    0    0  0.00000000000E+00  0.00000000000E+00  0.76695492392E+03  0.24453142001E+04  0.23219262869E+04 0.  0.
        5    1    3    3  502    0  0.73132433630E+03  0.28959834071E+03 -0.51577786905E+03  0.94061223892E+03  0.46999998093E+01 0. -1.
       -5    1    3    3    0  502 -0.73132433630E+03 -0.28959834071E+03  0.12827327930E+04  0.15047019612E+04  0.46999998093E+01 0.  1.
</event>
<event>
 5   0  0.1284837E-05  0.2304757E+04  0.7818609E-02  0.8476048E-01
       -1   -1    0    0    0  501  0.00000000000E+00  0.00000000000E+00  0.87183004162E+03  0.87183004163E+03  0.50400001928E-02 0. -1.
        1   -1    0    0  501    0  0.00000000000E+00  0.00000000000E+00 -0.15232048005E+04  0.15232048006E+04  0.50400001928E-02 0.  1.
    10030    2    1    2    0    0  0.00000000000E+00  0.00000000000E+00 -0.65137475893E+03  0.23950348422E+04  0.23047565639E+04 0.  0.
        4    1    3    3  502    0 -0.11405558085E+03 -0.86390050507E+03 -0.11093082380E+04  0.14106378479E+04  0.12699999809E+01 0.  1.
       -4    1    3    3    0  502  0.11405558085E+03  0.86390050507E+03  0.45793347907E+03  0.98439699427E+03  0.12699999809E+01 0. -1.
</event>
<event>
 5   0  0.1303224E-05  0.2298024E+04  0.7818609E-02  0.8478701E-01
        1   -1    0    0  501    0  0.00000000000E+00  0.00000000000E+00  0.13858042667E+04  0.13858042667E+04  0.50400001928E-02 0.  1.
       -1   -1    0    0    0  501  0.00000000000E+00  0.00000000000E+00 -0.95268066476E+03  0.95268066478E+03  0.50400001928E-02 0. -1.
    10030    2    1    2    0    0  0.00000000000E+00  0.00000000000E+00  0.43312360197E+03  0.23384849315E+04  0.22980243080E+04 0.  0.
        2    1    3    3  502    0 -0.62587897103E+03  0.60317275713E+03 -0.54812550145E+03  0.10276105423E+04  0.25500000920E-02 0. -1.
       -2    1    3    3    0  502  0.62587897103E+03 -0.60317275713E+03  0.98124910342E+03  0.13108743892E+04  0.25500000920E-02 0.  1.
</event>
<event>
 5   0  0.2938972E-05  0.2303843E+04  0.7818609E-02  0.8476407E-01
        2   -1    0    0  501    0  0.00000000000E+00  0.00000000000E+00  0.10428761954E+04  0.10428761954E+04  0.25500000920E-02 0. -1.
       -2   -1    0    0    0  501  0.00000000000E+00  0.00000000000E+00 -0.12723686600E+04  0.12723686600E+04  0.25500000920E-02 0.  1.
    10030    2    1    2    0    0  0.00000000000E+00  0.00000000000E+00 -0.22949246465E+03  0.23152448554E+04  0.23038428655E+04 0.  0.
        2    1    3    3  502    0  0.44394736814E+02  0.72782521987E+03 -0.10109121333E+04  0.12464524799E+04  0.25500000920E-02 0.  1.
       -2    1    3    3    0  502 -0.44394736814E+02 -0.72782521987E+03  0.78141966867E+03  0.10687923755E+04  0.25500000920E-02 0. -1.
</event>
<event>
 5   0  0.2871888E-05  0.2210713E+04  0.7818609E-02  0.8513982E-01
        2   -1    0    0  501    0  0.00000000000E+00  0.00000000000E+00  0.20609403030E+04  0.20609403030E+04  0.25500000920E-02 0.  1.
       -2   -1    0    0    0  501  0.00000000000E+00  0.00000000000E+00 -0.59284262784E+03  0.59284262784E+03  0.25500000920E-02 0. -1.
    10030    2    1    2    0    0  0.00000000000E+00  0.00000000000E+00  0.14680976752E+04  0.26537829308E+04  0.22107132469E+04 0.  0.
        3    1    3    3  502    0  0.16717746984E+03  0.60772687232E+03 -0.35597752845E+03  0.72387862845E+03  0.10100000352E+00 0. -1.
       -3    1    3    3    0  502 -0.16717746984E+03 -0.60772687232E+03  0.18240752036E+04  0.19299043024E+04  0.10100000352E+00 0.  1.
</event>
<event>
 5   0  0.2994157E-05  0.2292520E+04  0.7818609E-02  0.8480876E-01
       -2   -1    0    0    0  501  0.00000000000E+00  0.00000000000E+00  0.10599053350E+04  0.10599053351E+04  0.25500000920E-02 0. -1.
        2   -1    0    0  501    0  0.00000000000E+00  0.00000000000E+00 -0.12396507590E+04  0.12396507590E+04  0.25500000920E-02 0.  1.
    10030    2    1    2    0    0  0.00000000000E+00  0.00000000000E+00 -0.17974542396E+03  0.22995560941E+04  0.22925204061E+04 0.  0.
        4    1    3    3  502    0 -0.11084799245E+04 -0.29120425521E+03 -0.70237678704E+02  0.11482432693E+04  0.12699999809E+01 0.  1.
       -4    1    3    3    0  502  0.11084799245E+04  0.29120425521E+03 -0.10950774525E+03  0.11513128247E+04  0.12699999809E+01 0. -1.
</event>
<event>
 5   0  0.1308224E-05  0.2261389E+04  0.7818609E-02  0.8493302E-01
       -1   -1    0    0    0  501  0.00000000000E+00  0.00000000000E+00  0.85750129430E+03  0.85750129431E+03  0.50400001928E-02 0. -1.
        1   -1    0    0  501    0  0.00000000000E+00  0.00000000000E+00 -0.14909250127E+04  0.14909250127E+04  0.50400001928E-02 0.  1.
    10030    2    1    2    0    0  0.00000000000E+00  0.00000000000E+00 -0.63342371838E+03  0.23484263070E+04  0.22613890670E+04 0.  0.
        5    1    3    3  502    0  0.64235463266E+03 -0.87558980687E+03 -0.64374676801E+03  0.12624218690E+04  0.46999998093E+01 0.  1.
       -5    1    3    3    0  502 -0.64235463266E+03  0.87558980687E+03  0.10323049630E+02  0.10860044380E+04  0.46999998093E+01 0. -1.
</event>
<event>
 5   0  0.2816178E-05  0.2321999E+04  0.7818609E-02  0.8469297E-01
       -2   -1    0    0    0  501  0.00000000000E+00  0.00000000000E+00  0.95146040732E+03  0.95146040732E+03  0.25500000920E-02 0.  1.
        2   -1    0    0  501    0  0.00000000000E+00  0.00000000000E+00 -0.14166855170E+04  0.14166855170E+04  0.25500000920E-02 0. -1.
    10030    2    1    2    0    0  0.00000000000E+00  0.00000000000E+00 -0.46522510967E+03  0.23681459243E+04  0.23219992929E+04 0.  0.
        1    1    3    3  502    0 -0.80182249164E+03  0.49052717949E+03  0.46238772708E+03  0.10475393225E+04  0.50400001928E-02 0.  1.
       -1    1    3    3    0  502  0.80182249164E+03 -0.49052717949E+03 -0.92761283675E+03  0.13206066019E+04  0.50400001928E-02 0. -1.
</event>
<event>
 5   0  0.2910126E-05  0.2296113E+04  0.7818609E-02  0.8479455E-01
        2   -1    0    0  501    0  0.00000000000E+00  0.00000000000E+00  0.14443626029E+04  0.14443626029E+04  0.25500000920E-02 0.  1.
       -2   -1    0    0    0  501  0.00000000000E+00  0.00000000000E+00 -0.91253676205E+03  0.91253676205E+03  0.25500000920E-02 0. -1.
    10030    2    1    2    0    0  0.00000000000E+00  0.00000000000E+00  0.53182584083E+03  0.23568993649E+04  0.22961132140E+04 0.  0.
        5    1    3    3  502    0  0.28052981923E+03 -0.10877852208E+04  0.50890375641E+03  0.12332796882E+04  0.46999998093E+01 0.  1.
       -5    1    3    3    0  502 -0.28052981923E+03  0.10877852208E+04  0.22922084420E+02  0.11236196767E+04  0.46999998093E+01 0. -1.
</event>
<event>
 5   0  0.1284837E-05  0.2310454E+04  0.7818609E-02  0.8473811E-01
        1   -1    0    0  501    0  0.00000000000E+00  0.00000000000E+00  0.13863493332E+04  0.13863493332E+04  0.50400001928E-02 0. -1.
       -1   -1    0    0    0  501  0.00000000000E+00  0.00000000000E+00 -0.96263571629E+03  0.96263571630E+03  0.50400001928E-02 0.  1.
    10030    2    1    2    0    0  0.00000000000E+00  0.00000000000E+00  0.42371361689E+03  0.23489850495E+04  0.23104539670E+04 0.  0.
        4    1    3    3  502    0 -0.75583410138E+03  0.75406423382E+03 -0.23669211255E+03  0.10935825651E+04  0.12699999809E+01 0.  1.
       -4    1    3    3    0  502  0.75583410138E+03 -0.75406423382E+03  0.66040572944E+03  0.12554024844E+04  0.12699999809E+01 0. -1.
</event>
<event>
 5   0  0.1303224E-05  0.2289023E+04  0.7818609E-02  0.8482262E-01
       -1   -1    0    0    0  501  0.00000000000E+00  0.00000000000E+00  0.63620764617E+03  0.63620764619E+03  0.50400001928E-02 0.  1.
        1   -1    0    0  501    0  0.00000000000E+00  0.00000000000E+00 -0.20589296600E+04  0.20589296600E+04  0.50400001928E-02 0. -1.
    10030    2    1    2    0    0  0.00000000000E+00  0.00000000000E+00 -0.14227220138E+04  0.26951373062E+04  0.22890231914E+04 0.  0.
        2    1    3    3  502    0  0.81748088796E+03  0.61898238775E+03 -0.11273613750E+03  0.10315636845E+04  0.25500000920E-02 0.  1.
       -2    1    3    3    0  502 -0.81748088796E+03 -0.61898238775E+03 -0.13099858763E+04  0.16635736217E+04  0.25500000920E-02 0. -1.
</event>
<event>
 5   0  0.1303224E-05  0.2291754E+04  0.7818609E-02  0.8481180E-01
       -1   -1    0    0    0  501  0.00000000000E+00  0.00000000000E+00  0.18753604510E+04  0.18753604510E+04  0.50400001928E-02 0. -1.
        1   -1    0    0  501    0  0.00000000000E+00  0.00000000000E+00 -0.70015014361E+03  0.70015014363E+03  0.50400001928E-02 0.  1.
    10030    2    1    2    0    0  0.00000000000E+00  0.00000000000E+00  0.11752103074E+04  0.25755105946E+04  0.22917538167E+04 0.  0.
        2    1    3    3  502    0  0.11162086792E+04  0.15710930525E+03  0.81909153359E+03  0.13933829660E+04  0.25500000920E-02 0.  1.
       -2    1    3    3    0  502 -0.11162086792E+04 -0.15710930525E+03  0.35611877380E+03  0.11821276287E+04  0.25500000920E-02 0. -1.
</event>
<event>
 5   0  0.1308224E-05  0.2324935E+04  0.7818609E-02  0.8468154E-01
       -1   -1    0    0    0  501  0.00000000000E+00  0.00000000000E+00  0.13806874064E+04  0.13806874064E+04  0.50400001928E-02 0.  1.
        1   -1    0    0  501    0  0.00000000000E+00  0.00000000000E+00 -0.97873761671E+03  0.97873761672E+03  0.50400001928E-02 0. -1.
    10030    2    1    2    0    0  0.00000000000E+00  0.00000000000E+00  0.40194978967E+03  0.23594250231E+04  0.23249350112E+04 0.  0.
        5    1    3    3  502    0  0.29823021678E+03  0.62364193355E+03 -0.74746852243E+03  0.10181364376E+04  0.46999998093E+01 0. -1.
       -5    1    3    3    0  502 -0.29823021678E+03 -0.62364193355E+03  0.11494183121E+04  0.13412885855E+04  0.46999998093E+01 0.  1.
</event>
<event>
 5   0  0.1303224E-05  0.2291135E+04  0.7818609E-02  0.8481425E-01
        1   -1    0    0  501    0  0.00000000000E+00  0.00000000000E+00  0.19081935265E+04  0.19081935265E+04  0.50400001928E-02 0.  1.
       -1   -1    0    0    0  501  0.00000000000E+00  0.00000000000E+00 -0.68773171270E+03  0.68773171272E+03  0.50400001928E-02 0. -1.
    10030    2    1    2    0    0  0.00000000000E+00  0.00000000000E+00  0.12204618138E+04  0.25959252393E+04  0.22911352664E+04 0.  0.
        2    1    3    3  502    0 -0.82058791634E+03 -0.33941245286E+03  0.14302190203E+04  0.16834761024E+04  0.25500000920E-02 0.  1.
       -2    1    3    3    0  502  0.82058791634E+03  0.33941245286E+03 -0.20975720642E+03  0.91244913681E+03  0.25500000920E-02 0. -1.
</event>
<event>
 5   0  0.2938972E-05  0.2275443E+04  0.7818609E-02  0.8487667E-01
       -2   -1    0    0    0  501  0.00000000000E+00  0.00000000000E+00  0.99196076160E+03  0.99196076160E+03  0.25500000920E-02 0.  1.
        2   -1    0    0  501    0  0.00000000000E+00  0.00000000000E+00 -0.13049009714E+04  0.13049009714E+04  0.25500000920E-02 0. -1.
    10030    2    1    2    0    0  0.00000000000E+00  0.00000000000E+00 -0.31294020984E+03  0.22968617330E+04  0.22754433075E+04 0.  0.
        2    1    3    3  502    0  0.40323519770E+03 -0.58388700632E+03 -0.10541599212E+04  0.12707382895E+04  0.25500000920E-02 0. -1.
       -2    1    3    3    0  502 -0.40323519770E+03  0.58388700632E+03  0.74121971141E+03  0.10261234435E+04  0.25500000920E-02 0.  1.
</event>
<event>
 5   0  0.2938972E-05  0.2304170E+04  0.7818609E-02  0.8476279E-01
       -2   -1    0    0    0  501  0.00000000000E+00  0.00000000000E+00  0.14127685938E+04  0.14127685938E+04  0.25500000920E-02 0. -1.
        2   -1    0    0  501    0  0.00000000000E+00  0.00000000000E+00 -0.93950249792E+03  0.93950249792E+03  0.25500000920E-02 0.  1.
    10030    2    1    2    0    0  0.00000000000E+00  0.00000000000E+00  0.47326609591E+03  0.23522710918E+04  0.23041698053E+04 0.  0.
        2    1    3    3  502    0 -0.45455207820E+03 -0.62804900067E+03  0.11066183621E+04  0.13511725791E+04  0.25500000920E-02 0. -1.
       -2    1    3    3    0  502  0.45455207820E+03  0.62804900067E+03 -0.63335226619E+03  0.10010985127E+04  0.25500000920E-02 0.  1.
</event>
<event>
 5   0  0.2871888E-05  0.2305064E+04  0.7818609E-02  0.8475927E-01
       -2   -1    0    0    0  501  0.00000000000E+00  0.00000000000E+00  0.12216072043E+04  0.12216072043E+04  0.25500000920E-02 0. -1.
        2   -1    0    0  501    0  0.00000000000E+00  0.00000000000E+00 -0.10873625760E+04  0.10873625760E+04  0.25500000920E-02 0.  1.
    10030    2    1    2    0    0  0.00000000000E+00  0.00000000000E+00  0.13424462824E+03  0.23089697803E+04  0.23050639527E+04 0.  0.
        3    1    3    3  502    0 -0.49504581283E+03 -0.10153360846E+04  0.29631610135E+03  0.11678103286E+04  0.10100000352E+00 0. -1.
       -3    1    3    3    0  502  0.49504581283E+03  0.10153360846E+04 -0.16207147310E+03  0.11411594517E+04  0.10100000352E+00 0.  1.
</event>
<event>
 5   0  0.1327820E-05  0.2296927E+04  0.7818609E-02  0.8479134E-01
       -1   -1    0    0    0  501  0.00000000000E+00  0.00000000000E+00  0.80520108729E+03  0.80520108730E+03  0.50400001928E-02 0.  1.
        1   -1    0    0  501    0  0.00000000000E+00  0.00000000000E+00 -0.16380603125E+04  0.16380603125E+04  0.50400001928E-02 0. -1.
    10030    2    1    2    0    0  0.00000000000E+00  0.00000000000E+00 -0.83285922518E+03  0.24432613998E+04  0.22969265941E+04 0.  0.
        1    1    3    3  502    0  0.54218835496E+03 -0.98796099857E+03 -0.18112911742E+03  0.11414214402E+04  0.50400001928E-02 0.  1.
       -1    1    3    3    0  502 -0.54218835496E+03  0.98796099857E+03 -0.65173010776E+03  0.13018399596E+04  0.50400001928E-02 0. -1.
</event>
<event>
 5   0  0.1303224E-05  0.2292169E+04  0.7818609E-02  0.8481015E-01
        1   -1    0    0  501    0  0.00000000000E+00  0.00000000000E+00  0.13600028377E+04  0.13600028377E+04  0.50400001928E-02 0.  1.
       -1   -1    0    0    0  501  0.00000000000E+00  0.00000000000E+00 -0.96581356868E+03  0.96581356869E+03  0.50400001928E-02 0. -1.
    10030    2    1    2    0    0  0.00000000000E+00  0.00000000000E+00  0.39418926904E+03  0.23258164064E+04  0.22921685751E+04 0.  0.
        2    1    3    3  502    0  0.85723999980E+03 -0.10332485670E+03 -0.56760806930E+03  0.10333031325E+04  0.25500000920E-02 0. -1.
       -2    1    3    3    0  502 -0.85723999980E+03  0.10332485670E+03  0.96179733833E+03  0.12925132739E+04  0.25500000920E-02 0.  1.
</event>
<event>
 5   0  0.1303224E-05  0.2334374E+04  0.7818609E-02  0.8464490E-01
        1   -1    0    0  501    0  0.00000000000E+00  0.00000000000E+00  0.17303836774E+04  0.17303836774E+04  0.50400001928E-02 0. -1.
       -1   -1    0    0    0  501  0.00000000000E+00  0.00000000000E+00 -0.78729670326E+03  0.78729670327E+03  0.50400001928E-02 0.  1.
    10030    2    1    2    0    0  0.00000000000E+00  0.00000000000E+00  0.94308697413E+03  0.25176803807E+04  0.23343738900E+04 0.  0.
        2    1    3    3  502    0 -0.93566368846E+03 -0.18172737664E+03 -0.25502856248E+03  0.98667671758E+03  0.25500000920E-02 0.  1.
       -2    1    3    3    0  502  0.93566368846E+03  0.18172737664E+03  0.11981155366E+04  0.15310036631E+04  0.25500000920E-02 0. -1.
</event>
<event>
 5   0  0.2871888E-05  0.2291921E+04  0.7818609E-02  0.8481113E-01
       -2   -1    0    0    0  501  0.00000000000E+00  0.00000000000E+00  0.63533474583E+03  0.63533474584E+03  0.25500000920E-02 0.  1.
        2   -1    0    0  501    0  0.00000000000E+00  0.00000000000E+00 -0.20669821596E+04  0.20669821596E+04  0.25500000920E-02 0. -1.
    10030    2    1    2    0    0  0.00000000000E+00  0.00000000000E+00 -0.14316474138E+04  0.27023169054E+04  0.22919211025E+04 0.  0.
        3    1    3    3  502    0 -0.30940849335E+03  0.10067995054E+04 -0.18348447537E+03  0.10691330239E+04  0.10100000352E+00 0.  1.
       -3    1    3    3    0  502  0.30940849335E+03 -0.10067995054E+04 -0.12481629384E+04  0.16331838815E+04  0.10100000352E+00 0. -1.
</event>
<event>
 5   0  0.2938972E-05  0.2303744E+04  0.7818609E-02  0.8476447E-01
        2   -1    0    0  501    0  0.00000000000E+00  0.00000000000E+00  0.14115985586E+04  0.14115985586E+04  0.25500000920E-02 0.  1.
       -2   -1    0    0    0  501  0.00000000000E+00  0.00000000000E+00 -0.93993345143E+03  0.93993345144E+03  0.25500000920E-02 0. -1.
    10030    2    1    2    0    0  0.00000000000E+00  0.00000000000E+00  0.47166510720E+03  0.23515320101E+04  0.23037436535E+04 0.  0.
        2    1    3    3  502    0  0.52654729532E+03  0.88969858280E+03  0.75429914173E+03  0.12797588904E+04  0.25500000920E-02 0.  1.
       -2    1    3    3    0  502 -0.52654729532E+03 -0.88969858280E+03 -0.28263403454E+03  0.10717731196E+04  0.25500000920E-02 0. -1.
</event>
<event>
 5   0  0.2938972E-05  0.2289362E+04  0.7818609E-02  0.8482127E-01
       -2   -1    0    0    0  501  0.00000000000E+00  0.00000000000E+00  0.53933595628E+03  0.53933595628E+03  0.25500000920E-02 0.  1.
        2   -1    0    0  501    0  0.00000000000E+00  0.00000000000E+00 -0.24294587847E+04  0.24294587848E+04  0.25500000920E-02 0. -1.
    10030    2    1    2    0    0  0.00000000000E+00  0.00000000000E+00 -0.18901228285E+04  0.29687947410E+04  0.22893618997E+04 0.  0.
        2    1    3    3  502    0 -0.77466676583E+03  0.57674899757E+03 -0.17418643576E+04  0.19916926080E+04  0.25500000920E-02 0. -1.
       -2    1    3    3    0  502  0.77466676583E+03 -0.57674899757E+03 -0.14825847087E+03  0.97710213308E+03  0.25500000920E-02 0.  1.
</event>
<event>
 5   0  0.1284837E-05  0.2336579E+04  0.7818609E-02  0.8463637E-01
        1   -1    0    0  501    0  0.00000000000E+00  0.00000000000E+00  0.13509004814E+04  0.13509004814E+04  0.50400001928E-02 0. -1.
       -1   -1    0    0    0  501  0.00000000000E+00  0.00000000000E+00 -0.10103633429E+04  0.10103633429E+04  0.50400001928E-02 0.  1.
    10030    2    1    2    0    0  0.00000000000E+00  0.00000000000E+00  0.34053713851E+03  0.23612638243E+04  0.23365789748E+04 0.  0.
        4    1    3    3  502    0  0.66817418428E+03  0.34987383698E+03 -0.73136244206E+03  0.10506003412E+04  0.12699999809E+01 0.  1.
       -4    1    3    3    0  502 -0.66817418428E+03 -0.34987383698E+03  0.10718995806E+04  0.13106634831E+04  0.12699999809E+01 0. -1.
</event>
<event>
 5   0  0.1017200E-05  0.2074723E+04  0.7818609E-02  0.8572461E-01
       -3   -1    0    0    0  501  0.00000000000E+00  0.00000000000E+00  0.10313820646E+04  0.10313820695E+04  0.10100000352E+00 0. -1.
        3   -1    0    0  501    0  0.00000000000E+00  0.00000000000E+00 -0.10433752830E+04  0.10433752879E+04  0.10100000352E+00 0.  1.
    10030    2    1    2    0    0  0.00000000000E+00  0.00000000000E+00 -0.11993218366E+02  0.20747573574E+04  0.20747226935E+04 0.  0.
        3    1    3    3  502    0  0.71897611786E+02  0.20422965029E+01 -0.10408786809E+04  0.10433608561E+04  0.10100000352E+00 0.  1.
       -3    1    3    3    0  502 -0.71897611786E+02 -0.20422965029E+01  0.10288854626E+04  0.10313965013E+04  0.10100000352E+00 0. -1.
</event>
<event>
 5   0  0.2816178E-05  0.2302398E+04  0.7818609E-02  0.8476976E-01
       -2   -1    0    0    0  501  0.00000000000E+00  0.00000000000E+00  0.87889917445E+03  0.87889917445E+03  0.25500000920E-02 0. -1.
        2   -1    0    0  501    0  0.00000000000E+00  0.00000000000E+00 -0.15078626987E+04  0.15078626987E+04  0.25500000920E-02 0.  1.
    10030    2    1    2    0    0  0.00000000000E+00  0.00000000000E+00 -0.62896352421E+03  0.23867618731E+04  0.23023981246E+04 0.  0.
        1    1    3    3  502    0 -0.48349577366E+03  0.89862392781E+03 -0.86689230517E+03  0.13389530969E+04  0.50400001928E-02 0.  1.
       -1    1    3    3    0  502  0.48349577366E+03 -0.89862392781E+03  0.23792878096E+03  0.10478087763E+04  0.50400001928E-02 0. -1.
</event>
<event>
 5   0  0.2871888E-05  0.2188052E+04  0.7818609E-02  0.8523418E-01
       -2   -1    0    0    0  501  0.00000000000E+00  0.00000000000E+00  0.10236025959E+04  0.10236025959E+04  0.25500000920E-02 0.  1.
        2   -1    0    0  501    0  0.00000000000E+00  0.00000000000E+00 -0.11692940474E+04  0.11692940474E+04  0.25500000920E-02 0. -1.
    10030    2    1    2    0    0  0.00000000000E+00  0.00000000000E+00 -0.14569145151E+03  0.21928966433E+04  0.21880515737E+04 0.  0.
        3    1    3    3  502    0  0.56477053845E+03 -0.55611738685E+03  0.68291964407E+03  0.10462368563E+04  0.10100000352E+00 0.  1.
       -3    1    3    3    0  502 -0.56477053845E+03  0.55611738685E+03 -0.82861109558E+03  0.11466597869E+04  0.10100000352E+00 0. -1.
</event>
<event>
 5   0  0.1303224E-05  0.2314954E+04  0.7818609E-02  0.8472048E-01
       -1   -1    0    0    0  501  0.00000000000E+00  0.00000000000E+00  0.82797541470E+03  0.82797541471E+03  0.50400001928E-02 0.  1.
        1   -1    0    0  501    0  0.00000000000E+00  0.00000000000E+00 -0.16181067148E+04  0.16181067148E+04  0.50400001928E-02 0. -1.
    10030    2    1    2    0    0  0.00000000000E+00  0.00000000000E+00 -0.79013130013E+03  0.24460821296E+04  0.23149536309E+04 0.  0.
        2    1    3    3  502    0 -0.84953838261E+03 -0.51451811565E+03  0.23300082372E+03  0.10201635843E+04  0.25500000920E-02 0.  1.
       -2    1    3    3    0  502  0.84953838261E+03  0.51451811565E+03 -0.10231321238E+04  0.14259185453E+04  0.25500000920E-02 0. -1.
</event>
<event>
 5   0  0.2871888E-05  0.2320770E+04  0.7818609E-02  0.8469776E-01
        2   -1    0    0  501    0  0.00000000000E+00  0.00000000000E+00  0.11021478579E+04  0.11021478579E+04  0.25500000920E-02 0. -1.
       -2   -1    0    0    0  501  0.00000000000E+00  0.00000000000E+00 -0.12216997232E+04  0.12216997232E+04  0.25500000920E-02 0.  1.
    10030    2    1    2    0    0  0.00000000000E+00  0.00000000000E+00 -0.11955186525E+03  0.23238475811E+04  0.23207703315E+04 0.  0.
        3    1    3    3  502    0  0.87168483783E+03  0.61665641291E+03 -0.51468453709E+03  0.11853268625E+04  0.10100000352E+00 0.  1.
       -3    1    3    3    0  502 -0.87168483783E+03 -0.61665641291E+03  0.39513267184E+03  0.11385207186E+04  0.10100000352E+00 0. -1.
</event>
<event>
 5   0  0.2938972E-05  0.2310772E+04  0.7818609E-02  0.8473686E-01
        2   -1    0    0  501    0  0.00000000000E+00  0.00000000000E+00  0.10521540641E+04  0.10521540642E+04  0.25500000920E-02 0.  1.
       -2   -1    0    0    0  501  0.00000000000E+00  0.00000000000E+00 -0.12687460903E+04  0.12687460903E+04  0.25500000920E-02 0. -1.
    10030    2    1    2    0    0  0.00000000000E+00  0.00000000000E+00 -0.21659202610E+03  0.23209001544E+04  0.23107716073E+04 0.  0.
        2    1    3    3  502    0 -0.22637413262E+03  0.36189492219E+03 -0.11866421305E+04  0.12610839498E+04  0.25500000920E-02 0. -1.
       -2    1    3    3    0  502  0.22637413262E+03 -0.36189492219E+03  0.97005010435E+03  0.10598162046E+04  0.25500000920E-02 0.  1.
</event>
<event>
 5   0  0.2871888E-05  0.2272622E+04  0.7818609E-02  0.8488795E-01
        2   -1    0    0  501    0  0.00000000000E+00  0.00000000000E+00  0.10985800071E+04  0.10985800071E+04  0.25500000920E-02 0.  1.
       -2   -1    0    0    0  501  0.00000000000E+00  0.00000000000E+00 -0.11753374898E+04  0.11753374898E+04  0.25500000920E-02 0. -1.
    10030    2    1    2    0    0  0.00000000000E+00  0.00000000000E+00 -0.76757482709E+02  0.22739174970E+04  0.22726216297E+04 0.  0.
        3    1    3    3  502    0  0.80398772473E+03 -0.54679822927E+03  0.55001923729E+03  0.11170970131E+04  0.10100000352E+00 0.  1.
       -3    1    3    3    0  502 -0.80398772473E+03  0.54679822927E+03 -0.62677672000E+03  0.11568204839E+04  0.10100000352E+00 0. -1.
</event>
<event>
 5   0  0.1308224E-05  0.2307876E+04  0.7818609E-02  0.8474822E-01
       -1   -1    0    0    0  501  0.00000000000E+00  0.00000000000E+00  0.60603459114E+03  0.60603459117E+03  0.50400001928E-02 0. -1.
        1   -1    0    0  501    0  0.00000000000E+00  0.00000000000E+00 -0.21971903517E+04  0.21971903517E+04  0.50400001928E-02 0.  1.
    10030    2    1    2    0    0  0.00000000000E+00  0.00000000000E+00 -0.15911557605E+04  0.28032249428E+04  0.23078763888E+04 0.  0.
        5    1    3    3  502    0  0.66765339181E+03 -0.93673938847E+03 -0.90629982693E+03  0.14644600369E+04  0.46999998093E+01 0.  1.
       -5    1    3    3    0  502 -0.66765339181E+03  0.93673938847E+03 -0.68485593359E+03  0.13387649059E+04  0.46999998093E+01 0. -1.
</event>
<event>
 5   0  0.1308224E-05  0.2322440E+04  0.7818609E-02  0.8469126E-01
        1   -1    0    0  501    0  0.00000000000E+00  0.00000000000E+00  0.14309695675E+04  0.14309695675E+04  0.50400001928E-02 0. -1.
       -1   -1    0    0    0  501  0.00000000000E+00  0.00000000000E+00 -0.94232039418E+03  0.94232039419E+03  0.50400001928E-02 0.  1.
    10030    2    1    2    0    0  0.00000000000E+00  0.00000000000E+00  0.48864917329E+03  0.23732899617E+04  0.23224399298E+04 0.  0.
        5    1    3    3  502    0  0.36116622690E+03  0.33796631406E+03 -0.82927211360E+03  0.96559650024E+03  0.46999998093E+01 0.  1.
       -5    1    3    3    0  502 -0.36116622690E+03 -0.33796631406E+03  0.13179212869E+04  0.14076934614E+04  0.46999998093E+01 0. -1.
</event>
<event>
 5   0  0.2816178E-05  0.2286245E+04  0.7818609E-02  0.8483364E-01
        2   -1    0    0  501    0  0.00000000000E+00  0.00000000000E+00  0.14526769990E+04  0.14526769990E+04  0.25500000920E-02 0.  1.
       -2   -1    0    0    0  501  0.00000000000E+00  0.00000000000E+00 -0.89953162661E+03  0.89953162662E+03  0.25500000920E-02 0. -1.
    10030    2    1    2    0    0  0.00000000000E+00  0.00000000000E+00  0.55314537238E+03  0.23522086256E+04  0.22862448722E+04 0.  0.
        1    1    3    3  502    0  0.92790056961E+03  0.32498635395E+03 -0.32344617942E+03  0.10350038784E+04  0.50400001928E-02 0. -1.
       -1    1    3    3    0  502 -0.92790056961E+03 -0.32498635395E+03  0.87659155180E+03  0.13172047472E+04  0.50400001928E-02 0.  1.
</event>
<event>
 5   0  0.1284837E-05  0.2295532E+04  0.7818609E-02  0.8479685E-01
       -1   -1    0    0    0  501  0.00000000000E+00  0.00000000000E+00  0.12497343948E+04  0.12497343948E+04  0.50400001928E-02 0. -1.
        1   -1    0    0  501    0  0.00000000000E+00  0.00000000000E+00 -0.10541174297E+04  0.10541174297E+04  0.50400001928E-02 0.  1.
    10030    2    1    2    0    0  0.00000000000E+00  0.00000000000E+00  0.19561696509E+03  0.23038518246E+04  0.22955320151E+04 0.  0.
        4    1    3    3  502    0 -0.58449908721E+03 -0.56279221062E+03 -0.71691627027E+03  0.10827487274E+04  0.12699999809E+01 0.  1.
       -4    1    3    3    0  502  0.58449908721E+03  0.56279221062E+03  0.91253323536E+03  0.12211030971E+04  0.12699999809E+01 0. -1.
</event>
<event>
 5   0  0.2938972E-05  0.2299615E+04  0.7818609E-02  0.8478073E-01
       -2   -1    0    0    0  501  0.00000000000E+00  0.00000000000E+00  0.58127688572E+03  0.58127688572E+03  0.25500000920E-02 0. -1.
        2   -1    0    0  501    0  0.00000000000E+00  0.00000000000E+00 -0.22744028559E+04  0.22744028559E+04  0.25500000920E-02 0.  1.
    10030    2    1    2    0    0  0.00000000000E+00  0.00000000000E+00 -0.16931259702E+04  0.28556797416E+04  0.22996154539E+04 0.  0.
        2    1    3    3  502    0 -0.74780580944E+03 -0.68556332515E+03 -0.17455439326E+03  0.10294075178E+04  0.25500000920E-02 0. -1.
       -2    1    3    3    0  502  0.74780580944E+03  0.68556332515E+03 -0.15185715769E+04  0.18262722239E+04  0.25500000920E-02 0.  1.
</event>
<event>
 5   0  0.1327820E-05  0.2061284E+04  0.7818609E-02  0.8578493E-01
       -1   -1    0    0    0  501  0.00000000000E+00  0.00000000000E+00  0.83028024682E+03  0.83028024683E+03  0.50400001928E-02 0.  1.
        1   -1    0    0  501    0  0.00000000000E+00  0.00000000000E+00 -0.12793542608E+04  0.12793542608E+04  0.50400001928E-02 0. -1.
    10030    2    1    2    0    0  0.00000000000E+00  0.00000000000E+00 -0.44907401400E+03  0.21096345077E+04  0.20612836500E+04 0.  0.
        1    1    3    3  502    0  0.53246913901E+03 -0.37696171977E+03 -0.10411239945E+04  0.12286426226E+04  0.50400001928E-02 0. -1.
       -1    1    3    3    0  502 -0.53246913901E+03  0.37696171977E+03  0.59204998046E+03  0.88099188507E+03  0.50400001928E-02 0.  1.
</event>
<event>
 5   0  0.2994157E-05  0.2307385E+04  0.7818609E-02  0.8475015E-01
       -2   -1    0    0    0  501  0.00000000000E+00  0.00000000000E+00  0.58890021317E+03  0.58890021317E+03  0.25500000920E-02 0.  1.
        2   -1    0    0  501    0  0.00000000000E+00  0.00000000000E+00 -0.22601563126E+04  0.22601563126E+04  0.25500000920E-02 0. -1.
    10030    2    1    2    0    0  0.00000000000E+00  0.00000000000E+00 -0.16712560994E+04  0.28490565258E+04  0.23073851298E+04 0.  0.
        4    1    3    3  502    0  0.70308027981E+02  0.10795197299E+04 -0.34064837260E+03  0.11341732640E+04  0.12699999809E+01 0.  1.
       -4    1    3    3    0  502 -0.70308027981E+02 -0.10795197299E+04 -0.13306077268E+04  0.17148832618E+04  0.12699999809E+01 0. -1.
</event>
<event>
 5   0  0.1284837E-05  0.2335034E+04  0.7818609E-02  0.8464234E-01
       -1   -1    0    0    0  501  0.00000000000E+00  0.00000000000E+00  0.10203026327E+04  0.10203026327E+04  0.50400001928E-02 0. -1.
        1   -1    0    0  501    0  0.00000000000E+00  0.00000000000E+00 -0.13359723603E+04  0.13359723603E+04  0.50400001928E-02 0.  1.
    10030    2    1    2    0    0  0.00000000000E+00  0.00000000000E+00 -0.31566972763E+03  0.23562749930E+04  0.23350341466E+04 0.  0.
        4    1    3    3  502    0  0.31210485918E+03  0.28149338226E+03 -0.12569845104E+04  0.13253903726E+04  0.12699999809E+01 0.  1.
       -4    1    3    3    0  502 -0.31210485918E+03 -0.28149338226E+03  0.94131478281E+03  0.10308846204E+04  0.12699999809E+01 0. -1.
</event>
<event>
 5   0  0.2910126E-05  0.2277944E+04  0.7818609E-02  0.8486669E-01
       -2   -1    0    0    0  501  0.00000000000E+00  0.00000000000E+00  0.57023785238E+03  0.57023785239E+03  0.25500000920E-02 0.  1.
        2   -1    0    0  501    0  0.00000000000E+00  0.00000000000E+00 -0.22749404466E+04  0.22749404466E+04  0.25500000920E-02 0. -1.
    10030    2    1    2    0    0  0.00000000000E+00  0.00000000000E+00 -0.17047025942E+04  0.28451782990E+04  0.22779439454E+04 0.  0.
        5    1    3    3  502    0  0.22527422377E+03 -0.52307287028E+03  0.37960810432E+03  0.68445460505E+03  0.46999998093E+01 0.  1.
       -5    1    3    3    0  502 -0.22527422377E+03  0.52307287028E+03 -0.20843106985E+04  0.21607236939E+04  0.46999998093E+01 0. -1.
</event>
<event>
 5   0  0.1284837E-05  0.2305820E+04  0.7818609E-02  0.8475630E-01
        1   -1    0    0  501    0  0.00000000000E+00  0.00000000000E+00  0.13143171344E+04  0.13143171344E+04  0.50400001928E-02 0.  1.
       -1   -1    0    0    0  501  0.00000000000E+00  0.00000000000E+00 -0.10113245067E+04  0.10113245067E+04  0.50400001928E-02 0. -1.
    10030    2    1    2    0    0  0.00000000000E+00  0.00000000000E+00  0.30299262765E+03  0.23256416411E+04  0.23058197047E+04 0.  0.
        4    1    3    3  502    0  0.74525256900E+03  0.78520540093E+03  0.55145359404E+03  0.12149286368E+04  0.12699999809E+01 0.  1.
       -4    1    3    3    0  502 -0.74525256900E+03 -0.78520540093E+03 -0.24846096639E+03  0.11107130043E+04  0.12699999809E+01 0. -1.
</event>
<event>
 5   0  0.1308224E-05  0.2303985E+04  0.7818609E-02  0.8476352E-01
        1   -1    0    0  501    0  0.00000000000E+00  0.00000000000E+00  0.13294738772E+04  0.13294738772E+04  0.50400001928E-02 0.  1.
       -1   -1    0    0    0  501  0.00000000000E+00  0.00000000000E+00 -0.99820402950E+03  0.99820402952E+03  0.50400001928E-02 0. -1.
    10030    2    1    2    0    0  0.00000000000E+00  0.00000000000E+00  0.33126984767E+03  0.23276779067E+04  0.23039845324E+04 0.  0.
        5    1    3    3  502    0 -0.34623582488E+03 -0.10883809950E+04  0.13716831752E+02  0.11422183146E+04  0.46999998093E+01 0.  1.
       -5    1    3    3    0  502  0.34623582488E+03  0.10883809950E+04  0.31755301592E+03  0.11854595921E+04  0.46999998093E+01 0. -1.
</event>
<event>
 5   0  0.2816178E-05  0.2295806E+04  0.7818609E-02  0.8479577E-01
       -2   -1    0    0    0  501  0.00000000000E+00  0.00000000000E+00  0.66909936098E+03  0.66909936099E+03  0.25500000920E-02 0.  1.
        2   -1    0    0  501    0  0.00000000000E+00  0.00000000000E+00 -0.19693356047E+04  0.19693356047E+04  0.25500000920E-02 0. -1.
    10030    2    1    2    0    0  0.00000000000E+00  0.00000000000E+00 -0.13002362437E+04  0.26384349657E+04  0.22958059105E+04 0.  0.
        1    1    3    3  502    0 -0.40057923489E+03  0.68946767650E+03  0.29886003905E+03  0.85155547284E+03  0.50400001928E-02 0.  1.
       -1    1    3    3    0  502  0.40057923489E+03 -0.68946767650E+03 -0.15990962827E+04  0.17868794928E+04  0.50400001928E-02 0. -1.
</event>
<event>
 5   0  0.1308224E-05  0.2295699E+04  0.7818609E-02  0.8479619E-01
       -1   -1    0    0    0  501  0.00000000000E+00  0.00000000000E+00  0.76125306959E+03  0.76125306961E+03  0.50400001928E-02 0. -1.
        1   -1    0    0  501    0  0.00000000000E+00  0.00000000000E+00 -0.17307757498E+04  0.17307757498E+04  0.50400001928E-02 0.  1.
    10030    2    1    2    0    0  0.00000000000E+00  0.00000000000E+00 -0.96952268020E+03  0.24920288194E+04  0.22956988934E+04 0.  0.
        5    1    3    3  502    0  0.97808846923E+03 -0.30101637429E+03 -0.10490947101E+04  0.14655680510E+04  0.46999998093E+01 0.  1.
       -5    1    3    3    0  502 -0.97808846923E+03  0.30101637429E+03  0.79572029896E+02  0.10264607685E+04  0.46999998093E+01 0. -1.
</event>
<event>
 5   0  0.2816178E-05  0.2324510E+04  0.7818609E-02  0.8468319E-01
       -2   -1    0    0    0  501  0.00000000000E+00  0.00000000000E+00  0.11918959899E+04  0.11918959899E+04  0.25500000920E-02 0. -1.
        2   -1    0    0  501    0  0.00000000000E+00  0.00000000000E+00 -0.11333509381E+04  0.11333509381E+04  0.25500000920E-02 0.  1.
    10030    2    1    2    0    0  0.00000000000E+00  0.00000000000E+00  0.58545051841E+02  0.23252469280E+04  0.23245097877E+04 0.  0.
        1    1    3    3  502    0  0.65004009051E+03 -0.12497601804E+03  0.98491066250E+03  0.11866845147E+04  0.50400001928E-02 0. -1.
       -1    1    3    3    0  502 -0.65004009051E+03  0.12497601804E+03 -0.92636561066E+03  0.11385624133E+04  0.50400001928E-02 0.  1.
</event>
<event>
 5   0  0.1371753E-05  0.2298477E+04  0.7818609E-02  0.8478522E-01
       -1   -1    0    0    0  501  0.00000000000E+00  0.00000000000E+00  0.11348362609E+04  0.11348362609E+04  0.50400001928E-02 0.  1.
        1   -1    0    0  501    0  0.00000000000E+00  0.00000000000E+00 -0.11638238150E+04  0.11638238150E+04  0.50400001928E-02 0. -1.
    10030    2    1    2    0    0  0.00000000000E+00  0.00000000000E+00 -0.28987554093E+02  0.22986600759E+04  0.22984772930E+04 0.  0.
        3    1    3    3  502    0 -0.11237307937E+04 -0.13942100700E+03 -0.21082633254E+03  0.11518059154E+04  0.10100000352E+00 0. -1.
       -3    1    3    3    0  502  0.11237307937E+04  0.13942100700E+03  0.18183877844E+03  0.11468541605E+04  0.10100000352E+00 0.  1.
</event>
<event>
 5   0  0.1308224E-05  0.2299728E+04  0.7818609E-02  0.8478028E-01
        1   -1    0    0  501    0  0.00000000000E+00  0.00000000000E+00  0.13541440419E+04  0.13541440420E+04  0.50400001928E-02 0. -1.
       -1   -1    0    0    0  501  0.00000000000E+00  0.00000000000E+00 -0.97640066599E+03  0.97640066600E+03  0.50400001928E-02 0.  1.
    10030    2    1    2    0    0  0.00000000000E+00  0.00000000000E+00  0.37774337595E+03  0.23305447080E+04  0.22997279356E+04 0.  0.
        5    1    3    3  502    0 -0.83332320766E+03  0.60618791998E+03 -0.32813494374E+03  0.10814739914E+04  0.46999998093E+01 0. -1.
       -5    1    3    3    0  502  0.83332320766E+03 -0.60618791998E+03  0.70587831970E+03  0.12490707166E+04  0.46999998093E+01 0.  1.
</event>
<event>
 5   0  0.2994157E-05  0.2284078E+04  0.7818609E-02  0.8484226E-01
        2   -1    0    0  501    0  0.00000000000E+00  0.00000000000E+00  0.11057688507E+04  0.11057688507E+04  0.25500000920E-02 0.  1.
       -2   -1    0    0    0  501  0.00000000000E+00  0.00000000000E+00 -0.11794987361E+04  0.11794987361E+04  0.25500000920E-02 0. -1.
    10030    2    1    2    0    0  0.00000000000E+00  0.00000000000E+00 -0.73729885420E+02  0.22852675868E+04  0.22840778987E+04 0.  0.
        4    1    3    3  502    0  0.19969786415E+03 -0.98437962360E+03 -0.58062650931E+03  0.11601772436E+04  0.12699999809E+01 0. -1.
       -4    1    3    3    0  502 -0.19969786415E+03  0.98437962360E+03  0.50689662389E+03  0.11250903433E+04  0.12699999809E+01 0.  1.
</event>
<event>
 5   0  0.2938972E-05  0.2336493E+04  0.7818609E-02  0.8463670E-01
        2   -1    0    0  501    0  0.00000000000E+00  0.00000000000E+00  0.21706105067E+04  0.21706105067E+04  0.25500000920E-02 0. -1.
       -2   -1    0    0    0  501  0.00000000000E+00  0.00000000000E+00 -0.62876302723E+03  0.62876302723E+03  0.25500000920E-02 0.  1.
    10030    2    1    2    0    0  0.00000000000E+00  0.00000000000E+00  0.15418474795E+04  0.27993735339E+04  0.23364927846E+04 0.  0.
        2    1    3    3  502    0  0.52999905429E+03  0.25287815961E+03  0.19809270150E+04  0.20661360556E+04  0.25500000920E-02 0. -1.
       -2    1    3    3    0  502 -0.52999905429E+03 -0.25287815961E+03 -0.43907953556E+03  0.73323747839E+03  0.25500000920E-02 0.  1.
</event>
<event>
 5   0  0.1284837E-05  0.2297996E+04  0.7818609E-02  0.8478712E-01
       -1   -1    0    0    0  501  0.00000000000E+00  0.00000000000E+00  0.19590718906E+04  0.19590718906E+04  0.50400001928E-02 0. -1.
        1   -1    0    0  501    0  0.00000000000E+00  0.00000000000E+00 -0.67388882507E+03  0.67388882509E+03  0.50400001928E-02 0.  1.
    10030    2    1    2    0    0  0.00000000000E+00  0.00000000000E+00  0.12851830656E+04  0.26329607157E+04  0.22979962181E+04 0.  0.
        4    1    3    3  502    0  0.47393361098E+03  0.73860419211E+03 -0.20716498565E+03  0.90170292469E+03  0.12699999809E+01 0.  1.
       -4    1    3    3    0  502 -0.47393361098E+03 -0.73860419211E+03  0.14923480512E+04  0.17312577911E+04  0.12699999809E+01 0. -1.
</event>
<event>
 5   0  0.2910126E-05  0.2287903E+04  0.7818609E-02  0.8482706E-01
       -2   -1    0    0    0  501  0.00000000000E+00  0.00000000000E+00  0.89981559920E+03  0.89981559920E+03  0.25500000920E-02 0.  1.
        2   -1    0    0  501    0  0.00000000000E+00  0.00000000000E+00 -0.14543255204E+04  0.14543255204E+04  0.25500000920E-02 0. -1.
    10030    2    1    2    0    0  0.00000000000E+00  0.00000000000E+00 -0.55450992124E+03  0.23541411196E+04  0.22879027861E+04 0.  0.
        5    1    3    3  502    0 -0.72067884563E+03  0.28116660191E+03  0.58985884400E+03  0.97282485701E+03  0.46999998093E+01 0.  1.
       -5    1    3    3    0  502  0.72067884563E+03 -0.28116660191E+03 -0.11443687652E+04  0.13813162626E+04  0.46999998093E+01 0. -1.
</event>
<event>
 5   0  0.1327820E-05  0.2325058E+04  0.7818609E-02  0.8468106E-01
       -1   -1    0    0    0  501  0.00000000000E+00  0.00000000000E+00  0.12499921810E+04  0.12499921810E+04  0.50400001928E-02 0. -1.
        1   -1    0    0  501    0  0.00000000000E+00  0.00000000000E+00 -0.10811861612E+04  0.10811861612E+04  0.50400001928E-02 0.  1.
    10030    2    1    2    0    0  0.00000000000E+00  0.00000000000E+00  0.16880601975E+03  0.23311783422E+04  0.23250584920E+04 0.  0.
        1    1    3    3  502    0 -0.94753798705E+02  0.10500083705E+03  0.12413339567E+04  0.12493652189E+04  0.50400001928E-02 0. -1.
       -1    1    3    3    0  502  0.94753798705E+02 -0.10500083705E+03 -0.10725279370E+04  0.10818131233E+04  0.50400001928E-02 0.  1.
</event>
<event>
 5   0  0.2994157E-05  0.2306410E+04  0.7818609E-02  0.8475398E-01
       -2   -1    0    0    0  501  0.00000000000E+00  0.00000000000E+00  0.99954757483E+03  0.99954757484E+03  0.25500000920E-02 0. -1.
        2   -1    0    0  501    0  0.00000000000E+00  0.00000000000E+00 -0.13304837375E+04  0.13304837375E+04  0.25500000920E-02 0.  1.
    10030    2    1    2    0    0  0.00000000000E+00  0.00000000000E+00 -0.33093616266E+03  0.23300313123E+04  0.23064100183E+04 0.  0.
        4    1    3    3  502    0  0.34937348967E+03 -0.71168413391E+03  0.68055966042E+03  0.10448536769E+04  0.12699999809E+01 0. -1.
       -4    1    3    3    0  502 -0.34937348967E+03  0.71168413391E+03 -0.10114958231E+04  0.12851776355E+04  0.12699999809E+01 0.  1.
</event>
<event>
 5   0  0.1303224E-05  0.2297751E+04  0.7818609E-02  0.8478809E-01
        1   -1    0    0  501    0  0.00000000000E+00  0.00000000000E+00  0.10533727592E+04  0.10533727592E+04  0.50400001928E-02 0. -1.
       -1   -1    0    0    0  501  0.00000000000E+00  0.00000000000E+00 -0.12530364148E+04  0.12530364148E+04  0.50400001928E-02 0.  1.
    10030    2    1    2    0    0  0.00000000000E+00  0.00000000000E+00 -0.19966365562E+03  0.23064091740E+04  0.22977505744E+04 0.  0.
        2    1    3    3  502    0 -0.34284775340E+03 -0.49831946244E+03 -0.10802661028E+04  0.12380798527E+04  0.25500000920E-02 0.  1.
       -2    1    3    3    0  502  0.34284775340E+03  0.49831946244E+03  0.88060244721E+03  0.10683293213E+04  0.25500000920E-02 0. -1.
</event>
<event>
 5   0  0.1303224E-05  0.2283642E+04  0.7818609E-02  0.8484399E-01
        1   -1    0    0  501    0  0.00000000000E+00  0.00000000000E+00  0.78782162752E+03  0.78782162753E+03  0.50400001928E-02 0. -1.
       -1   -1    0    0    0  501  0.00000000000E+00  0.00000000000E+00 -0.16548868089E+04  0.16548868089E+04  0.50400001928E-02 0.  1.
    10030    2    1    2    0    0  0.00000000000E+00  0.00000000000E+00 -0.86706518139E+03  0.24427084365E+04  0.22836423706E+04 0.  0.
        2    1    3    3  502    0  0.10539240938E+04  0.19806279245E+03 -0.85298279670E+03  0.13702425029E+04  0.25500000920E-02 0.  1.
       -2    1    3    3    0  502 -0.10539240938E+04 -0.19806279245E+03 -0.14082384698E+02  0.10724659336E+04  0.25500000920E-02 0. -1.
</event>
<event>
 5   0  0.2938972E-05  0.2298078E+04  0.7818609E-02  0.8478679E-01
       -2   -1    0    0    0  501  0.00000000000E+00  0.00000000000E+00  0.14745514763E+04  0.14745514763E+04  0.25500000920E-02 0.  1.
        2   -1    0    0  501    0  0.00000000000E+00  0.00000000000E+00 -0.89538453080E+03  0.89538453080E+03  0.25500000920E-02 0. -1.
    10030    2    1    2    0    0  0.00000000000E+00  0.00000000000E+00  0.57916694546E+03  0.23699360071E+04  0.22980779636E+04 0.  0.
        2    1    3    3  502    0  0.60495490131E+03  0.12157157664E+03 -0.71002427613E+03  0.94068302502E+03  0.25500000920E-02 0. -1.
       -2    1    3    3    0  502 -0.60495490131E+03 -0.12157157664E+03  0.12891912216E+04  0.14292529821E+04  0.25500000920E-02 0.  1.
</event>
<event>
 5   0  0.1308224E-05  0.2305518E+04  0.7818609E-02  0.8475748E-01
       -1   -1    0    0    0  501  0.00000000000E+00  0.00000000000E+00  0.17656281969E+04  0.17656281969E+04  0.50400001928E-02 0. -1.
        1   -1    0    0  501    0  0.00000000000E+00  0.00000000000E+00 -0.75262374191E+03  0.75262374192E+03  0.50400001928E-02 0.  1.
    10030    2    1    2    0    0  0.00000000000E+00  0.00000000000E+00  0.10130044550E+04  0.25182519388E+04  0.23055183369E+04 0.  0.
        5    1    3    3  502    0 -0.96690563995E+03  0.80183912090E+02  0.11864319136E+04  0.15326378411E+04  0.46999998093E+01 0. -1.
       -5    1    3    3    0  502  0.96690563995E+03 -0.80183912090E+02 -0.17342745857E+03  0.98561409777E+03  0.46999998093E+01 0.  1.
</event>
<event>
 5   0  0.1284837E-05  0.2297707E+04  0.7818609E-02  0.8478826E-01
        1   -1    0    0  501    0  0.00000000000E+00  0.00000000000E+00  0.67073341063E+03  0.67073341065E+03  0.50400001928E-02 0. -1.
       -1   -1    0    0    0  501  0.00000000000E+00  0.00000000000E+00 -0.19677929990E+04  0.19677929990E+04  0.50400001928E-02 0.  1.
    10030    2    1    2    0    0  0.00000000000E+00  0.00000000000E+00 -0.12970595883E+04  0.26385264096E+04  0.22977071264E+04 0.  0.
        4    1    3    3  502    0  0.84056461891E+03 -0.28585094598E+03  0.18873068125E+03  0.90767864624E+03  0.12699999809E+01 0.  1.
       -4    1    3    3    0  502 -0.84056461891E+03  0.28585094598E+03 -0.14857902696E+04  0.17308477634E+04  0.12699999809E+01 0. -1.
</event>
<event>
 5   0  0.1308224E-05  0.2275304E+04  0.7818609E-02  0.8487723E-01
        1   -1    0    0  501    0  0.00000000000E+00  0.00000000000E+00  0.12328097397E+04  0.12328097397E+04  0.50400001928E-02 0.  1.
       -1   -1    0    0    0  501  0.00000000000E+00  0.00000000000E+00 -0.10498391429E+04  0.10498391430E+04  0.50400001928E-02 0. -1.
    10030    2    1    2    0    0  0.00000000000E+00  0.00000000000E+00  0.18297059680E+03  0.22826488827E+04  0.22753038659E+04 0.  0.
        5    1    3    3  502    0 -0.95578026503E+03  0.44986623819E+03 -0.33217437694E+03  0.11073650952E+04  0.46999998093E+01 0. -1.
       -5    1    3    3    0  502  0.95578026503E+03 -0.44986623819E+03  0.51514497374E+03  0.11752837875E+04  0.46999998093E+01 0.  1.
</event>
<event>
 5   0  0.2938972E-05  0.2291223E+04  0.7818609E-02  0.8481390E-01
       -2   -1    0    0    0  501  0.00000000000E+00  0.00000000000E+00  0.10885656937E+04  0.10885656937E+04  0.25500000920E-02 0. -1.
        2   -1    0    0  501    0  0.00000000000E+00  0.00000000000E+00 -0.12056469467E+04  0.12056469467E+04  0.25500000920E-02 0.  1.
    10030    2    1    2    0    0  0.00000000000E+00  0.00000000000E+00 -0.11708125301E+03  0.22942126404E+04  0.22912231710E+04 0.  0.
        2    1    3    3  502    0 -0.52589368750E+03  0.76914297039E+03  0.60887298661E+03  0.11130459978E+04  0.25500000920E-02 0. -1.
       -2    1    3    3    0  502  0.52589368750E+03 -0.76914297039E+03 -0.72595423962E+03  0.11811666426E+04  0.25500000920E-02 0.  1.
</event>
<event>
 5   0  0.2938972E-05  0.2310910E+04  0.7818609E-02  0.8473632E-01
       -2   -1    0    0    0  501  0.00000000000E+00  0.00000000000E+00  0.91517881697E+03  0.91517881697E+03  0.25500000920E-02 0. -1.
        2   -1    0    0  501    0  0.00000000000E+00  0.00000000000E+00 -0.14588151474E+04  0.14588151474E+04  0.25500000920E-02 0.  1.
    10030    2    1    2    0    0  0.00000000000E+00  0.00000000000E+00 -0.54363633048E+03  0.23739939644E+04  0.23109104014E+04 0.  0.
        2    1    3    3  502    0 -0.49378223173E+03 -0.57606333322E+03  0.62341005179E+03  0.98199284566E+03  0.25500000920E-02 0. -1.
       -2    1    3    3    0  502  0.49378223173E+03  0.57606333322E+03 -0.11670463823E+04  0.13920011188E+04  0.25500000920E-02 0.  1.
</event>
<event>
 5   0  0.1327820E-05  0.2305753E+04  0.7818609E-02  0.8475656E-01
        1   -1    0    0  501    0  0.00000000000E+00  0.00000000000E+00  0.11428726367E+04  0.11428726367E+04  0.50400001928E-02 0. -1.
       -1   -1    0    0    0  501  0.00000000000E+00  0.00000000000E+00 -0.11629682829E+04  0.11629682829E+04  0.50400001928E-02 0.  1.
    10030    2    1    2    0    0  0.00000000000E+00  0.00000000000E+00 -0.20095646178E+02  0.23058409197E+04  0.23057533502E+04 0.  0.
        1    1    3    3  502    0 -0.33445111024E+03 -0.10696190397E+04  0.26048452542E+03  0.11505627420E+04  0.50400001928E-02 0. -1.
       -1    1    3    3    0  502  0.33445111024E+03  0.10696190397E+04 -0.28058017160E+03  0.11552781777E+04  0.50400001928E-02 0.  1.
</event>
<event>
 5   0  0.2871888E-05  0.2289821E+04  0.7818609E-02  0.8481945E-01
       -2   -1    0    0    0  501  0.00000000000E+00  0.00000000000E+00  0.10141240938E+04  0.10141240938E+04  0.25500000920E-02 0.  1.
        2   -1    0    0  501    0  0.00000000000E+00  0.00000000000E+00 -0.12925636305E+04  0.12925636305E+04  0.25500000920E-02 0. -1.
    10030    2    1    2    0    0  0.00000000000E+00  0.00000000000E+00 -0.27843953674E+03  0.23066877243E+04  0.22898208842E+04 0.  0.
        3    1    3    3  502    0  0.81770120186E+03  0.60458131215E+03 -0.66908480084E+03  0.12173037006E+04  0.10100000352E+00 0. -1.
       -3    1    3    3    0  502 -0.81770120186E+03 -0.60458131215E+03  0.39064526410E+03  0.10893840237E+04  0.10100000352E+00 0.  1.
</event>
<event>
 5   0  0.2871888E-05  0.2338857E+04  0.7818609E-02  0.8462756E-01
       -2   -1    0    0    0  501  0.00000000000E+00  0.00000000000E+00  0.61994091274E+03  0.61994091274E+03  0.25500000920E-02 0.  1.
        2   -1    0    0  501    0  0.00000000000E+00  0.00000000000E+00 -0.22059561534E+04  0.22059561534E+04  0.25500000920E-02 0. -1.
    10030    2    1    2    0    0  0.00000000000E+00  0.00000000000E+00 -0.15860152407E+04  0.28258970662E+04  0.23388565336E+04 0.  0.
        3    1    3    3  502    0 -0.29562906040E+03 -0.34047243785E+03  0.51068390308E+03  0.68126065596E+03  0.10100000352E+00 0.  1.
       -3    1    3    3    0  502  0.29562906040E+03  0.34047243785E+03 -0.20966991438E+04  0.21446364102E+04  0.10100000352E+00 0. -1.
</event>
<event>
 5   0  0.2994157E-05  0.2308139E+04  0.7818609E-02  0.8474719E-01
       -2   -1    0    0    0  501  0.00000000000E+00  0.00000000000E+00  0.13849754293E+04  0.13849754293E+04  0.25500000920E-02 0.  1.
        2   -1    0    0  501    0  0.00000000000E+00  0.00000000000E+00 -0.96166053246E+03  0.96166053247E+03  0.25500000920E-02 0. -1.
    10030    2    1    2    0    0  0.00000000000E+00  0.00000000000E+00  0.42331489685E+03  0.23466359618E+04  0.23081388250E+04 0.  0.
        4    1    3    3  502    0 -0.47486895846E+03 -0.96366650284E+03  0.64025836536E+03  0.12506342566E+04  0.12699999809E+01 0.  1.
       -4    1    3    3    0  502  0.47486895846E+03  0.96366650284E+03 -0.21694346851E+03  0.10960017052E+04  0.12699999809E+01 0. -1.
</event>
<event>
 5   0  0.1284837E-05  0.2302386E+04  0.7818609E-02  0.8476981E-01
        1   -1    0    0  501    0  0.00000000000E+00  0.00000000000E+00  0.16660504713E+04  0.16660504713E+04  0.50400001928E-02 0. -1.
       -1   -1    0    0    0  501  0.00000000000E+00  0.00000000000E+00 -0.79544118512E+03  0.79544118514E+03  0.50400001928E-02 0.  1.
    10030    2    1    2    0    0  0.00000000000E+00  0.00000000000E+00  0.87060928620E+03  0.24614916565E+04  0.23023858594E+04 0.  0.
        4    1    3    3  502    0  0.13704940413E+03  0.67526631660E+03 -0.55063741930E+03  0.88202625694E+03  0.12699999809E+01 0.  1.
       -4    1    3    3    0  502 -0.13704940413E+03 -0.67526631660E+03  0.14212467055E+04  0.15794653995E+04  0.12699999809E+01 0. -1.
</event>
<event>
 5   0  0.1284837E-05  0.2299506E+04  0.7818609E-02  0.8478116E-01
       -1   -1    0    0    0  501  0.00000000000E+00  0.00000000000E+00  0.11955853268E+04  0.11955853268E+04  0.50400001928E-02 0. -1.
        1   -1    0    0  501    0  0.00000000000E+00  0.00000000000E+00 -0.11056772241E+04  0.11056772241E+04  0.50400001928E-02 0.  1.
    10030    2    1    2    0    0  0.00000000000E+00  0.00000000000E+00  0.89908102717E+02  0.23012625508E+04  0.22995055688E+04 0.  0.
        4    1    3    3  502    0  0.55105475461E+03  0.13758299262E+03 -0.95547942612E+03  0.11115453068E+04  0.12699999809E+01 0.  1.
       -4    1    3    3    0  502 -0.55105475461E+03 -0.13758299262E+03  0.10453875288E+04  0.11897172440E+04  0.12699999809E+01 0. -1.
</event>
<event>
 5   0  0.2910126E-05  0.2316700E+04  0.7818609E-02  0.8471366E-01
        2   -1    0    0  501    0  0.00000000000E+00  0.00000000000E+00  0.12206440672E+04  0.12206440672E+04  0.25500000920E-02 0. -1.
       -2   -1    0    0    0  501  0.00000000000E+00  0.00000000000E+00 -0.10992350409E+04  0.10992350409E+04  0.25500000920E-02 0.  1.
    10030    2    1    2    0    0  0.00000000000E+00  0.00000000000E+00  0.12140902628E+03  0.23198791080E+04  0.23167000074E+04 0.  0.
        5    1    3    3  502    0 -0.98966539586E+03  0.31130479330E+03 -0.45517655369E+03  0.11329413291E+04  0.46999998093E+01 0.  1.
       -5    1    3    3    0  502  0.98966539586E+03 -0.31130479330E+03  0.57658557998E+03  0.11869377790E+04  0.46999998093E+01 0. -1.
</event>
<event>
 5   0  0.1284837E-05  0.2303234E+04  0.7818609E-02  0.8476647E-01
        1   -1    0    0  501    0  0.00000000000E+00  0.00000000000E+00  0.18231346552E+04  0.18231346552E+04  0.50400001928E-02 0.  1.
       -1   -1    0    0    0  501  0.00000000000E+00  0.00000000000E+00 -0.72744058513E+03  0.72744058515E+03  0.50400001928E-02 0. -1.
    10030    2    1    2    0    0  0.00000000000E+00  0.00000000000E+00  0.10956940700E+04  0.25505752403E+04  0.23032343696E+04 0.  0.
        4    1    3    3  502    0 -0.16664230273E+03 -0.68626276271E+03 -0.45950788042E+03  0.84254100292E+03  0.12699999809E+01 0. -1.
       -4    1    3    3    0  502  0.16664230273E+03  0.68626276271E+03  0.15552019505E+04  0.17080342374E+04  0.12699999809E+01 0.  1.
</event>
<event>
 5   0  0.2871888E-05  0.2290233E+04  0.7818609E-02  0.8481782E-01
        2   -1    0    0  501    0  0.00000000000E+00  0.00000000000E+00  0.18307493914E+04  0.18307493914E+04  0.25500000920E-02 0.  1.
       -2   -1    0    0    0  501  0.00000000000E+00  0.00000000000E+00 -0.71625955227E+03  0.71625955228E+03  0.25500000920E-02 0. -1.
    10030    2    1    2    0    0  0.00000000000E+00  0.00000000000E+00  0.11144898391E+04  0.25470089437E+04  0.22902329483E+04 0.  0.
        3    1    3    3  502    0  0.71733026462E+03 -0.50995034969E+03  0.13719649244E+04  0.16299999484E+04  0.10100000352E+00 0.  1.
       -3    1    3    3    0  502 -0.71733026462E+03  0.50995034969E+03 -0.25747508531E+03  0.91700899529E+03  0.10100000352E+00 0. -1.
</event>
<event>
 5   0  0.2871888E-05  0.2285631E+04  0.7818609E-02  0.8483608E-01
        2   -1    0    0  501    0  0.00000000000E+00  0.00000000000E+00  0.99112940677E+03  0.99112940677E+03  0.25500000920E-02 0. -1.
       -2   -1    0    0    0  501  0.00000000000E+00  0.00000000000E+00 -0.13177158896E+04  0.13177158896E+04  0.25500000920E-02 0.  1.
    10030    2    1    2    0    0  0.00000000000E+00  0.00000000000E+00 -0.32658648283E+03  0.23088452964E+04  0.22856307383E+04 0.  0.
        3    1    3    3  502    0  0.33474830853E+02 -0.57012229479E+03 -0.11632295162E+04  0.12958637710E+04  0.10100000352E+00 0.  1.
       -3    1    3    3    0  502 -0.33474830853E+02  0.57012229479E+03  0.83664303338E+03  0.10129815254E+04  0.10100000352E+00 0. -1.
</event>
<event>
 5   0  0.1284837E-05  0.2304342E+04  0.7818609E-02  0.8476211E-01
        1   -1    0    0  501    0  0.00000000000E+00  0.00000000000E+00  0.10923688000E+04  0.10923688000E+04  0.50400001928E-02 0.  1.
       -1   -1    0    0    0  501  0.00000000000E+00  0.00000000000E+00 -0.12152473264E+04  0.12152473264E+04  0.50400001928E-02 0. -1.
    10030    2    1    2    0    0  0.00000000000E+00  0.00000000000E+00 -0.12287852641E+03  0.23076161263E+04  0.23043422173E+04 0.  0.
        4    1    3    3  502    0 -0.36943598315E+03 -0.90323037765E+03 -0.67483591341E+03  0.11864708946E+04  0.12699999809E+01 0. -1.
       -4    1    3    3    0  502  0.36943598315E+03  0.90323037765E+03  0.55195738700E+03  0.11211452318E+04  0.12699999809E+01 0.  1.
</event>
<event>
 5   0  0.1371753E-05  0.2234323E+04  0.7818609E-02  0.8504276E-01
       -1   -1    0    0    0  501  0.00000000000E+00  0.00000000000E+00  0.11482661769E+04  0.11482661770E+04  0.50400001928E-02 0. -1.
        1   -1    0    0  501    0  0.00000000000E+00  0.00000000000E+00 -0.10868996990E+04  0.10868996990E+04  0.50400001928E-02 0.  1.
    10030    2    1    2    0    0  0.00000000000E+00  0.00000000000E+00  0.61366477981E+02  0.22351658759E+04  0.22343233088E+04 0.  0.
        3    1    3    3  502    0  0.55906066544E+03  0.15277792550E+03 -0.92474771810E+03  0.10913515815E+04  0.10100000352E+00 0.  1.
       -3    1    3    3    0  502 -0.55906066544E+03 -0.15277792550E+03  0.98611419609E+03  0.11438142944E+04  0.10100000352E+00 0. -1.
</event>
<event>
 5   0  0.1284837E-05  0.2305179E+04  0.7818609E-02  0.8475882E-01
       -1   -1    0    0    0  501  0.00000000000E+00  0.00000000000E+00  0.12767919917E+04  0.12767919917E+04  0.50400001928E-02 0. -1.
        1   -1    0    0  501    0  0.00000000000E+00  0.00000000000E+00 -0.10404686709E+04  0.10404686709E+04  0.50400001928E-02 0.  1.
    10030    2    1    2    0    0  0.00000000000E+00  0.00000000000E+00  0.23632332082E+03  0.23172606626E+04  0.23051785759E+04 0.  0.
        4    1    3    3  502    0 -0.26264875343E+03  0.25273787395E+03 -0.98100413374E+03  0.10465330974E+04  0.12699999809E+01 0.  1.
       -4    1    3    3    0  502  0.26264875343E+03 -0.25273787395E+03  0.12173274546E+04  0.12707275653E+04  0.12699999809E+01 0. -1.
</event>
<event>
 5   0  0.2910126E-05  0.2298860E+04  0.7818609E-02  0.8478371E-01
        2   -1    0    0  501    0  0.00000000000E+00  0.00000000000E+00  0.12521440653E+04  0.12521440654E+04  0.25500000920E-02 0.  1.
       -2   -1    0    0    0  501  0.00000000000E+00  0.00000000000E+00 -0.10551413141E+04  0.10551413141E+04  0.25500000920E-02 0. -1.
    10030    2    1    2    0    0  0.00000000000E+00  0.00000000000E+00  0.19700275127E+03  0.23072853794E+04  0.22988596604E+04 0.  0.
        5    1    3    3  502    0 -0.94077759067E+02 -0.92779196748E+02  0.12444867102E+04  0.12514902581E+04  0.46999998093E+01 0.  1.
       -5    1    3    3    0  502  0.94077759067E+02  0.92779196748E+02 -0.10474839589E+04  0.10557951214E+04  0.46999998093E+01 0. -1.
</event>
<event>
 5   0  0.1284837E-05  0.2299543E+04  0.7818609E-02  0.8478101E-01
        1   -1    0    0  501    0  0.00000000000E+00  0.00000000000E+00  0.10868950147E+04  0.10868950147E+04  0.50400001928E-02 0.  1.
       -1   -1    0    0    0  501  0.00000000000E+00  0.00000000000E+00 -0.12162856358E+04  0.12162856358E+04  0.50400001928E-02 0. -1.
    10030    2    1    2    0    0  0.00000000000E+00  0.00000000000E+00 -0.12939062107E+03  0.23031806505E+04  0.22995432537E+04 0.  0.
        4    1    3    3  502    0 -0.74125144009E+02  0.73213679403E+03  0.82013537550E+03  0.11018813317E+04  0.12699999809E+01 0.  1.
       -4    1    3    3    0  502  0.74125144009E+02 -0.73213679403E+03 -0.94952599657E+03  0.12012993187E+04  0.12699999809E+01 0. -1.
</event>
<event>
 5   0  0.1303224E-05  0.2448901E+04  0.7818609E-02  0.8421419E-01
       -1   -1    0    0    0  501  0.00000000000E+00  0.00000000000E+00  0.77273925127E+03  0.77273925128E+03  0.50400001928E-02 0.  1.
        1   -1    0    0  501    0  0.00000000000E+00  0.00000000000E+00 -0.19402138917E+04  0.19402138917E+04  0.50400001928E-02 0. -1.
    10030    2    1    2    0    0  0.00000000000E+00  0.00000000000E+00 -0.11674746405E+04  0.27129531430E+04  0.24489013292E+04 0.  0.
        2    1    3    3  502    0  0.73776420767E+03  0.20763709973E+03 -0.16416200488E+04  0.18117189562E+04  0.25500000920E-02 0. -1.
       -2    1    3    3    0  502 -0.73776420767E+03 -0.20763709973E+03  0.47414540837E+03  0.90123418687E+03  0.25500000920E-02 0.  1.
</event>
<event>
 5   0  0.1308224E-05  0.2304602E+04  0.7818609E-02  0.8476109E-01
        1   -1    0    0  501    0  0.00000000000E+00  0.00000000000E+00  0.68960757784E+03  0.68960757786E+03  0.50400001928E-02 0. -1.
       -1   -1    0    0    0  501  0.00000000000E+00  0.00000000000E+00 -0.19254399586E+04  0.19254399586E+04  0.50400001928E-02 0.  1.
    10030    2    1    2    0    0  0.00000000000E+00  0.00000000000E+00 -0.12358323807E+04  0.26150475364E+04  0.23046023398E+04 0.  0.
        5    1    3    3  502    0  0.49007834725E+03 -0.33121824726E+03 -0.17400105709E+04  0.18378088014E+04  0.46999998093E+01 0.  1.
       -5    1    3    3    0  502 -0.49007834725E+03  0.33121824726E+03  0.50417819017E+03  0.77723873501E+03  0.46999998093E+01 0. -1.
</event>
<event>
 5   0  0.2938972E-05  0.2306395E+04  0.7818609E-02  0.8475404E-01
       -2   -1    0    0    0  501  0.00000000000E+00  0.00000000000E+00  0.64998452879E+03  0.64998452880E+03  0.25500000920E-02 0. -1.
        2   -1    0    0  501    0  0.00000000000E+00  0.00000000000E+00 -0.20459941921E+04  0.20459941921E+04  0.25500000920E-02 0.  1.
    10030    2    1    2    0    0  0.00000000000E+00  0.00000000000E+00 -0.13960096633E+04  0.26959787209E+04  0.23063950840E+04 0.  0.
        2    1    3    3  502    0 -0.78667525020E+02 -0.11356034207E+04 -0.48221148868E+03  0.12362490156E+04  0.25500000920E-02 0. -1.
       -2    1    3    3    0  502  0.78667525020E+02  0.11356034207E+04 -0.91379817461E+03  0.14597297053E+04  0.25500000920E-02 0.  1.
</event>
<event>
 5   0  0.2994157E-05  0.2290687E+04  0.7818609E-02  0.8481602E-01
       -2   -1    0    0    0  501  0.00000000000E+00  0.00000000000E+00  0.66697345863E+03  0.66697345863E+03  0.25500000920E-02 0. -1.
        2   -1    0    0  501    0  0.00000000000E+00  0.00000000000E+00 -0.19668128619E+04  0.19668128619E+04  0.25500000920E-02 0.  1.
    10030    2    1    2    0    0  0.00000000000E+00  0.00000000000E+00 -0.12998394033E+04  0.26337863206E+04  0.22906872130E+04 0.  0.
        4    1    3    3  502    0  0.11260249840E+03  0.61749918964E+03  0.45160660915E+03  0.77326238379E+03  0.12699999809E+01 0. -1.
       -4    1    3    3    0  502 -0.11260249840E+03 -0.61749918964E+03 -0.17514460125E+04  0.18605239368E+04  0.12699999809E+01 0.  1.
</event>
<event>
 5   0  0.2871888E-05  0.2309782E+04  0.7818609E-02  0.8474074E-01
        2   -1    0    0  501    0  0.00000000000E+00  0.00000000000E+00  0.10482898011E+04  0.10482898011E+04  0.25500000920E-02 0.  1.
       -2   -1    0    0    0  501  0.00000000000E+00  0.00000000000E+00 -0.12723322067E+04  0.12723322067E+04  0.25500000920E-02 0. -1.
    10030    2    1    2    0    0  0.00000000000E+00  0.00000000000E+00 -0.22404240558E+03  0.23206220078E+04  0.23097817005E+04 0.  0.
        3    1    3    3  502    0 -0.32519433539E+02 -0.47725681839E+03  0.94407400043E+03  0.10583512237E+04  0.10100000352E+00 0.  1.
       -3    1    3    3    0  502  0.32519433539E+02  0.47725681839E+03 -0.11681164060E+04  0.12622707841E+04  0.10100000352E+00 0. -1.
</event>
<event>
 5   0  0.1327820E-05  0.2128674E+04  0.7818609E-02  0.8548716E-01
       -1   -1    0    0    0  501  0.00000000000E+00  0.00000000000E+00  0.13298973792E+04  0.13298973792E+04  0.50400001928E-02 0. -1.
        1   -1    0    0  501    0  0.00000000000E+00  0.00000000000E+00 -0.85180519095E+03  0.85180519097E+03  0.50400001928E-02 0.  1.
    10030    2    1    2    0    0  0.00000000000E+00  0.00000000000E+00  0.47809218825E+03  0.21817025702E+04  0.21286742269E+04 0.  0.
        1    1    3    3  502    0 -0.75721558448E+03 -0.10719768811E+03 -0.51962843064E+03  0.92459747549E+03  0.50400001928E-02 0.  1.
       -1    1    3    3    0  502  0.75721558448E+03  0.10719768811E+03  0.99772061888E+03  0.12571050947E+04  0.50400001928E-02 0. -1.
</event>
<event>
 5   0  0.1371753E-05  0.2293273E+04  0.7818609E-02  0.8480578E-01
       -1   -1    0    0    0  501  0.00000000000E+00  0.00000000000E+00  0.16230306972E+04  0.16230306972E+04  0.50400001928E-02 0. -1.
        1   -1    0    0  501    0  0.00000000000E+00  0.00000000000E+00 -0.81007389210E+03  0.81007389212E+03  0.50400001928E-02 0.  1.
    10030    2    1    2    0    0  0.00000000000E+00  0.00000000000E+00  0.81295680507E+03  0.24331045893E+04  0.22932725908E+04 0.  0.
        3    1    3    3  502    0  0.98118875998E+03  0.23534207548E+03 -0.17139508527E+03  0.10234713287E+04  0.10100000352E+00 0.  1.
       -3    1    3    3    0  502 -0.98118875998E+03 -0.23534207548E+03  0.98435189034E+03  0.14096332606E+04  0.10100000352E+00 0. -1.
</event>
<event>
 5   0  0.1308224E-05  0.2282502E+04  0.7818609E-02  0.8484852E-01
        1   -1    0    0  501    0  0.00000000000E+00  0.00000000000E+00  0.21403430749E+04  0.21403430749E+04  0.50400001928E-02 0.  1.
       -1   -1    0    0    0  501  0.00000000000E+00  0.00000000000E+00 -0.60852565459E+03  0.60852565461E+03  0.50400001928E-02 0. -1.
    10030    2    1    2    0    0  0.00000000000E+00  0.00000000000E+00  0.15318174203E+04  0.27488687295E+04  0.22825018473E+04 0.  0.
        5    1    3    3  502    0  0.57979392370E+03  0.68439790498E+03  0.16156777093E+04  0.18479713300E+04  0.46999998093E+01 0.  1.
       -5    1    3    3    0  502 -0.57979392370E+03 -0.68439790498E+03 -0.83860289002E+02  0.90089739947E+03  0.46999998093E+01 0. -1.
</event>
<event>
 5   0  0.1308224E-05  0.2299413E+04  0.7818609E-02  0.8478153E-01
        1   -1    0    0  501    0  0.00000000000E+00  0.00000000000E+00  0.15070854084E+04  0.15070854084E+04  0.50400001928E-02 0.  1.
       -1   -1    0    0    0  501  0.00000000000E+00  0.00000000000E+00 -0.87707384121E+03  0.87707384122E+03  0.50400001928E-02 0. -1.
    10030    2    1    2    0    0  0.00000000000E+00  0.00000000000E+00  0.63001156721E+03  0.23841592496E+04  0.22994131323E+04 0.  0.
        5    1    3    3  502    0  0.49793746779E+03  0.60180138231E+02  0.13876576366E+04  0.14755267457E+04  0.46999998093E+01 0.  1.
       -5    1    3    3    0  502 -0.49793746779E+03 -0.60180138231E+02 -0.75764606936E+03  0.90863250398E+03  0.46999998093E+01 0. -1.
</event>
<event>
 5   0  0.2938972E-05  0.2285589E+04  0.7818609E-02  0.8483625E-01
       -2   -1    0    0    0  501  0.00000000000E+00  0.00000000000E+00  0.10137745721E+04  0.10137745721E+04  0.25500000920E-02 0. -1.
        2   -1    0    0  501    0  0.00000000000E+00  0.00000000000E+00 -0.12882339862E+04  0.12882339862E+04  0.25500000920E-02 0.  1.
    10030    2    1    2    0    0  0.00000000000E+00  0.00000000000E+00 -0.27445941406E+03  0.23020085583E+04  0.22855886403E+04 0.  0.
        2    1    3    3  502    0 -0.66577958676E+03  0.20709626500E+03  0.77471837830E+03  0.10422763006E+04  0.25500000920E-02 0. -1.
       -2    1    3    3    0  502  0.66577958676E+03 -0.20709626500E+03 -0.10491777924E+04  0.12597322577E+04  0.25500000920E-02 0.  1.
</event>
<event>
 5   0  0.2938972E-05  0.2324564E+04  0.7818609E-02  0.8468298E-01
        2   -1    0    0  501    0  0.00000000000E+00  0.00000000000E+00  0.78020460928E+03  0.78020460929E+03  0.25500000920E-02 0. -1.
       -2   -1    0    0    0  501  0.00000000000E+00  0.00000000000E+00 -0.17314678747E+04  0.17314678747E+04  0.25500000920E-02 0.  1.
    10030    2    1    2    0    0  0.00000000000E+00  0.00000000000E+00 -0.95126326537E+03  0.25116724839E+04  0.23245638014E+04 0.  0.
        2    1    3    3  502    0 -0.10587574130E+03 -0.69131698209E+03 -0.14786694725E+04  0.16357237699E+04  0.25500000920E-02 0.  1.
       -2    1    3    3    0  502  0.10587574130E+03  0.69131698209E+03  0.52740620716E+03  0.87594871407E+03  0.25500000920E-02 0. -1.
</event>
<event>
 5   0  0.1371753E-05  0.2293887E+04  0.7818609E-02  0.8480335E-01
        1   -1    0    0  501    0  0.00000000000E+00  0.00000000000E+00  0.64445421882E+03  0.64445421884E+03  0.50400001928E-02 0.  1.
       -1   -1    0    0    0  501  0.00000000000E+00  0.00000000000E+00 -0.20412296926E+04  0.20412296926E+04  0.50400001928E-02 0. -1.
    10030    2    1    2    0    0  0.00000000000E+00  0.00000000000E+00 -0.13967754738E+04  0.26856839115E+04  0.22938867339E+04 0.  0.
        3    1    3    3  502    0  0.56179353708E+03 -0.97432083555E+03 -0.96166433765E+03  0.14797673389E+04  0.10100000352E+00 0. -1.
       -3    1    3    3    0  502 -0.56179353708E+03  0.97432083555E+03 -0.43511113615E+03  0.12059165725E+04  0.10100000352E+00 0.  1.
</event>
<event>
 5   0  0.1327820E-05  0.2300805E+04  0.7818609E-02  0.8477604E-01
       -1   -1    0    0    0  501  0.00000000000E+00  0.00000000000E+00  0.10353268315E+04  0.10353268315E+04  0.50400001928E-02 0. -1.
        1   -1    0    0  501    0  0.00000000000E+00  0.00000000000E+00 -0.12782686507E+04  0.12782686507E+04  0.50400001928E-02 0.  1.
    10030    2    1    2    0    0  0.00000000000E+00  0.00000000000E+00 -0.24294181916E+03  0.23135954822E+04  0.23008049304E+04 0.  0.
        1    1    3    3  502    0 -0.70448798797E+03 -0.85656601278E+03 -0.42881225439E+03  0.11890704811E+04  0.50400001928E-02 0. -1.
       -1    1    3    3    0  502  0.70448798797E+03  0.85656601278E+03  0.18587043522E+03  0.11245250011E+04  0.50400001928E-02 0.  1.
</event>
<event>
 5   0  0.2816178E-05  0.2314889E+04  0.7818609E-02  0.8472074E-01
       -2   -1    0    0    0  501  0.00000000000E+00  0.00000000000E+00  0.88152449922E+03  0.88152449922E+03  0.25500000920E-02 0.  1.
        2   -1    0    0  501    0  0.00000000000E+00  0.00000000000E+00 -0.15197282182E+04  0.15197282182E+04  0.25500000920E-02 0. -1.
    10030    2    1    2    0    0  0.00000000000E+00  0.00000000000E+00 -0.63820371896E+03  0.24012527174E+04  0.23148889014E+04 0.  0.
        1    1    3    3  502    0  0.21884433584E+03 -0.64513362578E+02  0.85796749361E+03  0.88778546812E+03  0.50400001928E-02 0.  1.
       -1    1    3    3    0  502 -0.21884433584E+03  0.64513362578E+02 -0.14961712126E+04  0.15134672493E+04  0.50400001928E-02 0. -1.
</event>
<event>
 5   0  0.2910126E-05  0.2368331E+04  0.7818609E-02  0.8451456E-01
       -2   -1    0    0    0  501  0.00000000000E+00  0.00000000000E+00  0.11407392275E+04  0.11407392275E+04  0.25500000920E-02 0. -1.
        2   -1    0    0  501    0  0.00000000000E+00  0.00000000000E+00 -0.12292451883E+04  0.12292451883E+04  0.25500000920E-02 0.  1.
    10030    2    1    2    0    0  0.00000000000E+00  0.00000000000E+00 -0.88505960717E+02  0.23699844158E+04  0.23683312323E+04 0.  0.
        5    1    3    3  502    0  0.94886204358E+03  0.67124476499E+03  0.18243859907E+03  0.11765265168E+04  0.46999998093E+01 0.  1.
       -5    1    3    3    0  502 -0.94886204358E+03 -0.67124476499E+03 -0.27094455979E+03  0.11934578990E+04  0.46999998093E+01 0. -1.
</event>
<event>
 5   0  0.1303224E-05  0.2301526E+04  0.7818609E-02  0.8477320E-01
       -1   -1    0    0    0  501  0.00000000000E+00  0.00000000000E+00  0.86290014351E+03  0.86290014353E+03  0.50400001928E-02 0.  1.
        1   -1    0    0  501    0  0.00000000000E+00  0.00000000000E+00 -0.15346562533E+04  0.15346562534E+04  0.50400001928E-02 0. -1.
    10030    2    1    2    0    0  0.00000000000E+00  0.00000000000E+00 -0.67175610983E+03  0.23975563969E+04  0.23015256690E+04 0.  0.
        2    1    3    3  502    0  0.10747658447E+04  0.43275982696E+02 -0.76191761175E+03  0.13181475178E+04  0.25500000920E-02 0. -1.
       -2    1    3    3    0  502 -0.10747658447E+04 -0.43275982696E+02  0.90161501921E+02  0.10794088790E+04  0.25500000920E-02 0.  1.
</event>
<event>
 5   0  0.1303224E-05  0.2299398E+04  0.7818609E-02  0.8478159E-01
        1   -1    0    0  501    0  0.00000000000E+00  0.00000000000E+00  0.15199962474E+04  0.15199962474E+04  0.50400001928E-02 0. -1.
       -1   -1    0    0    0  501  0.00000000000E+00  0.00000000000E+00 -0.86961218490E+03  0.86961218492E+03  0.50400001928E-02 0.  1.
    10030    2    1    2    0    0  0.00000000000E+00  0.00000000000E+00  0.65038406253E+03  0.23896084324E+04  0.22993975366E+04 0.  0.
        2    1    3    3  502    0  0.10900800080E+04  0.34860436997E+03  0.43907135865E+03  0.12257989593E+04  0.25500000920E-02 0.  1.
       -2    1    3    3    0  502 -0.10900800080E+04 -0.34860436997E+03  0.21131270388E+03  0.11638094730E+04  0.25500000920E-02 0. -1.
</event>
<event>
 5   0  0.1371753E-05  0.2222219E+04  0.7818609E-02  0.8509236E-01
       -1   -1    0    0    0  501  0.00000000000E+00  0.00000000000E+00  0.14384876434E+04  0.14384876434E+04  0.50400001928E-02 0. -1.
        1   -1    0    0  501    0  0.00000000000E+00  0.00000000000E+00 -0.85823807258E+03  0.85823807260E+03  0.50400001928E-02 0.  1.
    10030    2    1    2    0    0  0.00000000000E+00  0.00000000000E+00  0.58024957081E+03  0.22967257160E+04  0.22222194874E+04 0.  0.
        3    1    3    3  502    0  0.54995704490E+03 -0.93113470220E+03  0.26422697890E+02  0.10817406131E+04  0.10100000352E+00 0.  1.
       -3    1    3    3    0  502 -0.54995704490E+03  0.93113470220E+03  0.55382687292E+03  0.12149851029E+04  0.10100000352E+00 0. -1.
</event>
<event>
 5   0  0.2871888E-05  0.2273243E+04  0.7818609E-02  0.8488546E-01
        2   -1    0    0  501    0  0.00000000000E+00  0.00000000000E+00  0.15328018105E+04  0.15328018105E+04  0.25500000920E-02 0. -1.
       -2   -1    0    0    0  501  0.00000000000E+00  0.00000000000E+00 -0.84284140977E+03  0.84284140977E+03  0.25500000920E-02 0.  1.
    10030    2    1    2    0    0  0.00000000000E+00  0.00000000000E+00  0.68996040072E+03  0.23756432203E+04  0.22732433560E+04 0.  0.
        3    1    3    3  502    0  0.73286059834E+03  0.30555546776E+02 -0.56240027809E+03  0.92429020391E+03  0.10100000352E+00 0.  1.
       -3    1    3    3    0  502 -0.73286059834E+03 -0.30555546776E+02  0.12523606788E+04  0.14513530164E+04  0.10100000352E+00 0. -1.
</event>
<event>
 5   0  0.1308224E-05  0.2154096E+04  0.7818609E-02  0.8537781E-01
       -1   -1    0    0    0  501  0.00000000000E+00  0.00000000000E+00  0.54569217902E+03  0.54569217905E+03  0.50400001928E-02 0. -1.
        1   -1    0    0  501    0  0.00000000000E+00  0.00000000000E+00 -0.21258008632E+04  0.21258008632E+04  0.50400001928E-02 0.  1.
    10030    2    1    2    0    0  0.00000000000E+00  0.00000000000E+00 -0.15801086842E+04  0.26714930423E+04  0.21540964744E+04 0.  0.
        5    1    3    3  502    0 -0.79019874472E+03 -0.33211100774E+03  0.18736262361E+02  0.85737093206E+03  0.46999998093E+01 0.  1.
       -5    1    3    3    0  502  0.79019874472E+03  0.33211100774E+03 -0.15988449466E+04  0.18141221102E+04  0.46999998093E+01 0. -1.
</event>
<event>
 5   0  0.1303224E-05  0.2318041E+04  0.7818609E-02  0.8470842E-01
        1   -1    0    0  501    0  0.00000000000E+00  0.00000000000E+00  0.21473252617E+04  0.21473252617E+04  0.50400001928E-02 0. -1.
       -1   -1    0    0    0  501  0.00000000000E+00  0.00000000000E+00 -0.62558204946E+03  0.62558204948E+03  0.50400001928E-02 0.  1.
    10030    2    1    2    0    0  0.00000000000E+00  0.00000000000E+00  0.15217432122E+04  0.27729073111E+04  0.23180406710E+04 0.  0.
        2    1    3    3  502    0 -0.22964844394E+03  0.20657786605E+03  0.20971804993E+04  0.21198063282E+04  0.25500000920E-02 0. -1.
       -2    1    3    3    0  502  0.22964844394E+03 -0.20657786605E+03 -0.57543728709E+03  0.65310098294E+03  0.25500000920E-02 0.  1.
</event>
<event>
 5   0  0.2871888E-05  0.2300158E+04  0.7818609E-02  0.8477859E-01
        2   -1    0    0  501    0  0.00000000000E+00  0.00000000000E+00  0.10481990558E+04  0.10481990558E+04  0.25500000920E-02 0. -1.
       -2   -1    0    0    0  501  0.00000000000E+00  0.00000000000E+00 -0.12618614849E+04  0.12618614849E+04  0.25500000920E-02 0.  1.
    10030    2    1    2    0    0  0.00000000000E+00  0.00000000000E+00 -0.21366242902E+03  0.23100605407E+04  0.23001582702E+04 0.  0.
        3    1    3    3  502    0  0.11190055457E+03 -0.20674144825E+03 -0.12374745292E+04  0.12596058833E+04  0.10100000352E+00 0.  1.
       -3    1    3    3    0  502 -0.11190055457E+03  0.20674144825E+03  0.10238121002E+04  0.10504546574E+04  0.10100000352E+00 0. -1.
</event>
<event>
 5   0  0.2910126E-05  0.2300310E+04  0.7818609E-02  0.8477799E-01
        2   -1    0    0  501    0  0.00000000000E+00  0.00000000000E+00  0.10359711845E+04  0.10359711845E+04  0.25500000920E-02 0.  1.
       -2   -1    0    0    0  501  0.00000000000E+00  0.00000000000E+00 -0.12769241732E+04  0.12769241732E+04  0.25500000920E-02 0. -1.
    10030    2    1    2    0    0  0.00000000000E+00  0.00000000000E+00 -0.24095298870E+03  0.23128953577E+04  0.23003101080E+04 0.  0.
        5    1    3    3  502    0  0.71595772430E+03 -0.73408519066E+03 -0.64424687339E+03  0.12110130693E+04  0.46999998093E+01 0.  1.
       -5    1    3    3    0  502 -0.71595772430E+03  0.73408519066E+03  0.40329388469E+03  0.11018822884E+04  0.46999998093E+01 0. -1.
</event>
<event>
 5   0  0.2910126E-05  0.2346328E+04  0.7818609E-02  0.8459875E-01
        2   -1    0    0  501    0  0.00000000000E+00  0.00000000000E+00  0.12220625635E+04  0.12220625635E+04  0.25500000920E-02 0. -1.
       -2   -1    0    0    0  501  0.00000000000E+00  0.00000000000E+00 -0.11262222993E+04  0.11262222993E+04  0.25500000920E-02 0.  1.
    10030    2    1    2    0    0  0.00000000000E+00  0.00000000000E+00  0.95840264280E+02  0.23482848628E+04  0.23463282892E+04 0.  0.
        5    1    3    3  502    0  0.89051263162E+03  0.75982417765E+03 -0.29257673554E+02  0.11709925830E+04  0.46999998093E+01 0. -1.
       -5    1    3    3    0  502 -0.89051263162E+03 -0.75982417765E+03  0.12509793783E+03  0.11772922798E+04  0.46999998093E+01 0.  1.
</event>
<event>
 5   0  0.2910126E-05  0.2290228E+04  0.7818609E-02  0.8481784E-01
       -2   -1    0    0    0  501  0.00000000000E+00  0.00000000000E+00  0.70593155977E+03  0.70593155978E+03  0.25500000920E-02 0. -1.
        2   -1    0    0  501    0  0.00000000000E+00  0.00000000000E+00 -0.18575250646E+04  0.18575250646E+04  0.25500000920E-02 0.  1.
    10030    2    1    2    0    0  0.00000000000E+00  0.00000000000E+00 -0.11515935049E+04  0.25634566244E+04  0.22902275574E+04 0.  0.
        5    1    3    3  502    0 -0.42939998949E+03 -0.56132939909E+02 -0.17623247231E+04  0.18147577738E+04  0.46999998093E+01 0.  1.
       -5    1    3    3    0  502  0.42939998949E+03  0.56132939909E+02  0.61073121826E+03  0.74869885059E+03  0.46999998093E+01 0. -1.
</event>
<event>
 5   0  0.2938972E-05  0.2295802E+04  0.7818609E-02  0.8479578E-01
       -2   -1    0    0    0  501  0.00000000000E+00  0.00000000000E+00  0.73091439803E+03  0.73091439803E+03  0.25500000920E-02 0.  1.
        2   -1    0    0  501    0  0.00000000000E+00  0.00000000000E+00 -0.18027785414E+04  0.18027785414E+04  0.25500000920E-02 0. -1.
    10030    2    1    2    0    0  0.00000000000E+00  0.00000000000E+00 -0.10718641434E+04  0.25336929395E+04  0.22958020754E+04 0.  0.
        2    1    3    3  502    0  0.38817602728E+03 -0.79079262003E+03 -0.13481567545E+04  0.16104534240E+04  0.25500000920E-02 0. -1.
       -2    1    3    3    0  502 -0.38817602728E+03  0.79079262003E+03  0.27629261108E+03  0.92323951551E+03  0.25500000920E-02 0.  1.
</event>
<event>
 5   0  0.2994157E-05  0.2291598E+04  0.7818609E-02  0.8481241E-01
        2   -1    0    0  501    0  0.00000000000E+00  0.00000000000E+00  0.23035259684E+04  0.23035259684E+04  0.25500000920E-02 0.  1.
       -2   -1    0    0    0  501  0.00000000000E+00  0.00000000000E+00 -0.56993318824E+03  0.56993318825E+03  0.25500000920E-02 0. -1.
    10030    2    1    2    0    0  0.00000000000E+00  0.00000000000E+00  0.17335927802E+04  0.28734591567E+04  0.22915984809E+04 0.  0.
        4    1    3    3  502    0  0.37976823026E+03 -0.91265061602E+03  0.14028625729E+03  0.99841719863E+03  0.12699999809E+01 0. -1.
       -4    1    3    3    0  502 -0.37976823026E+03  0.91265061602E+03  0.15933065229E+04  0.18750419581E+04  0.12699999809E+01 0.  1.
</event>
<event>
 5   0  0.2871888E-05  0.2327835E+04  0.7818609E-02  0.8467026E-01
       -2   -1    0    0    0  501  0.00000000000E+00  0.00000000000E+00  0.83467081388E+03  0.83467081389E+03  0.25500000920E-02 0.  1.
        2   -1    0    0  501    0  0.00000000000E+00  0.00000000000E+00 -0.16230399177E+04  0.16230399177E+04  0.25500000920E-02 0. -1.
    10030    2    1    2    0    0  0.00000000000E+00  0.00000000000E+00 -0.78836910380E+03  0.24577107316E+04  0.23278350879E+04 0.  0.
        3    1    3    3  502    0 -0.70977815354E+03  0.79378139038E+03  0.10195940495E+03  0.10697054050E+04  0.10100000352E+00 0.  1.
       -3    1    3    3    0  502  0.70977815354E+03 -0.79378139038E+03 -0.89032850875E+03  0.13880053266E+04  0.10100000352E+00 0. -1.
</event>
<event>
 5   0  0.2910126E-05  0.2304319E+04  0.7818609E-02  0.8476220E-01
       -2   -1    0    0    0  501  0.00000000000E+00  0.00000000000E+00  0.81712834957E+03  0.81712834958E+03  0.25500000920E-02 0. -1.
        2   -1    0    0  501    0  0.00000000000E+00  0.00000000000E+00 -0.16245565861E+04  0.16245565861E+04  0.25500000920E-02 0.  1.
    10030    2    1    2    0    0  0.00000000000E+00  0.00000000000E+00 -0.80742823654E+03  0.24416849357E+04  0.23043187644E+04 0.  0.
        5    1    3    3  502    0  0.72292645597E+03 -0.78349959451E+03 -0.86674765183E+03  0.13739606462E+04  0.46999998093E+01 0.  1.
       -5    1    3    3    0  502 -0.72292645597E+03  0.78349959451E+03  0.59319415297E+02  0.10677242895E+04  0.46999998093E+01 0. -1.
</event>
<event>
 5   0  0.2816178E-05  0.2202819E+04  0.7818609E-02  0.8517256E-01
       -2   -1    0    0    0  501  0.00000000000E+00  0.00000000000E+00  0.13979134730E+04  0.13979134730E+04  0.25500000920E-02 0.  1.
        2   -1    0    0  501    0  0.00000000000E+00  0.00000000000E+00 -0.86779538768E+03  0.86779538768E+03  0.25500000920E-02 0. -1.
    10030    2    1    2    0    0  0.00000000000E+00  0.00000000000E+00  0.53011808533E+03  0.22657088607E+04  0.22028189796E+04 0.  0.
        1    1    3    3  502    0 -0.65082757796E+03  0.38902765289E+03 -0.55661238569E+03  0.94060427326E+03  0.50400001928E-02 0. -1.
       -1    1    3    3    0  502  0.65082757796E+03 -0.38902765289E+03  0.10867304710E+04  0.13251045874E+04  0.50400001928E-02 0.  1.
</event>
<event>
 5   0  0.2816178E-05  0.2295023E+04  0.7818609E-02  0.8479886E-01
        2   -1    0    0  501    0  0.00000000000E+00  0.00000000000E+00  0.23304020556E+04  0.23304020556E+04  0.25500000920E-02 0. -1.
       -2   -1    0    0    0  501  0.00000000000E+00  0.00000000000E+00 -0.56504527122E+03  0.56504527123E+03  0.25500000920E-02 0.  1.
    10030    2    1    2    0    0  0.00000000000E+00  0.00000000000E+00  0.17653567843E+04  0.28954473268E+04  0.22950230165E+04 0.  0.
        1    1    3    3  502    0  0.97285231646E+03  0.53171913175E+03  0.12561175293E+04  0.16754098341E+04  0.50400001928E-02 0. -1.
       -1    1    3    3    0  502 -0.97285231646E+03 -0.53171913175E+03  0.50923925505E+03  0.12200374927E+04  0.50400001928E-02 0.  1.
</event>
<event>
 5   0  0.1303224E-05  0.2302111E+04  0.7818609E-02  0.8477089E-01
        1   -1    0    0  501    0  0.00000000000E+00  0.00000000000E+00  0.18864810509E+04  0.18864810510E+04  0.50400001928E-02 0.  1.
       -1   -1    0    0    0  501  0.00000000000E+00  0.00000000000E+00 -0.70232838312E+03  0.70232838314E+03  0.50400001928E-02 0. -1.
    10030    2    1    2    0    0  0.00000000000E+00  0.00000000000E+00  0.11841526678E+04  0.25888094341E+04  0.23021113668E+04 0.  0.
        2    1    3    3  502    0 -0.10382914262E+04 -0.73289774191E+01  0.33388072841E+02  0.10388539661E+04  0.25500000920E-02 0. -1.
       -2    1    3    3    0  502  0.10382914262E+04  0.73289774191E+01  0.11507645950E+04  0.15499554680E+04  0.25500000920E-02 0.  1.
</event>
<event>
 5   0  0.2871888E-05  0.2305344E+04  0.7818609E-02  0.8475817E-01
        2   -1    0    0  501    0  0.00000000000E+00  0.00000000000E+00  0.15319951572E+04  0.15319951572E+04  0.25500000920E-02 0.  1.
       -2   -1    0    0    0  501  0.00000000000E+00  0.00000000000E+00 -0.86726919144E+03  0.86726919144E+03  0.25500000920E-02 0. -1.
    10030    2    1    2    0    0  0.00000000000E+00  0.00000000000E+00  0.66472596578E+03  0.23992643487E+04  0.23053435330E+04 0.  0.
        3    1    3    3  502    0  0.27847321419E+03 -0.96164704210E+03  0.92689806793E+03  0.13643505426E+04  0.10100000352E+00 0.  1.
       -3    1    3    3    0  502 -0.27847321419E+03  0.96164704210E+03 -0.26217210215E+03  0.10349138060E+04  0.10100000352E+00 0. -1.
</event>
<event>
 5   0  0.1284837E-05  0.2309415E+04  0.7818609E-02  0.8474218E-01
        1   -1    0    0  501    0  0.00000000000E+00  0.00000000000E+00  0.12924674047E+04  0.12924674047E+04  0.50400001928E-02 0. -1.
       -1   -1    0    0    0  501  0.00000000000E+00  0.00000000000E+00 -0.10316312574E+04  0.10316312574E+04  0.50400001928E-02 0.  1.
    10030    2    1    2    0    0  0.00000000000E+00  0.00000000000E+00  0.26083614737E+03  0.23240986621E+04  0.23094153147E+04 0.  0.
        4    1    3    3  502    0 -0.22495138971E+03  0.48771194099E+03  0.11591119700E+04  0.12775007777E+04  0.12699999809E+01 0. -1.
       -4    1    3    3    0  502  0.22495138971E+03 -0.48771194099E+03 -0.89827582268E+03  0.10465978844E+04  0.12699999809E+01 0.  1.
</event>
<event>
 5   0  0.1327820E-05  0.2318713E+04  0.7818609E-02  0.8470579E-01
       -1   -1    0    0    0  501  0.00000000000E+00  0.00000000000E+00  0.13112222901E+04  0.13112222901E+04  0.50400001928E-02 0.  1.
        1   -1    0    0  501    0  0.00000000000E+00  0.00000000000E+00 -0.10250796831E+04  0.10250796831E+04  0.50400001928E-02 0. -1.
    10030    2    1    2    0    0  0.00000000000E+00  0.00000000000E+00  0.28614260700E+03  0.23363019733E+04  0.23187128582E+04 0.  0.
        1    1    3    3  502    0  0.49475159429E+02  0.96367980846E+03 -0.50443934909E+03  0.10888460045E+04  0.50400001928E-02 0. -1.
       -1    1    3    3    0  502 -0.49475159429E+02 -0.96367980846E+03  0.79058195609E+03  0.12474559687E+04  0.50400001928E-02 0.  1.
</event>
<event>
 5   0  0.1308224E-05  0.2297008E+04  0.7818609E-02  0.8479102E-01
        1   -1    0    0  501    0  0.00000000000E+00  0.00000000000E+00  0.29192667917E+04  0.29192667917E+04  0.50400001928E-02 0.  1.
       -1   -1    0    0    0  501  0.00000000000E+00  0.00000000000E+00 -0.45184682479E+03  0.45184682481E+03  0.50400001928E-02 0. -1.
    10030    2    1    2    0    0  0.00000000000E+00  0.00000000000E+00  0.24674199669E+04  0.33711136165E+04  0.22970079935E+04 0.  0.
        5    1    3    3  502    0  0.37119363430E+03 -0.47830310591E+03 -0.19860650134E+03  0.63720107317E+03  0.46999998093E+01 0. -1.
       -5    1    3    3    0  502 -0.37119363430E+03  0.47830310591E+03  0.26660264683E+04  0.27339125434E+04  0.46999998093E+01 0.  1.
</event>
<event>
 5   0  0.2994157E-05  0.2302899E+04  0.7818609E-02  0.8476779E-01
        2   -1    0    0  501    0  0.00000000000E+00  0.00000000000E+00  0.13305574026E+04  0.13305574026E+04  0.25500000920E-02 0. -1.
       -2   -1    0    0    0  501  0.00000000000E+00  0.00000000000E+00 -0.99645126398E+03  0.99645126398E+03  0.25500000920E-02 0.  1.
    10030    2    1    2    0    0  0.00000000000E+00  0.00000000000E+00  0.33410613865E+03  0.23270086666E+04  0.23028987000E+04 0.  0.
        4    1    3    3  502    0  0.41781359865E+03  0.19864071606E+03  0.12325151456E+04  0.13164807383E+04  0.12699999809E+01 0. -1.
       -4    1    3    3    0  502 -0.41781359865E+03 -0.19864071606E+03 -0.89840900693E+03  0.10105279283E+04  0.12699999809E+01 0.  1.
</event>
<event>
 5   0  0.1303224E-05  0.2306900E+04  0.7818609E-02  0.8475206E-01
       -1   -1    0    0    0  501  0.00000000000E+00  0.00000000000E+00  0.10246356312E+04  0.10246356312E+04  0.50400001928E-02 0.  1.
        1   -1    0    0  501    0  0.00000000000E+00  0.00000000000E+00 -0.12984581025E+04  0.12984581025E+04  0.50400001928E-02 0. -1.
    10030    2    1    2    0    0  0.00000000000E+00  0.00000000000E+00 -0.27382247136E+03  0.23230937337E+04  0.23068995968E+04 0.  0.
        2    1    3    3  502    0 -0.34024544094E+03  0.35283089121E+03  0.91453992630E+03  0.10376125841E+04  0.25500000920E-02 0.  1.
       -2    1    3    3    0  502  0.34024544094E+03 -0.35283089121E+03 -0.11883623977E+04  0.12854811496E+04  0.25500000920E-02 0. -1.
</event>
<event>
 5   0  0.2938972E-05  0.2364761E+04  0.7818609E-02  0.8452816E-01
        2   -1    0    0  501    0  0.00000000000E+00  0.00000000000E+00  0.22715916090E+04  0.22715916090E+04  0.25500000920E-02 0. -1.
       -2   -1    0    0    0  501  0.00000000000E+00  0.00000000000E+00 -0.61543782439E+03  0.61543782440E+03  0.25500000920E-02 0.  1.
    10030    2    1    2    0    0  0.00000000000E+00  0.00000000000E+00  0.16561537846E+04  0.28870294334E+04  0.23647607894E+04 0.  0.
        2    1    3    3  502    0 -0.41746856925E+02  0.13656653085E+03 -0.60487074314E+03  0.62149966478E+03  0.25500000920E-02 0.  1.
       -2    1    3    3    0  502  0.41746856925E+02 -0.13656653085E+03  0.22610245278E+04  0.22655297686E+04  0.25500000920E-02 0. -1.
</event>
<event>
 5   0  0.2816178E-05  0.2291578E+04  0.7818609E-02  0.8481249E-01
       -2   -1    0    0    0  501  0.00000000000E+00  0.00000000000E+00  0.72755926812E+03  0.72755926812E+03  0.25500000920E-02 0. -1.
        2   -1    0    0  501    0  0.00000000000E+00  0.00000000000E+00 -0.18044336031E+04  0.18044336031E+04  0.25500000920E-02 0.  1.
    10030    2    1    2    0    0  0.00000000000E+00  0.00000000000E+00 -0.10768743350E+04  0.25319928712E+04  0.22915779643E+04 0.  0.
        1    1    3    3  502    0 -0.58500472846E+03 -0.95555655021E+03 -0.80341703941E+03  0.13786942345E+04  0.50400001928E-02 0. -1.
       -1    1    3    3    0  502  0.58500472846E+03  0.95555655021E+03 -0.27345729556E+03  0.11532986367E+04  0.50400001928E-02 0.  1.
</event>
<event>
 5   0  0.2910126E-05  0.2259019E+04  0.7818609E-02  0.8494257E-01
       -2   -1    0    0    0  501  0.00000000000E+00  0.00000000000E+00  0.13596945063E+04  0.13596945063E+04  0.25500000920E-02 0. -1.
        2   -1    0    0  501    0  0.00000000000E+00  0.00000000000E+00 -0.93829314481E+03  0.93829314481E+03  0.25500000920E-02 0.  1.
    10030    2    1    2    0    0  0.00000000000E+00  0.00000000000E+00  0.42140136151E+03  0.22979876511E+04  0.22590192866E+04 0.  0.
        5    1    3    3  502    0  0.50196390702E+03 -0.16934121441E+03  0.12254686030E+04  0.13350803713E+04  0.46999998093E+01 0. -1.
       -5    1    3    3    0  502 -0.50196390702E+03  0.16934121441E+03 -0.80406724146E+03  0.96290727987E+03  0.46999998093E+01 0.  1.
</event>
<event>
 5   0  0.1303224E-05  0.2321504E+04  0.7818609E-02  0.8469490E-01
        1   -1    0    0  501    0  0.00000000000E+00  0.00000000000E+00  0.99663279144E+03  0.99663279145E+03  0.50400001928E-02 0.  1.
       -1   -1    0    0    0  501  0.00000000000E+00  0.00000000000E+00 -0.13518969758E+04  0.13518969758E+04  0.50400001928E-02 0. -1.
    10030    2    1    2    0    0  0.00000000000E+00  0.00000000000E+00 -0.35526418436E+03  0.23485297673E+04  0.23215036995E+04 0.  0.
        2    1    3    3  502    0  0.30425070956E+03 -0.88158520705E+03 -0.87675176194E+03  0.12800213372E+04  0.25500000920E-02 0. -1.
       -2    1    3    3    0  502 -0.30425070956E+03  0.88158520705E+03  0.52148757759E+03  0.10685084301E+04  0.25500000920E-02 0.  1.
</event>
<event>
 5   0  0.1284837E-05  0.2156407E+04  0.7818609E-02  0.8536795E-01
       -1   -1    0    0    0  501  0.00000000000E+00  0.00000000000E+00  0.99724037871E+03  0.99724037872E+03  0.50400001928E-02 0. -1.
        1   -1    0    0  501    0  0.00000000000E+00  0.00000000000E+00 -0.11657402839E+04  0.11657402839E+04  0.50400001928E-02 0.  1.
    10030    2    1    2    0    0  0.00000000000E+00  0.00000000000E+00 -0.16849990521E+03  0.21629806627E+04  0.21564074589E+04 0.  0.
        4    1    3    3  502    0  0.70542504196E+03  0.32568927713E+03  0.66557382759E+03  0.10230777722E+04  0.12699999809E+01 0. -1.
       -4    1    3    3    0  502 -0.70542504196E+03 -0.32568927713E+03 -0.83407373279E+03  0.11399028905E+04  0.12699999809E+01 0.  1.
</event>
<event>
 5   0  0.2994157E-05  0.2298098E+04  0.7818609E-02  0.8478671E-01
       -2   -1    0    0    0  501  0.00000000000E+00  0.00000000000E+00  0.76131542533E+03  0.76131542533E+03  0.25500000920E-02 0. -1.
        2   -1    0    0  501    0  0.00000000000E+00  0.00000000000E+00 -0.17342533828E+04  0.17342533828E+04  0.25500000920E-02 0.  1.
    10030    2    1    2    0    0  0.00000000000E+00  0.00000000000E+00 -0.97293795751E+03  0.24955688082E+04  0.22980982153E+04 0.  0.
        4    1    3    3  502    0 -0.14980914663E+03  0.87891751990E+03  0.30064028699E+03  0.94091709638E+03  0.12699999809E+01 0. -1.
       -4    1    3    3    0  502  0.14980914663E+03 -0.87891751990E+03 -0.12735782445E+04  0.15546517118E+04  0.12699999809E+01 0.  1.
</event>
<event>
 5   0  0.2871888E-05  0.2292845E+04  0.7818609E-02  0.8480747E-01
       -2   -1    0    0    0  501  0.00000000000E+00  0.00000000000E+00  0.89000815811E+03  0.89000815811E+03  0.25500000920E-02 0. -1.
        2   -1    0    0  501    0  0.00000000000E+00  0.00000000000E+00 -0.14767112152E+04  0.14767112152E+04  0.25500000920E-02 0.  1.
    10030    2    1    2    0    0  0.00000000000E+00  0.00000000000E+00 -0.58670305711E+03  0.23667193733E+04  0.22928454189E+04 0.  0.
        3    1    3    3  502    0 -0.26057608984E+03 -0.72048035014E+02  0.85663263204E+03  0.89828185689E+03  0.10100000352E+00 0. -1.
       -3    1    3    3    0  502  0.26057608984E+03  0.72048035014E+02 -0.14433356891E+04  0.14684375164E+04  0.10100000352E+00 0.  1.
</event>
<event>
 5   0  0.1327820E-05  0.2299461E+04  0.7818609E-02  0.8478134E-01
       -1   -1    0    0    0  501  0.00000000000E+00  0.00000000000E+00  0.91305104913E+03  0.91305104915E+03  0.50400001928E-02 0. -1.
        1   -1    0    0  501    0  0.00000000000E+00  0.00000000000E+00 -0.14477611451E+04  0.14477611451E+04  0.50400001928E-02 0.  1.
    10030    2    1    2    0    0  0.00000000000E+00  0.00000000000E+00 -0.53471009599E+03  0.23608121943E+04  0.22994606607E+04 0.  0.
        1    1    3    3  502    0 -0.47948384874E+03  0.10440485291E+04 -0.22216079390E+03  0.11701698640E+04  0.50400001928E-02 0. -1.
       -1    1    3    3    0  502  0.47948384874E+03 -0.10440485291E+04 -0.31254930210E+03  0.11906423302E+04  0.50400001928E-02 0.  1.
</event>
<event>
 5   0  0.1371753E-05  0.2311601E+04  0.7818609E-02  0.8473361E-01
        1   -1    0    0  501    0  0.00000000000E+00  0.00000000000E+00  0.14169299717E+04  0.14169299717E+04  0.50400001928E-02 0.  1.
       -1   -1    0    0    0  501  0.00000000000E+00  0.00000000000E+00 -0.94279529429E+03  0.94279529430E+03  0.50400001928E-02 0. -1.
    10030    2    1    2    0    0  0.00000000000E+00  0.00000000000E+00  0.47413467740E+03  0.23597252660E+04  0.23116010985E+04 0.  0.
        3    1    3    3  502    0 -0.20007494481E+03  0.11354008835E+04  0.32068571091E+03  0.11966638982E+04  0.10100000352E+00 0.  1.
       -3    1    3    3    0  502  0.20007494481E+03 -0.11354008835E+04  0.15344896649E+03  0.11630613678E+04  0.10100000352E+00 0. -1.
</event>
<event>
 5   0  0.1303224E-05  0.2301596E+04  0.7818609E-02  0.8477292E-01
       -1   -1    0    0    0  501  0.00000000000E+00  0.00000000000E+00  0.87681973711E+03  0.87681973713E+03  0.50400001928E-02 0. -1.
        1   -1    0    0  501    0  0.00000000000E+00  0.00000000000E+00 -0.15103858860E+04  0.15103858860E+04  0.50400001928E-02 0.  1.
    10030    2    1    2    0    0  0.00000000000E+00  0.00000000000E+00 -0.63356614886E+03  0.23872056231E+04  0.23015961031E+04 0.  0.
        2    1    3    3  502    0 -0.43012121489E+01 -0.25887619349E+03  0.84621850956E+03  0.88494132569E+03  0.25500000920E-02 0. -1.
       -2    1    3    3    0  502  0.43012121489E+01  0.25887619349E+03 -0.14797846584E+04  0.15022642974E+04  0.25500000920E-02 0.  1.
</event>
<event>
 5   0  0.1303224E-05  0.2313123E+04  0.7818609E-02  0.8472765E-01
        1   -1    0    0  501    0  0.00000000000E+00  0.00000000000E+00  0.24589833633E+04  0.24589833633E+04  0.50400001928E-02 0. -1.
       -1   -1    0    0    0  501  0.00000000000E+00  0.00000000000E+00 -0.54397875630E+03  0.54397875632E+03  0.50400001928E-02 0.  1.
    10030    2    1    2    0    0  0.00000000000E+00  0.00000000000E+00  0.19150046070E+04  0.30029621196E+04  0.23131231802E+04 0.  0.
        2    1    3    3  502    0  0.34741503837E+02  0.11144210066E+04  0.13565751679E+04  0.17559719070E+04  0.25500000920E-02 0.  1.
       -2    1    3    3    0  502 -0.34741503837E+02 -0.11144210066E+04  0.55842943912E+03  0.12469902126E+04  0.25500000920E-02 0. -1.
</event>
<event>
 5   0  0.2910126E-05  0.2295135E+04  0.7818609E-02  0.8479842E-01
        2   -1    0    0  501    0  0.00000000000E+00  0.00000000000E+00  0.13781311913E+04  0.13781311913E+04  0.25500000920E-02 0. -1.
       -2   -1    0    0    0  501  0.00000000000E+00  0.00000000000E+00 -0.95557716084E+03  0.95557716084E+03  0.25500000920E-02 0.  1.
    10030    2    1    2    0    0  0.00000000000E+00  0.00000000000E+00  0.42255403042E+03  0.23337083521E+04  0.22951345852E+04 0.  0.
        5    1    3    3  502    0  0.21150649218E+03 -0.25548264139E+03 -0.90576849832E+03  0.96459579039E+03  0.46999998093E+01 0.  1.
       -5    1    3    3    0  502 -0.21150649218E+03  0.25548264139E+03  0.13283225287E+04  0.13691125617E+04  0.46999998093E+01 0. -1.
</event>
<event>
 5   0  0.1308224E-05  0.2301755E+04  0.7818609E-02  0.8477229E-01
        1   -1    0    0  501    0  0.00000000000E+00  0.00000000000E+00  0.18602442401E+04  0.18602442401E+04  0.50400001928E-02 0.  1.
       -1   -1    0    0    0  501  0.00000000000E+00  0.00000000000E+00 -0.71201363044E+03  0.71201363046E+03  0.50400001928E-02 0. -1.
    10030    2    1    2    0    0  0.00000000000E+00  0.00000000000E+00  0.11482306097E+04  0.25722578706E+04  0.23017552042E+04 0.  0.
        5    1    3    3  502    0  0.11293527574E+04  0.11188052829E+03  0.36048980952E+03  0.11907686157E+04  0.46999998093E+01 0. -1.
       -5    1    3    3    0  502 -0.11293527574E+04 -0.11188052829E+03  0.78774080018E+03  0.13814892549E+04  0.46999998093E+01 0.  1.
</event>
<event>
 5   0  0.1371753E-05  0.2320823E+04  0.7818609E-02  0.8469756E-01
       -1   -1    0    0    0  501  0.00000000000E+00  0.00000000000E+00  0.14695305950E+04  0.14695305950E+04  0.50400001928E-02 0.  1.
        1   -1    0    0  501    0  0.00000000000E+00  0.00000000000E+00 -0.91631619647E+03  0.91631619648E+03  0.50400001928E-02 0. -1.
    10030    2    1    2    0    0  0.00000000000E+00  0.00000000000E+00  0.55321439849E+03  0.23858467915E+04  0.23208228587E+04 0.  0.
        3    1    3    3  502    0  0.22788828750E+03  0.61965921003E+03  0.12576204864E+04  0.14203942784E+04  0.10100000352E+00 0.  1.
       -3    1    3    3    0  502 -0.22788828750E+03 -0.61965921003E+03 -0.70440608787E+03  0.96545251307E+03  0.10100000352E+00 0. -1.
</event>
<event>
 5   0  0.1308224E-05  0.2320844E+04  0.7818609E-02  0.8469748E-01
       -1   -1    0    0    0  501  0.00000000000E+00  0.00000000000E+00  0.10453417106E+04  0.10453417106E+04  0.50400001928E-02 0.  1.
        1   -1    0    0  501    0  0.00000000000E+00  0.00000000000E+00 -0.12881716335E+04  0.12881716335E+04  0.50400001928E-02 0. -1.
    10030    2    1    2    0    0  0.00000000000E+00  0.00000000000E+00 -0.24282992284E+03  0.23335133441E+04  0.23208442765E+04 0.  0.
        5    1    3    3  502    0  0.57970628496E+02  0.74007615682E+03 -0.10181828515E+04  0.12600760774E+04  0.46999998093E+01 0. -1.
       -5    1    3    3    0  502 -0.57970628496E+02 -0.74007615682E+03  0.77535292867E+03  0.10734372668E+04  0.46999998093E+01 0.  1.
</event>
<event>
 5   0  0.1327820E-05  0.2314062E+04  0.7818609E-02  0.8472397E-01
       -1   -1    0    0    0  501  0.00000000000E+00  0.00000000000E+00  0.88838433167E+03  0.88838433169E+03  0.50400001928E-02 0. -1.
        1   -1    0    0  501    0  0.00000000000E+00  0.00000000000E+00 -0.15069167704E+04  0.15069167704E+04  0.50400001928E-02 0.  1.
    10030    2    1    2    0    0  0.00000000000E+00  0.00000000000E+00 -0.61853243870E+03  0.23953011021E+04  0.23140624434E+04 0.  0.
        1    1    3    3  502    0 -0.95918409899E+01 -0.38194266406E+03  0.82120518008E+03  0.90573183110E+03  0.50400001928E-02 0. -1.
       -1    1    3    3    0  502  0.95918409899E+01  0.38194266406E+03 -0.14397376188E+04  0.14895692710E+04  0.50400001928E-02 0.  1.
</event>
<event>
 5   0  0.2938972E-05  0.2304011E+04  0.7818609E-02  0.8476341E-01
        2   -1    0    0  501    0  0.00000000000E+00  0.00000000000E+00  0.11894237405E+04  0.11894237405E+04  0.25500000920E-02 0.  1.
       -2   -1    0    0    0  501  0.00000000000E+00  0.00000000000E+00 -0.11157640192E+04  0.11157640192E+04  0.25500000920E-02 0. -1.
    10030    2    1    2    0    0  0.00000000000E+00  0.00000000000E+00  0.73659721260E+02  0.23051877597E+04  0.23040106017E+04 0.  0.
        2    1    3    3  502    0  0.75412002016E+03 -0.47302366928E+02  0.90686123013E+03  0.11803947685E+04  0.25500000920E-02 0.  1.
       -2    1    3    3    0  502 -0.75412002016E+03  0.47302366928E+02 -0.83320150887E+03  0.11247929912E+04  0.25500000920E-02 0. -1.
</event>
<event>
 5   0  0.2816178E-05  0.2431392E+04  0.7818609E-02  0.8427843E-01
       -2   -1    0    0    0  501  0.00000000000E+00  0.00000000000E+00  0.96187863587E+03  0.96187863588E+03  0.25500000920E-02 0. -1.
        2   -1    0    0  501    0  0.00000000000E+00  0.00000000000E+00 -0.15364903969E+04  0.15364903969E+04  0.25500000920E-02 0.  1.
    10030    2    1    2    0    0  0.00000000000E+00  0.00000000000E+00 -0.57461176103E+03  0.24983690328E+04  0.24313924299E+04 0.  0.
        1    1    3    3  502    0 -0.81406442184E+03  0.46280622164E+03 -0.10839208237E+04  0.14324017711E+04  0.50400001928E-02 0.  1.
       -1    1    3    3    0  502  0.81406442184E+03 -0.46280622164E+03  0.50930906267E+03  0.10659672617E+04  0.50400001928E-02 0. -1.
</event>
<event>
 5   0  0.1017200E-05  0.2307208E+04  0.7818609E-02  0.8475085E-01
       -3   -1    0    0    0  501  0.00000000000E+00  0.00000000000E+00  0.88110263709E+03  0.88110264288E+03  0.10100000352E+00 0. -1.
        3   -1    0    0  501    0  0.00000000000E+00  0.00000000000E+00 -0.15103822053E+04  0.15103822087E+04  0.10100000352E+00 0.  1.
    10030    2    1    2    0    0  0.00000000000E+00  0.00000000000E+00 -0.62927956822E+03  0.23914848516E+04  0.23072076240E+04 0.  0.
        2    1    3    3  502    0 -0.69052899837E+03 -0.69443323413E+03 -0.94661065931E+03  0.13620350783E+04  0.25500000920E-02 0.  1.
       -2    1    3    3    0  502  0.69052899837E+03  0.69443323413E+03  0.31733109109E+03  0.10294497732E+04  0.25500000920E-02 0. -1.
</event>
<event>
 5   0  0.1303224E-05  0.2262730E+04  0.7818609E-02  0.8492763E-01
       -1   -1    0    0    0  501  0.00000000000E+00  0.00000000000E+00  0.45920999647E+03  0.45920999650E+03  0.50400001928E-02 0.  1.
        1   -1    0    0  501    0  0.00000000000E+00  0.00000000000E+00 -0.27873677452E+04  0.27873677452E+04  0.50400001928E-02 0. -1.
    10030    2    1    2    0    0  0.00000000000E+00  0.00000000000E+00 -0.23281577487E+04  0.32465777417E+04  0.22627303264E+04 0.  0.
        2    1    3    3  502    0  0.43528612538E+03  0.45479272609E+03 -0.25128545055E+04  0.25905111852E+04  0.25500000920E-02 0. -1.
       -2    1    3    3    0  502 -0.43528612538E+03 -0.45479272609E+03  0.18469675677E+03  0.65606655655E+03  0.25500000920E-02 0.  1.
</event>
<event>
 5   0  0.1371753E-05  0.2286102E+04  0.7818609E-02  0.8483421E-01
        1   -1    0    0  501    0  0.00000000000E+00  0.00000000000E+00  0.20108177954E+04  0.20108177954E+04  0.50400001928E-02 0. -1.
       -1   -1    0    0    0  501  0.00000000000E+00  0.00000000000E+00 -0.64976815015E+03  0.64976815016E+03  0.50400001928E-02 0.  1.
    10030    2    1    2    0    0  0.00000000000E+00  0.00000000000E+00  0.13610496453E+04  0.26605859456E+04  0.22861017993E+04 0.  0.
        3    1    3    3  502    0  0.57675092087E+03 -0.84290577432E+03  0.83190741898E+02  0.10247206833E+04  0.10100000352E+00 0.  1.
       -3    1    3    3    0  502 -0.57675092087E+03  0.84290577432E+03  0.12778589034E+04  0.16358652622E+04  0.10100000352E+00 0. -1.
</event>
<event>
 5   0  0.2938972E-05  0.2380044E+04  0.7818609E-02  0.8447013E-01
        2   -1    0    0  501    0  0.00000000000E+00  0.00000000000E+00  0.14589835962E+04  0.14589835962E+04  0.25500000920E-02 0.  1.
       -2   -1    0    0    0  501  0.00000000000E+00  0.00000000000E+00 -0.97064332976E+03  0.97064332976E+03  0.25500000920E-02 0. -1.
    10030    2    1    2    0    0  0.00000000000E+00  0.00000000000E+00  0.48834026643E+03  0.24296269260E+04  0.23800442818E+04 0.  0.
        2    1    3    3  502    0  0.52456781091E+03 -0.69287261333E+03 -0.58572905167E+03  0.10480087636E+04  0.25500000920E-02 0. -1.
       -2    1    3    3    0  502 -0.52456781091E+03  0.69287261333E+03  0.10740693181E+04  0.13816181624E+04  0.25500000920E-02 0.  1.
</event>
<event>
 5   0  0.2816178E-05  0.2267158E+04  0.7818609E-02  0.8490984E-01
        2   -1    0    0  501    0  0.00000000000E+00  0.00000000000E+00  0.64309335062E+03  0.64309335062E+03  0.25500000920E-02 0.  1.
       -2   -1    0    0    0  501  0.00000000000E+00  0.00000000000E+00 -0.19981562172E+04  0.19981562172E+04  0.25500000920E-02 0. -1.
    10030    2    1    2    0    0  0.00000000000E+00  0.00000000000E+00 -0.13550628666E+04  0.26412495678E+04  0.22671576714E+04 0.  0.
        1    1    3    3  502    0 -0.91121255772E+03 -0.38786594662E+03 -0.34925241952E+02  0.99094303088E+03  0.50400001928E-02 0.  1.
       -1    1    3    3    0  502  0.91121255772E+03  0.38786594662E+03 -0.13201376247E+04  0.16503065370E+04  0.50400001928E-02 0. -1.
</event>
<event>
 5   0  0.1327820E-05  0.2306346E+04  0.7818609E-02  0.8475423E-01
       -1   -1    0    0    0  501  0.00000000000E+00  0.00000000000E+00  0.16427793242E+04  0.16427793242E+04  0.50400001928E-02 0.  1.
        1   -1    0    0  501    0  0.00000000000E+00  0.00000000000E+00 -0.80948668696E+03  0.80948668698E+03  0.50400001928E-02 0. -1.
    10030    2    1    2    0    0  0.00000000000E+00  0.00000000000E+00  0.83329263724E+03  0.24522660112E+04  0.23063460214E+04 0.  0.
        1    1    3    3  502    0 -0.99345508975E+03 -0.48859904939E+03  0.75974780068E+03  0.13427206586E+04  0.50400001928E-02 0.  1.
       -1    1    3    3    0  502  0.99345508975E+03  0.48859904939E+03  0.73544836565E+02  0.11095453526E+04  0.50400001928E-02 0. -1.
</event>
<event>
 5   0  0.2938972E-05  0.2305669E+04  0.7818609E-02  0.8475689E-01
        2   -1    0    0  501    0  0.00000000000E+00  0.00000000000E+00  0.17226772806E+04  0.17226772806E+04  0.25500000920E-02 0. -1.
       -2   -1    0    0    0  501  0.00000000000E+00  0.00000000000E+00 -0.77148920762E+03  0.77148920762E+03  0.25500000920E-02 0.  1.
    10030    2    1    2    0    0  0.00000000000E+00  0.00000000000E+00  0.95118807294E+03  0.24941664882E+04  0.23056686060E+04 0.  0.
        2    1    3    3  502    0  0.65380061301E+03 -0.47134667814E+03  0.13672403173E+04  0.15871260246E+04  0.25500000920E-02 0. -1.
       -2    1    3    3    0  502 -0.65380061301E+03  0.47134667814E+03 -0.41605224437E+03  0.90704046361E+03  0.25500000920E-02 0.  1.
</event>
<event>
 5   0  0.1284837E-05  0.2219799E+04  0.7818609E-02  0.8510232E-01
        1   -1    0    0  501    0  0.00000000000E+00  0.00000000000E+00  0.73176059189E+03  0.73176059191E+03  0.50400001928E-02 0.  1.
       -1   -1    0    0    0  501  0.00000000000E+00  0.00000000000E+00 -0.16834422287E+04  0.16834422287E+04  0.50400001928E-02 0. -1.
    10030    2    1    2    0    0  0.00000000000E+00  0.00000000000E+00 -0.95168163681E+03  0.24152028206E+04  0.22197988032E+04 0.  0.
        4    1    3    3  502    0  0.43030428904E+03  0.21204213546E+03 -0.15648210042E+04  0.16367009612E+04  0.12699999809E+01 0. -1.
       -4    1    3    3    0  502 -0.43030428904E+03 -0.21204213546E+03  0.61313936737E+03  0.77850185941E+03  0.12699999809E+01 0.  1.
</event>
<event>
 5   0  0.1371753E-05  0.2272296E+04  0.7818609E-02  0.8488925E-01
        1   -1    0    0  501    0  0.00000000000E+00  0.00000000000E+00  0.19383626814E+04  0.19383626814E+04  0.50400001928E-02 0. -1.
       -1   -1    0    0    0  501  0.00000000000E+00  0.00000000000E+00 -0.66593959034E+03  0.66593959036E+03  0.50400001928E-02 0.  1.
    10030    2    1    2    0    0  0.00000000000E+00  0.00000000000E+00  0.12724230911E+04  0.26043022718E+04  0.22722961515E+04 0.  0.
        3    1    3    3  502    0 -0.23841805303E+03  0.25239996738E+03  0.18760697010E+04  0.19079272640E+04  0.10100000352E+00 0. -1.
       -3    1    3    3    0  502  0.23841805303E+03 -0.25239996738E+03 -0.60364660994E+03  0.69637500776E+03  0.10100000352E+00 0.  1.
</event>
<event>
 5   0  0.2910126E-05  0.2280009E+04  0.7818609E-02  0.8485845E-01
       -2   -1    0    0    0  501  0.00000000000E+00  0.00000000000E+00  0.63542310594E+03  0.63542310595E+03  0.25500000920E-02 0. -1.
        2   -1    0    0  501    0  0.00000000000E+00  0.00000000000E+00 -0.20452672398E+04  0.20452672398E+04  0.25500000920E-02 0.  1.
    10030    2    1    2    0    0  0.00000000000E+00  0.00000000000E+00 -0.14098441339E+04  0.26806903458E+04  0.22800088263E+04 0.  0.
        5    1    3    3  502    0 -0.89670440066E+03  0.65607725314E+03 -0.40500124001E+03  0.11826090811E+04  0.46999998093E+01 0. -1.
       -5    1    3    3    0  502  0.89670440066E+03 -0.65607725314E+03 -0.10048428939E+04  0.14980812647E+04  0.46999998093E+01 0.  1.
</event>
<event>
 5   0  0.2938972E-05  0.2291129E+04  0.7818609E-02  0.8481427E-01
       -2   -1    0    0    0  501  0.00000000000E+00  0.00000000000E+00  0.90414064517E+03  0.90414064517E+03  0.25500000920E-02 0.  1.
        2   -1    0    0  501    0  0.00000000000E+00  0.00000000000E+00 -0.14514530322E+04  0.14514530322E+04  0.25500000920E-02 0. -1.
    10030    2    1    2    0    0  0.00000000000E+00  0.00000000000E+00 -0.54731238705E+03  0.23555936774E+04  0.22911287009E+04 0.  0.
        2    1    3    3  502    0 -0.78853886425E+03  0.60941336958E+03 -0.85447566131E+03  0.13127478247E+04  0.25500000920E-02 0. -1.
       -2    1    3    3    0  502  0.78853886425E+03 -0.60941336958E+03  0.30716327426E+03  0.10428458527E+04  0.25500000920E-02 0.  1.
</event>
<event>
 5   0  0.1017200E-05  0.2287241E+04  0.7818609E-02  0.8482969E-01
       -3   -1    0    0    0  501  0.00000000000E+00  0.00000000000E+00  0.18018050082E+04  0.18018050111E+04  0.10100000352E+00 0. -1.
        3   -1    0    0  501    0  0.00000000000E+00  0.00000000000E+00 -0.72586565497E+03  0.72586566200E+03  0.10100000352E+00 0.  1.
    10030    2    1    2    0    0  0.00000000000E+00  0.00000000000E+00  0.10759393533E+04  0.25276706731E+04  0.22872414694E+04 0.  0.
        5    1    3    3  502    0  0.83707548277E+03 -0.18840542164E+03  0.13735250205E+04  0.16195014784E+04  0.46999998093E+01 0. -1.
       -5    1    3    3    0  502 -0.83707548277E+03  0.18840542164E+03 -0.29758566721E+03  0.90816919464E+03  0.46999998093E+01 0.  1.
</event>
<event>
 5   0  0.1308224E-05  0.2307077E+04  0.7818609E-02  0.8475136E-01
       -1   -1    0    0    0  501  0.00000000000E+00  0.00000000000E+00  0.11036406441E+04  0.11036406441E+04  0.50400001928E-02 0.  1.
        1   -1    0    0  501    0  0.00000000000E+00  0.00000000000E+00 -0.12056918866E+04  0.12056918866E+04  0.50400001928E-02 0. -1.
    10030    2    1    2    0    0  0.00000000000E+00  0.00000000000E+00 -0.10205124250E+03  0.23093325308E+04  0.23070765660E+04 0.  0.
        5    1    3    3  502    0  0.82523602653E+03  0.24359188325E+03  0.71802050172E+03  0.11206815051E+04  0.46999998093E+01 0.  1.
       -5    1    3    3    0  502 -0.82523602653E+03 -0.24359188325E+03 -0.82007174422E+03  0.11886510256E+04  0.46999998093E+01 0. -1.
</event>
<event>
 5   0  0.1303224E-05  0.2417441E+04  0.7818609E-02  0.8433003E-01
        1   -1    0    0  501    0  0.00000000000E+00  0.00000000000E+00  0.17764383187E+04  0.17764383187E+04  0.50400001928E-02 0.  1.
       -1   -1    0    0    0  501  0.00000000000E+00  0.00000000000E+00 -0.82243537959E+03  0.82243537960E+03  0.50400001928E-02 0. -1.
    10030    2    1    2    0    0  0.00000000000E+00  0.00000000000E+00  0.95400293908E+03  0.25988736983E+04  0.24174413937E+04 0.  0.
        2    1    3    3  502    0  0.11045424749E+04  0.57745129744E+02  0.10010900014E+04  0.14918209577E+04  0.25500000920E-02 0.  1.
       -2    1    3    3    0  502 -0.11045424749E+04 -0.57745129744E+02 -0.47087062341E+02  0.11070527406E+04  0.25500000920E-02 0. -1.
</event>
<event>
 5   0  0.1327820E-05  0.2383457E+04  0.7818609E-02  0.8445723E-01
       -1   -1    0    0    0  501  0.00000000000E+00  0.00000000000E+00  0.13415457038E+04  0.13415457038E+04  0.50400001928E-02 0.  1.
        1   -1    0    0  501    0  0.00000000000E+00  0.00000000000E+00 -0.10586425561E+04  0.10586425561E+04  0.50400001928E-02 0. -1.
    10030    2    1    2    0    0  0.00000000000E+00  0.00000000000E+00  0.28290314762E+03  0.24001882599E+04  0.23834574660E+04 0.  0.
        1    1    3    3  502    0 -0.27951854502E+03  0.10448803562E+04 -0.36237208822E+03  0.11407099132E+04  0.50400001928E-02 0. -1.
       -1    1    3    3    0  502  0.27951854502E+03 -0.10448803562E+04  0.64527523584E+03  0.12594783467E+04  0.50400001928E-02 0.  1.
</event>
<event>
 5   0  0.2938972E-05  0.2302999E+04  0.7818609E-02  0.8476739E-01
        2   -1    0    0  501    0  0.00000000000E+00  0.00000000000E+00  0.27846309332E+04  0.27846309332E+04  0.25500000920E-02 0. -1.
       -2   -1    0    0    0  501  0.00000000000E+00  0.00000000000E+00 -0.47616778270E+03  0.47616778271E+03  0.25500000920E-02 0.  1.
    10030    2    1    2    0    0  0.00000000000E+00  0.00000000000E+00  0.23084631505E+04  0.32607987159E+04  0.23029993809E+04 0.  0.
        2    1    3    3  502    0 -0.31940485018E+03 -0.63295371922E+03 -0.13049192329E+03  0.72088696136E+03  0.25500000920E-02 0.  1.
       -2    1    3    3    0  502  0.31940485018E+03  0.63295371922E+03  0.24389550738E+04  0.25399117546E+04  0.25500000920E-02 0. -1.
</event>
<event>
 5   0  0.1327820E-05  0.2285036E+04  0.7818609E-02  0.8483845E-01
       -1   -1    0    0    0  501  0.00000000000E+00  0.00000000000E+00  0.11909397050E+04  0.11909397050E+04  0.50400001928E-02 0.  1.
        1   -1    0    0  501    0  0.00000000000E+00  0.00000000000E+00 -0.10960648591E+04  0.10960648591E+04  0.50400001928E-02 0. -1.
    10030    2    1    2    0    0  0.00000000000E+00  0.00000000000E+00  0.94874845853E+02  0.22870045641E+04  0.22850358072E+04 0.  0.
        1    1    3    3  502    0  0.66513561882E+03 -0.78204061372E+03 -0.45434695376E+03  0.11226860948E+04  0.50400001928E-02 0.  1.
       -1    1    3    3    0  502 -0.66513561882E+03  0.78204061372E+03  0.54922179962E+03  0.11643184694E+04  0.50400001928E-02 0. -1.
</event>
<event>
 5   0  0.2910126E-05  0.2296164E+04  0.7818609E-02  0.8479435E-01
        2   -1    0    0  501    0  0.00000000000E+00  0.00000000000E+00  0.15208248672E+04  0.15208248672E+04  0.25500000920E-02 0. -1.
       -2   -1    0    0    0  501  0.00000000000E+00  0.00000000000E+00 -0.86669576252E+03  0.86669576253E+03  0.25500000920E-02 0.  1.
    10030    2    1    2    0    0  0.00000000000E+00  0.00000000000E+00  0.65412910471E+03  0.23875206298E+04  0.22961641648E+04 0.  0.
        5    1    3    3  502    0  0.17046839302E+03 -0.10557608471E+04 -0.10713808620E+03  0.10747981666E+04  0.46999998093E+01 0.  1.
       -5    1    3    3    0  502 -0.17046839302E+03  0.10557608471E+04  0.76126719091E+03  0.13127224632E+04  0.46999998093E+01 0. -1.
</event>
<event>
 5   0  0.1371753E-05  0.2040545E+04  0.7818609E-02  0.8587896E-01
       -1   -1    0    0    0  501  0.00000000000E+00  0.00000000000E+00  0.78762953738E+03  0.78762953740E+03  0.50400001928E-02 0.  1.
        1   -1    0    0  501    0  0.00000000000E+00  0.00000000000E+00 -0.13216309335E+04  0.13216309335E+04  0.50400001928E-02 0. -1.
    10030    2    1    2    0    0  0.00000000000E+00  0.00000000000E+00 -0.53400139611E+03  0.21092604709E+04  0.20405445947E+04 0.  0.
        3    1    3    3  502    0  0.93559091325E+03 -0.35193683602E+03 -0.47824927028E+03  0.11081120287E+04  0.10100000352E+00 0. -1.
       -3    1    3    3    0  502 -0.93559091325E+03  0.35193683602E+03 -0.55752125829E+02  0.10011484422E+04  0.10100000352E+00 0.  1.
</event>
<event>
 5   0  0.1017200E-05  0.2282913E+04  0.7818609E-02  0.8484689E-01
       -3   -1    0    0    0  501  0.00000000000E+00  0.00000000000E+00  0.24504923998E+04  0.24504924019E+04  0.10100000352E+00 0. -1.
        3   -1    0    0  501    0  0.00000000000E+00  0.00000000000E+00 -0.53169837009E+03  0.53169837968E+03  0.10100000352E+00 0.  1.
    10030    2    1    2    0    0  0.00000000000E+00  0.00000000000E+00  0.19187940297E+04  0.29821907816E+04  0.22829129044E+04 0.  0.
        3    1    3    3  502    0  0.70188734225E+02  0.67278115392E+03  0.21604645031E+04  0.22638833492E+04  0.10100000352E+00 0. -1.
       -3    1    3    3    0  502 -0.70188734225E+02 -0.67278115392E+03 -0.24167047338E+03  0.71830743236E+03  0.10100000352E+00 0.  1.
</event>
<event>
 5   0  0.1308224E-05  0.2308329E+04  0.7818609E-02  0.8474644E-01
       -1   -1    0    0    0  501  0.00000000000E+00  0.00000000000E+00  0.16473633273E+04  0.16473633273E+04  0.50400001928E-02 0. -1.
        1   -1    0    0  501    0  0.00000000000E+00  0.00000000000E+00 -0.80862304107E+03  0.80862304109E+03  0.50400001928E-02 0.  1.
    10030    2    1    2    0    0  0.00000000000E+00  0.00000000000E+00  0.83874028627E+03  0.24559863684E+04  0.23083292170E+04 0.  0.
        5    1    3    3  502    0 -0.70689924018E+03 -0.48653770491E+03  0.12405214449E+04  0.15084233555E+04  0.46999998093E+01 0. -1.
       -5    1    3    3    0  502  0.70689924018E+03  0.48653770491E+03 -0.40178115865E+03  0.94756301295E+03  0.46999998093E+01 0.  1.
</event>
<event>
 5   0  0.2938972E-05  0.2285114E+04  0.7818609E-02  0.8483814E-01
        2   -1    0    0  501    0  0.00000000000E+00  0.00000000000E+00  0.19625957535E+04  0.19625957535E+04  0.25500000920E-02 0.  1.
       -2   -1    0    0    0  501  0.00000000000E+00  0.00000000000E+00 -0.66515784645E+03  0.66515784646E+03  0.25500000920E-02 0. -1.
    10030    2    1    2    0    0  0.00000000000E+00  0.00000000000E+00  0.12974379071E+04  0.26277536000E+04  0.22851135332E+04 0.  0.
        2    1    3    3  502    0 -0.31098053094E+03  0.61493375374E+03 -0.39929851320E+03  0.79642433085E+03  0.25500000920E-02 0. -1.
       -2    1    3    3    0  502  0.31098053094E+03 -0.61493375374E+03  0.16967364203E+04  0.18313292691E+04  0.25500000920E-02 0.  1.
</event>
<event>
 5   0  0.1017200E-05  0.2305160E+04  0.7818609E-02  0.8475889E-01
       -3   -1    0    0    0  501  0.00000000000E+00  0.00000000000E+00  0.71223743974E+03  0.71223744690E+03  0.10100000352E+00 0.  1.
        3   -1    0    0  501    0  0.00000000000E+00  0.00000000000E+00 -0.18651655944E+04  0.18651655972E+04  0.10100000352E+00 0. -1.
    10030    2    1    2    0    0  0.00000000000E+00  0.00000000000E+00 -0.11529281547E+04  0.25774030441E+04  0.23051601076E+04 0.  0.
        5    1    3    3  502    0  0.28802480947E+03 -0.38644444389E+03 -0.17470694394E+04  0.18123386315E+04  0.46999998093E+01 0. -1.
       -5    1    3    3    0  502 -0.28802480947E+03  0.38644444389E+03  0.59414128476E+03  0.76506441254E+03  0.46999998093E+01 0.  1.
</event>
<event>
 5   0  0.1327820E-05  0.2190585E+04  0.7818609E-02  0.8522357E-01
       -1   -1    0    0    0  501  0.00000000000E+00  0.00000000000E+00  0.67592177505E+03  0.67592177507E+03  0.50400001928E-02 0. -1.
        1   -1    0    0  501    0  0.00000000000E+00  0.00000000000E+00 -0.17748588412E+04  0.17748588412E+04  0.50400001928E-02 0.  1.
    10030    2    1    2    0    0  0.00000000000E+00  0.00000000000E+00 -0.10989370661E+04  0.24507806163E+04  0.21905850711E+04 0.  0.
        1    1    3    3  502    0 -0.10684325290E+03 -0.29239636794E+03  0.62538507897E+03  0.69858257472E+03  0.50400001928E-02 0. -1.
       -1    1    3    3    0  502  0.10684325290E+03  0.29239636794E+03 -0.17243221451E+04  0.17521980415E+04  0.50400001928E-02 0.  1.
</event>
<event>
 5   0  0.2938972E-05  0.2299104E+04  0.7818609E-02  0.8478274E-01
       -2   -1    0    0    0  501  0.00000000000E+00  0.00000000000E+00  0.96451713471E+03  0.96451713471E+03  0.25500000920E-02 0. -1.
        2   -1    0    0  501    0  0.00000000000E+00  0.00000000000E+00 -0.13700846315E+04  0.13700846315E+04  0.25500000920E-02 0.  1.
    10030    2    1    2    0    0  0.00000000000E+00  0.00000000000E+00 -0.40556749682E+03  0.23346017662E+04  0.22991042631E+04 0.  0.
        2    1    3    3  502    0  0.41824883735E+03 -0.30200130050E+03  0.84037150416E+03  0.98608373907E+03  0.25500000920E-02 0. -1.
       -2    1    3    3    0  502 -0.41824883735E+03  0.30200130050E+03 -0.12459390010E+04  0.13485180272E+04  0.25500000920E-02 0.  1.
</event>
<event>
 5   0  0.1303224E-05  0.2299835E+04  0.7818609E-02  0.8477986E-01
       -1   -1    0    0    0  501  0.00000000000E+00  0.00000000000E+00  0.10489472832E+04  0.10489472832E+04  0.50400001928E-02 0.  1.
        1   -1    0    0  501    0  0.00000000000E+00  0.00000000000E+00 -0.12606071453E+04  0.12606071453E+04  0.50400001928E-02 0. -1.
    10030    2    1    2    0    0  0.00000000000E+00  0.00000000000E+00 -0.21165986205E+03  0.23095544285E+04  0.22998351596E+04 0.  0.
        2    1    3    3  502    0 -0.62413899906E+03  0.85149518791E+03  0.35185583234E+03  0.11128324546E+04  0.25500000920E-02 0. -1.
       -2    1    3    3    0  502  0.62413899906E+03 -0.85149518791E+03 -0.56351569439E+03  0.11967219740E+04  0.25500000920E-02 0.  1.
</event>
<event>
 5   0  0.1303224E-05  0.2300548E+04  0.7818609E-02  0.8477705E-01
        1   -1    0    0  501    0  0.00000000000E+00  0.00000000000E+00  0.17692205462E+04  0.17692205462E+04  0.50400001928E-02 0. -1.
       -1   -1    0    0    0  501  0.00000000000E+00  0.00000000000E+00 -0.74786051666E+03  0.74786051667E+03  0.50400001928E-02 0.  1.
    10030    2    1    2    0    0  0.00000000000E+00  0.00000000000E+00  0.10213600295E+04  0.25170810629E+04  0.23005479276E+04 0.  0.
        2    1    3    3  502    0 -0.26151110768E+03  0.46367346449E+03 -0.60497567108E+03  0.80583913017E+03  0.25500000920E-02 0.  1.
       -2    1    3    3    0  502  0.26151110768E+03 -0.46367346449E+03  0.16263357006E+04  0.17112419327E+04  0.25500000920E-02 0. -1.
</event>
<event>
 5   0  0.1284837E-05  0.2316575E+04  0.7818609E-02  0.8471414E-01
        1   -1    0    0  501    0  0.00000000000E+00  0.00000000000E+00  0.28680175129E+04  0.28680175130E+04  0.50400001928E-02 0.  1.
       -1   -1    0    0    0  501  0.00000000000E+00  0.00000000000E+00 -0.46778991942E+03  0.46778991945E+03  0.50400001928E-02 0. -1.
    10030    2    1    2    0    0  0.00000000000E+00  0.00000000000E+00  0.24002275935E+04  0.33358074324E+04  0.23165747830E+04 0.  0.
        4    1    3    3  502    0  0.58936480483E+03  0.86058963595E+03  0.47487182433E+03  0.11460673004E+04  0.12699999809E+01 0. -1.
       -4    1    3    3    0  502 -0.58936480483E+03 -0.86058963595E+03  0.19253557692E+04  0.21897401320E+04  0.12699999809E+01 0.  1.
</event>
<event>
 5   0  0.1284837E-05  0.2097556E+04  0.7818609E-02  0.8562321E-01
       -1   -1    0    0    0  501  0.00000000000E+00  0.00000000000E+00  0.80805352618E+03  0.80805352619E+03  0.50400001928E-02 0.  1.
        1   -1    0    0  501    0  0.00000000000E+00  0.00000000000E+00 -0.13612159689E+04  0.13612159689E+04  0.50400001928E-02 0. -1.
    10030    2    1    2    0    0  0.00000000000E+00  0.00000000000E+00 -0.55316244269E+03  0.21692694951E+04  0.20975560670E+04 0.  0.
        4    1    3    3  502    0  0.58502047148E+03  0.74072942343E+03 -0.74938177645E+03  0.12051986104E+04  0.12699999809E+01 0. -1.
       -4    1    3    3    0  502 -0.58502047148E+03 -0.74072942343E+03  0.19621933375E+03  0.96407088465E+03  0.12699999809E+01 0.  1.
</event>
<event>
 5   0  0.1308224E-05  0.2309466E+04  0.7818609E-02  0.8474198E-01
        1   -1    0    0  501    0  0.00000000000E+00  0.00000000000E+00  0.13366894181E+04  0.13366894181E+04  0.50400001928E-02 0. -1.
       -1   -1    0    0    0  501  0.00000000000E+00  0.00000000000E+00 -0.99754504674E+03  0.99754504675E+03  0.50400001928E-02 0.  1.
    10030    2    1    2    0    0  0.00000000000E+00  0.00000000000E+00  0.33914437132E+03  0.23342344648E+04  0.23094656594E+04 0.  0.
        5    1    3    3  502    0  0.87445098854E+03  0.19837868699E+03  0.90495161223E+03  0.12739615949E+04  0.46999998093E+01 0. -1.
       -5    1    3    3    0  502 -0.87445098854E+03 -0.19837868699E+03 -0.56580724091E+03  0.10602728699E+04  0.46999998093E+01 0.  1.
</event>
<event>
 5   0  0.1371753E-05  0.2297313E+04  0.7818609E-02  0.8478981E-01
        1   -1    0    0  501    0  0.00000000000E+00  0.00000000000E+00  0.20810085334E+04  0.20810085334E+04  0.50400001928E-02 0. -1.
       -1   -1    0    0    0  501  0.00000000000E+00  0.00000000000E+00 -0.63402503236E+03  0.63402503238E+03  0.50400001928E-02 0.  1.
    10030    2    1    2    0    0  0.00000000000E+00  0.00000000000E+00  0.14469835011E+04  0.27150335658E+04  0.22973127804E+04 0.  0.
        3    1    3    3  502    0  0.58402394324E+03 -0.75984098327E+03 -0.24868281611E+02  0.95867655013E+03  0.10100000352E+00 0. -1.
       -3    1    3    3    0  502 -0.58402394324E+03  0.75984098327E+03  0.14718517827E+04  0.17563570157E+04  0.10100000352E+00 0.  1.
</event>
<event>
 5   0  0.2910126E-05  0.2300401E+04  0.7818609E-02  0.8477763E-01
       -2   -1    0    0    0  501  0.00000000000E+00  0.00000000000E+00  0.58423876720E+03  0.58423876721E+03  0.25500000920E-02 0. -1.
        2   -1    0    0  501    0  0.00000000000E+00  0.00000000000E+00 -0.22644181910E+04  0.22644181910E+04  0.25500000920E-02 0.  1.
    10030    2    1    2    0    0  0.00000000000E+00  0.00000000000E+00 -0.16801794238E+04  0.28486569582E+04  0.23004007410E+04 0.  0.
        5    1    3    3  502    0 -0.54087973767E+03 -0.55810603915E+02  0.41501398932E+03  0.68405000947E+03  0.46999998093E+01 0. -1.
       -5    1    3    3    0  502  0.54087973767E+03  0.55810603915E+02 -0.20951934131E+04  0.21646069487E+04  0.46999998093E+01 0.  1.
</event>
<event>
 5   0  0.1308224E-05  0.2308358E+04  0.7818609E-02  0.8474633E-01
       -1   -1    0    0    0  501  0.00000000000E+00  0.00000000000E+00  0.74908974008E+03  0.74908974010E+03  0.50400001928E-02 0.  1.
        1   -1    0    0  501    0  0.00000000000E+00  0.00000000000E+00 -0.17783300722E+04  0.17783300722E+04  0.50400001928E-02 0. -1.
    10030    2    1    2    0    0  0.00000000000E+00  0.00000000000E+00 -0.10292403321E+04  0.25274198123E+04  0.23083576946E+04 0.  0.
        5    1    3    3  502    0  0.54973670335E+03  0.45220612592E+03 -0.15093566874E+04  0.16687961299E+04  0.46999998093E+01 0. -1.
       -5    1    3    3    0  502 -0.54973670335E+03 -0.45220612592E+03  0.48011635531E+03  0.85862368239E+03  0.46999998093E+01 0.  1.
</event>
<event>
 5   0  0.2816178E-05  0.2295230E+04  0.7818609E-02  0.8479804E-01
        2   -1    0    0  501    0  0.00000000000E+00  0.00000000000E+00  0.10035611735E+04  0.10035611735E+04  0.25500000920E-02 0. -1.
       -2   -1    0    0    0  501  0.00000000000E+00  0.00000000000E+00 -0.13123469696E+04  0.13123469696E+04  0.25500000920E-02 0.  1.
    10030    2    1    2    0    0  0.00000000000E+00  0.00000000000E+00 -0.30878579603E+03  0.23159081431E+04  0.22952302410E+04 0.  0.
        1    1    3    3  502    0 -0.69385041798E+03 -0.81559793782E+02 -0.10730567695E+04  0.12804418117E+04  0.50400001928E-02 0.  1.
       -1    1    3    3    0  502  0.69385041798E+03  0.81559793782E+02  0.76427097349E+03  0.10354663314E+04  0.50400001928E-02 0. -1.
</event>
<event>
 5   0  0.1371753E-05  0.2310050E+04  0.7818609E-02  0.8473969E-01
       -1   -1    0    0    0  501  0.00000000000E+00  0.00000000000E+00  0.26594063320E+04  0.26594063320E+04  0.50400001928E-02 0.  1.
        1   -1    0    0  501    0  0.00000000000E+00  0.00000000000E+00 -0.50164670056E+03  0.50164670059E+03  0.50400001928E-02 0. -1.
    10030    2    1    2    0    0  0.00000000000E+00  0.00000000000E+00  0.21577596314E+04  0.31610530326E+04  0.23100497068E+04 0.  0.
        3    1    3    3  502    0  0.37970151341E+03 -0.64099828395E+03  0.22866593027E+04  0.24049662817E+04  0.10100000352E+00 0.  1.
       -3    1    3    3    0  502 -0.37970151341E+03  0.64099828395E+03 -0.12889967132E+03  0.75608675083E+03  0.10100000352E+00 0. -1.
</event>
<event>
 5   0  0.1284837E-05  0.2299959E+04  0.7818609E-02  0.8477937E-01
        1   -1    0    0  501    0  0.00000000000E+00  0.00000000000E+00  0.13552466053E+04  0.13552466053E+04  0.50400001928E-02 0.  1.
       -1   -1    0    0    0  501  0.00000000000E+00  0.00000000000E+00 -0.97580268666E+03  0.97580268668E+03  0.50400001928E-02 0. -1.
    10030    2    1    2    0    0  0.00000000000E+00  0.00000000000E+00  0.37944391868E+03  0.23310492920E+04  0.22999593723E+04 0.  0.
        4    1    3    3  502    0 -0.68741420452E+03 -0.80993177277E+03 -0.25659867089E+03  0.10928733943E+04  0.12699999809E+01 0. -1.
       -4    1    3    3    0  502  0.68741420452E+03  0.80993177277E+03  0.63604258957E+03  0.12381758977E+04  0.12699999809E+01 0.  1.
</event>
<event>
 5   0  0.2816178E-05  0.2285233E+04  0.7818609E-02  0.8483766E-01
       -2   -1    0    0    0  501  0.00000000000E+00  0.00000000000E+00  0.74946541273E+03  0.74946541273E+03  0.25500000920E-02 0. -1.
        2   -1    0    0  501    0  0.00000000000E+00  0.00000000000E+00 -0.17420054829E+04  0.17420054829E+04  0.25500000920E-02 0.  1.
    10030    2    1    2    0    0  0.00000000000E+00  0.00000000000E+00 -0.99254007019E+03  0.24914708957E+04  0.22852333432E+04 0.  0.
        1    1    3    3  502    0  0.39181253886E+02  0.30634785033E+03  0.70309617627E+03  0.76793776386E+03  0.50400001928E-02 0. -1.
       -1    1    3    3    0  502 -0.39181253886E+02 -0.30634785033E+03 -0.16956362465E+04  0.17235331318E+04  0.50400001928E-02 0.  1.
</event>
<event>
 5   0  0.2871888E-05  0.2298357E+04  0.7818609E-02  0.8478569E-01
        2   -1    0    0  501    0  0.00000000000E+00  0.00000000000E+00  0.12262958694E+04  0.12262958694E+04  0.25500000920E-02 0.  1.
       -2   -1    0    0    0  501  0.00000000000E+00  0.00000000000E+00 -0.10769109163E+04  0.10769109163E+04  0.25500000920E-02 0. -1.
    10030    2    1    2    0    0  0.00000000000E+00  0.00000000000E+00  0.14938495309E+03  0.23032067857E+04  0.22983571597E+04 0.  0.
        3    1    3    3  502    0  0.15944648372E+03  0.44598090059E+03  0.11239400942E+04  0.12196571200E+04  0.10100000352E+00 0.  1.
       -3    1    3    3    0  502 -0.15944648372E+03 -0.44598090059E+03 -0.97455514107E+03  0.10835496657E+04  0.10100000352E+00 0. -1.
</event>
<event>
 5   0  0.2816178E-05  0.2279542E+04  0.7818609E-02  0.8486031E-01
       -2   -1    0    0    0  501  0.00000000000E+00  0.00000000000E+00  0.42708528643E+03  0.42708528643E+03  0.25500000920E-02 0.  1.
        2   -1    0    0  501    0  0.00000000000E+00  0.00000000000E+00 -0.30417293004E+04  0.30417293004E+04  0.25500000920E-02 0. -1.
    10030    2    1    2    0    0  0.00000000000E+00  0.00000000000E+00 -0.26146440139E+04  0.34688145868E+04  0.22795419097E+04 0.  0.
        1    1    3    3  502    0 -0.69232481081E+03  0.69323774664E+03 -0.21935637800E+04  0.24024184219E+04  0.50400001928E-02 0. -1.
       -1    1    3    3    0  502  0.69232481081E+03 -0.69323774664E+03 -0.42108023393E+03  0.10663961649E+04  0.50400001928E-02 0.  1.
</event>
<event>
 5   0  0.2871888E-05  0.2330303E+04  0.7818609E-02  0.8466068E-01
        2   -1    0    0  501    0  0.00000000000E+00  0.00000000000E+00  0.15837384514E+04  0.15837384514E+04  0.25500000920E-02 0.  1.
       -2   -1    0    0    0  501  0.00000000000E+00  0.00000000000E+00 -0.85719803384E+03  0.85719803385E+03  0.25500000920E-02 0. -1.
    10030    2    1    2    0    0  0.00000000000E+00  0.00000000000E+00  0.72654041751E+03  0.24409364852E+04  0.23303025440E+04 0.  0.
        3    1    3    3  502    0 -0.29124876037E+03 -0.81823337159E+03 -0.45029303254E+03  0.97831258612E+03  0.10100000352E+00 0. -1.
       -3    1    3    3    0  502  0.29124876037E+03  0.81823337159E+03  0.11768334501E+04  0.14626238991E+04  0.10100000352E+00 0.  1.
</event>
<event>
 5   0  0.2938972E-05  0.2306602E+04  0.7818609E-02  0.8475323E-01
       -2   -1    0    0    0  501  0.00000000000E+00  0.00000000000E+00  0.61492685488E+03  0.61492685489E+03  0.25500000920E-02 0. -1.
        2   -1    0    0  501    0  0.00000000000E+00  0.00000000000E+00 -0.21630264826E+04  0.21630264826E+04  0.25500000920E-02 0.  1.
    10030    2    1    2    0    0  0.00000000000E+00  0.00000000000E+00 -0.15480996277E+04  0.27779533375E+04  0.23066018919E+04 0.  0.
        2    1    3    3  502    0  0.55792561730E+03  0.93600300900E+03 -0.12290330523E+04  0.16425300213E+04  0.25500000920E-02 0.  1.
       -2    1    3    3    0  502 -0.55792561730E+03 -0.93600300900E+03 -0.31906657539E+03  0.11354233161E+04  0.25500000920E-02 0. -1.
</event>
<event>
 5   0  0.2816178E-05  0.2351800E+04  0.7818609E-02  0.8457772E-01
        2   -1    0    0  501    0  0.00000000000E+00  0.00000000000E+00  0.16505711506E+04  0.16505711506E+04  0.25500000920E-02 0. -1.
       -2   -1    0    0    0  501  0.00000000000E+00  0.00000000000E+00 -0.83773498239E+03  0.83773498240E+03  0.25500000920E-02 0.  1.
    10030    2    1    2    0    0  0.00000000000E+00  0.00000000000E+00  0.81283616822E+03  0.24883061330E+04  0.23518003264E+04 0.  0.
        1    1    3    3  502    0 -0.55269923138E+03  0.87269364863E+02 -0.68785059851E+03  0.88669658188E+03  0.50400001928E-02 0.  1.
       -1    1    3    3    0  502  0.55269923138E+03 -0.87269364863E+02  0.15006867667E+04  0.16016095511E+04  0.50400001928E-02 0. -1.
</event>
<event>
 5   0  0.1308224E-05  0.2284880E+04  0.7818609E-02  0.8483907E-01
       -1   -1    0    0    0  501  0.00000000000E+00  0.00000000000E+00  0.10292867437E+04  0.10292867437E+04  0.50400001928E-02 0. -1.
        1   -1    0    0  501    0  0.00000000000E+00  0.00000000000E+00 -0.12680325815E+04  0.12680325816E+04  0.50400001928E-02 0.  1.
    10030    2    1    2    0    0  0.00000000000E+00  0.00000000000E+00 -0.23874583782E+03  0.22973193253E+04  0.22848799766E+04 0.  0.
        5    1    3    3  502    0  0.34691547196E+03  0.51032183683E+03  0.84730210859E+03  0.10481992535E+04  0.46999998093E+01 0. -1.
       -5    1    3    3    0  502 -0.34691547196E+03 -0.51032183683E+03 -0.10860479464E+04  0.12491200718E+04  0.46999998093E+01 0.  1.
</event>
<event>
 5   0  0.1308224E-05  0.2275746E+04  0.7818609E-02  0.8487546E-01
       -1   -1    0    0    0  501  0.00000000000E+00  0.00000000000E+00  0.55274382315E+03  0.55274382318E+03  0.50400001928E-02 0. -1.
        1   -1    0    0  501    0  0.00000000000E+00  0.00000000000E+00 -0.23424150820E+04  0.23424150820E+04  0.50400001928E-02 0.  1.
    10030    2    1    2    0    0  0.00000000000E+00  0.00000000000E+00 -0.17896712588E+04  0.28951589052E+04  0.22757464427E+04 0.  0.
        5    1    3    3  502    0  0.78830893399E+03 -0.38263407079E+03 -0.18182783934E+04  0.20184147773E+04  0.46999998093E+01 0.  1.
       -5    1    3    3    0  502 -0.78830893399E+03  0.38263407079E+03  0.28607134551E+02  0.87674412783E+03  0.46999998093E+01 0. -1.
</event>
<event>
 5   0  0.2938972E-05  0.2292716E+04  0.7818609E-02  0.8480799E-01
        2   -1    0    0  501    0  0.00000000000E+00  0.00000000000E+00  0.13956974908E+04  0.13956974908E+04  0.25500000920E-02 0. -1.
       -2   -1    0    0    0  501  0.00000000000E+00  0.00000000000E+00 -0.94156227852E+03  0.94156227852E+03  0.25500000920E-02 0.  1.
    10030    2    1    2    0    0  0.00000000000E+00  0.00000000000E+00  0.45413521231E+03  0.23372597694E+04  0.22927155162E+04 0.  0.
        2    1    3    3  502    0 -0.81084975363E+03  0.57817751651E+03 -0.35173945070E+03  0.10561662770E+04  0.25500000920E-02 0.  1.
       -2    1    3    3    0  502  0.81084975363E+03 -0.57817751651E+03  0.80587466301E+03  0.12810934923E+04  0.25500000920E-02 0. -1.
</event>
<event>
 5   0  0.1371753E-05  0.2295058E+04  0.7818609E-02  0.8479872E-01
        1   -1    0    0  501    0  0.00000000000E+00  0.00000000000E+00  0.10344310542E+04  0.10344310542E+04  0.50400001928E-02 0. -1.
       -1   -1    0    0    0  501  0.00000000000E+00  0.00000000000E+00 -0.12729925201E+04  0.12729925201E+04  0.50400001928E-02 0.  1.
    10030    2    1    2    0    0  0.00000000000E+00  0.00000000000E+00 -0.23856146586E+03  0.23074235743E+04  0.22950581645E+04 0.  0.
        3    1    3    3  502    0  0.24365963315E+03 -0.10835614572E+03 -0.12414088324E+04  0.12697271245E+04  0.10100000352E+00 0.  1.
       -3    1    3    3    0  502 -0.24365963315E+03  0.10835614572E+03  0.10028473666E+04  0.10376964498E+04  0.10100000352E+00 0. -1.
</event>
<event>
 5   0  0.1308224E-05  0.2276346E+04  0.7818609E-02  0.8487307E-01
        1   -1    0    0  501    0  0.00000000000E+00  0.00000000000E+00  0.10383786196E+04  0.10383786196E+04  0.50400001928E-02 0.  1.
       -1   -1    0    0    0  501  0.00000000000E+00  0.00000000000E+00 -0.12475576834E+04  0.12475576834E+04  0.50400001928E-02 0. -1.
    10030    2    1    2    0    0  0.00000000000E+00  0.00000000000E+00 -0.20917906375E+03  0.22859363030E+04  0.22763455144E+04 0.  0.
        5    1    3    3  502    0 -0.56845199146E+03 -0.28671994551E+01 -0.10947810856E+04  0.12335775626E+04  0.46999998093E+01 0. -1.
       -5    1    3    3    0  502  0.56845199146E+03  0.28671994551E+01  0.88560202188E+03  0.10523587404E+04  0.46999998093E+01 0.  1.
</event>
<event>
 5   0  0.2910126E-05  0.2309083E+04  0.7818609E-02  0.8474349E-01
       -2   -1    0    0    0  501  0.00000000000E+00  0.00000000000E+00  0.22285715812E+04  0.22285715812E+04  0.25500000920E-02 0. -1.
        2   -1    0    0  501    0  0.00000000000E+00  0.00000000000E+00 -0.59812554988E+03  0.59812554989E+03  0.25500000920E-02 0.  1.
    10030    2    1    2    0    0  0.00000000000E+00  0.00000000000E+00  0.16304460313E+04  0.28266971310E+04  0.23090825905E+04 0.  0.
        5    1    3    3  502    0 -0.40998933987E+03 -0.10536892527E+04  0.52919986876E+03  0.12483696933E+04  0.46999998093E+01 0.  1.
       -5    1    3    3    0  502  0.40998933987E+03  0.10536892527E+04  0.11012461625E+04  0.15783274377E+04  0.46999998093E+01 0. -1.
</event>
<event>
 5   0  0.2871888E-05  0.2305970E+04  0.7818609E-02  0.8475571E-01
        2   -1    0    0  501    0  0.00000000000E+00  0.00000000000E+00  0.30250318579E+04  0.30250318579E+04  0.25500000920E-02 0.  1.
       -2   -1    0    0    0  501  0.00000000000E+00  0.00000000000E+00 -0.43945816753E+03  0.43945816753E+03  0.25500000920E-02 0. -1.
    10030    2    1    2    0    0  0.00000000000E+00  0.00000000000E+00  0.25855736904E+04  0.34644900254E+04  0.23059704742E+04 0.  0.
        3    1    3    3  502    0 -0.10800288361E+04  0.36724314565E+03  0.15443889769E+04  0.19200174836E+04  0.10100000352E+00 0.  1.
       -3    1    3    3    0  502  0.10800288361E+04 -0.36724314565E+03  0.10411847134E+04  0.15444725419E+04  0.10100000352E+00 0. -1.
</event>
<event>
 5   0  0.1017200E-05  0.2296138E+04  0.7818609E-02  0.8479445E-01
        3   -1    0    0  501    0  0.00000000000E+00  0.00000000000E+00  0.13160055258E+04  0.13160055297E+04  0.10100000352E+00 0. -1.
       -3   -1    0    0    0  501  0.00000000000E+00  0.00000000000E+00 -0.10015633095E+04  0.10015633145E+04  0.10100000352E+00 0.  1.
    10030    2    1    2    0    0  0.00000000000E+00  0.00000000000E+00  0.31444221637E+03  0.23175688443E+04  0.22961383757E+04 0.  0.
        2    1    3    3  502    0  0.30379814026E+03 -0.22884380297E+03  0.12505671590E+04  0.13071270081E+04  0.25500000920E-02 0. -1.
       -2    1    3    3    0  502 -0.30379814026E+03  0.22884380297E+03 -0.93612494258E+03  0.10104418362E+04  0.25500000920E-02 0.  1.
</event>
<event>
 5   0  0.2938972E-05  0.2218277E+04  0.7818609E-02  0.8510859E-01
       -2   -1    0    0    0  501  0.00000000000E+00  0.00000000000E+00  0.71426728747E+03  0.71426728747E+03  0.25500000920E-02 0.  1.
        2   -1    0    0  501    0  0.00000000000E+00  0.00000000000E+00 -0.17223074502E+04  0.17223074502E+04  0.25500000920E-02 0. -1.
    10030    2    1    2    0    0  0.00000000000E+00  0.00000000000E+00 -0.10080401627E+04  0.24365747376E+04  0.22182766920E+04 0.  0.
        2    1    3    3  502    0  0.40632488560E+02 -0.43595538239E+03 -0.16233627079E+04  0.16813728248E+04  0.25500000920E-02 0. -1.
       -2    1    3    3    0  502 -0.40632488560E+02  0.43595538239E+03  0.61532254519E+03  0.75520191286E+03  0.25500000920E-02 0.  1.
</event>
<event>
 5   0  0.1327820E-05  0.2305700E+04  0.7818609E-02  0.8475677E-01
       -1   -1    0    0    0  501  0.00000000000E+00  0.00000000000E+00  0.15337731427E+04  0.15337731427E+04  0.50400001928E-02 0.  1.
        1   -1    0    0  501    0  0.00000000000E+00  0.00000000000E+00 -0.86653187509E+03  0.86653187511E+03  0.50400001928E-02 0. -1.
    10030    2    1    2    0    0  0.00000000000E+00  0.00000000000E+00  0.66724126762E+03  0.24003050178E+04  0.23057001690E+04 0.  0.
        1    1    3    3  502    0  0.58117407258E+03  0.23430593290E+03 -0.67376203934E+03  0.92011839374E+03  0.50400001928E-02 0. -1.
       -1    1    3    3    0  502 -0.58117407258E+03 -0.23430593290E+03  0.13410033070E+04  0.14801866241E+04  0.50400001928E-02 0.  1.
</event>
<event>
 5   0  0.2816178E-05  0.2295043E+04  0.7818609E-02  0.8479878E-01
        2   -1    0    0  501    0  0.00000000000E+00  0.00000000000E+00  0.10513970771E+04  0.10513970771E+04  0.25500000920E-02 0.  1.
       -2   -1    0    0    0  501  0.00000000000E+00  0.00000000000E+00 -0.12524342924E+04  0.12524342924E+04  0.25500000920E-02 0. -1.
    10030    2    1    2    0    0  0.00000000000E+00  0.00000000000E+00 -0.20103721529E+03  0.23038313695E+04  0.22950431405E+04 0.  0.
        1    1    3    3  502    0 -0.10738316328E+04 -0.79520665344E+02  0.29769658877E+03  0.11171665815E+04  0.50400001928E-02 0. -1.
       -1    1    3    3    0  502  0.10738316328E+04  0.79520665344E+02 -0.49873380406E+03  0.11866647880E+04  0.50400001928E-02 0.  1.
</event>
<event>
 5   0  0.1303224E-05  0.2294133E+04  0.7818609E-02  0.8480238E-01
       -1   -1    0    0    0  501  0.00000000000E+00  0.00000000000E+00  0.10833529607E+04  0.10833529607E+04  0.50400001928E-02 0. -1.
        1   -1    0    0  501    0  0.00000000000E+00  0.00000000000E+00 -0.12145274495E+04  0.12145274495E+04  0.50400001928E-02 0.  1.
    10030    2    1    2    0    0  0.00000000000E+00  0.00000000000E+00 -0.13117448875E+03  0.22978804102E+04  0.22941333076E+04 0.  0.
        2    1    3    3  502    0 -0.55198436651E+03 -0.74598904504E+03 -0.74091063261E+03  0.11874910365E+04  0.25500000920E-02 0.  1.
       -2    1    3    3    0  502  0.55198436651E+03  0.74598904504E+03  0.60973614386E+03  0.11103893737E+04  0.25500000920E-02 0. -1.
</event>
<event>
 5   0  0.1371753E-05  0.2305812E+04  0.7818609E-02  0.8475633E-01
        1   -1    0    0  501    0  0.00000000000E+00  0.00000000000E+00  0.10627278693E+04  0.10627278694E+04  0.50400001928E-02 0. -1.
       -1   -1    0    0    0  501  0.00000000000E+00  0.00000000000E+00 -0.12507360752E+04  0.12507360752E+04  0.50400001928E-02 0.  1.
    10030    2    1    2    0    0  0.00000000000E+00  0.00000000000E+00 -0.18800820583E+03  0.23134639445E+04  0.23058118608E+04 0.  0.
        3    1    3    3  502    0 -0.72870918942E+03  0.57130463218E+03 -0.78315034960E+03  0.12127367999E+04  0.10100000352E+00 0.  1.
       -3    1    3    3    0  502  0.72870918942E+03 -0.57130463218E+03  0.59514214377E+03  0.11007271447E+04  0.10100000352E+00 0. -1.
</event>
<event>
 5   0  0.1308224E-05  0.2293024E+04  0.7818609E-02  0.8480677E-01
       -1   -1    0    0    0  501  0.00000000000E+00  0.00000000000E+00  0.79678315098E+03  0.79678315100E+03  0.50400001928E-02 0. -1.
        1   -1    0    0  501    0  0.00000000000E+00  0.00000000000E+00 -0.16497462789E+04  0.16497462789E+04  0.50400001928E-02 0.  1.
    10030    2    1    2    0    0  0.00000000000E+00  0.00000000000E+00 -0.85296312789E+03  0.24465294299E+04  0.22930242375E+04 0.  0.
        5    1    3    3  502    0  0.13649165453E+02  0.12035397835E+02 -0.16495819050E+04  0.16496889712E+04  0.46999998093E+01 0.  1.
       -5    1    3    3    0  502 -0.13649165453E+02 -0.12035397835E+02  0.79661877710E+03  0.79684045865E+03  0.46999998093E+01 0. -1.
</event>
<event>
 5   0  0.1303224E-05  0.2303729E+04  0.7818609E-02  0.8476452E-01
        1   -1    0    0  501    0  0.00000000000E+00  0.00000000000E+00  0.12480734179E+04  0.12480734179E+04  0.50400001928E-02 0.  1.
       -1   -1    0    0    0  501  0.00000000000E+00  0.00000000000E+00 -0.10630717011E+04  0.10630717011E+04  0.50400001928E-02 0. -1.
    10030    2    1    2    0    0  0.00000000000E+00  0.00000000000E+00  0.18500171684E+03  0.23111451191E+04  0.23037287440E+04 0.  0.
        2    1    3    3  502    0 -0.11888463027E+03  0.10688151008E+02  0.12418520951E+04  0.12475754157E+04  0.25500000920E-02 0.  1.
       -2    1    3    3    0  502  0.11888463027E+03 -0.10688151008E+02 -0.10568503782E+04  0.10635697033E+04  0.25500000920E-02 0. -1.
</event>
<event>
 5   0  0.2994157E-05  0.2294814E+04  0.7818609E-02  0.8479969E-01
       -2   -1    0    0    0  501  0.00000000000E+00  0.00000000000E+00  0.87586729466E+03  0.87586729466E+03  0.25500000920E-02 0. -1.
        2   -1    0    0  501    0  0.00000000000E+00  0.00000000000E+00 -0.15031307155E+04  0.15031307155E+04  0.25500000920E-02 0.  1.
    10030    2    1    2    0    0  0.00000000000E+00  0.00000000000E+00 -0.62726342085E+03  0.23789980102E+04  0.22948141827E+04 0.  0.
        4    1    3    3  502    0  0.81095658620E+03 -0.78963761654E+03 -0.50858149677E+03  0.12409008429E+04  0.12699999809E+01 0.  1.
       -4    1    3    3    0  502 -0.81095658620E+03  0.78963761654E+03 -0.11868192409E+03  0.11380971673E+04  0.12699999809E+01 0. -1.
</event>
<event>
 5   0  0.1284837E-05  0.2322624E+04  0.7818609E-02  0.8469054E-01
        1   -1    0    0  501    0  0.00000000000E+00  0.00000000000E+00  0.59706565687E+03  0.59706565689E+03  0.50400001928E-02 0.  1.
       -1   -1    0    0    0  501  0.00000000000E+00  0.00000000000E+00 -0.22587902514E+04  0.22587902514E+04  0.50400001928E-02 0. -1.
    10030    2    1    2    0    0  0.00000000000E+00  0.00000000000E+00 -0.16617245946E+04  0.28558559083E+04  0.23226244511E+04 0.  0.
        4    1    3    3  502    0  0.11157534568E+02 -0.30552728142E+03  0.54669319533E+03  0.62637566443E+03  0.12699999809E+01 0.  1.
       -4    1    3    3    0  502 -0.11157534568E+02  0.30552728142E+03 -0.22084177899E+04  0.22294802439E+04  0.12699999809E+01 0. -1.
</event>
<event>
 5   0  0.1308224E-05  0.2294073E+04  0.7818609E-02  0.8480262E-01
       -1   -1    0    0    0  501  0.00000000000E+00  0.00000000000E+00  0.75928400520E+03  0.75928400522E+03  0.50400001928E-02 0. -1.
        1   -1    0    0  501    0  0.00000000000E+00  0.00000000000E+00 -0.17328078379E+04  0.17328078379E+04  0.50400001928E-02 0.  1.
    10030    2    1    2    0    0  0.00000000000E+00  0.00000000000E+00 -0.97352383269E+03  0.24920918431E+04  0.22940734735E+04 0.  0.
        5    1    3    3  502    0 -0.80570647569E+03 -0.63937337365E+03  0.64708619124E+02  0.10306165782E+04  0.46999998093E+01 0. -1.
       -5    1    3    3    0  502  0.80570647569E+03  0.63937337365E+03 -0.10382324518E+04  0.14614752649E+04  0.46999998093E+01 0.  1.
</event>
<event>
 5   0  0.1017200E-05  0.2312294E+04  0.7818609E-02  0.8473090E-01
       -4   -1    0    0    0  501  0.00000000000E+00  0.00000000000E+00  0.67858970833E+03  0.67859089675E+03  0.12699999809E+01 0.  1.
        4   -1    0    0  501    0  0.00000000000E+00  0.00000000000E+00 -0.19697812039E+04  0.19697816133E+04  0.12699999809E+01 0. -1.
    10030    2    1    2    0    0  0.00000000000E+00  0.00000000000E+00 -0.12911914956E+04  0.26483725101E+04  0.23122935527E+04 0.  0.
        5    1    3    3  502    0 -0.17514762488E+03  0.20174438437E+03 -0.19339304423E+04  0.19523028794E+04  0.46999998093E+01 0. -1.
       -5    1    3    3    0  502  0.17514762488E+03 -0.20174438437E+03  0.64273894673E+03  0.69606963069E+03  0.46999998093E+01 0.  1.
</event>
<event>
 5   0  0.2816178E-05  0.2293424E+04  0.7818609E-02  0.8480518E-01
        2   -1    0    0  501    0  0.00000000000E+00  0.00000000000E+00  0.15377246288E+04  0.15377246288E+04  0.25500000920E-02 0.  1.
       -2   -1    0    0    0  501  0.00000000000E+00  0.00000000000E+00 -0.85512617158E+03  0.85512617158E+03  0.25500000920E-02 0. -1.
    10030    2    1    2    0    0  0.00000000000E+00  0.00000000000E+00  0.68259845717E+03  0.23928508003E+04  0.22934241428E+04 0.  0.
        1    1    3    3  502    0  0.32762379924E+03 -0.64129315286E+03 -0.58977521991E+03  0.93082171858E+03  0.50400001928E-02 0. -1.
       -1    1    3    3    0  502 -0.32762379924E+03  0.64129315286E+03  0.12723736771E+04  0.14620290818E+04  0.50400001928E-02 0.  1.
</event>
<event>
 5   0  0.2871888E-05  0.2292775E+04  0.7818609E-02  0.8480775E-01
       -2   -1    0    0    0  501  0.00000000000E+00  0.00000000000E+00  0.19643781413E+04  0.19643781413E+04  0.25500000920E-02 0. -1.
        2   -1    0    0  501    0  0.00000000000E+00  0.00000000000E+00 -0.66901808607E+03  0.66901808608E+03  0.25500000920E-02 0.  1.
    10030    2    1    2    0    0  0.00000000000E+00  0.00000000000E+00  0.12953600552E+04  0.26333962274E+04  0.22927751782E+04 0.  0.
        3    1    3    3  502    0 -0.33982619082E+03  0.15990115881E+03  0.18917141744E+04  0.19286349443E+04  0.10100000352E+00 0. -1.
       -3    1    3    3    0  502  0.33982619082E+03 -0.15990115881E+03 -0.59635411914E+03  0.70476128311E+03  0.10100000352E+00 0.  1.
</event>
<event>
 5   0  0.2871888E-05  0.2288016E+04  0.7818609E-02  0.8482661E-01
        2   -1    0    0  501    0  0.00000000000E+00  0.00000000000E+00  0.83675041886E+03  0.83675041887E+03  0.25500000920E-02 0. -1.
       -2   -1    0    0    0  501  0.00000000000E+00  0.00000000000E+00 -0.15640918217E+04  0.15640918217E+04  0.25500000920E-02 0.  1.
    10030    2    1    2    0    0  0.00000000000E+00  0.00000000000E+00 -0.72734140287E+03  0.24008422406E+04  0.22880161599E+04 0.  0.
        3    1    3    3  502    0 -0.87859805212E+03  0.35293552808E+03 -0.10374043949E+04  0.14045304955E+04  0.10100000352E+00 0.  1.
       -3    1    3    3    0  502  0.87859805212E+03 -0.35293552808E+03  0.31006299199E+03  0.99631174508E+03  0.10100000352E+00 0. -1.
</event>
<event>
 5   0  0.1284837E-05  0.2252660E+04  0.7818609E-02  0.8496824E-01
        1   -1    0    0  501    0  0.00000000000E+00  0.00000000000E+00  0.18520453107E+04  0.18520453107E+04  0.50400001928E-02 0. -1.
       -1   -1    0    0    0  501  0.00000000000E+00  0.00000000000E+00 -0.68498271944E+03  0.68498271946E+03  0.50400001928E-02 0.  1.
    10030    2    1    2    0    0  0.00000000000E+00  0.00000000000E+00  0.11670625912E+04  0.25370280301E+04  0.22526597910E+04 0.  0.
        4    1    3    3  502    0  0.31700133429E+03 -0.90420300421E+03 -0.83277374743E+02  0.96177422132E+03  0.12699999809E+01 0.  1.
       -4    1    3    3    0  502 -0.31700133429E+03  0.90420300421E+03  0.12503399660E+04  0.15752538088E+04  0.12699999809E+01 0. -1.
</event>
<event>
 5   0  0.2816178E-05  0.2329897E+04  0.7818609E-02  0.8466226E-01
       -2   -1    0    0    0  501  0.00000000000E+00  0.00000000000E+00  0.79999417613E+03  0.79999417614E+03  0.25500000920E-02 0. -1.
        2   -1    0    0  501    0  0.00000000000E+00  0.00000000000E+00 -0.16963933551E+04  0.16963933551E+04  0.25500000920E-02 0.  1.
    10030    2    1    2    0    0  0.00000000000E+00  0.00000000000E+00 -0.89639917899E+03  0.24963875313E+04  0.23298968256E+04 0.  0.
        1    1    3    3  502    0 -0.54299968042E+03 -0.49648314316E+03  0.51953594569E+03  0.90070070682E+03  0.50400001928E-02 0. -1.
       -1    1    3    3    0  502  0.54299968042E+03  0.49648314316E+03 -0.14159351247E+04  0.15956868244E+04  0.50400001928E-02 0.  1.
</event>
<event>
 5   0  0.1303224E-05  0.2355791E+04  0.7818609E-02  0.8456243E-01
        1   -1    0    0  501    0  0.00000000000E+00  0.00000000000E+00  0.17800833474E+04  0.17800833474E+04  0.50400001928E-02 0. -1.
       -1   -1    0    0    0  501  0.00000000000E+00  0.00000000000E+00 -0.77942319877E+03  0.77942319879E+03  0.50400001928E-02 0.  1.
    10030    2    1    2    0    0  0.00000000000E+00  0.00000000000E+00  0.10006601486E+04  0.25595065462E+04  0.23557913802E+04 0.  0.
        2    1    3    3  502    0  0.66424379209E+03  0.37594795539E+03  0.14750624907E+04  0.16608329332E+04  0.25500000920E-02 0. -1.
       -2    1    3    3    0  502 -0.66424379209E+03 -0.37594795539E+03 -0.47440234209E+03  0.89867361299E+03  0.25500000920E-02 0.  1.
</event>
<event>
 5   0  0.1327820E-05  0.2279393E+04  0.7818609E-02  0.8486091E-01
       -1   -1    0    0    0  501  0.00000000000E+00  0.00000000000E+00  0.18886927996E+04  0.18886927996E+04  0.50400001928E-02 0. -1.
        1   -1    0    0  501    0  0.00000000000E+00  0.00000000000E+00 -0.68772868477E+03  0.68772868479E+03  0.50400001928E-02 0.  1.
    10030    2    1    2    0    0  0.00000000000E+00  0.00000000000E+00  0.12009641149E+04  0.25764214844E+04  0.22793930903E+04 0.  0.
        1    1    3    3  502    0  0.43685743214E+02  0.42967201984E+03  0.17926147759E+04  0.18439073251E+04  0.50400001928E-02 0. -1.
       -1    1    3    3    0  502 -0.43685743214E+02 -0.42967201984E+03 -0.59165066107E+03  0.73251415929E+03  0.50400001928E-02 0.  1.
</event>
<event>
 5   0  0.1308224E-05  0.2306764E+04  0.7818609E-02  0.8475259E-01
       -1   -1    0    0    0  501  0.00000000000E+00  0.00000000000E+00  0.12485586433E+04  0.12485586433E+04  0.50400001928E-02 0.  1.
        1   -1    0    0  501    0  0.00000000000E+00  0.00000000000E+00 -0.10654608448E+04  0.10654608449E+04  0.50400001928E-02 0. -1.
    10030    2    1    2    0    0  0.00000000000E+00  0.00000000000E+00  0.18309779841E+03  0.23140194881E+04  0.23067642679E+04 0.  0.
        5    1    3    3  502    0  0.10202360020E+04  0.17659405058E+03 -0.41818440232E+03  0.11166768749E+04  0.46999998093E+01 0. -1.
       -5    1    3    3    0  502 -0.10202360020E+04 -0.17659405058E+03  0.60128220072E+03  0.11973426132E+04  0.46999998093E+01 0.  1.
</event>
<event>
 5   0  0.2938972E-05  0.2257321E+04  0.7818609E-02  0.8494942E-01
        2   -1    0    0  501    0  0.00000000000E+00  0.00000000000E+00  0.20412433277E+04  0.20412433277E+04  0.25500000920E-02 0.  1.
       -2   -1    0    0    0  501  0.00000000000E+00  0.00000000000E+00 -0.62406773345E+03  0.62406773345E+03  0.25500000920E-02 0. -1.
    10030    2    1    2    0    0  0.00000000000E+00  0.00000000000E+00  0.14171755943E+04  0.26653110612E+04  0.22573206214E+04 0.  0.
        2    1    3    3  502    0 -0.10998686307E+04 -0.23530019186E+03  0.59784390782E+03  0.12737717705E+04  0.25500000920E-02 0.  1.
       -2    1    3    3    0  502  0.10998686307E+04  0.23530019186E+03  0.81933168647E+03  0.13915392907E+04  0.25500000920E-02 0. -1.
</event>
<event>
 5   0  0.2816178E-05  0.2307378E+04  0.7818609E-02  0.8475018E-01
       -2   -1    0    0    0  501  0.00000000000E+00  0.00000000000E+00  0.87719020133E+03  0.87719020134E+03  0.25500000920E-02 0. -1.
        2   -1    0    0  501    0  0.00000000000E+00  0.00000000000E+00 -0.15173427346E+04  0.15173427346E+04  0.25500000920E-02 0.  1.
    10030    2    1    2    0    0  0.00000000000E+00  0.00000000000E+00 -0.64015253326E+03  0.23945329359E+04  0.23073778874E+04 0.  0.
        1    1    3    3  502    0  0.36266798540E+03 -0.55625389378E+03  0.65898464011E+03  0.93552510276E+03  0.50400001928E-02 0. -1.
       -1    1    3    3    0  502 -0.36266798540E+03  0.55625389378E+03 -0.12991371734E+04  0.14590078332E+04  0.50400001928E-02 0.  1.
</event>
<event>
 5   0  0.2871888E-05  0.2293697E+04  0.7818609E-02  0.8480410E-01
       -2   -1    0    0    0  501  0.00000000000E+00  0.00000000000E+00  0.78411337949E+03  0.78411337950E+03  0.25500000920E-02 0.  1.
        2   -1    0    0  501    0  0.00000000000E+00  0.00000000000E+00 -0.16773870252E+04  0.16773870252E+04  0.25500000920E-02 0. -1.
    10030    2    1    2    0    0  0.00000000000E+00  0.00000000000E+00 -0.89327364573E+03  0.24615004047E+04  0.22936971108E+04 0.  0.
        3    1    3    3  502    0  0.95973229970E+03 -0.12408343906E+03  0.21383863215E+03  0.99106496141E+03  0.10100000352E+00 0.  1.
       -3    1    3    3    0  502 -0.95973229970E+03  0.12408343906E+03 -0.11071122779E+04  0.14704354433E+04  0.10100000352E+00 0. -1.
</event>
<event>
 5   0  0.1017200E-05  0.2314100E+04  0.7818609E-02  0.8472382E-01
       -4   -1    0    0    0  501  0.00000000000E+00  0.00000000000E+00  0.17183320106E+04  0.17183324800E+04  0.12699999809E+01 0.  1.
        4   -1    0    0  501    0  0.00000000000E+00  0.00000000000E+00 -0.77910618419E+03  0.77910721928E+03  0.12699999809E+01 0. -1.
    10030    2    1    2    0    0  0.00000000000E+00  0.00000000000E+00  0.93922582644E+03  0.24974396992E+04  0.23141002351E+04 0.  0.
        3    1    3    3  502    0  0.88171278907E+03  0.37189234633E+03 -0.23233584733E+03  0.98473413459E+03  0.10100000352E+00 0. -1.
       -3    1    3    3    0  502 -0.88171278907E+03 -0.37189234633E+03  0.11715616738E+04  0.15127055646E+04  0.10100000352E+00 0.  1.
</event>
<event>
 5   0  0.2994157E-05  0.2304659E+04  0.7818609E-02  0.8476086E-01
       -2   -1    0    0    0  501  0.00000000000E+00  0.00000000000E+00  0.10130857676E+04  0.10130857676E+04  0.25500000920E-02 0. -1.
        2   -1    0    0  501    0  0.00000000000E+00  0.00000000000E+00 -0.13107115700E+04  0.13107115700E+04  0.25500000920E-02 0.  1.
    10030    2    1    2    0    0  0.00000000000E+00  0.00000000000E+00 -0.29762580243E+03  0.23237973376E+04  0.23046589657E+04 0.  0.
        4    1    3    3  502    0  0.62430401075E+03  0.38126632088E+03  0.74894150856E+03  0.10469166640E+04  0.12699999809E+01 0. -1.
       -4    1    3    3    0  502 -0.62430401075E+03 -0.38126632088E+03 -0.10465673110E+04  0.12768806736E+04  0.12699999809E+01 0.  1.
</event>
<event>
 5   0  0.2816178E-05  0.2348478E+04  0.7818609E-02  0.8459048E-01
       -2   -1    0    0    0  501  0.00000000000E+00  0.00000000000E+00  0.10622979608E+04  0.10622979608E+04  0.25500000920E-02 0.  1.
        2   -1    0    0  501    0  0.00000000000E+00  0.00000000000E+00 -0.12979762923E+04  0.12979762923E+04  0.25500000920E-02 0. -1.
    10030    2    1    2    0    0  0.00000000000E+00  0.00000000000E+00 -0.23567833152E+03  0.23602742531E+04  0.23484782890E+04 0.  0.
        1    1    3    3  502    0 -0.98716634578E+02  0.19817001907E+03  0.10411317877E+04  0.10644114476E+04  0.50400001928E-02 0.  1.
       -1    1    3    3    0  502  0.98716634578E+02 -0.19817001907E+03 -0.12768101192E+04  0.12958628056E+04  0.50400001928E-02 0. -1.
</event>
<event>
 5   0  0.1327820E-05  0.2363364E+04  0.7818609E-02  0.8453348E-01
        1   -1    0    0  501    0  0.00000000000E+00  0.00000000000E+00  0.13236277673E+04  0.13236277673E+04  0.50400001928E-02 0. -1.
       -1   -1    0    0    0  501  0.00000000000E+00  0.00000000000E+00 -0.10549582251E+04  0.10549582251E+04  0.50400001928E-02 0.  1.
    10030    2    1    2    0    0  0.00000000000E+00  0.00000000000E+00  0.26866954218E+03  0.23785859923E+04  0.23633637046E+04 0.  0.
        1    1    3    3  502    0  0.25103379589E+03 -0.46334836903E+03 -0.93014595128E+03  0.10690562045E+04  0.50400001928E-02 0.  1.
       -1    1    3    3    0  502 -0.25103379589E+03  0.46334836903E+03  0.11988154935E+04  0.13095297878E+04  0.50400001928E-02 0. -1.
</event>
<event>
 5   0  0.1308224E-05  0.2322869E+04  0.7818609E-02  0.8468958E-01
        1   -1    0    0  501    0  0.00000000000E+00  0.00000000000E+00  0.16167537761E+04  0.16167537761E+04  0.50400001928E-02 0.  1.
       -1   -1    0    0    0  501  0.00000000000E+00  0.00000000000E+00 -0.83434490243E+03  0.83434490244E+03  0.50400001928E-02 0. -1.
    10030    2    1    2    0    0  0.00000000000E+00  0.00000000000E+00  0.78240887364E+03  0.24510986785E+04  0.23228691496E+04 0.  0.
        5    1    3    3  502    0 -0.77494671919E+03 -0.56374311310E+03  0.10835973607E+04  0.14465662948E+04  0.46999998093E+01 0.  1.
       -5    1    3    3    0  502  0.77494671919E+03  0.56374311310E+03 -0.30118848709E+03  0.10045323837E+04  0.46999998093E+01 0. -1.
</event>
<event>
 5   0  0.2910126E-05  0.2301517E+04  0.7818609E-02  0.8477323E-01
        2   -1    0    0  501    0  0.00000000000E+00  0.00000000000E+00  0.15203813402E+04  0.15203813402E+04  0.25500000920E-02 0. -1.
       -2   -1    0    0    0  501  0.00000000000E+00  0.00000000000E+00 -0.87099539656E+03  0.87099539657E+03  0.25500000920E-02 0.  1.
    10030    2    1    2    0    0  0.00000000000E+00  0.00000000000E+00  0.64938594368E+03  0.23913767368E+04  0.23015170200E+04 0.  0.
        5    1    3    3  502    0  0.44558730858E+03  0.10584213959E+04  0.40118209783E+03  0.12164592334E+04  0.46999998093E+01 0.  1.
       -5    1    3    3    0  502 -0.44558730858E+03 -0.10584213959E+04  0.24820384585E+03  0.11749175034E+04  0.46999998093E+01 0. -1.
</event>
<event>
 5   0  0.2910126E-05  0.2161660E+04  0.7818609E-02  0.8534558E-01
       -2   -1    0    0    0  501  0.00000000000E+00  0.00000000000E+00  0.13354901116E+04  0.13354901117E+04  0.25500000920E-02 0.  1.
        2   -1    0    0  501    0  0.00000000000E+00  0.00000000000E+00 -0.87473010147E+03  0.87473010147E+03  0.25500000920E-02 0. -1.
    10030    2    1    2    0    0  0.00000000000E+00  0.00000000000E+00  0.46076001018E+03  0.22102202131E+04  0.21616599186E+04 0.  0.
        5    1    3    3  502    0 -0.64347948246E+03 -0.86710418585E+03  0.18203357609E+03  0.10950314271E+04  0.46999998093E+01 0.  1.
       -5    1    3    3    0  502  0.64347948246E+03  0.86710418585E+03  0.27872643409E+03  0.11151887860E+04  0.46999998093E+01 0. -1.
</event>
<event>
 5   0  0.2910126E-05  0.2302090E+04  0.7818609E-02  0.8477097E-01
       -2   -1    0    0    0  501  0.00000000000E+00  0.00000000000E+00  0.12536116349E+04  0.12536116349E+04  0.25500000920E-02 0.  1.
        2   -1    0    0  501    0  0.00000000000E+00  0.00000000000E+00 -0.10568701282E+04  0.10568701282E+04  0.25500000920E-02 0. -1.
    10030    2    1    2    0    0  0.00000000000E+00  0.00000000000E+00  0.19674150671E+03  0.23104817631E+04  0.23020900845E+04 0.  0.
        5    1    3    3  502    0  0.62445283246E+03  0.96581734261E+03  0.51962388419E+02  0.11512891292E+04  0.46999998093E+01 0.  1.
       -5    1    3    3    0  502 -0.62445283246E+03 -0.96581734261E+03  0.14477911829E+03  0.11591926338E+04  0.46999998093E+01 0. -1.
</event>
<event>
 5   0  0.2994157E-05  0.2298214E+04  0.7818609E-02  0.8478626E-01
       -2   -1    0    0    0  501  0.00000000000E+00  0.00000000000E+00  0.85655252251E+03  0.85655252252E+03  0.25500000920E-02 0.  1.
        2   -1    0    0  501    0  0.00000000000E+00  0.00000000000E+00 -0.15415827421E+04  0.15415827421E+04  0.25500000920E-02 0. -1.
    10030    2    1    2    0    0  0.00000000000E+00  0.00000000000E+00 -0.68503021962E+03  0.23981352647E+04  0.22982137293E+04 0.  0.
        4    1    3    3  502    0 -0.19658284273E+03  0.16975922587E+02 -0.15237726549E+04  0.15364952693E+04  0.12699999809E+01 0. -1.
       -4    1    3    3    0  502  0.19658284273E+03 -0.16975922587E+02  0.83874243524E+03  0.86163999534E+03  0.12699999809E+01 0.  1.
</event>
<event>
 5   0  0.2994157E-05  0.2299162E+04  0.7818609E-02  0.8478252E-01
        2   -1    0    0  501    0  0.00000000000E+00  0.00000000000E+00  0.10101275124E+04  0.10101275124E+04  0.25500000920E-02 0.  1.
       -2   -1    0    0    0  501  0.00000000000E+00  0.00000000000E+00 -0.13082868557E+04  0.13082868557E+04  0.25500000920E-02 0. -1.
    10030    2    1    2    0    0  0.00000000000E+00  0.00000000000E+00 -0.29815934335E+03  0.23184143681E+04  0.22991620621E+04 0.  0.
        4    1    3    3  502    0 -0.44122497600E+03  0.19742452939E+02  0.92115855553E+03  0.10215693521E+04  0.12699999809E+01 0.  1.
       -4    1    3    3    0  502  0.44122497600E+03 -0.19742452939E+02 -0.12193178989E+04  0.12968450159E+04  0.12699999809E+01 0. -1.
</event>
<event>
 5   0  0.1308224E-05  0.2301304E+04  0.7818609E-02  0.8477407E-01
        1   -1    0    0  501    0  0.00000000000E+00  0.00000000000E+00  0.16017590800E+04  0.16017590800E+04  0.50400001928E-02 0. -1.
       -1   -1    0    0    0  501  0.00000000000E+00  0.00000000000E+00 -0.82659132232E+03  0.82659132234E+03  0.50400001928E-02 0.  1.
    10030    2    1    2    0    0  0.00000000000E+00  0.00000000000E+00  0.77516775767E+03  0.24283504023E+04  0.23013041138E+04 0.  0.
        5    1    3    3  502    0  0.86947952984E+02  0.59050734835E+03 -0.65045116902E+03  0.88281803803E+03  0.46999998093E+01 0.  1.
       -5    1    3    3    0  502 -0.86947952984E+02 -0.59050734835E+03  0.14256189267E+04  0.15455323643E+04  0.46999998093E+01 0. -1.
</event>
<event>
 5   0  0.2871888E-05  0.2302979E+04  0.7818609E-02  0.8476747E-01
        2   -1    0    0  501    0  0.00000000000E+00  0.00000000000E+00  0.13280676718E+04  0.13280676718E+04  0.25500000920E-02 0. -1.
       -2   -1    0    0    0  501  0.00000000000E+00  0.00000000000E+00 -0.99838930524E+03  0.99838930525E+03  0.25500000920E-02 0.  1.
    10030    2    1    2    0    0  0.00000000000E+00  0.00000000000E+00  0.32967836658E+03  0.23264569771E+04  0.23029794269E+04 0.  0.
        3    1    3    3  502    0  0.33178034741E+03  0.80893089427E+03 -0.59212017277E+03  0.10559610314E+04  0.10100000352E+00 0.  1.
       -3    1    3    3    0  502 -0.33178034741E+03 -0.80893089427E+03  0.92179853934E+03  0.12704959457E+04  0.10100000352E+00 0. -1.
</event>
<event>
 5   0  0.2938972E-05  0.2230276E+04  0.7818609E-02  0.8505931E-01
        2   -1    0    0  501    0  0.00000000000E+00  0.00000000000E+00  0.14166849142E+04  0.14166849142E+04  0.25500000920E-02 0.  1.
       -2   -1    0    0    0  501  0.00000000000E+00  0.00000000000E+00 -0.87777637021E+03  0.87777637021E+03  0.25500000920E-02 0. -1.
    10030    2    1    2    0    0  0.00000000000E+00  0.00000000000E+00  0.53890854400E+03  0.22944612844E+04  0.22302758051E+04 0.  0.
        2    1    3    3  502    0 -0.82862445086E+03  0.54376739893E+03 -0.25636267773E+03  0.10237300851E+04  0.25500000920E-02 0. -1.
       -2    1    3    3    0  502  0.82862445086E+03 -0.54376739893E+03  0.79527122174E+03  0.12707311993E+04  0.25500000920E-02 0.  1.
</event>
<event>
 5   0  0.1371753E-05  0.2314761E+04  0.7818609E-02  0.8472124E-01
       -1   -1    0    0    0  501  0.00000000000E+00  0.00000000000E+00  0.84508005266E+03  0.84508005268E+03  0.50400001928E-02 0. -1.
        1   -1    0    0  501    0  0.00000000000E+00  0.00000000000E+00 -0.15850926305E+04  0.15850926306E+04  0.50400001928E-02 0.  1.
    10030    2    1    2    0    0  0.00000000000E+00  0.00000000000E+00 -0.74001257788E+03  0.24301726832E+04  0.23147614682E+04 0.  0.
        3    1    3    3  502    0  0.55428704659E+03  0.10120274071E+04 -0.46447346111E+03  0.12438525672E+04  0.10100000352E+00 0. -1.
       -3    1    3    3    0  502 -0.55428704659E+03 -0.10120274071E+04 -0.27553911678E+03  0.11863201160E+04  0.10100000352E+00 0.  1.
</event>
<event>
 5   0  0.2910126E-05  0.2309715E+04  0.7818609E-02  0.8474100E-01
       -2   -1    0    0    0  501  0.00000000000E+00  0.00000000000E+00  0.77861013130E+03  0.77861013131E+03  0.25500000920E-02 0.  1.
        2   -1    0    0  501    0  0.00000000000E+00  0.00000000000E+00 -0.17129188806E+04  0.17129188806E+04  0.25500000920E-02 0. -1.
    10030    2    1    2    0    0  0.00000000000E+00  0.00000000000E+00 -0.93430874927E+03  0.24915290119E+04  0.23097151292E+04 0.  0.
        5    1    3    3  502    0 -0.20668578010E+03 -0.10482900792E+04  0.55684230987E+01  0.10684962326E+04  0.46999998093E+01 0.  1.
       -5    1    3    3    0  502  0.20668578010E+03  0.10482900792E+04 -0.93987717237E+03  0.14230327793E+04  0.46999998093E+01 0. -1.
</event>
<event>
 5   0  0.2938972E-05  0.2276847E+04  0.7818609E-02  0.8487106E-01
       -2   -1    0    0    0  501  0.00000000000E+00  0.00000000000E+00  0.15636661301E+04  0.15636661301E+04  0.25500000920E-02 0. -1.
        2   -1    0    0  501    0  0.00000000000E+00  0.00000000000E+00 -0.82882676378E+03  0.82882676378E+03  0.25500000920E-02 0.  1.
    10030    2    1    2    0    0  0.00000000000E+00  0.00000000000E+00  0.73483936636E+03  0.23924928939E+04  0.22768472398E+04 0.  0.
        2    1    3    3  502    0 -0.47104406443E+03 -0.15018779151E+03 -0.71012613130E+03  0.86528492748E+03  0.25500000920E-02 0.  1.
       -2    1    3    3    0  502  0.47104406443E+03  0.15018779151E+03  0.14449654977E+04  0.15272079665E+04  0.25500000920E-02 0. -1.
</event>
<event>
 5   0  0.1327820E-05  0.2304540E+04  0.7818609E-02  0.8476133E-01
        1   -1    0    0  501    0  0.00000000000E+00  0.00000000000E+00  0.20597754291E+04  0.20597754291E+04  0.50400001928E-02 0.  1.
       -1   -1    0    0    0  501  0.00000000000E+00  0.00000000000E+00 -0.64459750466E+03  0.64459750468E+03  0.50400001928E-02 0. -1.
    10030    2    1    2    0    0  0.00000000000E+00  0.00000000000E+00  0.14151779244E+04  0.27043729337E+04  0.23045399556E+04 0.  0.
        1    1    3    3  502    0 -0.70575775110E+03 -0.27344007859E+02 -0.36079982767E+03  0.79310668493E+03  0.50400001928E-02 0. -1.
       -1    1    3    3    0  502  0.70575775110E+03  0.27344007859E+02  0.17759777521E+04  0.19112662488E+04  0.50400001928E-02 0.  1.
</event>
<event>
 5   0  0.2910126E-05  0.2297268E+04  0.7818609E-02  0.8478999E-01
       -2   -1    0    0    0  501  0.00000000000E+00  0.00000000000E+00  0.71137397395E+03  0.71137397396E+03  0.25500000920E-02 0.  1.
        2   -1    0    0  501    0  0.00000000000E+00  0.00000000000E+00 -0.18546651754E+04  0.18546651754E+04  0.25500000920E-02 0. -1.
    10030    2    1    2    0    0  0.00000000000E+00  0.00000000000E+00 -0.11432912014E+04  0.25660391494E+04  0.22972684094E+04 0.  0.
        5    1    3    3  502    0  0.65726611595E+03  0.42654644440E+03 -0.15097876388E+04  0.17010060026E+04  0.46999998093E+01 0. -1.
       -5    1    3    3    0  502 -0.65726611595E+03 -0.42654644440E+03  0.36649643740E+03  0.86503314678E+03  0.46999998093E+01 0.  1.
</event>
<event>
 5   0  0.2910126E-05  0.2292165E+04  0.7818609E-02  0.8481017E-01
        2   -1    0    0  501    0  0.00000000000E+00  0.00000000000E+00  0.63696683570E+03  0.63696683570E+03  0.25500000920E-02 0.  1.
       -2   -1    0    0    0  501  0.00000000000E+00  0.00000000000E+00 -0.20621255232E+04  0.20621255232E+04  0.25500000920E-02 0. -1.
    10030    2    1    2    0    0  0.00000000000E+00  0.00000000000E+00 -0.14251586875E+04  0.26990923589E+04  0.22921654123E+04 0.  0.
        5    1    3    3  502    0  0.67723507625E+03  0.49200567624E+03  0.20918374684E+03  0.86284231694E+03  0.46999998093E+01 0.  1.
       -5    1    3    3    0  502 -0.67723507625E+03 -0.49200567624E+03 -0.16343424344E+04  0.18362500420E+04  0.46999998093E+01 0. -1.
</event>
<event>
 5   0  0.2871888E-05  0.2299386E+04  0.7818609E-02  0.8478163E-01
       -2   -1    0    0    0  501  0.00000000000E+00  0.00000000000E+00  0.11707284296E+04  0.11707284296E+04  0.25500000920E-02 0.  1.
        2   -1    0    0  501    0  0.00000000000E+00  0.00000000000E+00 -0.11290358648E+04  0.11290358648E+04  0.25500000920E-02 0. -1.
    10030    2    1    2    0    0  0.00000000000E+00  0.00000000000E+00  0.41692564708E+02  0.22997642944E+04  0.22993863398E+04 0.  0.
        3    1    3    3  502    0 -0.58994821268E+03 -0.19966755927E+03  0.98738411513E+03  0.11674045695E+04  0.10100000352E+00 0.  1.
       -3    1    3    3    0  502  0.58994821268E+03  0.19966755927E+03 -0.94569155042E+03  0.11323597249E+04  0.10100000352E+00 0. -1.
</event>
<event>
 5   0  0.1303224E-05  0.2320154E+04  0.7818609E-02  0.8470017E-01
        1   -1    0    0  501    0  0.00000000000E+00  0.00000000000E+00  0.17619367761E+04  0.17619367761E+04  0.50400001928E-02 0.  1.
       -1   -1    0    0    0  501  0.00000000000E+00  0.00000000000E+00 -0.76380646615E+03  0.76380646616E+03  0.50400001928E-02 0. -1.
    10030    2    1    2    0    0  0.00000000000E+00  0.00000000000E+00  0.99813030997E+03  0.25257432423E+04  0.23201540488E+04 0.  0.
        2    1    3    3  502    0  0.10594805622E+04 -0.47192689987E+03  0.52493292392E+03  0.12730941187E+04  0.25500000920E-02 0.  1.
       -2    1    3    3    0  502 -0.10594805622E+04  0.47192689987E+03  0.47319738605E+03  0.12526491235E+04  0.25500000920E-02 0. -1.
</event>
<event>
 5   0  0.1308224E-05  0.2298987E+04  0.7818609E-02  0.8478321E-01
       -1   -1    0    0    0  501  0.00000000000E+00  0.00000000000E+00  0.60010587989E+03  0.60010587991E+03  0.50400001928E-02 0.  1.
        1   -1    0    0  501    0  0.00000000000E+00  0.00000000000E+00 -0.22018368864E+04  0.22018368864E+04  0.50400001928E-02 0. -1.
    10030    2    1    2    0    0  0.00000000000E+00  0.00000000000E+00 -0.16017310065E+04  0.28019427663E+04  0.22989869613E+04 0.  0.
        5    1    3    3  502    0 -0.35213339198E+03  0.40055930046E+03  0.44017050141E+03  0.69153296323E+03  0.46999998093E+01 0.  1.
       -5    1    3    3    0  502  0.35213339198E+03 -0.40055930046E+03 -0.20419015079E+04  0.21104098031E+04  0.46999998093E+01 0. -1.
</event>
<event>
 5   0  0.2938972E-05  0.2294314E+04  0.7818609E-02  0.8480167E-01
        2   -1    0    0  501    0  0.00000000000E+00  0.00000000000E+00  0.10804625003E+04  0.10804625003E+04  0.25500000920E-02 0. -1.
       -2   -1    0    0    0  501  0.00000000000E+00  0.00000000000E+00 -0.12179679563E+04  0.12179679563E+04  0.25500000920E-02 0.  1.
    10030    2    1    2    0    0  0.00000000000E+00  0.00000000000E+00 -0.13750545598E+03  0.22984304566E+04  0.22943135822E+04 0.  0.
        2    1    3    3  502    0 -0.34473578980E+03  0.35883394148E+03  0.96671899406E+03  0.10872672973E+04  0.25500000920E-02 0. -1.
       -2    1    3    3    0  502  0.34473578980E+03 -0.35883394148E+03 -0.11042244500E+04  0.12111631593E+04  0.25500000920E-02 0.  1.
</event>
<event>
 5   0  0.2816178E-05  0.2297687E+04  0.7818609E-02  0.8478834E-01
       -2   -1    0    0    0  501  0.00000000000E+00  0.00000000000E+00  0.65091987678E+03  0.65091987679E+03  0.25500000920E-02 0. -1.
        2   -1    0    0  501    0  0.00000000000E+00  0.00000000000E+00 -0.20276556803E+04  0.20276556803E+04  0.25500000920E-02 0.  1.
    10030    2    1    2    0    0  0.00000000000E+00  0.00000000000E+00 -0.13767358035E+04  0.26785755571E+04  0.22976869983E+04 0.  0.
        1    1    3    3  502    0  0.99028515630E+03  0.15117299498E+03 -0.32707872643E+02  0.10022912601E+04  0.50400001928E-02 0. -1.
       -1    1    3    3    0  502 -0.99028515630E+03 -0.15117299498E+03 -0.13440279309E+04  0.16762842970E+04  0.50400001928E-02 0.  1.
</event>
<event>
 5   0  0.1303224E-05  0.2223674E+04  0.7818609E-02  0.8508639E-01
       -1   -1    0    0    0  501  0.00000000000E+00  0.00000000000E+00  0.90226212205E+03  0.90226212206E+03  0.50400001928E-02 0. -1.
        1   -1    0    0  501    0  0.00000000000E+00  0.00000000000E+00 -0.13700911083E+04  0.13700911083E+04  0.50400001928E-02 0.  1.
    10030    2    1    2    0    0  0.00000000000E+00  0.00000000000E+00 -0.46782898626E+03  0.22723532304E+04  0.22236738167E+04 0.  0.
        2    1    3    3  502    0  0.10299722858E+04  0.12293088733E+03 -0.64296015838E+03  0.12203903793E+04  0.25500000920E-02 0.  1.
       -2    1    3    3    0  502 -0.10299722858E+04 -0.12293088733E+03  0.17513117212E+03  0.10519628511E+04  0.25500000920E-02 0. -1.
</event>
<event>
 5   0  0.1371753E-05  0.2299242E+04  0.7818609E-02  0.8478220E-01
       -1   -1    0    0    0  501  0.00000000000E+00  0.00000000000E+00  0.10837626827E+04  0.10837626827E+04  0.50400001928E-02 0. -1.
        1   -1    0    0  501    0  0.00000000000E+00  0.00000000000E+00 -0.12194816841E+04  0.12194816841E+04  0.50400001928E-02 0.  1.
    10030    2    1    2    0    0  0.00000000000E+00  0.00000000000E+00 -0.13571900138E+03  0.23032443668E+04  0.22992422591E+04 0.  0.
        3    1    3    3  502    0 -0.84148317618E+03  0.77631550578E+03 -0.17229561330E+03  0.11577760962E+04  0.10100000352E+00 0.  1.
       -3    1    3    3    0  502  0.84148317618E+03 -0.77631550578E+03  0.36576611918E+02  0.11454682706E+04  0.10100000352E+00 0. -1.
</event>
<event>
 5   0  0.2938972E-05  0.2302220E+04  0.7818609E-02  0.8477046E-01
       -2   -1    0    0    0  501  0.00000000000E+00  0.00000000000E+00  0.12171224357E+04  0.12171224357E+04  0.25500000920E-02 0. -1.
        2   -1    0    0  501    0  0.00000000000E+00  0.00000000000E+00 -0.10886783157E+04  0.10886783157E+04  0.25500000920E-02 0.  1.
    10030    2    1    2    0    0  0.00000000000E+00  0.00000000000E+00  0.12844412002E+03  0.23058007514E+04  0.23022204962E+04 0.  0.
        2    1    3    3  502    0  0.96736485642E+02  0.10033243219E+04  0.62099768345E+03  0.11839154384E+04  0.25500000920E-02 0.  1.
       -2    1    3    3    0  502 -0.96736485642E+02 -0.10033243219E+04 -0.49255356343E+03  0.11218853129E+04  0.25500000920E-02 0. -1.
</event>
<event>
 5   0  0.1327820E-05  0.2295601E+04  0.7818609E-02  0.8479658E-01
        1   -1    0    0  501    0  0.00000000000E+00  0.00000000000E+00  0.10097901639E+04  0.10097901639E+04  0.50400001928E-02 0.  1.
       -1   -1    0    0    0  501  0.00000000000E+00  0.00000000000E+00 -0.13046726681E+04  0.13046726681E+04  0.50400001928E-02 0. -1.
    10030    2    1    2    0    0  0.00000000000E+00  0.00000000000E+00 -0.29488250422E+03  0.23144628320E+04  0.22956006859E+04 0.  0.
        1    1    3    3  502    0 -0.17080767361E+03 -0.16153000611E+03 -0.12801395315E+04  0.13015469351E+04  0.50400001928E-02 0. -1.
       -1    1    3    3    0  502  0.17080767361E+03  0.16153000611E+03  0.98525702728E+03  0.10129158968E+04  0.50400001928E-02 0.  1.
</event>
<event>
 5   0  0.1327820E-05  0.2312124E+04  0.7818609E-02  0.8473156E-01
        1   -1    0    0  501    0  0.00000000000E+00  0.00000000000E+00  0.20261531723E+04  0.20261531724E+04  0.50400001928E-02 0. -1.
       -1   -1    0    0    0  501  0.00000000000E+00  0.00000000000E+00 -0.65961421042E+03  0.65961421044E+03  0.50400001928E-02 0.  1.
    10030    2    1    2    0    0  0.00000000000E+00  0.00000000000E+00  0.13665389619E+04  0.26857673828E+04  0.23121240667E+04 0.  0.
        1    1    3    3  502    0 -0.66417946751E+03 -0.18495198331E+03 -0.39466805096E+03  0.79442084040E+03  0.50400001928E-02 0.  1.
       -1    1    3    3    0  502  0.66417946751E+03  0.18495198331E+03  0.17612070129E+04  0.18913465424E+04  0.50400001928E-02 0. -1.
</event>
<event>
 5   0  0.1303224E-05  0.2334515E+04  0.7818609E-02  0.8464435E-01
        1   -1    0    0  501    0  0.00000000000E+00  0.00000000000E+00  0.12139390394E+04  0.12139390394E+04  0.50400001928E-02 0.  1.
       -1   -1    0    0    0  501  0.00000000000E+00  0.00000000000E+00 -0.11223713584E+04  0.11223713584E+04  0.50400001928E-02 0. -1.
    10030    2    1    2    0    0  0.00000000000E+00  0.00000000000E+00  0.91567681018E+02  0.23363103978E+04  0.23345152890E+04 0.  0.
        2    1    3    3  502    0 -0.98282703419E+03  0.46285567593E+03  0.47308528726E+03  0.11849025466E+04  0.25500000920E-02 0.  1.
       -2    1    3    3    0  502  0.98282703419E+03 -0.46285567593E+03 -0.38151760624E+03  0.11514078512E+04  0.25500000920E-02 0. -1.
</event>
<event>
 5   0  0.2994157E-05  0.2303368E+04  0.7818609E-02  0.8476594E-01
        2   -1    0    0  501    0  0.00000000000E+00  0.00000000000E+00  0.10970221172E+04  0.10970221172E+04  0.25500000920E-02 0. -1.
       -2   -1    0    0    0  501  0.00000000000E+00  0.00000000000E+00 -0.12090691808E+04  0.12090691808E+04  0.25500000920E-02 0.  1.
    10030    2    1    2    0    0  0.00000000000E+00  0.00000000000E+00 -0.11204706357E+03  0.23060912980E+04  0.23033676498E+04 0.  0.
        4    1    3    3  502    0  0.10881845933E+04 -0.16841213613E+03 -0.39386240767E+03  0.11694603738E+04  0.12699999809E+01 0.  1.
       -4    1    3    3    0  502 -0.10881845933E+04  0.16841213613E+03  0.28181534410E+03  0.11366309242E+04  0.12699999809E+01 0. -1.
</event>
<event>
 5   0  0.2910126E-05  0.2344337E+04  0.7818609E-02  0.8460642E-01
        2   -1    0    0  501    0  0.00000000000E+00  0.00000000000E+00  0.19870565563E+04  0.19870565563E+04  0.25500000920E-02 0.  1.
       -2   -1    0    0    0  501  0.00000000000E+00  0.00000000000E+00 -0.69146448419E+03  0.69146448419E+03  0.25500000920E-02 0. -1.
    10030    2    1    2    0    0  0.00000000000E+00  0.00000000000E+00  0.12955920721E+04  0.26785210405E+04  0.23443370379E+04 0.  0.
        5    1    3    3  502    0 -0.49030190901E+03 -0.48129288161E+01  0.18642425573E+04  0.19276518172E+04  0.46999998093E+01 0.  1.
       -5    1    3    3    0  502  0.49030190901E+03  0.48129288161E+01 -0.56865048511E+03  0.75086922328E+03  0.46999998093E+01 0. -1.
</event>
<event>
 5   0  0.2994157E-05  0.2278530E+04  0.7818609E-02  0.8486435E-01
       -2   -1    0    0    0  501  0.00000000000E+00  0.00000000000E+00  0.75928355882E+03  0.75928355882E+03  0.25500000920E-02 0.  1.
        2   -1    0    0  501    0  0.00000000000E+00  0.00000000000E+00 -0.17094070721E+04  0.17094070721E+04  0.25500000920E-02 0. -1.
    10030    2    1    2    0    0  0.00000000000E+00  0.00000000000E+00 -0.95012351330E+03  0.24686906309E+04  0.22785299517E+04 0.  0.
        4    1    3    3  502    0 -0.59068582340E+03 -0.69189132244E+03  0.26795616807E+03  0.94838044315E+03  0.12699999809E+01 0.  1.
       -4    1    3    3    0  502  0.59068582340E+03  0.69189132244E+03 -0.12180796814E+04  0.15203101878E+04  0.12699999809E+01 0. -1.
</event>
<event>
 5   0  0.2816178E-05  0.2305099E+04  0.7818609E-02  0.8475913E-01
        2   -1    0    0  501    0  0.00000000000E+00  0.00000000000E+00  0.16046953233E+04  0.16046953233E+04  0.25500000920E-02 0. -1.
       -2   -1    0    0    0  501  0.00000000000E+00  0.00000000000E+00 -0.82780232645E+03  0.82780232645E+03  0.25500000920E-02 0.  1.
    10030    2    1    2    0    0  0.00000000000E+00  0.00000000000E+00  0.77689299688E+03  0.24324976498E+04  0.23050991492E+04 0.  0.
        1    1    3    3  502    0  0.51265235557E+01  0.10296974857E+04 -0.15792088090E+03  0.10417495851E+04  0.50400001928E-02 0.  1.
       -1    1    3    3    0  502 -0.51265235557E+01 -0.10296974857E+04  0.93481387778E+03  0.13907480647E+04  0.50400001928E-02 0. -1.
</event>
<event>
 5   0  0.2910126E-05  0.2294591E+04  0.7818609E-02  0.8480057E-01
       -2   -1    0    0    0  501  0.00000000000E+00  0.00000000000E+00  0.64498269965E+03  0.64498269966E+03  0.25500000920E-02 0. -1.
        2   -1    0    0  501    0  0.00000000000E+00  0.00000000000E+00 -0.20408092074E+04  0.20408092074E+04  0.25500000920E-02 0.  1.
    10030    2    1    2    0    0  0.00000000000E+00  0.00000000000E+00 -0.13958265078E+04  0.26857919071E+04  0.22945907104E+04 0.  0.
        5    1    3    3  502    0 -0.30888758440E+03 -0.10081442095E+04 -0.12272254895E+04  0.16179835534E+04  0.46999998093E+01 0.  1.
       -5    1    3    3    0  502  0.30888758440E+03  0.10081442095E+04 -0.16860101826E+03  0.10678083537E+04  0.46999998093E+01 0. -1.
</event>
<event>
 5   0  0.2871888E-05  0.2300663E+04  0.7818609E-02  0.8477660E-01
       -2   -1    0    0    0  501  0.00000000000E+00  0.00000000000E+00  0.78855817375E+03  0.78855817375E+03  0.25500000920E-02 0.  1.
        2   -1    0    0  501    0  0.00000000000E+00  0.00000000000E+00 -0.16780791267E+04  0.16780791267E+04  0.25500000920E-02 0. -1.
    10030    2    1    2    0    0  0.00000000000E+00  0.00000000000E+00 -0.88952095292E+03  0.24666373004E+04  0.23006633926E+04 0.  0.
        3    1    3    3  502    0  0.85892995099E+03  0.67030568544E+03 -0.49094220324E+02  0.10906331305E+04  0.10100000352E+00 0.  1.
       -3    1    3    3    0  502 -0.85892995099E+03 -0.67030568544E+03 -0.84042673259E+03  0.13760041699E+04  0.10100000352E+00 0. -1.
</event>
<event>
 5   0  0.2994157E-05  0.2262761E+04  0.7818609E-02  0.8492750E-01
       -2   -1    0    0    0  501  0.00000000000E+00  0.00000000000E+00  0.86575455997E+03  0.86575455997E+03  0.25500000920E-02 0. -1.
        2   -1    0    0  501    0  0.00000000000E+00  0.00000000000E+00 -0.14785039948E+04  0.14785039948E+04  0.25500000920E-02 0.  1.
    10030    2    1    2    0    0  0.00000000000E+00  0.00000000000E+00 -0.61274943483E+03  0.23442585548E+04  0.22627607699E+04 0.  0.
        4    1    3    3  502    0 -0.43535676787E+03 -0.75834609891E+03  0.43739285511E+03  0.97772104593E+03  0.12699999809E+01 0. -1.
       -4    1    3    3    0  502  0.43535676787E+03  0.75834609891E+03 -0.10501422899E+04  0.13665375088E+04  0.12699999809E+01 0.  1.
</event>
<event>
 5   0  0.1371753E-05  0.2311252E+04  0.7818609E-02  0.8473498E-01
       -1   -1    0    0    0  501  0.00000000000E+00  0.00000000000E+00  0.17093757790E+04  0.17093757790E+04  0.50400001928E-02 0.  1.
        1   -1    0    0  501    0  0.00000000000E+00  0.00000000000E+00 -0.78126290957E+03  0.78126290959E+03  0.50400001928E-02 0. -1.
    10030    2    1    2    0    0  0.00000000000E+00  0.00000000000E+00  0.92811286947E+03  0.24906386886E+04  0.23112523832E+04 0.  0.
        3    1    3    3  502    0 -0.78471664916E+03 -0.76467002565E+03  0.85995530417E+03  0.13928473007E+04  0.10100000352E+00 0. -1.
       -3    1    3    3    0  502  0.78471664916E+03  0.76467002565E+03  0.68157565295E+02  0.10977913880E+04  0.10100000352E+00 0.  1.
</event>
<event>
 5   0  0.1303224E-05  0.2305130E+04  0.7818609E-02  0.8475901E-01
        1   -1    0    0  501    0  0.00000000000E+00  0.00000000000E+00  0.13985313840E+04  0.13985313840E+04  0.50400001928E-02 0. -1.
       -1   -1    0    0    0  501  0.00000000000E+00  0.00000000000E+00 -0.94985777125E+03  0.94985777126E+03  0.50400001928E-02 0.  1.
    10030    2    1    2    0    0  0.00000000000E+00  0.00000000000E+00  0.44867361278E+03  0.23483891553E+04  0.23051298475E+04 0.  0.
        2    1    3    3  502    0  0.24250548810E+02 -0.55110782064E+03  0.12553053813E+04  0.13711672106E+04  0.25500000920E-02 0. -1.
       -2    1    3    3    0  502 -0.24250548810E+02  0.55110782064E+03 -0.80663176856E+03  0.97722194467E+03  0.25500000920E-02 0.  1.
</event>
<event>
 5   0  0.1308224E-05  0.2305148E+04  0.7818609E-02  0.8475894E-01
        1   -1    0    0  501    0  0.00000000000E+00  0.00000000000E+00  0.21183921724E+04  0.21183921724E+04  0.50400001928E-02 0. -1.
       -1   -1    0    0    0  501  0.00000000000E+00  0.00000000000E+00 -0.62709194739E+03  0.62709194741E+03  0.50400001928E-02 0.  1.
    10030    2    1    2    0    0  0.00000000000E+00  0.00000000000E+00  0.14913002250E+04  0.27454841198E+04  0.23051478675E+04 0.  0.
        5    1    3    3  502    0  0.41233549344E+03 -0.39632025055E+03 -0.44615529710E+03  0.72537365493E+03  0.46999998093E+01 0.  1.
       -5    1    3    3    0  502 -0.41233549344E+03  0.39632025055E+03  0.19374555221E+04  0.20201104649E+04  0.46999998093E+01 0. -1.
</event>
<event>
 5   0  0.2994157E-05  0.2402242E+04  0.7818609E-02  0.8438665E-01
       -2   -1    0    0    0  501  0.00000000000E+00  0.00000000000E+00  0.17591279504E+04  0.17591279505E+04  0.25500000920E-02 0. -1.
        2   -1    0    0  501    0  0.00000000000E+00  0.00000000000E+00 -0.82011725630E+03  0.82011725630E+03  0.25500000920E-02 0.  1.
    10030    2    1    2    0    0  0.00000000000E+00  0.00000000000E+00  0.93901069415E+03  0.25792452068E+04  0.24022416100E+04 0.  0.
        4    1    3    3  502    0  0.10040995876E+04  0.22084395614E+03  0.11363146245E+04  0.15323839511E+04  0.12699999809E+01 0. -1.
       -4    1    3    3    0  502 -0.10040995876E+04 -0.22084395614E+03 -0.19730393031E+03  0.10468612557E+04  0.12699999809E+01 0.  1.
</event>
<event>
 5   0  0.1327820E-05  0.2192579E+04  0.7818609E-02  0.8521523E-01
        1   -1    0    0  501    0  0.00000000000E+00  0.00000000000E+00  0.91447481800E+03  0.91447481802E+03  0.50400001928E-02 0. -1.
       -1   -1    0    0    0  501  0.00000000000E+00  0.00000000000E+00 -0.13142521529E+04  0.13142521529E+04  0.50400001928E-02 0.  1.
    10030    2    1    2    0    0  0.00000000000E+00  0.00000000000E+00 -0.39977733486E+03  0.22287269709E+04  0.21925788454E+04 0.  0.
        1    1    3    3  502    0 -0.76765147375E+03  0.32994226228E+03  0.52153028169E+03  0.98495914450E+03  0.50400001928E-02 0. -1.
       -1    1    3    3    0  502  0.76765147375E+03 -0.32994226228E+03 -0.92130761655E+03  0.12437678264E+04  0.50400001928E-02 0.  1.
</event>
<event>
 5   0  0.1308224E-05  0.2290731E+04  0.7818609E-02  0.8481585E-01
       -1   -1    0    0    0  501  0.00000000000E+00  0.00000000000E+00  0.42453930805E+03  0.42453930808E+03  0.50400001928E-02 0. -1.
        1   -1    0    0  501    0  0.00000000000E+00  0.00000000000E+00 -0.30900829537E+04  0.30900829537E+04  0.50400001928E-02 0.  1.
    10030    2    1    2    0    0  0.00000000000E+00  0.00000000000E+00 -0.26655436457E+04  0.35146222618E+04  0.22907306075E+04 0.  0.
        5    1    3    3  502    0 -0.84413547118E+03  0.73810091540E+03 -0.16908937351E+04  0.20289163040E+04  0.46999998093E+01 0.  1.
       -5    1    3    3    0  502  0.84413547118E+03 -0.73810091540E+03 -0.97464991053E+03  0.14857059578E+04  0.46999998093E+01 0. -1.
</event>
<event>
 5   0  0.1327820E-05  0.2304071E+04  0.7818609E-02  0.8476318E-01
        1   -1    0    0  501    0  0.00000000000E+00  0.00000000000E+00  0.22863855899E+04  0.22863855899E+04  0.50400001928E-02 0.  1.
       -1   -1    0    0    0  501  0.00000000000E+00  0.00000000000E+00 -0.58047349194E+03  0.58047349196E+03  0.50400001928E-02 0. -1.
    10030    2    1    2    0    0  0.00000000000E+00  0.00000000000E+00  0.17059120979E+04  0.28668590818E+04  0.23040713768E+04 0.  0.
        1    1    3    3  502    0 -0.78992945871E+03 -0.82726914814E+03  0.10236663964E+04  0.15350099948E+04  0.50400001928E-02 0.  1.
       -1    1    3    3    0  502  0.78992945871E+03  0.82726914814E+03  0.68224570157E+03  0.13318490870E+04  0.50400001928E-02 0. -1.
</event>
<event>
 5   0  0.1303224E-05  0.2373805E+04  0.7818609E-02  0.8449376E-01
        1   -1    0    0  501    0  0.00000000000E+00  0.00000000000E+00  0.15489365298E+04  0.15489365298E+04  0.50400001928E-02 0. -1.
       -1   -1    0    0    0  501  0.00000000000E+00  0.00000000000E+00 -0.90948717972E+03  0.90948717973E+03  0.50400001928E-02 0.  1.
    10030    2    1    2    0    0  0.00000000000E+00  0.00000000000E+00  0.63944935007E+03  0.24584237095E+04  0.23738053130E+04 0.  0.
        2    1    3    3  502    0  0.36303835147E+03 -0.32306428465E+03 -0.80172845486E+03  0.93751580893E+03  0.25500000920E-02 0.  1.
       -2    1    3    3    0  502 -0.36303835147E+03  0.32306428465E+03  0.14411778049E+04  0.15209079006E+04  0.25500000920E-02 0. -1.
</event>
<event>
 5   0  0.2910126E-05  0.2294185E+04  0.7818609E-02  0.8480217E-01
       -2   -1    0    0    0  501  0.00000000000E+00  0.00000000000E+00  0.41311972887E+03  0.41311972887E+03  0.25500000920E-02 0.  1.
        2   -1    0    0  501    0  0.00000000000E+00  0.00000000000E+00 -0.31850857218E+04  0.31850857218E+04  0.25500000920E-02 0. -1.
    10030    2    1    2    0    0  0.00000000000E+00  0.00000000000E+00 -0.27719659929E+04  0.35982054507E+04  0.22941854762E+04 0.  0.
        5    1    3    3  502    0  0.18191904880E+03 -0.11315838109E+04 -0.13120315728E+04  0.17421324288E+04  0.46999998093E+01 0. -1.
       -5    1    3    3    0  502 -0.18191904880E+03  0.11315838109E+04 -0.14599344202E+04  0.18560730219E+04  0.46999998093E+01 0.  1.
</event>
<event>
 5   0  0.2994157E-05  0.2208312E+04  0.7818609E-02  0.8514977E-01
       -2   -1    0    0    0  501  0.00000000000E+00  0.00000000000E+00  0.10865224382E+04  0.10865224382E+04  0.25500000920E-02 0. -1.
        2   -1    0    0  501    0  0.00000000000E+00  0.00000000000E+00 -0.11220755719E+04  0.11220755719E+04  0.25500000920E-02 0.  1.
    10030    2    1    2    0    0  0.00000000000E+00  0.00000000000E+00 -0.35553133768E+02  0.22085980101E+04  0.22083118314E+04 0.  0.
        4    1    3    3  502    0  0.48008781076E+03  0.79186962908E+03 -0.61920036828E+03  0.11139804866E+04  0.12699999809E+01 0.  1.
       -4    1    3    3    0  502 -0.48008781076E+03 -0.79186962908E+03  0.58364723451E+03  0.10946175235E+04  0.12699999809E+01 0. -1.
</event>
<event>
 5   0  0.1371753E-05  0.2303662E+04  0.7818609E-02  0.8476479E-01
        1   -1    0    0  501    0  0.00000000000E+00  0.00000000000E+00  0.59943699250E+03  0.59943699252E+03  0.50400001928E-02 0.  1.
       -1   -1    0    0    0  501  0.00000000000E+00  0.00000000000E+00 -0.22132674526E+04  0.22132674526E+04  0.50400001928E-02 0. -1.
    10030    2    1    2    0    0  0.00000000000E+00  0.00000000000E+00 -0.16138304601E+04  0.28127044452E+04  0.23036617681E+04 0.  0.
        3    1    3    3  502    0 -0.11014307840E+03  0.59401904455E+03 -0.20042915604E+04  0.20933644671E+04  0.10100000352E+00 0. -1.
       -3    1    3    3    0  502  0.11014307840E+03 -0.59401904455E+03  0.39046110024E+03  0.71933997804E+03  0.10100000352E+00 0.  1.
</event>
<event>
 5   0  0.1303224E-05  0.2286604E+04  0.7818609E-02  0.8483222E-01
       -1   -1    0    0    0  501  0.00000000000E+00  0.00000000000E+00  0.75850829193E+03  0.75850829195E+03  0.50400001928E-02 0.  1.
        1   -1    0    0  501    0  0.00000000000E+00  0.00000000000E+00 -0.17233033768E+04  0.17233033768E+04  0.50400001928E-02 0. -1.
    10030    2    1    2    0    0  0.00000000000E+00  0.00000000000E+00 -0.96479508491E+03  0.24818116688E+04  0.22866043828E+04 0.  0.
        2    1    3    3  502    0 -0.45777384729E+03 -0.10019980141E+04 -0.15036837346E+03  0.11118307260E+04  0.25500000920E-02 0.  1.
       -2    1    3    3    0  502  0.45777384729E+03  0.10019980141E+04 -0.81442671144E+03  0.13699809428E+04  0.25500000920E-02 0. -1.
</event>
<event>
 5   0  0.2994157E-05  0.2311857E+04  0.7818609E-02  0.8473261E-01
        2   -1    0    0  501    0  0.00000000000E+00  0.00000000000E+00  0.24550035463E+04  0.24550035463E+04  0.25500000920E-02 0. -1.
       -2   -1    0    0    0  501  0.00000000000E+00  0.00000000000E+00 -0.54426431699E+03  0.54426431700E+03  0.25500000920E-02 0.  1.
    10030    2    1    2    0    0  0.00000000000E+00  0.00000000000E+00  0.19107392293E+04  0.29992678633E+04  0.23118571135E+04 0.  0.
        4    1    3    3  502    0 -0.80911437183E+03 -0.57147431171E+03  0.18247610399E+03  0.10072477834E+04  0.12699999809E+01 0.  1.
       -4    1    3    3    0  502  0.80911437183E+03  0.57147431171E+03  0.17282631253E+04  0.19920200799E+04  0.12699999809E+01 0. -1.
</event>
<event>
 5   0  0.1327820E-05  0.2369779E+04  0.7818609E-02  0.8450905E-01
       -1   -1    0    0    0  501  0.00000000000E+00  0.00000000000E+00  0.14085532193E+04  0.14085532193E+04  0.50400001928E-02 0. -1.
        1   -1    0    0  501    0  0.00000000000E+00  0.00000000000E+00 -0.99674121367E+03  0.99674121368E+03  0.50400001928E-02 0.  1.
    10030    2    1    2    0    0  0.00000000000E+00  0.00000000000E+00  0.41181200563E+03  0.24052944330E+04  0.23697789309E+04 0.  0.
        1    1    3    3  502    0 -0.85777725824E+03 -0.79120650685E+03 -0.25335595322E+01  0.11669601451E+04  0.50400001928E-02 0.  1.
       -1    1    3    3    0  502  0.85777725824E+03  0.79120650685E+03  0.41434556516E+03  0.12383342879E+04  0.50400001928E-02 0. -1.
</event>
<event>
 5   0  0.2816178E-05  0.2307035E+04  0.7818609E-02  0.8475152E-01
        2   -1    0    0  501    0  0.00000000000E+00  0.00000000000E+00  0.19278110978E+04  0.19278110978E+04  0.25500000920E-02 0.  1.
       -2   -1    0    0    0  501  0.00000000000E+00  0.00000000000E+00 -0.69021450531E+03  0.69021450531E+03  0.25500000920E-02 0. -1.
    10030    2    1    2    0    0  0.00000000000E+00  0.00000000000E+00  0.12375965925E+04  0.26180256031E+04  0.23070354858E+04 0.  0.
        1    1    3    3  502    0 -0.48802155093E+02  0.10023122907E+04 -0.26734390206E+02  0.10038557198E+04  0.50400001928E-02 0. -1.
       -1    1    3    3    0  502  0.48802155093E+02 -0.10023122907E+04  0.12643309827E+04  0.16141698833E+04  0.50400001928E-02 0.  1.
</event>
<event>
 5   0  0.1327820E-05  0.2304365E+04  0.7818609E-02  0.8476202E-01
       -1   -1    0    0    0  501  0.00000000000E+00  0.00000000000E+00  0.79368982117E+03  0.79368982119E+03  0.50400001928E-02 0. -1.
        1   -1    0    0  501    0  0.00000000000E+00  0.00000000000E+00 -0.16725979974E+04  0.16725979974E+04  0.50400001928E-02 0.  1.
    10030    2    1    2    0    0  0.00000000000E+00  0.00000000000E+00 -0.87890817621E+03  0.24662878186E+04  0.23043645592E+04 0.  0.
        1    1    3    3  502    0 -0.84833787928E+02 -0.21650650180E+03  0.76831494246E+03  0.80273263776E+03  0.50400001928E-02 0. -1.
       -1    1    3    3    0  502  0.84833787928E+02  0.21650650180E+03 -0.16472231187E+04  0.16635551808E+04  0.50400001928E-02 0.  1.
</event>
<event>
 5   0  0.1327820E-05  0.2302867E+04  0.7818609E-02  0.8476792E-01
       -1   -1    0    0    0  501  0.00000000000E+00  0.00000000000E+00  0.18471182666E+04  0.18471182666E+04  0.50400001928E-02 0.  1.
        1   -1    0    0  501    0  0.00000000000E+00  0.00000000000E+00 -0.71776595761E+03  0.71776595763E+03  0.50400001928E-02 0. -1.
    10030    2    1    2    0    0  0.00000000000E+00  0.00000000000E+00  0.11293523090E+04  0.25648842242E+04  0.23028665715E+04 0.  0.
        1    1    3    3  502    0  0.97384864538E+03 -0.10977838114E+03 -0.10855334244E+03  0.98601029673E+03  0.50400001928E-02 0. -1.
       -1    1    3    3    0  502 -0.97384864538E+03  0.10977838114E+03  0.12379056514E+04  0.15788739275E+04  0.50400001928E-02 0.  1.
</event>
<event>
 5   0  0.2871888E-05  0.2306796E+04  0.7818609E-02  0.8475246E-01
       -2   -1    0    0    0  501  0.00000000000E+00  0.00000000000E+00  0.73307846737E+03  0.73307846737E+03  0.25500000920E-02 0. -1.
        2   -1    0    0  501    0  0.00000000000E+00  0.00000000000E+00 -0.18147130647E+04  0.18147130647E+04  0.25500000920E-02 0.  1.
    10030    2    1    2    0    0  0.00000000000E+00  0.00000000000E+00 -0.10816345974E+04  0.25477915321E+04  0.23067961091E+04 0.  0.
        3    1    3    3  502    0 -0.84758867978E+03 -0.45335554149E+03  0.16326882070E+03  0.97498437685E+03  0.10100000352E+00 0. -1.
       -3    1    3    3    0  502  0.84758867978E+03  0.45335554149E+03 -0.12449034181E+04  0.15728071552E+04  0.10100000352E+00 0.  1.
</event>
<event>
 5   0  0.1017200E-05  0.2322132E+04  0.7818609E-02  0.8469245E-01
        3   -1    0    0  501    0  0.00000000000E+00  0.00000000000E+00  0.12458269194E+04  0.12458269235E+04  0.10100000352E+00 0. -1.
       -3   -1    0    0    0  501  0.00000000000E+00  0.00000000000E+00 -0.10820720948E+04  0.10820720995E+04  0.10100000352E+00 0.  1.
    10030    2    1    2    0    0  0.00000000000E+00  0.00000000000E+00  0.16375482463E+03  0.23278990231E+04  0.23221322570E+04 0.  0.
        2    1    3    3  502    0  0.15456023595E+02  0.49619001344E+03 -0.97031529621E+03  0.10899335724E+04  0.25500000920E-02 0.  1.
       -2    1    3    3    0  502 -0.15456023595E+02 -0.49619001344E+03  0.11340701208E+04  0.12379654507E+04  0.25500000920E-02 0. -1.
</event>
<event>
 5   0  0.2871888E-05  0.2280838E+04  0.7818609E-02  0.8485515E-01
        2   -1    0    0  501    0  0.00000000000E+00  0.00000000000E+00  0.13801529762E+04  0.13801529762E+04  0.25500000920E-02 0.  1.
       -2   -1    0    0    0  501  0.00000000000E+00  0.00000000000E+00 -0.94232666780E+03  0.94232666781E+03  0.25500000920E-02 0. -1.
    10030    2    1    2    0    0  0.00000000000E+00  0.00000000000E+00  0.43782630840E+03  0.23224796440E+04  0.22808375261E+04 0.  0.
        3    1    3    3  502    0  0.72733700852E+03 -0.85905272142E+03  0.32362836303E+02  0.11260719628E+04  0.10100000352E+00 0. -1.
       -3    1    3    3    0  502 -0.72733700852E+03  0.85905272142E+03  0.40546347210E+03  0.11964076812E+04  0.10100000352E+00 0.  1.
</event>
<event>
 5   0  0.2994157E-05  0.2303861E+04  0.7818609E-02  0.8476400E-01
        2   -1    0    0  501    0  0.00000000000E+00  0.00000000000E+00  0.10563204016E+04  0.10563204016E+04  0.25500000920E-02 0. -1.
       -2   -1    0    0    0  501  0.00000000000E+00  0.00000000000E+00 -0.12561946303E+04  0.12561946303E+04  0.25500000920E-02 0.  1.
    10030    2    1    2    0    0  0.00000000000E+00  0.00000000000E+00 -0.19987422873E+03  0.23125150318E+04  0.23038611211E+04 0.  0.
        4    1    3    3  502    0  0.56832290479E+03  0.12668661010E+03 -0.10976031719E+04  0.12424873268E+04  0.12699999809E+01 0.  1.
       -4    1    3    3    0  502 -0.56832290479E+03 -0.12668661010E+03  0.89772894319E+03  0.10700277051E+04  0.12699999809E+01 0. -1.
</event>
<event>
 5   0  0.2871888E-05  0.2310808E+04  0.7818609E-02  0.8473672E-01
        2   -1    0    0  501    0  0.00000000000E+00  0.00000000000E+00  0.14439362791E+04  0.14439362792E+04  0.25500000920E-02 0.  1.
       -2   -1    0    0    0  501  0.00000000000E+00  0.00000000000E+00 -0.92452712562E+03  0.92452712562E+03  0.25500000920E-02 0. -1.
    10030    2    1    2    0    0  0.00000000000E+00  0.00000000000E+00  0.51940915353E+03  0.23684634048E+04  0.23108078741E+04 0.  0.
        3    1    3    3  502    0 -0.11447389257E+04  0.10063778134E+03  0.13669739370E+03  0.11572559608E+04  0.10100000352E+00 0. -1.
       -3    1    3    3    0  502  0.11447389257E+04 -0.10063778134E+03  0.38271175983E+03  0.12112074440E+04  0.10100000352E+00 0.  1.
</event>
<event>
 5   0  0.2816178E-05  0.2291638E+04  0.7818609E-02  0.8481226E-01
        2   -1    0    0  501    0  0.00000000000E+00  0.00000000000E+00  0.18911631480E+04  0.18911631480E+04  0.25500000920E-02 0.  1.
       -2   -1    0    0    0  501  0.00000000000E+00  0.00000000000E+00 -0.69422926333E+03  0.69422926334E+03  0.25500000920E-02 0. -1.
    10030    2    1    2    0    0  0.00000000000E+00  0.00000000000E+00  0.11969338846E+04  0.25853924113E+04  0.22916376669E+04 0.  0.
        1    1    3    3  502    0  0.15980679094E+03 -0.37467107650E+03  0.18067236932E+04  0.18520710379E+04  0.50400001928E-02 0.  1.
       -1    1    3    3    0  502 -0.15980679094E+03  0.37467107650E+03 -0.60978980856E+03  0.73332137337E+03  0.50400001928E-02 0. -1.
</event>
<event>
 5   0  0.1303224E-05  0.2335077E+04  0.7818609E-02  0.8464218E-01
        1   -1    0    0  501    0  0.00000000000E+00  0.00000000000E+00  0.89290576999E+03  0.89290577001E+03  0.50400001928E-02 0.  1.
       -1   -1    0    0    0  501  0.00000000000E+00  0.00000000000E+00 -0.15266411260E+04  0.15266411260E+04  0.50400001928E-02 0. -1.
    10030    2    1    2    0    0  0.00000000000E+00  0.00000000000E+00 -0.63373535599E+03  0.24195468960E+04  0.23350774464E+04 0.  0.
        2    1    3    3  502    0 -0.10093535374E+04 -0.96501912623E+02  0.28289681705E+03  0.10526812394E+04  0.25500000920E-02 0.  1.
       -2    1    3    3    0  502  0.10093535374E+04  0.96501912623E+02 -0.91663217305E+03  0.13668656566E+04  0.25500000920E-02 0. -1.
</event>
<event>
 5   0  0.1284837E-05  0.2320553E+04  0.7818609E-02  0.8469861E-01
       -1   -1    0    0    0  501  0.00000000000E+00  0.00000000000E+00  0.10842404151E+04  0.10842404151E+04  0.50400001928E-02 0.  1.
        1   -1    0    0  501    0  0.00000000000E+00  0.00000000000E+00 -0.12416452353E+04  0.12416452353E+04  0.50400001928E-02 0. -1.
    10030    2    1    2    0    0  0.00000000000E+00  0.00000000000E+00 -0.15740482025E+03  0.23258856504E+04  0.23205533352E+04 0.  0.
        4    1    3    3  502    0  0.77070619327E+03  0.85438387869E+03  0.70907070322E+02  0.11528179709E+04  0.12699999809E+01 0. -1.
       -4    1    3    3    0  502 -0.77070619327E+03 -0.85438387869E+03 -0.22831189058E+03  0.11730676795E+04  0.12699999809E+01 0.  1.
</event>
<event>
 5   0  0.2910126E-05  0.2311310E+04  0.7818609E-02  0.8473475E-01
       -2   -1    0    0    0  501  0.00000000000E+00  0.00000000000E+00  0.13865461762E+04  0.13865461762E+04  0.25500000920E-02 0.  1.
        2   -1    0    0  501    0  0.00000000000E+00  0.00000000000E+00 -0.96321225997E+03  0.96321225997E+03  0.25500000920E-02 0. -1.
    10030    2    1    2    0    0  0.00000000000E+00  0.00000000000E+00  0.42333391623E+03  0.23497584362E+04  0.23113098243E+04 0.  0.
        5    1    3    3  502    0  0.64826575018E+03  0.37620730937E+03  0.11059219802E+04  0.13359887495E+04  0.46999998093E+01 0.  1.
       -5    1    3    3    0  502 -0.64826575018E+03 -0.37620730937E+03 -0.68258806400E+03  0.10137696867E+04  0.46999998093E+01 0. -1.
</event>
<event>
 5   0  0.1327820E-05  0.2136941E+04  0.7818609E-02  0.8545143E-01
        1   -1    0    0  501    0  0.00000000000E+00  0.00000000000E+00  0.82380872724E+03  0.82380872726E+03  0.50400001928E-02 0. -1.
       -1   -1    0    0    0  501  0.00000000000E+00  0.00000000000E+00 -0.13857943656E+04  0.13857943656E+04  0.50400001928E-02 0.  1.
    10030    2    1    2    0    0  0.00000000000E+00  0.00000000000E+00 -0.56198563838E+03  0.22096030929E+04  0.21369412651E+04 0.  0.
        1    1    3    3  502    0 -0.50077510817E+03 -0.30533976400E+03  0.64247142733E+03  0.86992966119E+03  0.50400001928E-02 0. -1.
       -1    1    3    3    0  502  0.50077510817E+03  0.30533976400E+03 -0.12044570657E+04  0.13396734317E+04  0.50400001928E-02 0.  1.
</event>
<event>
 5   0  0.1284837E-05  0.2296380E+04  0.7818609E-02  0.8479350E-01
       -1   -1    0    0    0  501  0.00000000000E+00  0.00000000000E+00  0.13732662019E+04  0.13732662019E+04  0.50400001928E-02 0.  1.
        1   -1    0    0  501    0  0.00000000000E+00  0.00000000000E+00 -0.96000320645E+03  0.96000320646E+03  0.50400001928E-02 0. -1.
    10030    2    1    2    0    0  0.00000000000E+00  0.00000000000E+00  0.41326299545E+03  0.23332694084E+04  0.22963797222E+04 0.  0.
        4    1    3    3  502    0  0.70927990666E+03  0.74975921385E+03  0.71782542258E+03  0.12571761273E+04  0.12699999809E+01 0.  1.
       -4    1    3    3    0  502 -0.70927990666E+03 -0.74975921385E+03 -0.30456242713E+03  0.10760932811E+04  0.12699999809E+01 0. -1.
</event>
<event>
 5   0  0.1308224E-05  0.2286477E+04  0.7818609E-02  0.8483272E-01
        1   -1    0    0  501    0  0.00000000000E+00  0.00000000000E+00  0.21416346091E+04  0.21416346091E+04  0.50400001928E-02 0. -1.
       -1   -1    0    0    0  501  0.00000000000E+00  0.00000000000E+00 -0.61027869206E+03  0.61027869208E+03  0.50400001928E-02 0.  1.
    10030    2    1    2    0    0  0.00000000000E+00  0.00000000000E+00  0.15313559170E+04  0.27519133012E+04  0.22864767378E+04 0.  0.
        5    1    3    3  502    0 -0.95562935108E+03 -0.59878886999E+03  0.53988180916E+03  0.12503079722E+04  0.46999998093E+01 0.  1.
       -5    1    3    3    0  502  0.95562935108E+03  0.59878886999E+03  0.99147410786E+03  0.15016053290E+04  0.46999998093E+01 0. -1.
</event>
<event>
 5   0  0.2994157E-05  0.2302814E+04  0.7818609E-02  0.8476813E-01
       -2   -1    0    0    0  501  0.00000000000E+00  0.00000000000E+00  0.10729277276E+04  0.10729277276E+04  0.25500000920E-02 0.  1.
        2   -1    0    0  501    0  0.00000000000E+00  0.00000000000E+00 -0.12356262209E+04  0.12356262209E+04  0.25500000920E-02 0. -1.
    10030    2    1    2    0    0  0.00000000000E+00  0.00000000000E+00 -0.16269849328E+03  0.23085539485E+04  0.23028136124E+04 0.  0.
        4    1    3    3  502    0  0.27380386762E+02 -0.24641306646E+03  0.10458498447E+04  0.10748360784E+04  0.12699999809E+01 0.  1.
       -4    1    3    3    0  502 -0.27380386762E+02  0.24641306646E+03 -0.12085483380E+04  0.12337178701E+04  0.12699999809E+01 0. -1.
</event>
<event>
 5   0  0.1327820E-05  0.2316142E+04  0.7818609E-02  0.8471584E-01
        1   -1    0    0  501    0  0.00000000000E+00  0.00000000000E+00  0.14912667113E+04  0.14912667113E+04  0.50400001928E-02 0. -1.
       -1   -1    0    0    0  501  0.00000000000E+00  0.00000000000E+00 -0.89932155426E+03  0.89932155427E+03  0.50400001928E-02 0.  1.
    10030    2    1    2    0    0  0.00000000000E+00  0.00000000000E+00  0.59194515707E+03  0.23905882656E+04  0.23161418753E+04 0.  0.
        1    1    3    3  502    0  0.30247431137E+03  0.82434934735E+03 -0.48333646155E+03  0.10023256410E+04  0.50400001928E-02 0.  1.
       -1    1    3    3    0  502 -0.30247431137E+03 -0.82434934735E+03  0.10752816186E+04  0.13882626246E+04  0.50400001928E-02 0. -1.
</event>
<event>
 5   0  0.2938972E-05  0.2299675E+04  0.7818609E-02  0.8478049E-01
        2   -1    0    0  501    0  0.00000000000E+00  0.00000000000E+00  0.89255872582E+03  0.89255872582E+03  0.25500000920E-02 0.  1.
       -2   -1    0    0    0  501  0.00000000000E+00  0.00000000000E+00 -0.14812759535E+04  0.14812759535E+04  0.25500000920E-02 0. -1.
    10030    2    1    2    0    0  0.00000000000E+00  0.00000000000E+00 -0.58871722767E+03  0.23738346793E+04  0.22996745662E+04 0.  0.
        2    1    3    3  502    0 -0.49729415163E+03  0.59214577706E+03  0.58407643440E+03  0.96906314333E+03  0.25500000920E-02 0.  1.
       -2    1    3    3    0  502  0.49729415163E+03 -0.59214577706E+03 -0.11727936621E+04  0.14047715360E+04  0.25500000920E-02 0. -1.
</event>
<event>
 5   0  0.2910126E-05  0.2293221E+04  0.7818609E-02  0.8480599E-01
        2   -1    0    0  501    0  0.00000000000E+00  0.00000000000E+00  0.72117518215E+03  0.72117518215E+03  0.25500000920E-02 0.  1.
       -2   -1    0    0    0  501  0.00000000000E+00  0.00000000000E+00 -0.18230183407E+04  0.18230183407E+04  0.25500000920E-02 0. -1.
    10030    2    1    2    0    0  0.00000000000E+00  0.00000000000E+00 -0.11018431586E+04  0.25441935229E+04  0.22932209522E+04 0.  0.
        5    1    3    3  502    0 -0.49853079132E+02  0.77461470761E+03  0.38534429683E+03  0.86661732722E+03  0.46999998093E+01 0.  1.
       -5    1    3    3    0  502  0.49853079132E+02 -0.77461470761E+03 -0.14871874554E+04  0.16775761957E+04  0.46999998093E+01 0. -1.
</event>
<event>
 5   0  0.1371753E-05  0.2285839E+04  0.7818609E-02  0.8483526E-01
        1   -1    0    0  501    0  0.00000000000E+00  0.00000000000E+00  0.66294799976E+03  0.66294799978E+03  0.50400001928E-02 0.  1.
       -1   -1    0    0    0  501  0.00000000000E+00  0.00000000000E+00 -0.19703882748E+04  0.19703882748E+04  0.50400001928E-02 0. -1.
    10030    2    1    2    0    0  0.00000000000E+00  0.00000000000E+00 -0.13074402750E+04  0.26333362746E+04  0.22858389843E+04 0.  0.
        3    1    3    3  502    0  0.58157514713E+03 -0.94485700653E+01 -0.17871280951E+04  0.18794003740E+04  0.10100000352E+00 0. -1.
       -3    1    3    3    0  502 -0.58157514713E+03  0.94485700653E+01  0.47968782009E+03  0.75393590058E+03  0.10100000352E+00 0.  1.
</event>
<event>
 5   0  0.1308224E-05  0.2313287E+04  0.7818609E-02  0.8472701E-01
        1   -1    0    0  501    0  0.00000000000E+00  0.00000000000E+00  0.18262677168E+04  0.18262677168E+04  0.50400001928E-02 0. -1.
       -1   -1    0    0    0  501  0.00000000000E+00  0.00000000000E+00 -0.73254536055E+03  0.73254536057E+03  0.50400001928E-02 0.  1.
    10030    2    1    2    0    0  0.00000000000E+00  0.00000000000E+00  0.10937223563E+04  0.25588130774E+04  0.23132867899E+04 0.  0.
        5    1    3    3  502    0  0.63381224202E+03  0.43262852569E+03  0.15041120485E+04  0.16885676012E+04  0.46999998093E+01 0. -1.
       -5    1    3    3    0  502 -0.63381224202E+03 -0.43262852569E+03 -0.41038969222E+03  0.87024547621E+03  0.46999998093E+01 0.  1.
</event>
<event>
 5   0  0.2938972E-05  0.2308974E+04  0.7818609E-02  0.8474391E-01
       -2   -1    0    0    0  501  0.00000000000E+00  0.00000000000E+00  0.72284564153E+03  0.72284564153E+03  0.25500000920E-02 0.  1.
        2   -1    0    0  501    0  0.00000000000E+00  0.00000000000E+00 -0.18438793602E+04  0.18438793602E+04  0.25500000920E-02 0. -1.
    10030    2    1    2    0    0  0.00000000000E+00  0.00000000000E+00 -0.11210337187E+04  0.25667250018E+04  0.23089739358E+04 0.  0.
        2    1    3    3  502    0 -0.49275884223E+02  0.82700918945E+03  0.33326960867E+03  0.89299548950E+03  0.25500000920E-02 0.  1.
       -2    1    3    3    0  502  0.49275884223E+02 -0.82700918945E+03 -0.14543033274E+04  0.16737295123E+04  0.25500000920E-02 0. -1.
</event>
<event>
 5   0  0.1284837E-05  0.2289795E+04  0.7818609E-02  0.8481956E-01
       -1   -1    0    0    0  501  0.00000000000E+00  0.00000000000E+00  0.82955722623E+03  0.82955722624E+03  0.50400001928E-02 0. -1.
        1   -1    0    0  501    0  0.00000000000E+00  0.00000000000E+00 -0.15801080005E+04  0.15801080005E+04  0.50400001928E-02 0.  1.
    10030    2    1    2    0    0  0.00000000000E+00  0.00000000000E+00 -0.75055077429E+03  0.24096652268E+04  0.22897947594E+04 0.  0.
        4    1    3    3  502    0 -0.24224021556E+03  0.99825922156E+03 -0.90729690176E+03  0.13705440804E+04  0.12699999809E+01 0.  1.
       -4    1    3    3    0  502  0.24224021556E+03 -0.99825922156E+03  0.15674612747E+03  0.10391211464E+04  0.12699999809E+01 0. -1.
</event>
<event>
 5   0  0.2871888E-05  0.2297222E+04  0.7818609E-02  0.8479017E-01
        2   -1    0    0  501    0  0.00000000000E+00  0.00000000000E+00  0.13655564624E+04  0.13655564624E+04  0.25500000920E-02 0.  1.
       -2   -1    0    0    0  501  0.00000000000E+00  0.00000000000E+00 -0.96613148308E+03  0.96613148309E+03  0.25500000920E-02 0. -1.
    10030    2    1    2    0    0  0.00000000000E+00  0.00000000000E+00  0.39942497935E+03  0.23316879455E+04  0.22972218790E+04 0.  0.
        3    1    3    3  502    0 -0.88865484696E+03 -0.57320200348E+03  0.65481345431E+03  0.12438041019E+04  0.10100000352E+00 0.  1.
       -3    1    3    3    0  502  0.88865484696E+03  0.57320200348E+03 -0.25538847497E+03  0.10878838436E+04  0.10100000352E+00 0. -1.
</event>
<event>
 5   0  0.2910126E-05  0.2309153E+04  0.7818609E-02  0.8474321E-01
        2   -1    0    0  501    0  0.00000000000E+00  0.00000000000E+00  0.15862346256E+04  0.15862346256E+04  0.25500000920E-02 0. -1.
       -2   -1    0    0    0  501  0.00000000000E+00  0.00000000000E+00 -0.84038410810E+03  0.84038410810E+03  0.25500000920E-02 0.  1.
    10030    2    1    2    0    0  0.00000000000E+00  0.00000000000E+00  0.74585051753E+03  0.24266187337E+04  0.23091525468E+04 0.  0.
        5    1    3    3  502    0  0.91611227460E+03 -0.36042190258E+03  0.10068172489E+04  0.14081437108E+04  0.46999998093E+01 0. -1.
       -5    1    3    3    0  502 -0.91611227460E+03  0.36042190258E+03 -0.26096673135E+03  0.10184750230E+04  0.46999998093E+01 0.  1.
</event>
<event>
 5   0  0.2816178E-05  0.2286040E+04  0.7818609E-02  0.8483446E-01
       -2   -1    0    0    0  501  0.00000000000E+00  0.00000000000E+00  0.98823202205E+03  0.98823202206E+03  0.25500000920E-02 0.  1.
        2   -1    0    0  501    0  0.00000000000E+00  0.00000000000E+00 -0.13220520650E+04  0.13220520650E+04  0.25500000920E-02 0. -1.
    10030    2    1    2    0    0  0.00000000000E+00  0.00000000000E+00 -0.33382004290E+03  0.23102840870E+04  0.22860395320E+04 0.  0.
        1    1    3    3  502    0 -0.56258020652E+03 -0.49937211650E+03 -0.10366328884E+04  0.12808109716E+04  0.50400001928E-02 0. -1.
       -1    1    3    3    0  502  0.56258020652E+03  0.49937211650E+03  0.70281284554E+03  0.10294731154E+04  0.50400001928E-02 0.  1.
</event>
<event>
 5   0  0.1284837E-05  0.2301203E+04  0.7818609E-02  0.8477447E-01
        1   -1    0    0  501    0  0.00000000000E+00  0.00000000000E+00  0.74766610991E+03  0.74766610993E+03  0.50400001928E-02 0. -1.
       -1   -1    0    0    0  501  0.00000000000E+00  0.00000000000E+00 -0.17706878222E+04  0.17706878222E+04  0.50400001928E-02 0.  1.
    10030    2    1    2    0    0  0.00000000000E+00  0.00000000000E+00 -0.10230217123E+04  0.25183539321E+04  0.23012025343E+04 0.  0.
        4    1    3    3  502    0 -0.86731593024E+03 -0.63877674472E+03 -0.68855695475E+02  0.10793587782E+04  0.12699999809E+01 0. -1.
       -4    1    3    3    0  502  0.86731593024E+03  0.63877674472E+03 -0.95416601682E+03  0.14389951539E+04  0.12699999809E+01 0.  1.
</event>
<event>
 5   0  0.2816178E-05  0.2288318E+04  0.7818609E-02  0.8482542E-01
       -2   -1    0    0    0  501  0.00000000000E+00  0.00000000000E+00  0.72315874032E+03  0.72315874033E+03  0.25500000920E-02 0.  1.
        2   -1    0    0  501    0  0.00000000000E+00  0.00000000000E+00 -0.18102520492E+04  0.18102520492E+04  0.25500000920E-02 0. -1.
    10030    2    1    2    0    0  0.00000000000E+00  0.00000000000E+00 -0.10870933089E+04  0.25334107896E+04  0.22883178028E+04 0.  0.
        1    1    3    3  502    0 -0.44946106930E+03  0.95347313301E+03 -0.50948689498E+02  0.10553302977E+04  0.50400001928E-02 0. -1.
       -1    1    3    3    0  502  0.44946106930E+03 -0.95347313301E+03 -0.10361446194E+04  0.14780804919E+04  0.50400001928E-02 0.  1.
</event>
<event>
 5   0  0.1327820E-05  0.2303511E+04  0.7818609E-02  0.8476538E-01
       -1   -1    0    0    0  501  0.00000000000E+00  0.00000000000E+00  0.13352703364E+04  0.13352703364E+04  0.50400001928E-02 0. -1.
        1   -1    0    0  501    0  0.00000000000E+00  0.00000000000E+00 -0.99346230456E+03  0.99346230457E+03  0.50400001928E-02 0.  1.
    10030    2    1    2    0    0  0.00000000000E+00  0.00000000000E+00  0.34180803186E+03  0.23287326410E+04  0.23035110120E+04 0.  0.
        1    1    3    3  502    0 -0.12684016086E+03 -0.87471364564E+03 -0.57564508832E+03  0.10547889154E+04  0.50400001928E-02 0.  1.
       -1    1    3    3    0  502  0.12684016086E+03  0.87471364564E+03  0.91745312018E+03  0.12739437256E+04  0.50400001928E-02 0. -1.
</event>
<event>
 5   0  0.2994157E-05  0.2326806E+04  0.7818609E-02  0.8467426E-01
       -2   -1    0    0    0  501  0.00000000000E+00  0.00000000000E+00  0.15835853689E+04  0.15835853689E+04  0.25500000920E-02 0. -1.
        2   -1    0    0  501    0  0.00000000000E+00  0.00000000000E+00 -0.85470982930E+03  0.85470982931E+03  0.25500000920E-02 0.  1.
    10030    2    1    2    0    0  0.00000000000E+00  0.00000000000E+00  0.72887553964E+03  0.24382951983E+04  0.23268055186E+04 0.  0.
        4    1    3    3  502    0 -0.95869047691E+03 -0.11821297229E+03  0.10439222949E+04  0.14222647813E+04  0.12699999809E+01 0. -1.
       -4    1    3    3    0  502  0.95869047691E+03  0.11821297229E+03 -0.31504675527E+03  0.10160304170E+04  0.12699999809E+01 0.  1.
</event>
<event>
 5   0  0.1327820E-05  0.2257094E+04  0.7818609E-02  0.8495033E-01
       -1   -1    0    0    0  501  0.00000000000E+00  0.00000000000E+00  0.66487645469E+03  0.66487645471E+03  0.50400001928E-02 0. -1.
        1   -1    0    0  501    0  0.00000000000E+00  0.00000000000E+00 -0.19155720866E+04  0.19155720866E+04  0.50400001928E-02 0.  1.
    10030    2    1    2    0    0  0.00000000000E+00  0.00000000000E+00 -0.12506956319E+04  0.25804485413E+04  0.22570943956E+04 0.  0.
        1    1    3    3  502    0  0.57453436229E+03 -0.15376978433E+02  0.48502467189E+03  0.75204728394E+03  0.50400001928E-02 0. -1.
       -1    1    3    3    0  502 -0.57453436229E+03  0.15376978433E+02 -0.17357203038E+04  0.18284012573E+04  0.50400001928E-02 0.  1.
</event>
<event>
 5   0  0.2910126E-05  0.2083818E+04  0.7818609E-02  0.8568405E-01
        2   -1    0    0  501    0  0.00000000000E+00  0.00000000000E+00  0.11369546179E+04  0.11369546179E+04  0.25500000920E-02 0. -1.
       -2   -1    0    0    0  501  0.00000000000E+00  0.00000000000E+00 -0.95480927961E+03  0.95480927962E+03  0.25500000920E-02 0.  1.
    10030    2    1    2    0    0  0.00000000000E+00  0.00000000000E+00  0.18214533829E+03  0.20917638975E+04  0.20838184371E+04 0.  0.
        5    1    3    3  502    0 -0.78531281149E+03 -0.60220761403E+03  0.41817171337E+03  0.10743648794E+04  0.46999998093E+01 0. -1.
       -5    1    3    3    0  502  0.78531281149E+03  0.60220761403E+03 -0.23602637508E+03  0.10173990181E+04  0.46999998093E+01 0.  1.
</event>
<event>
 5   0  0.2910126E-05  0.2307943E+04  0.7818609E-02  0.8474796E-01
       -2   -1    0    0    0  501  0.00000000000E+00  0.00000000000E+00  0.10323314241E+04  0.10323314241E+04  0.25500000920E-02 0.  1.
        2   -1    0    0  501    0  0.00000000000E+00  0.00000000000E+00 -0.12899448109E+04  0.12899448109E+04  0.25500000920E-02 0. -1.
    10030    2    1    2    0    0  0.00000000000E+00  0.00000000000E+00 -0.25761338679E+03  0.23222762350E+04  0.23079432954E+04 0.  0.
        5    1    3    3  502    0  0.98802717408E+03  0.33742297720E+03 -0.62336340070E+03  0.12159999924E+04  0.46999998093E+01 0. -1.
       -5    1    3    3    0  502 -0.98802717408E+03 -0.33742297720E+03  0.36575001390E+03  0.11062762426E+04  0.46999998093E+01 0.  1.
</event>
<event>
 5   0  0.2938972E-05  0.2312931E+04  0.7818609E-02  0.8472840E-01
        2   -1    0    0  501    0  0.00000000000E+00  0.00000000000E+00  0.18426652653E+04  0.18426652653E+04  0.25500000920E-02 0.  1.
       -2   -1    0    0    0  501  0.00000000000E+00  0.00000000000E+00 -0.72580346145E+03  0.72580346145E+03  0.25500000920E-02 0. -1.
    10030    2    1    2    0    0  0.00000000000E+00  0.00000000000E+00  0.11168618039E+04  0.25684687268E+04  0.23129313244E+04 0.  0.
        2    1    3    3  502    0  0.30090863151E+03 -0.98503208489E+03 -0.25579850497E+02  0.10302856602E+04  0.25500000920E-02 0. -1.
       -2    1    3    3    0  502 -0.30090863151E+03  0.98503208489E+03  0.11424416544E+04  0.15381830666E+04  0.25500000920E-02 0.  1.
</event>
<event>
 5   0  0.2938972E-05  0.2305246E+04  0.7818609E-02  0.8475856E-01
       -2   -1    0    0    0  501  0.00000000000E+00  0.00000000000E+00  0.74553494617E+03  0.74553494617E+03  0.25500000920E-02 0.  1.
        2   -1    0    0  501    0  0.00000000000E+00  0.00000000000E+00 -0.17819950964E+04  0.17819950964E+04  0.25500000920E-02 0. -1.
    10030    2    1    2    0    0  0.00000000000E+00  0.00000000000E+00 -0.10364601502E+04  0.25275300426E+04  0.23052458596E+04 0.  0.
        2    1    3    3  502    0  0.26876202249E+03  0.79549463311E+03  0.34752594919E+03  0.90874585083E+03  0.25500000920E-02 0.  1.
       -2    1    3    3    0  502 -0.26876202249E+03 -0.79549463311E+03 -0.13839860994E+04  0.16187841917E+04  0.25500000920E-02 0. -1.
</event>
<event>
 5   0  0.2816178E-05  0.2312092E+04  0.7818609E-02  0.8473169E-01
        2   -1    0    0  501    0  0.00000000000E+00  0.00000000000E+00  0.14406408718E+04  0.14406408718E+04  0.25500000920E-02 0.  1.
       -2   -1    0    0    0  501  0.00000000000E+00  0.00000000000E+00 -0.92767211589E+03  0.92767211589E+03  0.25500000920E-02 0. -1.
    10030    2    1    2    0    0  0.00000000000E+00  0.00000000000E+00  0.51296875593E+03  0.23683129877E+04  0.23120920101E+04 0.  0.
        1    1    3    3  502    0  0.46341433185E+03 -0.72565561604E+03 -0.53370987452E+03  0.10130030337E+04  0.50400001928E-02 0. -1.
       -1    1    3    3    0  502 -0.46341433185E+03  0.72565561604E+03  0.10466786305E+04  0.13553099540E+04  0.50400001928E-02 0.  1.
</event>
<event>
 5   0  0.1308224E-05  0.2290402E+04  0.7818609E-02  0.8481715E-01
        1   -1    0    0  501    0  0.00000000000E+00  0.00000000000E+00  0.18962560736E+04  0.18962560736E+04  0.50400001928E-02 0.  1.
       -1   -1    0    0    0  501  0.00000000000E+00  0.00000000000E+00 -0.69161849666E+03  0.69161849668E+03  0.50400001928E-02 0. -1.
    10030    2    1    2    0    0  0.00000000000E+00  0.00000000000E+00  0.12046375769E+04  0.25878745703E+04  0.22904023882E+04 0.  0.
        5    1    3    3  502    0  0.44258976693E+03  0.10223556338E+04  0.90203882134E+03  0.14334548716E+04  0.46999998093E+01 0. -1.
       -5    1    3    3    0  502 -0.44258976693E+03 -0.10223556338E+04  0.30259875557E+03  0.11544196986E+04  0.46999998093E+01 0.  1.
</event>
<event>
 5   0  0.1371753E-05  0.2277336E+04  0.7818609E-02  0.8486911E-01
        1   -1    0    0  501    0  0.00000000000E+00  0.00000000000E+00  0.25656718497E+04  0.25656718497E+04  0.50400001928E-02 0.  1.
       -1   -1    0    0    0  501  0.00000000000E+00  0.00000000000E+00 -0.50535105615E+03  0.50535105618E+03  0.50400001928E-02 0. -1.
    10030    2    1    2    0    0  0.00000000000E+00  0.00000000000E+00  0.20603207936E+04  0.30710229059E+04  0.22773361448E+04 0.  0.
        3    1    3    3  502    0  0.31976999555E+03 -0.10921095186E+04  0.10842511337E+04  0.15718004268E+04  0.10100000352E+00 0. -1.
       -3    1    3    3    0  502 -0.31976999555E+03  0.10921095186E+04  0.97606965991E+03  0.14992224791E+04  0.10100000352E+00 0.  1.
</event>
<event>
 5   0  0.2871888E-05  0.2031192E+04  0.7818609E-02  0.8592175E-01
        2   -1    0    0  501    0  0.00000000000E+00  0.00000000000E+00  0.15960922562E+04  0.15960922562E+04  0.25500000920E-02 0.  1.
       -2   -1    0    0    0  501  0.00000000000E+00  0.00000000000E+00 -0.64622510914E+03  0.64622510914E+03  0.25500000920E-02 0. -1.
    10030    2    1    2    0    0  0.00000000000E+00  0.00000000000E+00  0.94986714702E+03  0.22423173653E+04  0.20311916625E+04 0.  0.
        3    1    3    3  502    0  0.15018439199E+03 -0.10042331816E+04  0.49688085627E+03  0.11304557622E+04  0.10100000352E+00 0.  1.
       -3    1    3    3    0  502 -0.15018439199E+03  0.10042331816E+04  0.45298629075E+03  0.11118616031E+04  0.10100000352E+00 0. -1.
</event>
<event>
 5   0  0.1327820E-05  0.2293410E+04  0.7818609E-02  0.8480524E-01
        1   -1    0    0  501    0  0.00000000000E+00  0.00000000000E+00  0.10696189023E+04  0.10696189024E+04  0.50400001928E-02 0. -1.
       -1   -1    0    0    0  501  0.00000000000E+00  0.00000000000E+00 -0.12293471288E+04  0.12293471288E+04  0.50400001928E-02 0.  1.
    10030    2    1    2    0    0  0.00000000000E+00  0.00000000000E+00 -0.15972822648E+03  0.22989660312E+04  0.22934104967E+04 0.  0.
        1    1    3    3  502    0 -0.10450484415E+04 -0.61238992036E+02  0.38930433532E+03  0.11168859945E+04  0.50400001928E-02 0. -1.
       -1    1    3    3    0  502  0.10450484415E+04  0.61238992036E+02 -0.54903256180E+03  0.11820800367E+04  0.50400001928E-02 0.  1.
</event>
<event>
 5   0  0.2938972E-05  0.2346328E+04  0.7818609E-02  0.8459875E-01
        2   -1    0    0  501    0  0.00000000000E+00  0.00000000000E+00  0.91546424320E+03  0.91546424320E+03  0.25500000920E-02 0.  1.
       -2   -1    0    0    0  501  0.00000000000E+00  0.00000000000E+00 -0.15034053734E+04  0.15034053734E+04  0.25500000920E-02 0. -1.
    10030    2    1    2    0    0  0.00000000000E+00  0.00000000000E+00 -0.58794113018E+03  0.24188696166E+04  0.23463280780E+04 0.  0.
        2    1    3    3  502    0  0.44381642681E+03  0.43683142107E+02  0.82467306575E+03  0.93753234770E+03  0.25500000920E-02 0.  1.
       -2    1    3    3    0  502 -0.44381642681E+03 -0.43683142107E+02 -0.14126141959E+04  0.14813372689E+04  0.25500000920E-02 0. -1.
</event>
<event>
 5   0  0.1284837E-05  0.2300115E+04  0.7818609E-02  0.8477876E-01
       -1   -1    0    0    0  501  0.00000000000E+00  0.00000000000E+00  0.96142848825E+03  0.96142848827E+03  0.50400001928E-02 0. -1.
        1   -1    0    0  501    0  0.00000000000E+00  0.00000000000E+00 -0.13756953928E+04  0.13756953928E+04  0.50400001928E-02 0.  1.
    10030    2    1    2    0    0  0.00000000000E+00  0.00000000000E+00 -0.41426690455E+03  0.23371238811E+04  0.23001154248E+04 0.  0.
        4    1    3    3  502    0  0.49558818234E+03  0.10344907232E+04 -0.29124473935E+03  0.11834710871E+04  0.12699999809E+01 0.  1.
       -4    1    3    3    0  502 -0.49558818234E+03 -0.10344907232E+04 -0.12302216520E+03  0.11536527940E+04  0.12699999809E+01 0. -1.
</event>
<event>
 5   0  0.1327820E-05  0.2279630E+04  0.7818609E-02  0.8485996E-01
        1   -1    0    0  501    0  0.00000000000E+00  0.00000000000E+00  0.14721326790E+04  0.14721326790E+04  0.50400001928E-02 0.  1.
       -1   -1    0    0    0  501  0.00000000000E+00  0.00000000000E+00 -0.88251459566E+03  0.88251459567E+03  0.50400001928E-02 0. -1.
    10030    2    1    2    0    0  0.00000000000E+00  0.00000000000E+00  0.58961808334E+03  0.23546472747E+04  0.22796302998E+04 0.  0.
        1    1    3    3  502    0 -0.54427122262E+03 -0.59378225743E+03 -0.53818463141E+03  0.96873692534E+03  0.50400001928E-02 0. -1.
       -1    1    3    3    0  502  0.54427122262E+03  0.59378225743E+03  0.11278027148E+04  0.13859103493E+04  0.50400001928E-02 0.  1.
</event>
<event>
 5   0  0.1303224E-05  0.2303550E+04  0.7818609E-02  0.8476523E-01
        1   -1    0    0  501    0  0.00000000000E+00  0.00000000000E+00  0.19749549425E+04  0.19749549425E+04  0.50400001928E-02 0.  1.
       -1   -1    0    0    0  501  0.00000000000E+00  0.00000000000E+00 -0.67170449216E+03  0.67170449218E+03  0.50400001928E-02 0. -1.
    10030    2    1    2    0    0  0.00000000000E+00  0.00000000000E+00  0.13032504504E+04  0.26466594347E+04  0.23035503960E+04 0.  0.
        2    1    3    3  502    0  0.10310017741E+04 -0.19726192453E+03  0.11962667526E+04  0.15915184788E+04  0.25500000920E-02 0.  1.
       -2    1    3    3    0  502 -0.10310017741E+04  0.19726192453E+03  0.10698369779E+03  0.10551409559E+04  0.25500000920E-02 0. -1.
</event>
<event>
 5   0  0.1308224E-05  0.2276114E+04  0.7818609E-02  0.8487399E-01
       -1   -1    0    0    0  501  0.00000000000E+00  0.00000000000E+00  0.81215325129E+03  0.81215325131E+03  0.50400001928E-02 0. -1.
        1   -1    0    0  501    0  0.00000000000E+00  0.00000000000E+00 -0.15947411948E+04  0.15947411948E+04  0.50400001928E-02 0.  1.
    10030    2    1    2    0    0  0.00000000000E+00  0.00000000000E+00 -0.78258794353E+03  0.24068944461E+04  0.22761144491E+04 0.  0.
        5    1    3    3  502    0 -0.69169302906E+03 -0.42964310423E+03  0.44944778164E+03  0.93008485735E+03  0.46999998093E+01 0. -1.
       -5    1    3    3    0  502  0.69169302906E+03  0.42964310423E+03 -0.12320357252E+04  0.14768095888E+04  0.46999998093E+01 0.  1.
</event>
<event>
 5   0  0.2994157E-05  0.2306972E+04  0.7818609E-02  0.8475177E-01
       -2   -1    0    0    0  501  0.00000000000E+00  0.00000000000E+00  0.10451227529E+04  0.10451227529E+04  0.25500000920E-02 0.  1.
        2   -1    0    0  501    0  0.00000000000E+00  0.00000000000E+00 -0.12730851267E+04  0.12730851267E+04  0.25500000920E-02 0. -1.
    10030    2    1    2    0    0  0.00000000000E+00  0.00000000000E+00 -0.22796237385E+03  0.23182078796E+04  0.23069722428E+04 0.  0.
        4    1    3    3  502    0  0.25123329017E+02 -0.93850989085E+03 -0.78739171669E+03  0.12253241715E+04  0.12699999809E+01 0. -1.
       -4    1    3    3    0  502 -0.25123329017E+02  0.93850989085E+03  0.55942934284E+03  0.10928837081E+04  0.12699999809E+01 0.  1.
</event>
<event>
 5   0  0.2994157E-05  0.2314676E+04  0.7818609E-02  0.8472157E-01
        2   -1    0    0  501    0  0.00000000000E+00  0.00000000000E+00  0.17967620869E+04  0.17967620869E+04  0.25500000920E-02 0.  1.
       -2   -1    0    0    0  501  0.00000000000E+00  0.00000000000E+00 -0.74546914413E+03  0.74546914414E+03  0.25500000920E-02 0. -1.
    10030    2    1    2    0    0  0.00000000000E+00  0.00000000000E+00  0.10512929428E+04  0.25422312311E+04  0.23146755238E+04 0.  0.
        4    1    3    3  502    0  0.67511171697E+03 -0.15082119455E+03  0.15447137406E+04  0.16925321316E+04  0.12699999809E+01 0.  1.
       -4    1    3    3    0  502 -0.67511171697E+03  0.15082119455E+03 -0.49342079779E+03  0.84969909951E+03  0.12699999809E+01 0. -1.
</event>
<event>
 5   0  0.1303224E-05  0.2304353E+04  0.7818609E-02  0.8476207E-01
        1   -1    0    0  501    0  0.00000000000E+00  0.00000000000E+00  0.87345409268E+03  0.87345409269E+03  0.50400001928E-02 0.  1.
       -1   -1    0    0    0  501  0.00000000000E+00  0.00000000000E+00 -0.15198404116E+04  0.15198404116E+04  0.50400001928E-02 0. -1.
    10030    2    1    2    0    0  0.00000000000E+00  0.00000000000E+00 -0.64638631894E+03  0.23932945043E+04  0.23043531220E+04 0.  0.
        2    1    3    3  502    0  0.10675505307E+03 -0.10070007669E+04  0.24762310488E+03  0.10424799220E+04  0.25500000920E-02 0.  1.
       -2    1    3    3    0  502 -0.10675505307E+03  0.10070007669E+04 -0.89400942381E+03  0.13508145823E+04  0.25500000920E-02 0. -1.
</event>
<event>
 5   0  0.2994157E-05  0.2297472E+04  0.7818609E-02  0.8478919E-01
       -2   -1    0    0    0  501  0.00000000000E+00  0.00000000000E+00  0.60980203104E+03  0.60980203105E+03  0.25500000920E-02 0. -1.
        2   -1    0    0  501    0  0.00000000000E+00  0.00000000000E+00 -0.21639718094E+04  0.21639718094E+04  0.25500000920E-02 0.  1.
    10030    2    1    2    0    0  0.00000000000E+00  0.00000000000E+00 -0.15541697784E+04  0.27737738404E+04  0.22974720059E+04 0.  0.
        4    1    3    3  502    0  0.10222127902E+03 -0.46779158968E+03  0.48357152986E+03  0.68053008651E+03  0.12699999809E+01 0. -1.
       -4    1    3    3    0  502 -0.10222127902E+03  0.46779158968E+03 -0.20377413082E+04  0.20932437539E+04  0.12699999809E+01 0.  1.
</event>
<event>
 5   0  0.2816178E-05  0.2292326E+04  0.7818609E-02  0.8480953E-01
        2   -1    0    0  501    0  0.00000000000E+00  0.00000000000E+00  0.17730255522E+04  0.17730255522E+04  0.25500000920E-02 0. -1.
       -2   -1    0    0    0  501  0.00000000000E+00  0.00000000000E+00 -0.74093113333E+03  0.74093113333E+03  0.25500000920E-02 0.  1.
    10030    2    1    2    0    0  0.00000000000E+00  0.00000000000E+00  0.10320944189E+04  0.25139566855E+04  0.22923261826E+04 0.  0.
        1    1    3    3  502    0 -0.67269889941E+03 -0.12660796111E+03 -0.49214837585E+03  0.84306785549E+03  0.50400001928E-02 0.  1.
       -1    1    3    3    0  502  0.67269889941E+03  0.12660796111E+03  0.15242427947E+04  0.16708888300E+04  0.50400001928E-02 0. -1.
</event>
<event>
 5   0  0.2994157E-05  0.2272663E+04  0.7818609E-02  0.8488778E-01
       -2   -1    0    0    0  501  0.00000000000E+00  0.00000000000E+00  0.93442412715E+03  0.93442412715E+03  0.25500000920E-02 0.  1.
        2   -1    0    0  501    0  0.00000000000E+00  0.00000000000E+00 -0.13818665994E+04  0.13818665994E+04  0.25500000920E-02 0. -1.
    10030    2    1    2    0    0  0.00000000000E+00  0.00000000000E+00 -0.44744247222E+03  0.23162907265E+04  0.22726631875E+04 0.  0.
        4    1    3    3  502    0  0.31948369546E+03 -0.34152166834E+03 -0.12792375300E+04  0.13620415386E+04  0.12699999809E+01 0. -1.
       -4    1    3    3    0  502 -0.31948369546E+03  0.34152166834E+03  0.83179505782E+03  0.95424918796E+03  0.12699999809E+01 0.  1.
</event>
<event>
 5   0  0.1308224E-05  0.2304287E+04  0.7818609E-02  0.8476233E-01
        1   -1    0    0  501    0  0.00000000000E+00  0.00000000000E+00  0.77074804320E+03  0.77074804321E+03  0.50400001928E-02 0. -1.
       -1   -1    0    0    0  501  0.00000000000E+00  0.00000000000E+00 -0.17222676874E+04  0.17222676874E+04  0.50400001928E-02 0.  1.
    10030    2    1    2    0    0  0.00000000000E+00  0.00000000000E+00 -0.95151964421E+03  0.24930157306E+04  0.23042868311E+04 0.  0.
        5    1    3    3  502    0  0.15022388143E+02  0.98134758947E+03 -0.11286269761E+04  0.14956903772E+04  0.46999998093E+01 0.  1.
       -5    1    3    3    0  502 -0.15022388143E+02 -0.98134758947E+03  0.17710733185E+03  0.99732535338E+03  0.46999998093E+01 0. -1.
</event>
<event>
 5   0  0.2910126E-05  0.2171857E+04  0.7818609E-02  0.8530234E-01
        2   -1    0    0  501    0  0.00000000000E+00  0.00000000000E+00  0.24712011900E+04  0.24712011900E+04  0.25500000920E-02 0. -1.
       -2   -1    0    0    0  501  0.00000000000E+00  0.00000000000E+00 -0.47719326318E+03  0.47719326318E+03  0.25500000920E-02 0.  1.
    10030    2    1    2    0    0  0.00000000000E+00  0.00000000000E+00  0.19940079268E+04  0.29483944531E+04  0.21718568644E+04 0.  0.
        5    1    3    3  502    0 -0.13889304724E+03  0.10637629582E+04  0.76848603082E+03  0.13196498700E+04  0.46999998093E+01 0.  1.
       -5    1    3    3    0  502  0.13889304724E+03 -0.10637629582E+04  0.12255218960E+04  0.16287445832E+04  0.46999998093E+01 0. -1.
</event>
<event>
 5   0  0.1308224E-05  0.2290755E+04  0.7818609E-02  0.8481575E-01
       -1   -1    0    0    0  501  0.00000000000E+00  0.00000000000E+00  0.17563034563E+04  0.17563034563E+04  0.50400001928E-02 0.  1.
        1   -1    0    0  501    0  0.00000000000E+00  0.00000000000E+00 -0.74696066849E+03  0.74696066851E+03  0.50400001928E-02 0. -1.
    10030    2    1    2    0    0  0.00000000000E+00  0.00000000000E+00  0.10093427879E+04  0.25032641249E+04  0.22907549881E+04 0.  0.
        5    1    3    3  502    0  0.10136985128E+04  0.26510806519E+03  0.10101880645E+04  0.14554617744E+04  0.46999998093E+01 0.  1.
       -5    1    3    3    0  502 -0.10136985128E+04 -0.26510806519E+03 -0.84527662321E+00  0.10478023505E+04  0.46999998093E+01 0. -1.
</event>
<event>
 5   0  0.1371753E-05  0.2305424E+04  0.7818609E-02  0.8475786E-01
       -1   -1    0    0    0  501  0.00000000000E+00  0.00000000000E+00  0.10953263492E+04  0.10953263492E+04  0.50400001928E-02 0. -1.
        1   -1    0    0  501    0  0.00000000000E+00  0.00000000000E+00 -0.12131037453E+04  0.12131037454E+04  0.50400001928E-02 0.  1.
    10030    2    1    2    0    0  0.00000000000E+00  0.00000000000E+00 -0.11777739614E+03  0.23084300946E+04  0.23054236024E+04 0.  0.
        3    1    3    3  502    0 -0.95534963018E+03  0.28208699598E+03  0.52193543157E+03  0.11245810749E+04  0.10100000352E+00 0.  1.
       -3    1    3    3    0  502  0.95534963018E+03 -0.28208699598E+03 -0.63971282770E+03  0.11838490196E+04  0.10100000352E+00 0. -1.
</event>
<event>
 5   0  0.2871888E-05  0.2283105E+04  0.7818609E-02  0.8484613E-01
       -2   -1    0    0    0  501  0.00000000000E+00  0.00000000000E+00  0.62607588278E+03  0.62607588279E+03  0.25500000920E-02 0.  1.
        2   -1    0    0  501    0  0.00000000000E+00  0.00000000000E+00 -0.20814434992E+04  0.20814434992E+04  0.25500000920E-02 0. -1.
    10030    2    1    2    0    0  0.00000000000E+00  0.00000000000E+00 -0.14553676164E+04  0.27075193820E+04  0.22831045322E+04 0.  0.
        3    1    3    3  502    0  0.51068323580E+03  0.97841842247E+03 -0.10735128505E+04  0.15396525020E+04  0.10100000352E+00 0. -1.
       -3    1    3    3    0  502 -0.51068323580E+03 -0.97841842247E+03 -0.38185476595E+03  0.11678668799E+04  0.10100000352E+00 0.  1.
</event>
<event>
 5   0  0.1327820E-05  0.2301148E+04  0.7818609E-02  0.8477469E-01
       -1   -1    0    0    0  501  0.00000000000E+00  0.00000000000E+00  0.57906182644E+03  0.57906182646E+03  0.50400001928E-02 0. -1.
        1   -1    0    0  501    0  0.00000000000E+00  0.00000000000E+00 -0.22861467563E+04  0.22861467563E+04  0.50400001928E-02 0.  1.
    10030    2    1    2    0    0  0.00000000000E+00  0.00000000000E+00 -0.17070849299E+04  0.28652085828E+04  0.23011478147E+04 0.  0.
        1    1    3    3  502    0 -0.39202389758E+03  0.10423713037E+04 -0.12135519505E+04  0.16470971458E+04  0.50400001928E-02 0.  1.
       -1    1    3    3    0  502  0.39202389758E+03 -0.10423713037E+04 -0.49353297933E+03  0.12181114369E+04  0.50400001928E-02 0. -1.
</event>
<event>
 5   0  0.1284837E-05  0.2287890E+04  0.7818609E-02  0.8482711E-01
       -1   -1    0    0    0  501  0.00000000000E+00  0.00000000000E+00  0.85197588387E+03  0.85197588388E+03  0.50400001928E-02 0.  1.
        1   -1    0    0  501    0  0.00000000000E+00  0.00000000000E+00 -0.15359703553E+04  0.15359703553E+04  0.50400001928E-02 0. -1.
    10030    2    1    2    0    0  0.00000000000E+00  0.00000000000E+00 -0.68399447140E+03  0.23879462391E+04  0.22878895961E+04 0.  0.
        4    1    3    3  502    0  0.26027369333E+02 -0.50833810692E+02 -0.15344807968E+04  0.15355436917E+04  0.12699999809E+01 0. -1.
       -4    1    3    3    0  502 -0.26027369333E+02  0.50833810692E+02  0.85048632545E+03  0.85240254747E+03  0.12699999809E+01 0.  1.
</event>
<event>
 5   0  0.1308224E-05  0.2313164E+04  0.7818609E-02  0.8472749E-01
        1   -1    0    0  501    0  0.00000000000E+00  0.00000000000E+00  0.86628798749E+03  0.86628798751E+03  0.50400001928E-02 0.  1.
       -1   -1    0    0    0  501  0.00000000000E+00  0.00000000000E+00 -0.15441543780E+04  0.15441543780E+04  0.50400001928E-02 0. -1.
    10030    2    1    2    0    0  0.00000000000E+00  0.00000000000E+00 -0.67786639048E+03  0.24104423655E+04  0.23131644027E+04 0.  0.
        5    1    3    3  502    0  0.85292731873E+03 -0.77294222957E+03 -0.45653118806E+03  0.12382921775E+04  0.46999998093E+01 0.  1.
       -5    1    3    3    0  502 -0.85292731873E+03  0.77294222957E+03 -0.22133520242E+03  0.11721501880E+04  0.46999998093E+01 0. -1.
</event>
<event>
 5   0  0.1284837E-05  0.2293717E+04  0.7818609E-02  0.8480403E-01
       -1   -1    0    0    0  501  0.00000000000E+00  0.00000000000E+00  0.62079537947E+03  0.62079537949E+03  0.50400001928E-02 0. -1.
        1   -1    0    0  501    0  0.00000000000E+00  0.00000000000E+00 -0.21187077426E+04  0.21187077426E+04  0.50400001928E-02 0.  1.
    10030    2    1    2    0    0  0.00000000000E+00  0.00000000000E+00 -0.14979123631E+04  0.27395031220E+04  0.22937166146E+04 0.  0.
        4    1    3    3  502    0  0.59306130511E+03 -0.83989579309E+01 -0.19213018140E+04  0.20107696357E+04  0.12699999809E+01 0.  1.
       -4    1    3    3    0  502 -0.59306130511E+03  0.83989579309E+01  0.42338945095E+03  0.72873348640E+03  0.12699999809E+01 0. -1.
</event>
<event>
 5   0  0.1327820E-05  0.2312990E+04  0.7818609E-02  0.8472817E-01
        1   -1    0    0  501    0  0.00000000000E+00  0.00000000000E+00  0.11219403290E+04  0.11219403290E+04  0.50400001928E-02 0.  1.
       -1   -1    0    0    0  501  0.00000000000E+00  0.00000000000E+00 -0.11921134411E+04  0.11921134411E+04  0.50400001928E-02 0. -1.
    10030    2    1    2    0    0  0.00000000000E+00  0.00000000000E+00 -0.70173112098E+02  0.23140537700E+04  0.23129895341E+04 0.  0.
        1    1    3    3  502    0 -0.12068941477E+03 -0.54582375904E+03  0.97779748218E+03  0.11263114254E+04  0.50400001928E-02 0.  1.
       -1    1    3    3    0  502  0.12068941477E+03  0.54582375904E+03 -0.10479705943E+04  0.11877423447E+04  0.50400001928E-02 0. -1.
</event>
<event>
 5   0  0.2994157E-05  0.2328601E+04  0.7818609E-02  0.8466729E-01
        2   -1    0    0  501    0  0.00000000000E+00  0.00000000000E+00  0.14718432815E+04  0.14718432815E+04  0.25500000920E-02 0.  1.
       -2   -1    0    0    0  501  0.00000000000E+00  0.00000000000E+00 -0.92101920329E+03  0.92101920330E+03  0.25500000920E-02 0. -1.
    10030    2    1    2    0    0  0.00000000000E+00  0.00000000000E+00  0.55082407824E+03  0.23928624848E+04  0.23286012338E+04 0.  0.
        4    1    3    3  502    0  0.23549463358E+03 -0.69747732401E+03  0.12023371073E+04  0.14098044093E+04  0.12699999809E+01 0.  1.
       -4    1    3    3    0  502 -0.23549463358E+03  0.69747732401E+03 -0.65151302907E+03  0.98305807554E+03  0.12699999809E+01 0. -1.
</event>
<event>
 5   0  0.1284837E-05  0.2131342E+04  0.7818609E-02  0.8547561E-01
        1   -1    0    0  501    0  0.00000000000E+00  0.00000000000E+00  0.18596342383E+04  0.18596342383E+04  0.50400001928E-02 0. -1.
       -1   -1    0    0    0  501  0.00000000000E+00  0.00000000000E+00 -0.61068699587E+03  0.61068699589E+03  0.50400001928E-02 0.  1.
    10030    2    1    2    0    0  0.00000000000E+00  0.00000000000E+00  0.12489472425E+04  0.24703212342E+04  0.21313417806E+04 0.  0.
        4    1    3    3  502    0  0.88272677147E+03 -0.10921461966E+03 -0.55835938353E+02  0.89120909506E+03  0.12699999809E+01 0.  1.
       -4    1    3    3    0  502 -0.88272677147E+03  0.10921461966E+03  0.13047831808E+04  0.15791121392E+04  0.12699999809E+01 0. -1.
</event>
<event>
 5   0  0.1327820E-05  0.2327420E+04  0.7818609E-02  0.8467187E-01
       -1   -1    0    0    0  501  0.00000000000E+00  0.00000000000E+00  0.13668304700E+04  0.13668304700E+04  0.50400001928E-02 0. -1.
        1   -1    0    0  501    0  0.00000000000E+00  0.00000000000E+00 -0.99077505983E+03  0.99077505984E+03  0.50400001928E-02 0.  1.
    10030    2    1    2    0    0  0.00000000000E+00  0.00000000000E+00  0.37605541019E+03  0.23576055299E+04  0.23274204955E+04 0.  0.
        1    1    3    3  502    0  0.21872462584E+03  0.57465291685E+03 -0.81279166393E+03  0.10191647196E+04  0.50400001928E-02 0.  1.
       -1    1    3    3    0  502 -0.21872462584E+03 -0.57465291685E+03  0.11888470741E+04  0.13384408102E+04  0.50400001928E-02 0. -1.
</event>
<event>
 5   0  0.1371753E-05  0.2321351E+04  0.7818609E-02  0.8469550E-01
       -1   -1    0    0    0  501  0.00000000000E+00  0.00000000000E+00  0.10071585099E+04  0.10071585100E+04  0.50400001928E-02 0.  1.
        1   -1    0    0  501    0  0.00000000000E+00  0.00000000000E+00 -0.13375929009E+04  0.13375929009E+04  0.50400001928E-02 0. -1.
    10030    2    1    2    0    0  0.00000000000E+00  0.00000000000E+00 -0.33043439098E+03  0.23447514109E+04  0.23213513935E+04 0.  0.
        3    1    3    3  502    0 -0.15726982976E+03  0.80308265458E+03  0.66617926165E+03  0.10552110539E+04  0.10100000352E+00 0.  1.
       -3    1    3    3    0  502  0.15726982976E+03 -0.80308265458E+03 -0.99661365263E+03  0.12895403570E+04  0.10100000352E+00 0. -1.
</event>
<event>
 5   0  0.1371753E-05  0.2196203E+04  0.7818609E-02  0.8520010E-01
       -1   -1    0    0    0  501  0.00000000000E+00  0.00000000000E+00  0.91074231616E+03  0.91074231617E+03  0.50400001928E-02 0.  1.
        1   -1    0    0  501    0  0.00000000000E+00  0.00000000000E+00 -0.13240040268E+04  0.13240040268E+04  0.50400001928E-02 0. -1.
    10030    2    1    2    0    0  0.00000000000E+00  0.00000000000E+00 -0.41326171066E+03  0.22347463430E+04  0.21962026264E+04 0.  0.
        3    1    3    3  502    0 -0.85482385205E+03  0.68916871705E+03 -0.19420402158E+03  0.11150751324E+04  0.10100000352E+00 0. -1.
       -3    1    3    3    0  502  0.85482385205E+03 -0.68916871705E+03 -0.21905768908E+03  0.11196712106E+04  0.10100000352E+00 0.  1.
</event>
<event>
 5   0  0.2994157E-05  0.2297119E+04  0.7818609E-02  0.8479058E-01
        2   -1    0    0  501    0  0.00000000000E+00  0.00000000000E+00  0.12290283737E+04  0.12290283737E+04  0.25500000920E-02 0.  1.
       -2   -1    0    0    0  501  0.00000000000E+00  0.00000000000E+00 -0.10733591013E+04  0.10733591013E+04  0.25500000920E-02 0. -1.
    10030    2    1    2    0    0  0.00000000000E+00  0.00000000000E+00  0.15566927237E+03  0.23023874750E+04  0.22971188830E+04 0.  0.
        4    1    3    3  502    0  0.14420165831E+03 -0.38885412725E+03  0.11513586702E+04  0.12237769612E+04  0.12699999809E+01 0.  1.
       -4    1    3    3    0  502 -0.14420165831E+03  0.38885412725E+03 -0.99568939781E+03  0.10786105137E+04  0.12699999809E+01 0. -1.
</event>
<event>
 5   0  0.1303224E-05  0.2299600E+04  0.7818609E-02  0.8478079E-01
        1   -1    0    0  501    0  0.00000000000E+00  0.00000000000E+00  0.20671013088E+04  0.20671013088E+04  0.50400001928E-02 0.  1.
       -1   -1    0    0    0  501  0.00000000000E+00  0.00000000000E+00 -0.63956212107E+03  0.63956212109E+03  0.50400001928E-02 0. -1.
    10030    2    1    2    0    0  0.00000000000E+00  0.00000000000E+00  0.14275391877E+04  0.27066634299E+04  0.22995997022E+04 0.  0.
        2    1    3    3  502    0 -0.87069403408E+03  0.17611825650E+03 -0.14546263471E+03  0.90015838571E+03  0.25500000920E-02 0. -1.
       -2    1    3    3    0  502  0.87069403408E+03 -0.17611825650E+03  0.15730018224E+04  0.18065050442E+04  0.25500000920E-02 0.  1.
</event>
<event>
 5   0  0.1284837E-05  0.2129191E+04  0.7818609E-02  0.8548492E-01
        1   -1    0    0  501    0  0.00000000000E+00  0.00000000000E+00  0.16521607735E+04  0.16521607735E+04  0.50400001928E-02 0. -1.
       -1   -1    0    0    0  501  0.00000000000E+00  0.00000000000E+00 -0.68598875981E+03  0.68598875983E+03  0.50400001928E-02 0.  1.
    10030    2    1    2    0    0  0.00000000000E+00  0.00000000000E+00  0.96617201366E+03  0.23381495333E+04  0.21291911328E+04 0.  0.
        4    1    3    3  502    0 -0.59225532276E+03 -0.24354504479E+02  0.14541810370E+04  0.15703514290E+04  0.12699999809E+01 0. -1.
       -4    1    3    3    0  502  0.59225532276E+03  0.24354504479E+02 -0.48800902335E+03  0.76779810432E+03  0.12699999809E+01 0.  1.
</event>
<event>
 5   0  0.2994157E-05  0.2297104E+04  0.7818609E-02  0.8479064E-01
       -2   -1    0    0    0  501  0.00000000000E+00  0.00000000000E+00  0.70346195873E+03  0.70346195874E+03  0.25500000920E-02 0.  1.
        2   -1    0    0  501    0  0.00000000000E+00  0.00000000000E+00 -0.18752570523E+04  0.18752570523E+04  0.25500000920E-02 0. -1.
    10030    2    1    2    0    0  0.00000000000E+00  0.00000000000E+00 -0.11717950936E+04  0.25787190111E+04  0.22971042633E+04 0.  0.
        4    1    3    3  502    0  0.14710175922E+03  0.11382106781E+04 -0.63620073776E+03  0.13122177666E+04  0.12699999809E+01 0. -1.
       -4    1    3    3    0  502 -0.14710175922E+03 -0.11382106781E+04 -0.53559435583E+03  0.12665012445E+04  0.12699999809E+01 0.  1.
</event>
<event>
 5   0  0.2910126E-05  0.2293440E+04  0.7818609E-02  0.8480512E-01
       -2   -1    0    0    0  501  0.00000000000E+00  0.00000000000E+00  0.81741146239E+03  0.81741146240E+03  0.25500000920E-02 0. -1.
        2   -1    0    0  501    0  0.00000000000E+00  0.00000000000E+00 -0.16086956959E+04  0.16086956959E+04  0.25500000920E-02 0.  1.
    10030    2    1    2    0    0  0.00000000000E+00  0.00000000000E+00 -0.79128423355E+03  0.24261071583E+04  0.22934396015E+04 0.  0.
        5    1    3    3  502    0 -0.84494793630E+03 -0.76234294536E+03 -0.54464621447E+03  0.12616518420E+04  0.46999998093E+01 0. -1.
       -5    1    3    3    0  502  0.84494793630E+03  0.76234294536E+03 -0.24663801909E+03  0.11644553164E+04  0.46999998093E+01 0.  1.
</event>
<event>
 5   0  0.1284837E-05  0.2305613E+04  0.7818609E-02  0.8475711E-01
        1   -1    0    0  501    0  0.00000000000E+00  0.00000000000E+00  0.21840630578E+04  0.21840630578E+04  0.50400001928E-02 0. -1.
       -1   -1    0    0    0  501  0.00000000000E+00  0.00000000000E+00 -0.60848203233E+03  0.60848203235E+03  0.50400001928E-02 0.  1.
    10030    2    1    2    0    0  0.00000000000E+00  0.00000000000E+00  0.15755810255E+04  0.27925450901E+04  0.23056132617E+04 0.  0.
        4    1    3    3  502    0 -0.33074114899E+03  0.13314978876E+03  0.21156055764E+04  0.21454386828E+04  0.12699999809E+01 0. -1.
       -4    1    3    3    0  502  0.33074114899E+03 -0.13314978876E+03 -0.54002455094E+03  0.64710640733E+03  0.12699999809E+01 0.  1.
</event>
<event>
 5   0  0.2994157E-05  0.2310550E+04  0.7818609E-02  0.8473773E-01
        2   -1    0    0  501    0  0.00000000000E+00  0.00000000000E+00  0.16514039719E+04  0.16514039719E+04  0.25500000920E-02 0. -1.
       -2   -1    0    0    0  501  0.00000000000E+00  0.00000000000E+00 -0.80819723078E+03  0.80819723078E+03  0.25500000920E-02 0.  1.
    10030    2    1    2    0    0  0.00000000000E+00  0.00000000000E+00  0.84320674116E+03  0.24596012027E+04  0.23105498194E+04 0.  0.
        4    1    3    3  502    0 -0.63439972280E+03 -0.40324273373E+03  0.13554580331E+04  0.15499470324E+04  0.12699999809E+01 0. -1.
       -4    1    3    3    0  502  0.63439972280E+03  0.40324273373E+03 -0.51225129199E+03  0.90965417036E+03  0.12699999809E+01 0.  1.
</event>
<event>
 5   0  0.2871888E-05  0.2310679E+04  0.7818609E-02  0.8473722E-01
        2   -1    0    0  501    0  0.00000000000E+00  0.00000000000E+00  0.14607849035E+04  0.14607849035E+04  0.25500000920E-02 0. -1.
       -2   -1    0    0    0  501  0.00000000000E+00  0.00000000000E+00 -0.91376178989E+03  0.91376178989E+03  0.25500000920E-02 0.  1.
    10030    2    1    2    0    0  0.00000000000E+00  0.00000000000E+00  0.54702311356E+03  0.23745466933E+04  0.23106790587E+04 0.  0.
        3    1    3    3  502    0 -0.10940163518E+04 -0.25856273872E+03 -0.47156316101E+00  0.11241559947E+04  0.10100000352E+00 0.  1.
       -3    1    3    3    0  502  0.10940163518E+04  0.25856273872E+03  0.54749467672E+03  0.12503906986E+04  0.10100000352E+00 0. -1.
</event>
<event>
 5   0  0.1308224E-05  0.2285997E+04  0.7818609E-02  0.8483463E-01
        1   -1    0    0  501    0  0.00000000000E+00  0.00000000000E+00  0.17619811304E+04  0.17619811305E+04  0.50400001928E-02 0.  1.
       -1   -1    0    0    0  501  0.00000000000E+00  0.00000000000E+00 -0.74146382844E+03  0.74146382846E+03  0.50400001928E-02 0. -1.
    10030    2    1    2    0    0  0.00000000000E+00  0.00000000000E+00  0.10205173020E+04  0.25034449589E+04  0.22859967407E+04 0.  0.
        5    1    3    3  502    0 -0.45659801788E+03  0.91250993412E+03 -0.53773809031E+02  0.10217973587E+04  0.46999998093E+01 0. -1.
       -5    1    3    3    0  502  0.45659801788E+03 -0.91250993412E+03  0.10742911110E+04  0.14816476002E+04  0.46999998093E+01 0.  1.
</event>
<event>
 5   0  0.2938972E-05  0.2273014E+04  0.7818609E-02  0.8488638E-01
        2   -1    0    0  501    0  0.00000000000E+00  0.00000000000E+00  0.15698546036E+04  0.15698546036E+04  0.25500000920E-02 0.  1.
       -2   -1    0    0    0  501  0.00000000000E+00  0.00000000000E+00 -0.82278229651E+03  0.82278229651E+03  0.25500000920E-02 0. -1.
    10030    2    1    2    0    0  0.00000000000E+00  0.00000000000E+00  0.74707230711E+03  0.23926369001E+04  0.22730143651E+04 0.  0.
        2    1    3    3  502    0  0.79996878049E+02 -0.74393679849E+03  0.12740137865E+04  0.14774818404E+04  0.25500000920E-02 0.  1.
       -2    1    3    3    0  502 -0.79996878049E+02  0.74393679849E+03 -0.52694147936E+03  0.91515505972E+03  0.25500000920E-02 0. -1.
</event>
<event>
 5   0  0.1017200E-05  0.2283863E+04  0.7818609E-02  0.8484311E-01
       -3   -1    0    0    0  501  0.00000000000E+00  0.00000000000E+00  0.18169886725E+04  0.18169886753E+04  0.10100000352E+00 0.  1.
        3   -1    0    0  501    0  0.00000000000E+00  0.00000000000E+00 -0.71767511143E+03  0.71767511854E+03  0.10100000352E+00 0. -1.
    10030    2    1    2    0    0  0.00000000000E+00  0.00000000000E+00  0.10993135611E+04  0.25346637939E+04  0.22838630087E+04 0.  0.
        4    1    3    3  502    0  0.99015519179E+03  0.55137045054E+03  0.39432531551E+03  0.11999628098E+04  0.12699999809E+01 0. -1.
       -4    1    3    3    0  502 -0.99015519179E+03 -0.55137045054E+03  0.70498824559E+03  0.13347009841E+04  0.12699999809E+01 0.  1.
</event>
<event>
 5   0  0.2938972E-05  0.2314365E+04  0.7818609E-02  0.8472279E-01
       -2   -1    0    0    0  501  0.00000000000E+00  0.00000000000E+00  0.82765029451E+03  0.82765029452E+03  0.25500000920E-02 0. -1.
        2   -1    0    0  501    0  0.00000000000E+00  0.00000000000E+00 -0.16179197814E+04  0.16179197814E+04  0.25500000920E-02 0.  1.
    10030    2    1    2    0    0  0.00000000000E+00  0.00000000000E+00 -0.79026948689E+03  0.24455700759E+04  0.23143653848E+04 0.  0.
        2    1    3    3  502    0 -0.11072448259E+03 -0.22210783668E+03 -0.15894672100E+04  0.16087255247E+04  0.25500000920E-02 0.  1.
       -2    1    3    3    0  502  0.11072448259E+03  0.22210783668E+03  0.79919772314E+03  0.83684455118E+03  0.25500000920E-02 0. -1.
</event>
<event>
 5   0  0.1371753E-05  0.2276627E+04  0.7818609E-02  0.8487194E-01
       -1   -1    0    0    0  501  0.00000000000E+00  0.00000000000E+00  0.59313682676E+03  0.59313682678E+03  0.50400001928E-02 0.  1.
        1   -1    0    0  501    0  0.00000000000E+00  0.00000000000E+00 -0.21845855835E+04  0.21845855835E+04  0.50400001928E-02 0. -1.
    10030    2    1    2    0    0  0.00000000000E+00  0.00000000000E+00 -0.15914487568E+04  0.27777224103E+04  0.22766274714E+04 0.  0.
        3    1    3    3  502    0 -0.26257668212E+03 -0.10912491830E+04 -0.56426817147E+03  0.12562523126E+04  0.10100000352E+00 0. -1.
       -3    1    3    3    0  502  0.26257668212E+03  0.10912491830E+04 -0.10271805853E+04  0.15214700977E+04  0.10100000352E+00 0.  1.
</event>
<event>
 5   0  0.2871888E-05  0.2298121E+04  0.7818609E-02  0.8478662E-01
        2   -1    0    0  501    0  0.00000000000E+00  0.00000000000E+00  0.17546817590E+04  0.17546817590E+04  0.25500000920E-02 0. -1.
       -2   -1    0    0    0  501  0.00000000000E+00  0.00000000000E+00 -0.75246673074E+03  0.75246673074E+03  0.25500000920E-02 0.  1.
    10030    2    1    2    0    0  0.00000000000E+00  0.00000000000E+00  0.10022150282E+04  0.25071484897E+04  0.22981206641E+04 0.  0.
        3    1    3    3  502    0  0.16119130567E+03  0.26696913564E+03  0.17076301003E+04  0.17358731883E+04  0.10100000352E+00 0. -1.
       -3    1    3    3    0  502 -0.16119130567E+03 -0.26696913564E+03 -0.70541507206E+03  0.77127530137E+03  0.10100000352E+00 0.  1.
</event>
<event>
 5   0  0.1284837E-05  0.2296639E+04  0.7818609E-02  0.8479247E-01
       -1   -1    0    0    0  501  0.00000000000E+00  0.00000000000E+00  0.89941661717E+03  0.89941661719E+03  0.50400001928E-02 0.  1.
        1   -1    0    0  501    0  0.00000000000E+00  0.00000000000E+00 -0.14661038287E+04  0.14661038287E+04  0.50400001928E-02 0. -1.
    10030    2    1    2    0    0  0.00000000000E+00  0.00000000000E+00 -0.56668721151E+03  0.23655204459E+04  0.22966394110E+04 0.  0.
        4    1    3    3  502    0  0.25280789567E+03  0.24634183931E+03  0.84215096266E+03  0.91313525324E+03  0.12699999809E+01 0.  1.
       -4    1    3    3    0  502 -0.25280789567E+03 -0.24634183931E+03 -0.14088381742E+04  0.14523851926E+04  0.12699999809E+01 0. -1.
</event>
<event>
 5   0  0.1327820E-05  0.2274671E+04  0.7818609E-02  0.8487976E-01
       -1   -1    0    0    0  501  0.00000000000E+00  0.00000000000E+00  0.14367389432E+04  0.14367389432E+04  0.50400001928E-02 0.  1.
        1   -1    0    0  501    0  0.00000000000E+00  0.00000000000E+00 -0.90032467365E+03  0.90032467366E+03  0.50400001928E-02 0. -1.
    10030    2    1    2    0    0  0.00000000000E+00  0.00000000000E+00  0.53641426955E+03  0.23370636169E+04  0.22746705433E+04 0.  0.
        1    1    3    3  502    0 -0.87873359200E+03  0.70494206946E+03  0.42874763185E+03  0.12053798484E+04  0.50400001928E-02 0.  1.
       -1    1    3    3    0  502  0.87873359200E+03 -0.70494206946E+03  0.10766663771E+03  0.11316837685E+04  0.50400001928E-02 0. -1.
</event>
<event>
 5   0  0.2938972E-05  0.2294777E+04  0.7818609E-02  0.8479983E-01
        2   -1    0    0  501    0  0.00000000000E+00  0.00000000000E+00  0.19141133359E+04  0.19141133359E+04  0.25500000920E-02 0. -1.
       -2   -1    0    0    0  501  0.00000000000E+00  0.00000000000E+00 -0.68778574229E+03  0.68778574230E+03  0.25500000920E-02 0.  1.
    10030    2    1    2    0    0  0.00000000000E+00  0.00000000000E+00  0.12263275936E+04  0.26018990782E+04  0.22947765570E+04 0.  0.
        2    1    3    3  502    0  0.68969965747E+03  0.36043761102E+03  0.15691551981E+04  0.17515275974E+04  0.25500000920E-02 0. -1.
       -2    1    3    3    0  502 -0.68969965747E+03 -0.36043761102E+03 -0.34282760444E+03  0.85037148078E+03  0.25500000920E-02 0.  1.
</event>
<event>
 5   0  0.1371753E-05  0.2309536E+04  0.7818609E-02  0.8474171E-01
       -1   -1    0    0    0  501  0.00000000000E+00  0.00000000000E+00  0.90914467148E+03  0.90914467150E+03  0.50400001928E-02 0. -1.
        1   -1    0    0  501    0  0.00000000000E+00  0.00000000000E+00 -0.14667510212E+04  0.14667510212E+04  0.50400001928E-02 0.  1.
    10030    2    1    2    0    0  0.00000000000E+00  0.00000000000E+00 -0.55760634972E+03  0.23758956927E+04  0.23095357762E+04 0.  0.
        3    1    3    3  502    0 -0.75306748581E+02 -0.81216359004E+03  0.56212427976E+03  0.99058796655E+03  0.10100000352E+00 0. -1.
       -3    1    3    3    0  502  0.75306748581E+02  0.81216359004E+03 -0.11197306295E+04  0.13853077262E+04  0.10100000352E+00 0.  1.
</event>
<event>
 5   0  0.2994157E-05  0.2025821E+04  0.7818609E-02  0.8594643E-01
        2   -1    0    0  501    0  0.00000000000E+00  0.00000000000E+00  0.10540594910E+04  0.10540594910E+04  0.25500000920E-02 0.  1.
       -2   -1    0    0    0  501  0.00000000000E+00  0.00000000000E+00 -0.97336815717E+03  0.97336815717E+03  0.25500000920E-02 0. -1.
    10030    2    1    2    0    0  0.00000000000E+00  0.00000000000E+00  0.80691333858E+02  0.20274276482E+04  0.20258212600E+04 0.  0.
        4    1    3    3  502    0 -0.59368413632E+03 -0.82056392182E+03  0.26180719264E+02  0.10131500612E+04  0.12699999809E+01 0. -1.
       -4    1    3    3    0  502  0.59368413632E+03  0.82056392182E+03  0.54510614594E+02  0.10142775870E+04  0.12699999809E+01 0.  1.
</event>
<event>
 5   0  0.2871888E-05  0.2303215E+04  0.7818609E-02  0.8476655E-01
        2   -1    0    0  501    0  0.00000000000E+00  0.00000000000E+00  0.14622020722E+04  0.14622020722E+04  0.25500000920E-02 0.  1.
       -2   -1    0    0    0  501  0.00000000000E+00  0.00000000000E+00 -0.90698817515E+03  0.90698817516E+03  0.25500000920E-02 0. -1.
    10030    2    1    2    0    0  0.00000000000E+00  0.00000000000E+00  0.55521389703E+03  0.23691902473E+04  0.23032151347E+04 0.  0.
        3    1    3    3  502    0 -0.88118731054E+03  0.48101948678E+03  0.85797519029E+03  0.13206029912E+04  0.10100000352E+00 0.  1.
       -3    1    3    3    0  502  0.88118731054E+03 -0.48101948678E+03 -0.30276129326E+03  0.10485872562E+04  0.10100000352E+00 0. -1.
</event>
<event>
 5   0  0.2910126E-05  0.2309522E+04  0.7818609E-02  0.8474176E-01
        2   -1    0    0  501    0  0.00000000000E+00  0.00000000000E+00  0.97053063295E+03  0.97053063295E+03  0.25500000920E-02 0.  1.
       -2   -1    0    0    0  501  0.00000000000E+00  0.00000000000E+00 -0.13739626693E+04  0.13739626693E+04  0.25500000920E-02 0. -1.
    10030    2    1    2    0    0  0.00000000000E+00  0.00000000000E+00 -0.40343203638E+03  0.23444933023E+04  0.23095219065E+04 0.  0.
        5    1    3    3  502    0  0.57936095901E+03 -0.67686952551E+03  0.54400896495E+03  0.10439249587E+04  0.46999998093E+01 0.  1.
       -5    1    3    3    0  502 -0.57936095901E+03  0.67686952551E+03 -0.94744100134E+03  0.13005683436E+04  0.46999998093E+01 0. -1.
</event>
<event>
 5   0  0.1284837E-05  0.2262352E+04  0.7818609E-02  0.8492915E-01
       -1   -1    0    0    0  501  0.00000000000E+00  0.00000000000E+00  0.85610690803E+03  0.85610690804E+03  0.50400001928E-02 0.  1.
        1   -1    0    0  501    0  0.00000000000E+00  0.00000000000E+00 -0.14946249423E+04  0.14946249423E+04  0.50400001928E-02 0. -1.
    10030    2    1    2    0    0  0.00000000000E+00  0.00000000000E+00 -0.63851803425E+03  0.23507318503E+04  0.22623516420E+04 0.  0.
        4    1    3    3  502    0  0.84441887000E+03  0.15400826622E+03 -0.10847869503E+04  0.13833026114E+04  0.12699999809E+01 0. -1.
       -4    1    3    3    0  502 -0.84441887000E+03 -0.15400826622E+03  0.44626891608E+03  0.96742923898E+03  0.12699999809E+01 0.  1.
</event>
<event>
 5   0  0.1371753E-05  0.2331440E+04  0.7818609E-02  0.8465627E-01
        1   -1    0    0  501    0  0.00000000000E+00  0.00000000000E+00  0.14073490709E+04  0.14073490709E+04  0.50400001928E-02 0.  1.
       -1   -1    0    0    0  501  0.00000000000E+00  0.00000000000E+00 -0.96557656591E+03  0.96557656593E+03  0.50400001928E-02 0. -1.
    10030    2    1    2    0    0  0.00000000000E+00  0.00000000000E+00  0.44177250498E+03  0.23729256368E+04  0.23314401411E+04 0.  0.
        3    1    3    3  502    0  0.54174542167E+03  0.88045277036E+03 -0.32741861166E+03  0.10843837606E+04  0.10100000352E+00 0. -1.
       -3    1    3    3    0  502 -0.54174542167E+03 -0.88045277036E+03  0.76919111664E+03  0.12885418762E+04  0.10100000352E+00 0.  1.
</event>
<event>
 5   0  0.1308224E-05  0.2308659E+04  0.7818609E-02  0.8474515E-01
       -1   -1    0    0    0  501  0.00000000000E+00  0.00000000000E+00  0.10568334833E+04  0.10568334833E+04  0.50400001928E-02 0.  1.
        1   -1    0    0  501    0  0.00000000000E+00  0.00000000000E+00 -0.12608203066E+04  0.12608203066E+04  0.50400001928E-02 0. -1.
    10030    2    1    2    0    0  0.00000000000E+00  0.00000000000E+00 -0.20398682329E+03  0.23176537899E+04  0.23086594521E+04 0.  0.
        5    1    3    3  502    0  0.14339393078E+03  0.89943743859E+03 -0.81391453581E+03  0.12214861796E+04  0.46999998093E+01 0. -1.
       -5    1    3    3    0  502 -0.14339393078E+03 -0.89943743859E+03  0.60992771253E+03  0.10961676103E+04  0.46999998093E+01 0.  1.
</event>
<event>
 5   0  0.2994157E-05  0.2298399E+04  0.7818609E-02  0.8478553E-01
       -2   -1    0    0    0  501  0.00000000000E+00  0.00000000000E+00  0.73345713386E+03  0.73345713386E+03  0.25500000920E-02 0.  1.
        2   -1    0    0  501    0  0.00000000000E+00  0.00000000000E+00 -0.18005950742E+04  0.18005950742E+04  0.25500000920E-02 0. -1.
    10030    2    1    2    0    0  0.00000000000E+00  0.00000000000E+00 -0.10671379403E+04  0.25340522081E+04  0.22983988360E+04 0.  0.
        4    1    3    3  502    0 -0.48509644948E+03 -0.97408896266E+03 -0.94089324305E+03  0.14385581602E+04  0.12699999809E+01 0. -1.
       -4    1    3    3    0  502  0.48509644948E+03  0.97408896266E+03 -0.12624469729E+03  0.10954940479E+04  0.12699999809E+01 0.  1.
</event>
<event>
 5   0  0.2816178E-05  0.2300121E+04  0.7818609E-02  0.8477873E-01
       -2   -1    0    0    0  501  0.00000000000E+00  0.00000000000E+00  0.70882082583E+03  0.70882082583E+03  0.25500000920E-02 0.  1.
        2   -1    0    0  501    0  0.00000000000E+00  0.00000000000E+00 -0.18659714178E+04  0.18659714178E+04  0.25500000920E-02 0. -1.
    10030    2    1    2    0    0  0.00000000000E+00  0.00000000000E+00 -0.11571505920E+04  0.25747922436E+04  0.23001212154E+04 0.  0.
        1    1    3    3  502    0  0.55333580299E+03  0.96154378909E+03 -0.23923819794E+03  0.11348928956E+04  0.50400001928E-02 0.  1.
       -1    1    3    3    0  502 -0.55333580299E+03 -0.96154378909E+03 -0.91791239403E+03  0.14398993480E+04  0.50400001928E-02 0. -1.
</event>
<event>
 5   0  0.2910126E-05  0.2298081E+04  0.7818609E-02  0.8478678E-01
       -2   -1    0    0    0  501  0.00000000000E+00  0.00000000000E+00  0.15224208863E+04  0.15224208863E+04  0.25500000920E-02 0.  1.
        2   -1    0    0  501    0  0.00000000000E+00  0.00000000000E+00 -0.86723328486E+03  0.86723328486E+03  0.25500000920E-02 0. -1.
    10030    2    1    2    0    0  0.00000000000E+00  0.00000000000E+00  0.65518760148E+03  0.23896541712E+04  0.22980809961E+04 0.  0.
        5    1    3    3  502    0 -0.39863917628E+03 -0.10723709498E+04  0.21666915338E+03  0.11644141269E+04  0.46999998093E+01 0.  1.
       -5    1    3    3    0  502  0.39863917628E+03  0.10723709498E+04  0.43851844809E+03  0.12252400443E+04  0.46999998093E+01 0. -1.
</event>
<event>
 5   0  0.2994157E-05  0.2334358E+04  0.7818609E-02  0.8464496E-01
        2   -1    0    0  501    0  0.00000000000E+00  0.00000000000E+00  0.11672280232E+04  0.11672280232E+04  0.25500000920E-02 0. -1.
       -2   -1    0    0    0  501  0.00000000000E+00  0.00000000000E+00 -0.11671295380E+04  0.11671295380E+04  0.25500000920E-02 0.  1.
    10030    2    1    2    0    0  0.00000000000E+00  0.00000000000E+00  0.98485151183E-01  0.23343575612E+04  0.23343575591E+04 0.  0.
        4    1    3    3  502    0  0.97623670673E+02 -0.11609906213E+04 -0.69772578272E+02  0.11671758349E+04  0.12699999809E+01 0. -1.
       -4    1    3    3    0  502 -0.97623670673E+02  0.11609906213E+04  0.69871063423E+02  0.11671817263E+04  0.12699999809E+01 0.  1.
</event>
<event>
 5   0  0.2938972E-05  0.2269581E+04  0.7818609E-02  0.8490013E-01
       -2   -1    0    0    0  501  0.00000000000E+00  0.00000000000E+00  0.83020196668E+03  0.83020196668E+03  0.25500000920E-02 0. -1.
        2   -1    0    0  501    0  0.00000000000E+00  0.00000000000E+00 -0.15511273143E+04  0.15511273143E+04  0.25500000920E-02 0.  1.
    10030    2    1    2    0    0  0.00000000000E+00  0.00000000000E+00 -0.72092534758E+03  0.23813292809E+04  0.22695805312E+04 0.  0.
        2    1    3    3  502    0 -0.27493542671E+03  0.48009310072E+01 -0.15156425188E+04  0.15403846216E+04  0.25500000920E-02 0.  1.
       -2    1    3    3    0  502  0.27493542671E+03 -0.48009310072E+01  0.79471717121E+03  0.84094465931E+03  0.25500000920E-02 0. -1.
</event>
<event>
 5   0  0.2910126E-05  0.2304124E+04  0.7818609E-02  0.8476297E-01
       -2   -1    0    0    0  501  0.00000000000E+00  0.00000000000E+00  0.90877456346E+03  0.90877456347E+03  0.25500000920E-02 0. -1.
        2   -1    0    0  501    0  0.00000000000E+00  0.00000000000E+00 -0.14604799292E+04  0.14604799292E+04  0.25500000920E-02 0.  1.
    10030    2    1    2    0    0  0.00000000000E+00  0.00000000000E+00 -0.55170536576E+03  0.23692544927E+04  0.23041241374E+04 0.  0.
        5    1    3    3  502    0 -0.11897555695E+03 -0.10624520983E+04 -0.71724786671E+03  0.12874106713E+04  0.46999998093E+01 0.  1.
       -5    1    3    3    0  502  0.11897555695E+03  0.10624520983E+04  0.16554250095E+03  0.10818438214E+04  0.46999998093E+01 0. -1.
</event>
<event>
 5   0  0.2910126E-05  0.2308662E+04  0.7818609E-02  0.8474514E-01
       -2   -1    0    0    0  501  0.00000000000E+00  0.00000000000E+00  0.10134639394E+04  0.10134639394E+04  0.25500000920E-02 0.  1.
        2   -1    0    0  501    0  0.00000000000E+00  0.00000000000E+00 -0.13147775331E+04  0.13147775331E+04  0.25500000920E-02 0. -1.
    10030    2    1    2    0    0  0.00000000000E+00  0.00000000000E+00 -0.30131359372E+03  0.23282414726E+04  0.23086616194E+04 0.  0.
        5    1    3    3  502    0 -0.56936436920E+02 -0.74977046507E+03  0.73259069265E+03  0.10498136602E+04  0.46999998093E+01 0.  1.
       -5    1    3    3    0  502  0.56936436920E+02  0.74977046507E+03 -0.10339042864E+04  0.12784278124E+04  0.46999998093E+01 0. -1.
</event>
<event>
 5   0  0.1303224E-05  0.2279734E+04  0.7818609E-02  0.8485955E-01
        1   -1    0    0  501    0  0.00000000000E+00  0.00000000000E+00  0.11806728311E+04  0.11806728311E+04  0.50400001928E-02 0. -1.
       -1   -1    0    0    0  501  0.00000000000E+00  0.00000000000E+00 -0.11004715633E+04  0.11004715633E+04  0.50400001928E-02 0.  1.
    10030    2    1    2    0    0  0.00000000000E+00  0.00000000000E+00  0.80201267784E+02  0.22811443945E+04  0.22797340865E+04 0.  0.
        2    1    3    3  502    0  0.15113051781E+03 -0.29721894168E+02  0.11702120227E+04  0.11803050464E+04  0.25500000920E-02 0. -1.
       -2    1    3    3    0  502 -0.15113051781E+03  0.29721894168E+02 -0.10900107549E+04  0.11008393481E+04  0.25500000920E-02 0.  1.
</event>
<event>
 5   0  0.1303224E-05  0.2294262E+04  0.7818609E-02  0.8480187E-01
        1   -1    0    0  501    0  0.00000000000E+00  0.00000000000E+00  0.57591057935E+03  0.57591057937E+03  0.50400001928E-02 0. -1.
       -1   -1    0    0    0  501  0.00000000000E+00  0.00000000000E+00 -0.22849207891E+04  0.22849207891E+04  0.50400001928E-02 0.  1.
    10030    2    1    2    0    0  0.00000000000E+00  0.00000000000E+00 -0.17090102098E+04  0.28608313685E+04  0.22942624571E+04 0.  0.
        2    1    3    3  502    0 -0.46905511658E+01 -0.16753541602E+03 -0.22695712248E+04  0.22757512301E+04  0.25500000920E-02 0.  1.
       -2    1    3    3    0  502  0.46905511658E+01  0.16753541602E+03  0.56056101497E+03  0.58508013845E+03  0.25500000920E-02 0. -1.
</event>
<event>
 5   0  0.1017200E-05  0.2314961E+04  0.7818609E-02  0.8472045E-01
       -4   -1    0    0    0  501  0.00000000000E+00  0.00000000000E+00  0.17365940001E+04  0.17365944645E+04  0.12699999809E+01 0. -1.
        4   -1    0    0  501    0  0.00000000000E+00  0.00000000000E+00 -0.77148675611E+03  0.77148780143E+03  0.12699999809E+01 0.  1.
    10030    2    1    2    0    0  0.00000000000E+00  0.00000000000E+00  0.96510724397E+03  0.25080822659E+04  0.23149610494E+04 0.  0.
        5    1    3    3  502    0 -0.50419362688E+03  0.68123601171E+02 -0.64383497018E+03  0.82060806554E+03  0.46999998093E+01 0.  1.
       -5    1    3    3    0  502  0.50419362688E+03 -0.68123601171E+02  0.16089422141E+04  0.16874742004E+04  0.46999998093E+01 0. -1.
</event>
<event>
 5   0  0.1308224E-05  0.2307124E+04  0.7818609E-02  0.8475117E-01
        1   -1    0    0  501    0  0.00000000000E+00  0.00000000000E+00  0.15727175795E+04  0.15727175795E+04  0.50400001928E-02 0.  1.
       -1   -1    0    0    0  501  0.00000000000E+00  0.00000000000E+00 -0.84611850273E+03  0.84611850274E+03  0.50400001928E-02 0. -1.
    10030    2    1    2    0    0  0.00000000000E+00  0.00000000000E+00  0.72659907674E+03  0.24188360822E+04  0.23071241350E+04 0.  0.
        5    1    3    3  502    0  0.35588218035E+03 -0.10153957664E+04  0.79937522420E+03  0.13404117008E+04  0.46999998093E+01 0.  1.
       -5    1    3    3    0  502 -0.35588218035E+03  0.10153957664E+04 -0.72776147455E+02  0.10784243814E+04  0.46999998093E+01 0. -1.
</event>
<event>
 5   0  0.2871888E-05  0.2318028E+04  0.7818609E-02  0.8470847E-01
       -2   -1    0    0    0  501  0.00000000000E+00  0.00000000000E+00  0.10451043437E+04  0.10451043437E+04  0.25500000920E-02 0. -1.
        2   -1    0    0  501    0  0.00000000000E+00  0.00000000000E+00 -0.12853386768E+04  0.12853386768E+04  0.25500000920E-02 0.  1.
    10030    2    1    2    0    0  0.00000000000E+00  0.00000000000E+00 -0.24023433303E+03  0.23304430205E+04  0.23180276394E+04 0.  0.
        3    1    3    3  502    0 -0.78935575085E+03  0.82123090834E+03 -0.33529698219E+03  0.11874033783E+04  0.10100000352E+00 0.  1.
       -3    1    3    3    0  502  0.78935575085E+03 -0.82123090834E+03  0.95062649156E+02  0.11430396422E+04  0.10100000352E+00 0. -1.
</event>
<event>
 5   0  0.1327820E-05  0.2289714E+04  0.7818609E-02  0.8481988E-01
       -1   -1    0    0    0  501  0.00000000000E+00  0.00000000000E+00  0.11877931312E+04  0.11877931312E+04  0.50400001928E-02 0.  1.
        1   -1    0    0  501    0  0.00000000000E+00  0.00000000000E+00 -0.11034726099E+04  0.11034726099E+04  0.50400001928E-02 0. -1.
    10030    2    1    2    0    0  0.00000000000E+00  0.00000000000E+00  0.84320521270E+02  0.22912657411E+04  0.22897136821E+04 0.  0.
        1    1    3    3  502    0 -0.25669113250E+02 -0.71971851957E+03 -0.84841127315E+03  0.11128590833E+04  0.50400001928E-02 0. -1.
       -1    1    3    3    0  502  0.25669113250E+02  0.71971851957E+03  0.93273179442E+03  0.11784066578E+04  0.50400001928E-02 0.  1.
</event>
<event>
 5   0  0.1303224E-05  0.2292099E+04  0.7818609E-02  0.8481043E-01
        1   -1    0    0  501    0  0.00000000000E+00  0.00000000000E+00  0.98616266676E+03  0.98616266677E+03  0.50400001928E-02 0.  1.
       -1   -1    0    0    0  501  0.00000000000E+00  0.00000000000E+00 -0.13318591942E+04  0.13318591942E+04  0.50400001928E-02 0. -1.
    10030    2    1    2    0    0  0.00000000000E+00  0.00000000000E+00 -0.34569652748E+03  0.23180218610E+04  0.22920993126E+04 0.  0.
        2    1    3    3  502    0  0.83658280061E+03 -0.73746534892E+03 -0.43984909249E+03  0.11988299076E+04  0.25500000920E-02 0. -1.
       -2    1    3    3    0  502 -0.83658280061E+03  0.73746534892E+03  0.94152565012E+02  0.11191919534E+04  0.25500000920E-02 0.  1.
</event>
<event>
 5   0  0.1308224E-05  0.2303828E+04  0.7818609E-02  0.8476413E-01
       -1   -1    0    0    0  501  0.00000000000E+00  0.00000000000E+00  0.85784898596E+03  0.85784898597E+03  0.50400001928E-02 0.  1.
        1   -1    0    0  501    0  0.00000000000E+00  0.00000000000E+00 -0.15467825265E+04  0.15467825265E+04  0.50400001928E-02 0. -1.
    10030    2    1    2    0    0  0.00000000000E+00  0.00000000000E+00 -0.68893354055E+03  0.24046315125E+04  0.23038279640E+04 0.  0.
        5    1    3    3  502    0  0.81130496634E+03  0.44052430501E+03 -0.10635269639E+04  0.14083284790E+04  0.46999998093E+01 0. -1.
       -5    1    3    3    0  502 -0.81130496634E+03 -0.44052430501E+03  0.37459342339E+03  0.99630303350E+03  0.46999998093E+01 0.  1.
</event>
<event>
 5   0  0.2938972E-05  0.2274887E+04  0.7818609E-02  0.8487889E-01
       -2   -1    0    0    0  501  0.00000000000E+00  0.00000000000E+00  0.68467740007E+03  0.68467740008E+03  0.25500000920E-02 0. -1.
        2   -1    0    0  501    0  0.00000000000E+00  0.00000000000E+00 -0.18896169345E+04  0.18896169345E+04  0.25500000920E-02 0.  1.
    10030    2    1    2    0    0  0.00000000000E+00  0.00000000000E+00 -0.12049395344E+04  0.25742943345E+04  0.22748872586E+04 0.  0.
        2    1    3    3  502    0  0.18186648676E+03 -0.88216982072E+03 -0.13884968852E+04  0.16550597004E+04  0.25500000920E-02 0.  1.
       -2    1    3    3    0  502 -0.18186648676E+03  0.88216982072E+03  0.18355735081E+03  0.91923463416E+03  0.25500000920E-02 0. -1.
</event>
<event>
 5   0  0.2994157E-05  0.2288591E+04  0.7818609E-02  0.8482433E-01
       -2   -1    0    0    0  501  0.00000000000E+00  0.00000000000E+00  0.11930334169E+04  0.11930334169E+04  0.25500000920E-02 0.  1.
        2   -1    0    0  501    0  0.00000000000E+00  0.00000000000E+00 -0.10975485429E+04  0.10975485429E+04  0.25500000920E-02 0. -1.
    10030    2    1    2    0    0  0.00000000000E+00  0.00000000000E+00  0.95484873979E+02  0.22905819598E+04  0.22885909100E+04 0.  0.
        4    1    3    3  502    0  0.78657921581E+02 -0.31663890171E+03 -0.10500085610E+04  0.10995302878E+04  0.12699999809E+01 0. -1.
       -4    1    3    3    0  502 -0.78657921581E+02  0.31663890171E+03  0.11454934350E+04  0.11910516720E+04  0.12699999809E+01 0.  1.
</event>
<event>
 5   0  0.1371753E-05  0.2294563E+04  0.7818609E-02  0.8480068E-01
       -1   -1    0    0    0  501  0.00000000000E+00  0.00000000000E+00  0.98373632820E+03  0.98373632821E+03  0.50400001928E-02 0.  1.
        1   -1    0    0  501    0  0.00000000000E+00  0.00000000000E+00 -0.13380161737E+04  0.13380161737E+04  0.50400001928E-02 0. -1.
    10030    2    1    2    0    0  0.00000000000E+00  0.00000000000E+00 -0.35427984545E+03  0.23217525019E+04  0.22945632419E+04 0.  0.
        3    1    3    3  502    0 -0.85923626073E+03 -0.59439203690E+01 -0.94636701428E+03  0.12782538159E+04  0.10100000352E+00 0. -1.
       -3    1    3    3    0  502  0.85923626073E+03  0.59439203690E+01  0.59208716883E+03  0.10434986860E+04  0.10100000352E+00 0.  1.
</event>
<event>
 5   0  0.2938972E-05  0.2303994E+04  0.7818609E-02  0.8476348E-01
        2   -1    0    0  501    0  0.00000000000E+00  0.00000000000E+00  0.18101688108E+04  0.18101688108E+04  0.25500000920E-02 0. -1.
       -2   -1    0    0    0  501  0.00000000000E+00  0.00000000000E+00 -0.73313416063E+03  0.73313416063E+03  0.25500000920E-02 0.  1.
    10030    2    1    2    0    0  0.00000000000E+00  0.00000000000E+00  0.10770346502E+04  0.25433029715E+04  0.23039935692E+04 0.  0.
        2    1    3    3  502    0  0.45371142639E+02 -0.10849408978E+04  0.11393535241E+03  0.10918500615E+04  0.25500000920E-02 0.  1.
       -2    1    3    3    0  502 -0.45371142639E+02  0.10849408978E+04  0.96309929777E+03  0.14514529099E+04  0.25500000920E-02 0. -1.
</event>
<event>
 5   0  0.1308224E-05  0.2306109E+04  0.7818609E-02  0.8475516E-01
       -1   -1    0    0    0  501  0.00000000000E+00  0.00000000000E+00  0.12856929725E+04  0.12856929725E+04  0.50400001928E-02 0.  1.
        1   -1    0    0  501    0  0.00000000000E+00  0.00000000000E+00 -0.10340994242E+04  0.10340994242E+04  0.50400001928E-02 0. -1.
    10030    2    1    2    0    0  0.00000000000E+00  0.00000000000E+00  0.25159354827E+03  0.23197923968E+04  0.23061087248E+04 0.  0.
        5    1    3    3  502    0 -0.69081994561E+03 -0.24292997131E+03 -0.77014238092E+03  0.10627269382E+04  0.46999998093E+01 0. -1.
       -5    1    3    3    0  502  0.69081994561E+03  0.24292997131E+03  0.10217359292E+04  0.12570654586E+04  0.46999998093E+01 0.  1.
</event>
<event>
 5   0  0.1284837E-05  0.2228972E+04  0.7818609E-02  0.8506465E-01
        1   -1    0    0  501    0  0.00000000000E+00  0.00000000000E+00  0.12236101240E+04  0.12236101240E+04  0.50400001928E-02 0.  1.
       -1   -1    0    0    0  501  0.00000000000E+00  0.00000000000E+00 -0.10150939690E+04  0.10150939690E+04  0.50400001928E-02 0. -1.
    10030    2    1    2    0    0  0.00000000000E+00  0.00000000000E+00  0.20851615501E+03  0.22387040931E+04  0.22289721913E+04 0.  0.
        4    1    3    3  502    0  0.23957581998E+03  0.56030982195E+03  0.10414634902E+04  0.12066447217E+04  0.12699999809E+01 0.  1.
       -4    1    3    3    0  502 -0.23957581998E+03 -0.56030982195E+03 -0.83294733514E+03  0.10320593714E+04  0.12699999809E+01 0. -1.
</event>
<event>
 5   0  0.1303224E-05  0.2302015E+04  0.7818609E-02  0.8477127E-01
       -1   -1    0    0    0  501  0.00000000000E+00  0.00000000000E+00  0.99374949616E+03  0.99374949617E+03  0.50400001928E-02 0. -1.
        1   -1    0    0  501    0  0.00000000000E+00  0.00000000000E+00 -0.13331515466E+04  0.13331515466E+04  0.50400001928E-02 0.  1.
    10030    2    1    2    0    0  0.00000000000E+00  0.00000000000E+00 -0.33940205040E+03  0.23269010427E+04  0.23020153585E+04 0.  0.
        2    1    3    3  502    0 -0.41877331050E+03 -0.10651722845E+04 -0.46499880087E+02  0.11454803883E+04  0.25500000920E-02 0. -1.
       -2    1    3    3    0  502  0.41877331050E+03  0.10651722845E+04 -0.29290217032E+03  0.11814206544E+04  0.25500000920E-02 0.  1.
</event>
<event>
 5   0  0.1308224E-05  0.2281493E+04  0.7818609E-02  0.8485254E-01
        1   -1    0    0  501    0  0.00000000000E+00  0.00000000000E+00  0.16821438969E+04  0.16821438969E+04  0.50400001928E-02 0. -1.
       -1   -1    0    0    0  501  0.00000000000E+00  0.00000000000E+00 -0.77359773925E+03  0.77359773926E+03  0.50400001928E-02 0.  1.
    10030    2    1    2    0    0  0.00000000000E+00  0.00000000000E+00  0.90854615766E+03  0.24557416362E+04  0.22814931214E+04 0.  0.
        5    1    3    3  502    0  0.90007460800E+03 -0.75079077998E+02 -0.29572880995E+03  0.95039401668E+03  0.46999998093E+01 0.  1.
       -5    1    3    3    0  502 -0.90007460800E+03  0.75079077998E+02  0.12042749676E+04  0.15053476195E+04  0.46999998093E+01 0. -1.
</event>
<event>
 5   0  0.1327820E-05  0.2304162E+04  0.7818609E-02  0.8476282E-01
        1   -1    0    0  501    0  0.00000000000E+00  0.00000000000E+00  0.14251629435E+04  0.14251629435E+04  0.50400001928E-02 0.  1.
       -1   -1    0    0    0  501  0.00000000000E+00  0.00000000000E+00 -0.93132512761E+03  0.93132512762E+03  0.50400001928E-02 0. -1.
    10030    2    1    2    0    0  0.00000000000E+00  0.00000000000E+00  0.49383781590E+03  0.23564880711E+04  0.23041615050E+04 0.  0.
        1    1    3    3  502    0  0.55825350314E+03 -0.47141684296E+03  0.11578823691E+04  0.13691502453E+04  0.50400001928E-02 0.  1.
       -1    1    3    3    0  502 -0.55825350314E+03  0.47141684296E+03 -0.66404455321E+03  0.98733782580E+03  0.50400001928E-02 0. -1.
</event>
<event>
 5   0  0.2871888E-05  0.2295340E+04  0.7818609E-02  0.8479761E-01
        2   -1    0    0  501    0  0.00000000000E+00  0.00000000000E+00  0.19232522914E+04  0.19232522914E+04  0.25500000920E-02 0.  1.
       -2   -1    0    0    0  501  0.00000000000E+00  0.00000000000E+00 -0.68485359418E+03  0.68485359418E+03  0.25500000920E-02 0. -1.
    10030    2    1    2    0    0  0.00000000000E+00  0.00000000000E+00  0.12383986972E+04  0.26081058856E+04  0.22953398391E+04 0.  0.
        3    1    3    3  502    0 -0.73152583977E+03 -0.22728093585E+03 -0.35186180867E+03  0.84296703415E+03  0.10100000352E+00 0. -1.
       -3    1    3    3    0  502  0.73152583977E+03  0.22728093585E+03  0.15902605059E+04  0.17651388514E+04  0.10100000352E+00 0.  1.
</event>
<event>
 5   0  0.2871888E-05  0.2081335E+04  0.7818609E-02  0.8569510E-01
       -2   -1    0    0    0  501  0.00000000000E+00  0.00000000000E+00  0.98071110658E+03  0.98071110658E+03  0.25500000920E-02 0. -1.
        2   -1    0    0  501    0  0.00000000000E+00  0.00000000000E+00 -0.11042896793E+04  0.11042896793E+04  0.25500000920E-02 0.  1.
    10030    2    1    2    0    0  0.00000000000E+00  0.00000000000E+00 -0.12357857272E+03  0.20850007859E+04  0.20813352958E+04 0.  0.
        3    1    3    3  502    0 -0.12058482718E+03 -0.10336548021E+04 -0.59296382667E+02  0.10423526379E+04  0.10100000352E+00 0.  1.
       -3    1    3    3    0  502  0.12058482718E+03  0.10336548021E+04 -0.64282190056E+02  0.10426481480E+04  0.10100000352E+00 0. -1.
</event>
<event>
 5   0  0.1308224E-05  0.2305880E+04  0.7818609E-02  0.8475606E-01
        1   -1    0    0  501    0  0.00000000000E+00  0.00000000000E+00  0.14910924126E+04  0.14910924126E+04  0.50400001928E-02 0. -1.
       -1   -1    0    0    0  501  0.00000000000E+00  0.00000000000E+00 -0.89147404146E+03  0.89147404148E+03  0.50400001928E-02 0.  1.
    10030    2    1    2    0    0  0.00000000000E+00  0.00000000000E+00  0.59961837110E+03  0.23825664540E+04  0.23058795972E+04 0.  0.
        5    1    3    3  502    0  0.33830448339E+03 -0.90365153106E+03  0.95183622956E+03  0.13553782907E+04  0.46999998093E+01 0. -1.
       -5    1    3    3    0  502 -0.33830448339E+03  0.90365153106E+03 -0.35221785846E+03  0.10271881633E+04  0.46999998093E+01 0.  1.
</event>
<event>
 5   0  0.1371753E-05  0.2298280E+04  0.7818609E-02  0.8478599E-01
       -1   -1    0    0    0  501  0.00000000000E+00  0.00000000000E+00  0.75406762956E+03  0.75406762958E+03  0.50400001928E-02 0.  1.
        1   -1    0    0  501    0  0.00000000000E+00  0.00000000000E+00 -0.17511997286E+04  0.17511997286E+04  0.50400001928E-02 0. -1.
    10030    2    1    2    0    0  0.00000000000E+00  0.00000000000E+00 -0.99713209905E+03  0.25052673582E+04  0.22982802512E+04 0.  0.
        3    1    3    3  502    0  0.16655563897E+03  0.89333179678E+03  0.26815933710E+03  0.94746605231E+03  0.10100000352E+00 0.  1.
       -3    1    3    3    0  502 -0.16655563897E+03 -0.89333179678E+03 -0.12652914361E+04  0.15578013059E+04  0.10100000352E+00 0. -1.
</event>
<event>
 5   0  0.1371753E-05  0.2295075E+04  0.7818609E-02  0.8479865E-01
        1   -1    0    0  501    0  0.00000000000E+00  0.00000000000E+00  0.17523925379E+04  0.17523925379E+04  0.50400001928E-02 0. -1.
       -1   -1    0    0    0  501  0.00000000000E+00  0.00000000000E+00 -0.75145421982E+03  0.75145421984E+03  0.50400001928E-02 0.  1.
    10030    2    1    2    0    0  0.00000000000E+00  0.00000000000E+00  0.10009383180E+04  0.25038467577E+04  0.22950753952E+04 0.  0.
        3    1    3    3  502    0 -0.10792751488E+03 -0.39174023272E+03  0.16712803959E+04  0.17199671306E+04  0.10100000352E+00 0. -1.
       -3    1    3    3    0  502  0.10792751488E+03  0.39174023272E+03 -0.67034207781E+03  0.78387962717E+03  0.10100000352E+00 0.  1.
</event>
<event>
 5   0  0.2938972E-05  0.2279933E+04  0.7818609E-02  0.8485876E-01
        2   -1    0    0  501    0  0.00000000000E+00  0.00000000000E+00  0.16722173854E+04  0.16722173854E+04  0.25500000920E-02 0.  1.
       -2   -1    0    0    0  501  0.00000000000E+00  0.00000000000E+00 -0.77712590615E+03  0.77712590616E+03  0.25500000920E-02 0. -1.
    10030    2    1    2    0    0  0.00000000000E+00  0.00000000000E+00  0.89509147924E+03  0.24493432916E+04  0.22799328507E+04 0.  0.
        2    1    3    3  502    0 -0.48903612317E+03  0.10114263348E+04  0.23982978767E+03  0.11487636343E+04  0.25500000920E-02 0. -1.
       -2    1    3    3    0  502  0.48903612317E+03 -0.10114263348E+04  0.65526169157E+03  0.13005796573E+04  0.25500000920E-02 0.  1.
</event>
<event>
 5   0  0.2938972E-05  0.2054466E+04  0.7818609E-02  0.8581571E-01
       -2   -1    0    0    0  501  0.00000000000E+00  0.00000000000E+00  0.52553792509E+03  0.52553792509E+03  0.25500000920E-02 0.  1.
        2   -1    0    0  501    0  0.00000000000E+00  0.00000000000E+00 -0.20078618607E+04  0.20078618607E+04  0.25500000920E-02 0. -1.
    10030    2    1    2    0    0  0.00000000000E+00  0.00000000000E+00 -0.14823239356E+04  0.25333997858E+04  0.20544659220E+04 0.  0.
        2    1    3    3  502    0  0.92602925959E+03  0.36663908633E+03 -0.10512934510E+04  0.14481617069E+04  0.25500000920E-02 0. -1.
       -2    1    3    3    0  502 -0.92602925959E+03 -0.36663908633E+03 -0.43103048469E+03  0.10852380789E+04  0.25500000920E-02 0.  1.
</event>
<event>
 5   0  0.1284837E-05  0.2297315E+04  0.7818609E-02  0.8478980E-01
        1   -1    0    0  501    0  0.00000000000E+00  0.00000000000E+00  0.21253297314E+04  0.21253297314E+04  0.50400001928E-02 0.  1.
       -1   -1    0    0    0  501  0.00000000000E+00  0.00000000000E+00 -0.62080455407E+03  0.62080455409E+03  0.50400001928E-02 0. -1.
    10030    2    1    2    0    0  0.00000000000E+00  0.00000000000E+00  0.15045251773E+04  0.27461342854E+04  0.22973152819E+04 0.  0.
        4    1    3    3  502    0  0.89335744077E+02 -0.97991756529E+03  0.43869403511E+02  0.98495961714E+03  0.12699999809E+01 0. -1.
       -4    1    3    3    0  502 -0.89335744077E+02  0.97991756529E+03  0.14606557738E+04  0.17611746683E+04  0.12699999809E+01 0.  1.
</event>
<event>
 5   0  0.2816178E-05  0.2290635E+04  0.7818609E-02  0.8481623E-01
        2   -1    0    0  501    0  0.00000000000E+00  0.00000000000E+00  0.20482718155E+04  0.20482718155E+04  0.25500000920E-02 0.  1.
       -2   -1    0    0    0  501  0.00000000000E+00  0.00000000000E+00 -0.64041902411E+03  0.64041902411E+03  0.25500000920E-02 0. -1.
    10030    2    1    2    0    0  0.00000000000E+00  0.00000000000E+00  0.14078527914E+04  0.26886908396E+04  0.22906350536E+04 0.  0.
        1    1    3    3  502    0  0.52037531763E+03  0.71238115850E+03 -0.15339160102E+03  0.89543641286E+03  0.50400001928E-02 0. -1.
       -1    1    3    3    0  502 -0.52037531763E+03 -0.71238115850E+03  0.15612443924E+04  0.17932544267E+04  0.50400001928E-02 0.  1.
</event>
<event>
 5   0  0.2910126E-05  0.2303543E+04  0.7818609E-02  0.8476526E-01
       -2   -1    0    0    0  501  0.00000000000E+00  0.00000000000E+00  0.83997503493E+03  0.83997503493E+03  0.25500000920E-02 0.  1.
        2   -1    0    0  501    0  0.00000000000E+00  0.00000000000E+00 -0.15793055898E+04  0.15793055898E+04  0.25500000920E-02 0. -1.
    10030    2    1    2    0    0  0.00000000000E+00  0.00000000000E+00 -0.73933055492E+03  0.24192806248E+04  0.23035427220E+04 0.  0.
        5    1    3    3  502    0  0.40334425218E+03  0.79918118879E+03 -0.11307679497E+04  0.14422327844E+04  0.46999998093E+01 0. -1.
       -5    1    3    3    0  502 -0.40334425218E+03 -0.79918118879E+03  0.39143739482E+03  0.97704784036E+03  0.46999998093E+01 0.  1.
</event>
<event>
 5   0  0.2910126E-05  0.2302099E+04  0.7818609E-02  0.8477094E-01
       -2   -1    0    0    0  501  0.00000000000E+00  0.00000000000E+00  0.11383758163E+04  0.11383758163E+04  0.25500000920E-02 0. -1.
        2   -1    0    0  501    0  0.00000000000E+00  0.00000000000E+00 -0.11638644660E+04  0.11638644660E+04  0.25500000920E-02 0.  1.
    10030    2    1    2    0    0  0.00000000000E+00  0.00000000000E+00 -0.25488649684E+02  0.23022402823E+04  0.23020991825E+04 0.  0.
        5    1    3    3  502    0  0.34180151001E+03 -0.50817529925E+03  0.96190386847E+03  0.11403295792E+04  0.46999998093E+01 0. -1.
       -5    1    3    3    0  502 -0.34180151001E+03  0.50817529925E+03 -0.98739251816E+03  0.11619107031E+04  0.46999998093E+01 0.  1.
</event>
<event>
 5   0  0.2938972E-05  0.2409537E+04  0.7818609E-02  0.8435942E-01
        2   -1    0    0  501    0  0.00000000000E+00  0.00000000000E+00  0.16187993321E+04  0.16187993321E+04  0.25500000920E-02 0. -1.
       -2   -1    0    0    0  501  0.00000000000E+00  0.00000000000E+00 -0.89663155199E+03  0.89663155199E+03  0.25500000920E-02 0.  1.
    10030    2    1    2    0    0  0.00000000000E+00  0.00000000000E+00  0.72216778015E+03  0.25154308841E+04  0.24095365177E+04 0.  0.
        2    1    3    3  502    0  0.11950595358E+04  0.10996067314E+03  0.25056379013E+03  0.12259856674E+04  0.25500000920E-02 0.  1.
       -2    1    3    3    0  502 -0.11950595358E+04 -0.10996067314E+03  0.47160399002E+03  0.12894452168E+04  0.25500000920E-02 0. -1.
</event>
<event>
 5   0  0.1017200E-05  0.2294943E+04  0.7818609E-02  0.8479918E-01
        3   -1    0    0  501    0  0.00000000000E+00  0.00000000000E+00  0.75471916590E+03  0.75471917266E+03  0.10100000352E+00 0.  1.
       -3   -1    0    0    0  501  0.00000000000E+00  0.00000000000E+00 -0.17446109543E+04  0.17446109572E+04  0.10100000352E+00 0. -1.
    10030    2    1    2    0    0  0.00000000000E+00  0.00000000000E+00 -0.98989178839E+03  0.24993301299E+04  0.22949434297E+04 0.  0.
        2    1    3    3  502    0  0.28208323168E+03 -0.63030404230E+03  0.50309697046E+03  0.85437737390E+03  0.25500000920E-02 0.  1.
       -2    1    3    3    0  502 -0.28208323168E+03  0.63030404230E+03 -0.14929887588E+04  0.16449527560E+04  0.25500000920E-02 0. -1.
</event>
<event>
 5   0  0.2871888E-05  0.2290417E+04  0.7818609E-02  0.8481709E-01
        2   -1    0    0  501    0  0.00000000000E+00  0.00000000000E+00  0.11725754086E+04  0.11725754086E+04  0.25500000920E-02 0. -1.
       -2   -1    0    0    0  501  0.00000000000E+00  0.00000000000E+00 -0.11184803602E+04  0.11184803602E+04  0.25500000920E-02 0.  1.
    10030    2    1    2    0    0  0.00000000000E+00  0.00000000000E+00  0.54095048382E+02  0.22910557688E+04  0.22904170497E+04 0.  0.
        3    1    3    3  502    0 -0.79261142631E+02  0.50598473978E+03  0.10516376486E+04  0.11697198980E+04  0.10100000352E+00 0. -1.
       -3    1    3    3    0  502  0.79261142631E+02 -0.50598473978E+03 -0.99754260025E+03  0.11213358708E+04  0.10100000352E+00 0.  1.
</event>
<event>
 5   0  0.1371753E-05  0.2308522E+04  0.7818609E-02  0.8474568E-01
        1   -1    0    0  501    0  0.00000000000E+00  0.00000000000E+00  0.14385396221E+04  0.14385396221E+04  0.50400001928E-02 0.  1.
       -1   -1    0    0    0  501  0.00000000000E+00  0.00000000000E+00 -0.92616080249E+03  0.92616080250E+03  0.50400001928E-02 0. -1.
    10030    2    1    2    0    0  0.00000000000E+00  0.00000000000E+00  0.51237881958E+03  0.23647004246E+04  0.23085224806E+04 0.  0.
        3    1    3    3  502    0 -0.52629336635E+03 -0.10244016657E+04  0.17727225450E+03  0.11652505922E+04  0.10100000352E+00 0. -1.
       -3    1    3    3    0  502  0.52629336635E+03  0.10244016657E+04  0.33510656509E+03  0.11994498324E+04  0.10100000352E+00 0.  1.
</event>
<event>
 5   0  0.2994157E-05  0.2301927E+04  0.7818609E-02  0.8477162E-01
       -2   -1    0    0    0  501  0.00000000000E+00  0.00000000000E+00  0.10971876302E+04  0.10971876302E+04  0.25500000920E-02 0.  1.
        2   -1    0    0  501    0  0.00000000000E+00  0.00000000000E+00 -0.12073749460E+04  0.12073749460E+04  0.25500000920E-02 0. -1.
    10030    2    1    2    0    0  0.00000000000E+00  0.00000000000E+00 -0.11018731574E+03  0.23045625762E+04  0.23019268935E+04 0.  0.
        4    1    3    3  502    0 -0.79178263103E+03  0.32453934823E+03  0.71550821065E+03  0.11154367466E+04  0.12699999809E+01 0.  1.
       -4    1    3    3    0  502  0.79178263103E+03 -0.32453934823E+03 -0.82569552639E+03  0.11891258296E+04  0.12699999809E+01 0. -1.
</event>
<event>
 5   0  0.1303224E-05  0.2343734E+04  0.7818609E-02  0.8460874E-01
       -1   -1    0    0    0  501  0.00000000000E+00  0.00000000000E+00  0.11060846701E+04  0.11060846701E+04  0.50400001928E-02 0.  1.
        1   -1    0    0  501    0  0.00000000000E+00  0.00000000000E+00 -0.12415612432E+04  0.12415612432E+04  0.50400001928E-02 0. -1.
    10030    2    1    2    0    0  0.00000000000E+00  0.00000000000E+00 -0.13547657307E+03  0.23476459134E+04  0.23437336522E+04 0.  0.
        2    1    3    3  502    0 -0.42756288209E+03  0.88190523031E+03 -0.71123184877E+03  0.12109573056E+04  0.25500000920E-02 0. -1.
       -2    1    3    3    0  502  0.42756288209E+03 -0.88190523031E+03  0.57575527570E+03  0.11366886077E+04  0.25500000920E-02 0.  1.
</event>
<event>
 5   0  0.1327820E-05  0.2296745E+04  0.7818609E-02  0.8479206E-01
       -1   -1    0    0    0  501  0.00000000000E+00  0.00000000000E+00  0.14427299404E+04  0.14427299404E+04  0.50400001928E-02 0. -1.
        1   -1    0    0  501    0  0.00000000000E+00  0.00000000000E+00 -0.91407221764E+03  0.91407221765E+03  0.50400001928E-02 0.  1.
    10030    2    1    2    0    0  0.00000000000E+00  0.00000000000E+00  0.52865772278E+03  0.23568021581E+04  0.22967449629E+04 0.  0.
        1    1    3    3  502    0  0.10528727385E+04 -0.31727314284E+03  0.60397653751E+03  0.12545879437E+04  0.50400001928E-02 0. -1.
       -1    1    3    3    0  502 -0.10528727385E+04  0.31727314284E+03 -0.75318814734E+02  0.11022142144E+04  0.50400001928E-02 0.  1.
</event>
<event>
 5   0  0.2910126E-05  0.2291184E+04  0.7818609E-02  0.8481405E-01
       -2   -1    0    0    0  501  0.00000000000E+00  0.00000000000E+00  0.18266237165E+04  0.18266237165E+04  0.25500000920E-02 0.  1.
        2   -1    0    0  501    0  0.00000000000E+00  0.00000000000E+00 -0.71847344863E+03  0.71847344863E+03  0.25500000920E-02 0. -1.
    10030    2    1    2    0    0  0.00000000000E+00  0.00000000000E+00  0.11081502678E+04  0.25450971651E+04  0.22911836600E+04 0.  0.
        5    1    3    3  502    0  0.87407323373E+03 -0.60112681273E+03  0.10344347958E+04  0.14817000033E+04  0.46999998093E+01 0.  1.
       -5    1    3    3    0  502 -0.87407323373E+03  0.60112681273E+03  0.73715471983E+02  0.10633971618E+04  0.46999998093E+01 0. -1.
</event>
<event>
 5   0  0.1308224E-05  0.2247034E+04  0.7818609E-02  0.8499103E-01
       -1   -1    0    0    0  501  0.00000000000E+00  0.00000000000E+00  0.11518148672E+04  0.11518148672E+04  0.50400001928E-02 0.  1.
        1   -1    0    0  501    0  0.00000000000E+00  0.00000000000E+00 -0.10959140162E+04  0.10959140162E+04  0.50400001928E-02 0. -1.
    10030    2    1    2    0    0  0.00000000000E+00  0.00000000000E+00  0.55900850945E+02  0.22477288834E+04  0.22470336509E+04 0.  0.
        5    1    3    3  502    0 -0.59307884947E+03 -0.89104456435E+03  0.36947227150E+03  0.11323580647E+04  0.46999998093E+01 0. -1.
       -5    1    3    3    0  502  0.59307884947E+03  0.89104456435E+03 -0.31357142055E+03  0.11153708187E+04  0.46999998093E+01 0.  1.
</event>
<event>
 5   0  0.2871888E-05  0.2268847E+04  0.7818609E-02  0.8490307E-01
       -2   -1    0    0    0  501  0.00000000000E+00  0.00000000000E+00  0.93898623456E+03  0.93898623456E+03  0.25500000920E-02 0. -1.
        2   -1    0    0  501    0  0.00000000000E+00  0.00000000000E+00 -0.13705379037E+04  0.13705379037E+04  0.25500000920E-02 0.  1.
    10030    2    1    2    0    0  0.00000000000E+00  0.00000000000E+00 -0.43155166913E+03  0.23095241382E+04  0.22688466017E+04 0.  0.
        3    1    3    3  502    0 -0.31862760996E+03  0.10803071500E+04 -0.35358820892E+03  0.11805133307E+04  0.10100000352E+00 0.  1.
       -3    1    3    3    0  502  0.31862760996E+03 -0.10803071500E+04 -0.77963460202E+02  0.11290108076E+04  0.10100000352E+00 0. -1.
</event>
<event>
 5   0  0.2816178E-05  0.2307567E+04  0.7818609E-02  0.8474943E-01
       -2   -1    0    0    0  501  0.00000000000E+00  0.00000000000E+00  0.10979930842E+04  0.10979930842E+04  0.25500000920E-02 0.  1.
        2   -1    0    0  501    0  0.00000000000E+00  0.00000000000E+00 -0.12124091120E+04  0.12124091120E+04  0.25500000920E-02 0. -1.
    10030    2    1    2    0    0  0.00000000000E+00  0.00000000000E+00 -0.11441602786E+03  0.23104021962E+04  0.23075673946E+04 0.  0.
        1    1    3    3  502    0 -0.67653267541E+03 -0.42783666636E+03 -0.88917776169E+03  0.11964020085E+04  0.50400001928E-02 0. -1.
       -1    1    3    3    0  502  0.67653267541E+03  0.42783666636E+03  0.77476173384E+03  0.11140001877E+04  0.50400001928E-02 0.  1.
</event>
<event>
 5   0  0.1303224E-05  0.2287215E+04  0.7818609E-02  0.8482979E-01
       -1   -1    0    0    0  501  0.00000000000E+00  0.00000000000E+00  0.10006476198E+04  0.10006476198E+04  0.50400001928E-02 0.  1.
        1   -1    0    0  501    0  0.00000000000E+00  0.00000000000E+00 -0.13069918072E+04  0.13069918072E+04  0.50400001928E-02 0. -1.
    10030    2    1    2    0    0  0.00000000000E+00  0.00000000000E+00 -0.30634418738E+03  0.23076394271E+04  0.22872151110E+04 0.  0.
        2    1    3    3  502    0 -0.94191696640E+03  0.16191341789E+02  0.50097591920E+03  0.10669801323E+04  0.25500000920E-02 0.  1.
       -2    1    3    3    0  502  0.94191696640E+03 -0.16191341789E+02 -0.80732010657E+03  0.12406592947E+04  0.25500000920E-02 0. -1.
</event>
<event>
 5   0  0.1303224E-05  0.2150852E+04  0.7818609E-02  0.8539168E-01
        1   -1    0    0  501    0  0.00000000000E+00  0.00000000000E+00  0.14750815839E+04  0.14750815839E+04  0.50400001928E-02 0.  1.
       -1   -1    0    0    0  501  0.00000000000E+00  0.00000000000E+00 -0.78405194173E+03  0.78405194175E+03  0.50400001928E-02 0. -1.
    10030    2    1    2    0    0  0.00000000000E+00  0.00000000000E+00  0.69102964220E+03  0.22591335257E+04  0.21508515338E+04 0.  0.
        2    1    3    3  502    0  0.41894313038E+03 -0.14887906924E+03  0.13740273324E+04  0.14441708465E+04  0.25500000920E-02 0.  1.
       -2    1    3    3    0  502 -0.41894313038E+03  0.14887906924E+03 -0.68299769015E+03  0.81496267921E+03  0.25500000920E-02 0. -1.
</event>
<event>
 5   0  0.2871888E-05  0.2257322E+04  0.7818609E-02  0.8494941E-01
        2   -1    0    0  501    0  0.00000000000E+00  0.00000000000E+00  0.18918165423E+04  0.18918165423E+04  0.25500000920E-02 0.  1.
       -2   -1    0    0    0  501  0.00000000000E+00  0.00000000000E+00 -0.67336082934E+03  0.67336082934E+03  0.25500000920E-02 0. -1.
    10030    2    1    2    0    0  0.00000000000E+00  0.00000000000E+00  0.12184557130E+04  0.25651773716E+04  0.22573215596E+04 0.  0.
        3    1    3    3  502    0  0.74007345670E+03 -0.61045013838E+03 -0.66433615035E+02  0.96165041890E+03  0.10100000352E+00 0. -1.
       -3    1    3    3    0  502 -0.74007345670E+03  0.61045013838E+03  0.12848893280E+04  0.16035269527E+04  0.10100000352E+00 0.  1.
</event>
<event>
 5   0  0.2871888E-05  0.2298601E+04  0.7818609E-02  0.8478473E-01
        2   -1    0    0  501    0  0.00000000000E+00  0.00000000000E+00  0.14153640580E+04  0.14153640580E+04  0.25500000920E-02 0. -1.
       -2   -1    0    0    0  501  0.00000000000E+00  0.00000000000E+00 -0.93325182795E+03  0.93325182796E+03  0.25500000920E-02 0.  1.
    10030    2    1    2    0    0  0.00000000000E+00  0.00000000000E+00  0.48211223008E+03  0.23486158860E+04  0.22986005259E+04 0.  0.
        3    1    3    3  502    0 -0.15276893913E+03 -0.17571016719E+03  0.13910134336E+04  0.14103654825E+04  0.10100000352E+00 0. -1.
       -3    1    3    3    0  502  0.15276893913E+03  0.17571016719E+03 -0.90890120353E+03  0.93825040346E+03  0.10100000352E+00 0.  1.
</event>
<event>
 5   0  0.1284837E-05  0.2295352E+04  0.7818609E-02  0.8479756E-01
        1   -1    0    0  501    0  0.00000000000E+00  0.00000000000E+00  0.11263995439E+04  0.11263995439E+04  0.50400001928E-02 0. -1.
       -1   -1    0    0    0  501  0.00000000000E+00  0.00000000000E+00 -0.11693547830E+04  0.11693547830E+04  0.50400001928E-02 0.  1.
    10030    2    1    2    0    0  0.00000000000E+00  0.00000000000E+00 -0.42955239152E+02  0.22957543269E+04  0.22953524298E+04 0.  0.
        4    1    3    3  502    0 -0.63782142584E+03  0.91197179853E+03  0.25901817939E+03  0.11426288823E+04  0.12699999809E+01 0. -1.
       -4    1    3    3    0  502  0.63782142584E+03 -0.91197179853E+03 -0.30197341854E+03  0.11531254446E+04  0.12699999809E+01 0.  1.
</event>
<event>
 5   0  0.1284837E-05  0.2321387E+04  0.7818609E-02  0.8469536E-01
       -1   -1    0    0    0  501  0.00000000000E+00  0.00000000000E+00  0.11012095268E+04  0.11012095268E+04  0.50400001928E-02 0.  1.
        1   -1    0    0  501    0  0.00000000000E+00  0.00000000000E+00 -0.12233907653E+04  0.12233907653E+04  0.50400001928E-02 0. -1.
    10030    2    1    2    0    0  0.00000000000E+00  0.00000000000E+00 -0.12218123850E+03  0.23246002921E+04  0.23213871420E+04 0.  0.
        4    1    3    3  502    0  0.98271181982E+02  0.74654221123E+03 -0.94561696076E+03  0.12087909446E+04  0.12699999809E+01 0. -1.
       -4    1    3    3    0  502 -0.98271181982E+02 -0.74654221123E+03  0.82343572225E+03  0.11158093475E+04  0.12699999809E+01 0.  1.
</event>
<event>
 5   0  0.1327820E-05  0.2270223E+04  0.7818609E-02  0.8489755E-01
        1   -1    0    0  501    0  0.00000000000E+00  0.00000000000E+00  0.12859197477E+04  0.12859197477E+04  0.50400001928E-02 0.  1.
       -1   -1    0    0    0  501  0.00000000000E+00  0.00000000000E+00 -0.10019891207E+04  0.10019891207E+04  0.50400001928E-02 0. -1.
    10030    2    1    2    0    0  0.00000000000E+00  0.00000000000E+00  0.28393062695E+03  0.22879088684E+04  0.22702225418E+04 0.  0.
        1    1    3    3  502    0 -0.34195565611E+03 -0.31434023095E+03 -0.90183240311E+03  0.10144186191E+04  0.50400001928E-02 0. -1.
       -1    1    3    3    0  502  0.34195565611E+03  0.31434023095E+03  0.11857630301E+04  0.12734902493E+04  0.50400001928E-02 0.  1.
</event>
<event>
 5   0  0.1327820E-05  0.2298446E+04  0.7818609E-02  0.8478534E-01
        1   -1    0    0  501    0  0.00000000000E+00  0.00000000000E+00  0.15193775210E+04  0.15193775210E+04  0.50400001928E-02 0. -1.
       -1   -1    0    0    0  501  0.00000000000E+00  0.00000000000E+00 -0.86924644859E+03  0.86924644860E+03  0.50400001928E-02 0.  1.
    10030    2    1    2    0    0  0.00000000000E+00  0.00000000000E+00  0.65013107237E+03  0.23886239696E+04  0.22984460091E+04 0.  0.
        1    1    3    3  502    0 -0.10154874773E+04 -0.27498397492E+03 -0.15555366448E+03  0.10634979763E+04  0.50400001928E-02 0.  1.
       -1    1    3    3    0  502  0.10154874773E+04  0.27498397492E+03  0.80568473685E+03  0.13251259933E+04  0.50400001928E-02 0. -1.
</event>
<event>
 5   0  0.1303224E-05  0.2308172E+04  0.7818609E-02  0.8474706E-01
       -1   -1    0    0    0  501  0.00000000000E+00  0.00000000000E+00  0.16820038879E+04  0.16820038879E+04  0.50400001928E-02 0.  1.
        1   -1    0    0  501    0  0.00000000000E+00  0.00000000000E+00 -0.79186180002E+03  0.79186180004E+03  0.50400001928E-02 0. -1.
    10030    2    1    2    0    0  0.00000000000E+00  0.00000000000E+00  0.89014208786E+03  0.24738656879E+04  0.23081721135E+04 0.  0.
        2    1    3    3  502    0  0.21360358442E+03 -0.35508731327E+03  0.15995195613E+04  0.16523245197E+04  0.25500000920E-02 0.  1.
       -2    1    3    3    0  502 -0.21360358442E+03  0.35508731327E+03 -0.70937747343E+03  0.82154116826E+03  0.25500000920E-02 0. -1.
</event>
<event>
 5   0  0.1308224E-05  0.2286470E+04  0.7818609E-02  0.8483275E-01
        1   -1    0    0  501    0  0.00000000000E+00  0.00000000000E+00  0.20190508485E+04  0.20190508485E+04  0.50400001928E-02 0. -1.
       -1   -1    0    0    0  501  0.00000000000E+00  0.00000000000E+00 -0.64732702168E+03  0.64732702170E+03  0.50400001928E-02 0.  1.
    10030    2    1    2    0    0  0.00000000000E+00  0.00000000000E+00  0.13717238269E+04  0.26663778702E+04  0.22864699188E+04 0.  0.
        5    1    3    3  502    0  0.72046110324E+03  0.78539536328E+03  0.11681680937E+04  0.15813123863E+04  0.46999998093E+01 0. -1.
       -5    1    3    3    0  502 -0.72046110324E+03 -0.78539536328E+03  0.20355573316E+03  0.10850654839E+04  0.46999998093E+01 0.  1.
</event>
<event>
 5   0  0.1303224E-05  0.2257122E+04  0.7818609E-02  0.8495022E-01
        1   -1    0    0  501    0  0.00000000000E+00  0.00000000000E+00  0.10210907887E+04  0.10210907888E+04  0.50400001928E-02 0.  1.
       -1   -1    0    0    0  501  0.00000000000E+00  0.00000000000E+00 -0.12473429956E+04  0.12473429956E+04  0.50400001928E-02 0. -1.
    10030    2    1    2    0    0  0.00000000000E+00  0.00000000000E+00 -0.22625220684E+03  0.22684337844E+04  0.22571224541E+04 0.  0.
        2    1    3    3  502    0  0.73239193087E+03  0.80199466635E+03 -0.42135026551E+03  0.11649589828E+04  0.25500000920E-02 0. -1.
       -2    1    3    3    0  502 -0.73239193087E+03 -0.80199466635E+03  0.19509805867E+03  0.11034748016E+04  0.25500000920E-02 0.  1.
</event>
<event>
 5   0  0.2816178E-05  0.2342090E+04  0.7818609E-02  0.8461508E-01
       -2   -1    0    0    0  501  0.00000000000E+00  0.00000000000E+00  0.11007170962E+04  0.11007170962E+04  0.25500000920E-02 0. -1.
        2   -1    0    0  501    0  0.00000000000E+00  0.00000000000E+00 -0.12458662565E+04  0.12458662565E+04  0.25500000920E-02 0.  1.
    10030    2    1    2    0    0  0.00000000000E+00  0.00000000000E+00 -0.14514916029E+03  0.23465833527E+04  0.23420899113E+04 0.  0.
        1    1    3    3  502    0 -0.22018059210E+03 -0.33667603431E+02 -0.12244468836E+04  0.12445413498E+04  0.50400001928E-02 0.  1.
       -1    1    3    3    0  502  0.22018059210E+03  0.33667603431E+02  0.10792977233E+04  0.11020420029E+04  0.50400001928E-02 0. -1.
</event>
<event>
 5   0  0.2816178E-05  0.2298905E+04  0.7818609E-02  0.8478353E-01
        2   -1    0    0  501    0  0.00000000000E+00  0.00000000000E+00  0.85017235062E+03  0.85017235063E+03  0.25500000920E-02 0.  1.
       -2   -1    0    0    0  501  0.00000000000E+00  0.00000000000E+00 -0.15540861074E+04  0.15540861074E+04  0.25500000920E-02 0. -1.
    10030    2    1    2    0    0  0.00000000000E+00  0.00000000000E+00 -0.70391375682E+03  0.24042584581E+04  0.22989049907E+04 0.  0.
        1    1    3    3  502    0 -0.13861776168E+03 -0.95209662858E+03 -0.10096969885E+04  0.13947010012E+04  0.50400001928E-02 0. -1.
       -1    1    3    3    0  502  0.13861776168E+03  0.95209662858E+03  0.30578323168E+03  0.10095574569E+04  0.50400001928E-02 0.  1.
</event>
<event>
 5   0  0.2938972E-05  0.2296605E+04  0.7818609E-02  0.8479261E-01
        2   -1    0    0  501    0  0.00000000000E+00  0.00000000000E+00  0.95247818651E+03  0.95247818651E+03  0.25500000920E-02 0.  1.
       -2   -1    0    0    0  501  0.00000000000E+00  0.00000000000E+00 -0.13843877247E+04  0.13843877247E+04  0.25500000920E-02 0. -1.
    10030    2    1    2    0    0  0.00000000000E+00  0.00000000000E+00 -0.43190953824E+03  0.23368659113E+04  0.22966054163E+04 0.  0.
        2    1    3    3  502    0 -0.66880627319E+03 -0.61181615301E+03  0.50137046727E+03  0.10358538418E+04  0.25500000920E-02 0.  1.
       -2    1    3    3    0  502  0.66880627319E+03  0.61181615301E+03 -0.93328000551E+03  0.13010120694E+04  0.25500000920E-02 0. -1.
</event>
<event>
 5   0  0.1284837E-05  0.2305494E+04  0.7818609E-02  0.8475758E-01
        1   -1    0    0  501    0  0.00000000000E+00  0.00000000000E+00  0.23577384570E+04  0.23577384570E+04  0.50400001928E-02 0.  1.
       -1   -1    0    0    0  501  0.00000000000E+00  0.00000000000E+00 -0.56360177834E+03  0.56360177837E+03  0.50400001928E-02 0. -1.
    10030    2    1    2    0    0  0.00000000000E+00  0.00000000000E+00  0.17941366787E+04  0.29213402354E+04  0.23054939491E+04 0.  0.
        4    1    3    3  502    0 -0.94905948291E+02  0.14102651301E+03  0.23417689705E+04  0.23479308211E+04  0.12699999809E+01 0.  1.
       -4    1    3    3    0  502  0.94905948291E+02 -0.14102651301E+03 -0.54763229187E+03  0.57340941429E+03  0.12699999809E+01 0. -1.
</event>
<event>
 5   0  0.1284837E-05  0.2318755E+04  0.7818609E-02  0.8470563E-01
       -1   -1    0    0    0  501  0.00000000000E+00  0.00000000000E+00  0.66387300359E+03  0.66387300361E+03  0.50400001928E-02 0.  1.
        1   -1    0    0  501    0  0.00000000000E+00  0.00000000000E+00 -0.20247182573E+04  0.20247182573E+04  0.50400001928E-02 0. -1.
    10030    2    1    2    0    0  0.00000000000E+00  0.00000000000E+00 -0.13608452537E+04  0.26885912610E+04  0.23187546580E+04 0.  0.
        4    1    3    3  502    0  0.45603751688E+03  0.82128676379E+03  0.10741506982E+03  0.94552724726E+03  0.12699999809E+01 0.  1.
       -4    1    3    3    0  502 -0.45603751688E+03 -0.82128676379E+03 -0.14682603236E+04  0.17430640137E+04  0.12699999809E+01 0. -1.
</event>
<event>
 5   0  0.1327820E-05  0.2294455E+04  0.7818609E-02  0.8480111E-01
        1   -1    0    0  501    0  0.00000000000E+00  0.00000000000E+00  0.16417787135E+04  0.16417787135E+04  0.50400001928E-02 0. -1.
       -1   -1    0    0    0  501  0.00000000000E+00  0.00000000000E+00 -0.80164957809E+03  0.80164957811E+03  0.50400001928E-02 0.  1.
    10030    2    1    2    0    0  0.00000000000E+00  0.00000000000E+00  0.84012913545E+03  0.24434282917E+04  0.22944552408E+04 0.  0.
        1    1    3    3  502    0  0.39742845578E+03  0.98338344583E+03  0.88564473739E+03  0.13817955637E+04  0.50400001928E-02 0. -1.
       -1    1    3    3    0  502 -0.39742845578E+03 -0.98338344583E+03 -0.45515601943E+02  0.10616327279E+04  0.50400001928E-02 0.  1.
</event>
<event>
 5   0  0.1303224E-05  0.2296617E+04  0.7818609E-02  0.8479256E-01
        1   -1    0    0  501    0  0.00000000000E+00  0.00000000000E+00  0.78424460372E+03  0.78424460374E+03  0.50400001928E-02 0.  1.
       -1   -1    0    0    0  501  0.00000000000E+00  0.00000000000E+00 -0.16813789374E+04  0.16813789374E+04  0.50400001928E-02 0. -1.
    10030    2    1    2    0    0  0.00000000000E+00  0.00000000000E+00 -0.89713433370E+03  0.24656235412E+04  0.22966169541E+04 0.  0.
        2    1    3    3  502    0  0.59269923771E+03 -0.53321763456E+03  0.43868733553E+03  0.90997802751E+03  0.25500000920E-02 0.  1.
       -2    1    3    3    0  502 -0.59269923771E+03  0.53321763456E+03 -0.13358216692E+04  0.15556455137E+04  0.25500000920E-02 0. -1.
</event>
<event>
 5   0  0.1303224E-05  0.2308128E+04  0.7818609E-02  0.8474723E-01
       -1   -1    0    0    0  501  0.00000000000E+00  0.00000000000E+00  0.76740766987E+03  0.76740766989E+03  0.50400001928E-02 0. -1.
        1   -1    0    0  501    0  0.00000000000E+00  0.00000000000E+00 -0.17355367123E+04  0.17355367123E+04  0.50400001928E-02 0.  1.
    10030    2    1    2    0    0  0.00000000000E+00  0.00000000000E+00 -0.96812904241E+03  0.25029443822E+04  0.23081284058E+04 0.  0.
        2    1    3    3  502    0  0.47197874146E+03  0.98435947619E+03 -0.89000946432E+03  0.14084900984E+04  0.25500000920E-02 0.  1.
       -2    1    3    3    0  502 -0.47197874146E+03 -0.98435947619E+03 -0.78119578086E+02  0.10944542838E+04  0.25500000920E-02 0. -1.
</event>
<event>
 5   0  0.2871888E-05  0.2286264E+04  0.7818609E-02  0.8483357E-01
       -2   -1    0    0    0  501  0.00000000000E+00  0.00000000000E+00  0.90757360749E+03  0.90757360749E+03  0.25500000920E-02 0. -1.
        2   -1    0    0  501    0  0.00000000000E+00  0.00000000000E+00 -0.14398283544E+04  0.14398283544E+04  0.25500000920E-02 0.  1.
    10030    2    1    2    0    0  0.00000000000E+00  0.00000000000E+00 -0.53225474690E+03  0.23474019619E+04  0.22862635139E+04 0.  0.
        3    1    3    3  502    0  0.56240604058E+03  0.16992886355E+03 -0.12729489065E+04  0.14019897653E+04  0.10100000352E+00 0. -1.
       -3    1    3    3    0  502 -0.56240604058E+03 -0.16992886355E+03  0.74069415963E+03  0.94541219659E+03  0.10100000352E+00 0.  1.
</event>
<event>
 5   0  0.2816178E-05  0.2287253E+04  0.7818609E-02  0.8482964E-01
        2   -1    0    0  501    0  0.00000000000E+00  0.00000000000E+00  0.12436373470E+04  0.12436373470E+04  0.25500000920E-02 0. -1.
       -2   -1    0    0    0  501  0.00000000000E+00  0.00000000000E+00 -0.10516585692E+04  0.10516585692E+04  0.25500000920E-02 0.  1.
    10030    2    1    2    0    0  0.00000000000E+00  0.00000000000E+00  0.19197877778E+03  0.22952959161E+04  0.22872532635E+04 0.  0.
        1    1    3    3  502    0  0.21970218631E+03  0.78879002268E+02  0.12194754822E+04  0.12416164462E+04  0.50400001928E-02 0. -1.
       -1    1    3    3    0  502 -0.21970218631E+03 -0.78879002268E+02 -0.10274967045E+04  0.10536794699E+04  0.50400001928E-02 0.  1.
</event>
<event>
 5   0  0.2871888E-05  0.2302618E+04  0.7818609E-02  0.8476890E-01
        2   -1    0    0  501    0  0.00000000000E+00  0.00000000000E+00  0.13904221408E+04  0.13904221408E+04  0.25500000920E-02 0. -1.
       -2   -1    0    0    0  501  0.00000000000E+00  0.00000000000E+00 -0.95331626122E+03  0.95331626122E+03  0.25500000920E-02 0.  1.
    10030    2    1    2    0    0  0.00000000000E+00  0.00000000000E+00  0.43710587963E+03  0.23437384021E+04  0.23026176729E+04 0.  0.
        3    1    3    3  502    0 -0.10104237581E+04  0.36920999587E+01  0.78026152277E+03  0.12766275324E+04  0.10100000352E+00 0. -1.
       -3    1    3    3    0  502  0.10104237581E+04 -0.36920999587E+01 -0.34315564314E+03  0.10671108696E+04  0.10100000352E+00 0.  1.
</event>
<event>
 5   0  0.1327820E-05  0.2286291E+04  0.7818609E-02  0.8483346E-01
        1   -1    0    0  501    0  0.00000000000E+00  0.00000000000E+00  0.64932402506E+03  0.64932402508E+03  0.50400001928E-02 0. -1.
       -1   -1    0    0    0  501  0.00000000000E+00  0.00000000000E+00 -0.20125258567E+04  0.20125258567E+04  0.50400001928E-02 0.  1.
    10030    2    1    2    0    0  0.00000000000E+00  0.00000000000E+00 -0.13632018317E+04  0.26618498818E+04  0.22862907863E+04 0.  0.
        1    1    3    3  502    0  0.38911840139E+03 -0.12144628351E+03  0.56183213055E+03  0.69413087601E+03  0.50400001928E-02 0. -1.
       -1    1    3    3    0  502 -0.38911840139E+03  0.12144628351E+03 -0.19250339622E+04  0.19677190058E+04  0.50400001928E-02 0.  1.
</event>
<event>
 5   0  0.2938972E-05  0.2299296E+04  0.7818609E-02  0.8478199E-01
        2   -1    0    0  501    0  0.00000000000E+00  0.00000000000E+00  0.10634087591E+04  0.10634087591E+04  0.25500000920E-02 0. -1.
       -2   -1    0    0    0  501  0.00000000000E+00  0.00000000000E+00 -0.12428815053E+04  0.12428815053E+04  0.25500000920E-02 0.  1.
    10030    2    1    2    0    0  0.00000000000E+00  0.00000000000E+00 -0.17947274620E+03  0.23062902644E+04  0.22992964831E+04 0.  0.
        2    1    3    3  502    0 -0.84817113051E+03  0.36650243784E+03 -0.77590251591E+03  0.12065417596E+04  0.25500000920E-02 0.  1.
       -2    1    3    3    0  502  0.84817113051E+03 -0.36650243784E+03  0.59642976971E+03  0.10997485048E+04  0.25500000920E-02 0. -1.
</event>
<event>
 5   0  0.2938972E-05  0.2299830E+04  0.7818609E-02  0.8477988E-01
        2   -1    0    0  501    0  0.00000000000E+00  0.00000000000E+00  0.11235334857E+04  0.11235334857E+04  0.25500000920E-02 0. -1.
       -2   -1    0    0    0  501  0.00000000000E+00  0.00000000000E+00 -0.11769163956E+04  0.11769163956E+04  0.25500000920E-02 0.  1.
    10030    2    1    2    0    0  0.00000000000E+00  0.00000000000E+00 -0.53382909944E+02  0.23004498813E+04  0.22998304114E+04 0.  0.
        2    1    3    3  502    0  0.10212811663E+04  0.70957160382E+02 -0.55052597513E+03  0.11623807417E+04  0.25500000920E-02 0.  1.
       -2    1    3    3    0  502 -0.10212811663E+04 -0.70957160382E+02  0.49714306519E+03  0.11380691396E+04  0.25500000920E-02 0. -1.
</event>
<event>
 5   0  0.1327820E-05  0.2297424E+04  0.7818609E-02  0.8478938E-01
        1   -1    0    0  501    0  0.00000000000E+00  0.00000000000E+00  0.16385293755E+04  0.16385293755E+04  0.50400001928E-02 0. -1.
       -1   -1    0    0    0  501  0.00000000000E+00  0.00000000000E+00 -0.80531919863E+03  0.80531919865E+03  0.50400001928E-02 0.  1.
    10030    2    1    2    0    0  0.00000000000E+00  0.00000000000E+00  0.83321017684E+03  0.24438485741E+04  0.22974239170E+04 0.  0.
        1    1    3    3  502    0  0.31419950688E+03 -0.87724434699E+02  0.15882214827E+04  0.16213773110E+04  0.50400001928E-02 0. -1.
       -1    1    3    3    0  502 -0.31419950688E+03  0.87724434699E+02 -0.75501130588E+03  0.82247126309E+03  0.50400001928E-02 0.  1.
</event>
<event>
 5   0  0.1284837E-05  0.2289082E+04  0.7818609E-02  0.8482238E-01
        1   -1    0    0  501    0  0.00000000000E+00  0.00000000000E+00  0.14019505425E+04  0.14019505425E+04  0.50400001928E-02 0.  1.
       -1   -1    0    0    0  501  0.00000000000E+00  0.00000000000E+00 -0.93439403498E+03  0.93439403500E+03  0.50400001928E-02 0. -1.
    10030    2    1    2    0    0  0.00000000000E+00  0.00000000000E+00  0.46755650751E+03  0.23363445775E+04  0.22890821080E+04 0.  0.
        4    1    3    3  502    0  0.73229924839E+03 -0.10475817185E+03 -0.65760134297E+03  0.98978664516E+03  0.12699999809E+01 0. -1.
       -4    1    3    3    0  502 -0.73229924839E+03  0.10475817185E+03  0.11251578505E+04  0.13465579323E+04  0.12699999809E+01 0.  1.
</event>
<event>
 5   0  0.1308224E-05  0.2290923E+04  0.7818609E-02  0.8481509E-01
       -1   -1    0    0    0  501  0.00000000000E+00  0.00000000000E+00  0.18507900003E+04  0.18507900003E+04  0.50400001928E-02 0. -1.
        1   -1    0    0  501    0  0.00000000000E+00  0.00000000000E+00 -0.70893096670E+03  0.70893096671E+03  0.50400001928E-02 0.  1.
    10030    2    1    2    0    0  0.00000000000E+00  0.00000000000E+00  0.11418590336E+04  0.25597209670E+04  0.22909232585E+04 0.  0.
        5    1    3    3  502    0 -0.39567028748E+03 -0.19184965194E+03  0.17527151531E+04  0.18070400558E+04  0.46999998093E+01 0. -1.
       -5    1    3    3    0  502  0.39567028748E+03  0.19184965194E+03 -0.61085611952E+03  0.75268091121E+03  0.46999998093E+01 0.  1.
</event>
<event>
 5   0  0.2994157E-05  0.2275176E+04  0.7818609E-02  0.8487774E-01
       -2   -1    0    0    0  501  0.00000000000E+00  0.00000000000E+00  0.61363961974E+03  0.61363961974E+03  0.25500000920E-02 0. -1.
        2   -1    0    0  501    0  0.00000000000E+00  0.00000000000E+00 -0.21089026348E+04  0.21089026348E+04  0.25500000920E-02 0.  1.
    10030    2    1    2    0    0  0.00000000000E+00  0.00000000000E+00 -0.14952630150E+04  0.27225422545E+04  0.22751757830E+04 0.  0.
        4    1    3    3  502    0 -0.19435003552E+03  0.14253954450E+03  0.58273581117E+03  0.63061247733E+03  0.12699999809E+01 0. -1.
       -4    1    3    3    0  502  0.19435003552E+03 -0.14253954450E+03 -0.20779988262E+04  0.20919297772E+04  0.12699999809E+01 0.  1.
</event>
<event>
 5   0  0.1308224E-05  0.2256234E+04  0.7818609E-02  0.8495380E-01
        1   -1    0    0  501    0  0.00000000000E+00  0.00000000000E+00  0.12763610671E+04  0.12763610671E+04  0.50400001928E-02 0. -1.
       -1   -1    0    0    0  501  0.00000000000E+00  0.00000000000E+00 -0.99709054756E+03  0.99709054757E+03  0.50400001928E-02 0.  1.
    10030    2    1    2    0    0  0.00000000000E+00  0.00000000000E+00  0.27927051956E+03  0.22734516147E+04  0.22562336362E+04 0.  0.
        5    1    3    3  502    0  0.11055195336E+04  0.44815583897E+02 -0.82143425193E+02  0.11094825407E+04  0.46999998093E+01 0.  1.
       -5    1    3    3    0  502 -0.11055195336E+04 -0.44815583897E+02  0.36141394475E+03  0.11639690740E+04  0.46999998093E+01 0. -1.
</event>
<event>
 5   0  0.2816178E-05  0.2300998E+04  0.7818609E-02  0.8477528E-01
        2   -1    0    0  501    0  0.00000000000E+00  0.00000000000E+00  0.10862020778E+04  0.10862020778E+04  0.25500000920E-02 0. -1.
       -2   -1    0    0    0  501  0.00000000000E+00  0.00000000000E+00 -0.12186018999E+04  0.12186018999E+04  0.25500000920E-02 0.  1.
    10030    2    1    2    0    0  0.00000000000E+00  0.00000000000E+00 -0.13239982210E+03  0.23048039777E+04  0.23009979711E+04 0.  0.
        1    1    3    3  502    0  0.10215315264E+04 -0.52186923548E+03 -0.15451466184E+03  0.11574752434E+04  0.50400001928E-02 0.  1.
       -1    1    3    3    0  502 -0.10215315264E+04  0.52186923548E+03  0.22114839739E+02  0.11473287343E+04  0.50400001928E-02 0. -1.
</event>
<event>
 5   0  0.1308224E-05  0.2303191E+04  0.7818609E-02  0.8476664E-01
       -1   -1    0    0    0  501  0.00000000000E+00  0.00000000000E+00  0.12499703195E+04  0.12499703195E+04  0.50400001928E-02 0. -1.
        1   -1    0    0  501    0  0.00000000000E+00  0.00000000000E+00 -0.10609628484E+04  0.10609628484E+04  0.50400001928E-02 0.  1.
    10030    2    1    2    0    0  0.00000000000E+00  0.00000000000E+00  0.18900747109E+03  0.23109331680E+04  0.23031908915E+04 0.  0.
        5    1    3    3  502    0 -0.40727245766E+03 -0.93481200504E+03  0.63147152564E+03  0.11993843076E+04  0.46999998093E+01 0. -1.
       -5    1    3    3    0  502  0.40727245766E+03  0.93481200504E+03 -0.44246405454E+03  0.11115488604E+04  0.46999998093E+01 0.  1.
</event>
<event>
 5   0  0.1371753E-05  0.2310462E+04  0.7818609E-02  0.8473807E-01
        1   -1    0    0  501    0  0.00000000000E+00  0.00000000000E+00  0.12363006018E+04  0.12363006018E+04  0.50400001928E-02 0.  1.
       -1   -1    0    0    0  501  0.00000000000E+00  0.00000000000E+00 -0.10794777070E+04  0.10794777070E+04  0.50400001928E-02 0. -1.
    10030    2    1    2    0    0  0.00000000000E+00  0.00000000000E+00  0.15682289479E+03  0.23157783088E+04  0.23104622384E+04 0.  0.
        3    1    3    3  502    0  0.96521482957E+03 -0.57753114305E+03 -0.18558980717E+03  0.11400111733E+04  0.10100000352E+00 0. -1.
       -3    1    3    3    0  502 -0.96521482957E+03  0.57753114305E+03  0.34241270196E+03  0.11757671356E+04  0.10100000352E+00 0.  1.
</event>
<event>
 5   0  0.1371753E-05  0.2300129E+04  0.7818609E-02  0.8477870E-01
       -1   -1    0    0    0  501  0.00000000000E+00  0.00000000000E+00  0.12699059143E+04  0.12699059143E+04  0.50400001928E-02 0. -1.
        1   -1    0    0  501    0  0.00000000000E+00  0.00000000000E+00 -0.10415322536E+04  0.10415322536E+04  0.50400001928E-02 0.  1.
    10030    2    1    2    0    0  0.00000000000E+00  0.00000000000E+00  0.22837366069E+03  0.23114381679E+04  0.23001286649E+04 0.  0.
        3    1    3    3  502    0 -0.31373398093E+03  0.11064312890E+04  0.10879852641E+03  0.11551867112E+04  0.10100000352E+00 0.  1.
       -3    1    3    3    0  502  0.31373398093E+03 -0.11064312890E+04  0.11957513427E+03  0.11562514567E+04  0.10100000352E+00 0. -1.
</event>
<event>
 5   0  0.1308224E-05  0.2267338E+04  0.7818609E-02  0.8490912E-01
       -1   -1    0    0    0  501  0.00000000000E+00  0.00000000000E+00  0.21530949634E+04  0.21530949634E+04  0.50400001928E-02 0.  1.
        1   -1    0    0  501    0  0.00000000000E+00  0.00000000000E+00 -0.59691076208E+03  0.59691076210E+03  0.50400001928E-02 0. -1.
    10030    2    1    2    0    0  0.00000000000E+00  0.00000000000E+00  0.15561842013E+04  0.27500057255E+04  0.22673381358E+04 0.  0.
        5    1    3    3  502    0  0.10116949973E+04 -0.49237102802E+03  0.60991054608E+03  0.12798316143E+04  0.46999998093E+01 0. -1.
       -5    1    3    3    0  502 -0.10116949973E+04  0.49237102802E+03  0.94627365524E+03  0.14701741112E+04  0.46999998093E+01 0.  1.
</event>
<event>
 5   0  0.2994157E-05  0.2304973E+04  0.7818609E-02  0.8475963E-01
        2   -1    0    0  501    0  0.00000000000E+00  0.00000000000E+00  0.22965765180E+04  0.22965765180E+04  0.25500000920E-02 0. -1.
       -2   -1    0    0    0  501  0.00000000000E+00  0.00000000000E+00 -0.57834982907E+03  0.57834982907E+03  0.25500000920E-02 0.  1.
    10030    2    1    2    0    0  0.00000000000E+00  0.00000000000E+00  0.17182266889E+04  0.28749263470E+04  0.23049725696E+04 0.  0.
        4    1    3    3  502    0  0.80169742067E+03 -0.70410772332E+03  0.31581735459E+03  0.11127572308E+04  0.12699999809E+01 0.  1.
       -4    1    3    3    0  502 -0.80169742067E+03  0.70410772332E+03  0.14024093343E+04  0.17621691162E+04  0.12699999809E+01 0. -1.
</event>
<event>
 5   0  0.2871888E-05  0.2304927E+04  0.7818609E-02  0.8475981E-01
       -2   -1    0    0    0  501  0.00000000000E+00  0.00000000000E+00  0.69206067237E+03  0.69206067238E+03  0.25500000920E-02 0.  1.
        2   -1    0    0  501    0  0.00000000000E+00  0.00000000000E+00 -0.19191549734E+04  0.19191549734E+04  0.25500000920E-02 0. -1.
    10030    2    1    2    0    0  0.00000000000E+00  0.00000000000E+00 -0.12270943010E+04  0.26112156458E+04  0.23049266203E+04 0.  0.
        3    1    3    3  502    0  0.72430553730E+03 -0.35240931675E+03 -0.15473084883E+04  0.17444123383E+04  0.10100000352E+00 0. -1.
       -3    1    3    3    0  502 -0.72430553730E+03  0.35240931675E+03  0.32021418728E+03  0.86680330746E+03  0.10100000352E+00 0.  1.
</event>
<event>
 5   0  0.2938972E-05  0.2284904E+04  0.7818609E-02  0.8483897E-01
        2   -1    0    0  501    0  0.00000000000E+00  0.00000000000E+00  0.10990432892E+04  0.10990432892E+04  0.25500000920E-02 0.  1.
       -2   -1    0    0    0  501  0.00000000000E+00  0.00000000000E+00 -0.11875756377E+04  0.11875756377E+04  0.25500000920E-02 0. -1.
    10030    2    1    2    0    0  0.00000000000E+00  0.00000000000E+00 -0.88532348538E+02  0.22866189268E+04  0.22849044050E+04 0.  0.
        2    1    3    3  502    0 -0.38175849973E+02 -0.70898960282E+03  0.85143245538E+03  0.11086301811E+04  0.25500000920E-02 0.  1.
       -2    1    3    3    0  502  0.38175849973E+02  0.70898960282E+03 -0.93996480392E+03  0.11779887457E+04  0.25500000920E-02 0. -1.
</event>
<event>
 5   0  0.2816178E-05  0.2276897E+04  0.7818609E-02  0.8487086E-01
       -2   -1    0    0    0  501  0.00000000000E+00  0.00000000000E+00  0.77799909470E+03  0.77799909471E+03  0.25500000920E-02 0.  1.
        2   -1    0    0  501    0  0.00000000000E+00  0.00000000000E+00 -0.16658953074E+04  0.16658953074E+04  0.25500000920E-02 0. -1.
    10030    2    1    2    0    0  0.00000000000E+00  0.00000000000E+00 -0.88789621273E+03  0.24438944021E+04  0.22768970474E+04 0.  0.
        1    1    3    3  502    0 -0.91374358151E+03 -0.61692302257E+03 -0.74856557908E+03  0.13326183905E+04  0.50400001928E-02 0. -1.
       -1    1    3    3    0  502  0.91374358151E+03  0.61692302257E+03 -0.13933063365E+03  0.11112760116E+04  0.50400001928E-02 0.  1.
</event>
<event>
 5   0  0.2910126E-05  0.2266906E+04  0.7818609E-02  0.8491085E-01
        2   -1    0    0  501    0  0.00000000000E+00  0.00000000000E+00  0.11998183444E+04  0.11998183444E+04  0.25500000920E-02 0.  1.
       -2   -1    0    0    0  501  0.00000000000E+00  0.00000000000E+00 -0.10707585047E+04  0.10707585047E+04  0.25500000920E-02 0. -1.
    10030    2    1    2    0    0  0.00000000000E+00  0.00000000000E+00  0.12905983970E+03  0.22705768491E+04  0.22669059940E+04 0.  0.
        5    1    3    3  502    0 -0.12894194670E+03  0.44955262274E+03 -0.96960020586E+03  0.10765083536E+04  0.46999998093E+01 0. -1.
       -5    1    3    3    0  502  0.12894194670E+03 -0.44955262274E+03  0.10986600456E+04  0.11940684955E+04  0.46999998093E+01 0.  1.
</event>
<event>
 5   0  0.2871888E-05  0.2295129E+04  0.7818609E-02  0.8479844E-01
       -2   -1    0    0    0  501  0.00000000000E+00  0.00000000000E+00  0.65909199149E+03  0.65909199150E+03  0.25500000920E-02 0. -1.
        2   -1    0    0  501    0  0.00000000000E+00  0.00000000000E+00 -0.19980588114E+04  0.19980588115E+04  0.25500000920E-02 0.  1.
    10030    2    1    2    0    0  0.00000000000E+00  0.00000000000E+00 -0.13389668200E+04  0.26571508029E+04  0.22951292436E+04 0.  0.
        3    1    3    3  502    0 -0.10228667074E+04 -0.66145089749E+02 -0.12668936807E+04  0.16296168514E+04  0.10100000352E+00 0.  1.
       -3    1    3    3    0  502  0.10228667074E+04  0.66145089749E+02 -0.72073139305E+02  0.10275339516E+04  0.10100000352E+00 0. -1.
</event>
<event>
 5   0  0.1327820E-05  0.2198438E+04  0.7818609E-02  0.8519078E-01
       -1   -1    0    0    0  501  0.00000000000E+00  0.00000000000E+00  0.16002549822E+04  0.16002549822E+04  0.50400001928E-02 0. -1.
        1   -1    0    0  501    0  0.00000000000E+00  0.00000000000E+00 -0.75505626392E+03  0.75505626394E+03  0.50400001928E-02 0.  1.
    10030    2    1    2    0    0  0.00000000000E+00  0.00000000000E+00  0.84519871828E+03  0.23553112461E+04  0.21984381258E+04 0.  0.
        1    1    3    3  502    0  0.36500857013E+03 -0.82554533742E+03  0.10946792140E+04  0.14188301315E+04  0.50400001928E-02 0. -1.
       -1    1    3    3    0  502 -0.36500857013E+03  0.82554533742E+03 -0.24948049569E+03  0.93648111469E+03  0.50400001928E-02 0.  1.
</event>
<event>
 5   0  0.1371753E-05  0.2302944E+04  0.7818609E-02  0.8476761E-01
       -1   -1    0    0    0  501  0.00000000000E+00  0.00000000000E+00  0.10581009327E+04  0.10581009328E+04  0.50400001928E-02 0.  1.
        1   -1    0    0  501    0  0.00000000000E+00  0.00000000000E+00 -0.12530819778E+04  0.12530819778E+04  0.50400001928E-02 0. -1.
    10030    2    1    2    0    0  0.00000000000E+00  0.00000000000E+00 -0.19498104509E+03  0.23111829106E+04  0.23029435161E+04 0.  0.
        3    1    3    3  502    0  0.34533909304E+03 -0.14749085156E+03  0.99492338031E+03  0.10634308550E+04  0.10100000352E+00 0.  1.
       -3    1    3    3    0  502 -0.34533909304E+03  0.14749085156E+03 -0.11899044254E+04  0.12477520556E+04  0.10100000352E+00 0. -1.
</event>
<event>
 5   0  0.1308224E-05  0.2313949E+04  0.7818609E-02  0.8472441E-01
       -1   -1    0    0    0  501  0.00000000000E+00  0.00000000000E+00  0.12620757585E+04  0.12620757585E+04  0.50400001928E-02 0. -1.
        1   -1    0    0  501    0  0.00000000000E+00  0.00000000000E+00 -0.10606257039E+04  0.10606257039E+04  0.50400001928E-02 0.  1.
    10030    2    1    2    0    0  0.00000000000E+00  0.00000000000E+00  0.20145005455E+03  0.23227014624E+04  0.23139489967E+04 0.  0.
        5    1    3    3  502    0  0.61774957023E+02  0.11526527100E+04  0.22048170570E+02  0.11545270144E+04  0.46999998093E+01 0.  1.
       -5    1    3    3    0  502 -0.61774957023E+02 -0.11526527100E+04  0.17940188398E+03  0.11681744481E+04  0.46999998093E+01 0. -1.
</event>
<event>
 5   0  0.1371753E-05  0.2307104E+04  0.7818609E-02  0.8475125E-01
        1   -1    0    0  501    0  0.00000000000E+00  0.00000000000E+00  0.12034559052E+04  0.12034559052E+04  0.50400001928E-02 0.  1.
       -1   -1    0    0    0  501  0.00000000000E+00  0.00000000000E+00 -0.11057178746E+04  0.11057178746E+04  0.50400001928E-02 0. -1.
    10030    2    1    2    0    0  0.00000000000E+00  0.00000000000E+00  0.97738030596E+02  0.23091737798E+04  0.23071044239E+04 0.  0.
        3    1    3    3  502    0  0.45929898148E+03  0.23979359558E+03  0.10804370225E+04  0.11982490111E+04  0.10100000352E+00 0.  1.
       -3    1    3    3    0  502 -0.45929898148E+03 -0.23979359558E+03 -0.98269899189E+03  0.11109247687E+04  0.10100000352E+00 0. -1.
</event>
<event>
 5   0  0.2938972E-05  0.2313048E+04  0.7818609E-02  0.8472794E-01
       -2   -1    0    0    0  501  0.00000000000E+00  0.00000000000E+00  0.13363548081E+04  0.13363548081E+04  0.25500000920E-02 0.  1.
        2   -1    0    0  501    0  0.00000000000E+00  0.00000000000E+00 -0.10008924136E+04  0.10008924136E+04  0.25500000920E-02 0. -1.
    10030    2    1    2    0    0  0.00000000000E+00  0.00000000000E+00  0.33546239451E+03  0.23372472216E+04  0.23130476772E+04 0.  0.
        2    1    3    3  502    0 -0.20132624112E+03  0.60545933079E+03 -0.80695066521E+03  0.10287286487E+04  0.25500000920E-02 0. -1.
       -2    1    3    3    0  502  0.20132624112E+03 -0.60545933079E+03  0.11424130597E+04  0.13085185729E+04  0.25500000920E-02 0.  1.
</event>
<event>
 5   0  0.2871888E-05  0.2317147E+04  0.7818609E-02  0.8471191E-01
        2   -1    0    0  501    0  0.00000000000E+00  0.00000000000E+00  0.17045075307E+04  0.17045075307E+04  0.25500000920E-02 0. -1.
       -2   -1    0    0    0  501  0.00000000000E+00  0.00000000000E+00 -0.78749609432E+03  0.78749609432E+03  0.25500000920E-02 0.  1.
    10030    2    1    2    0    0  0.00000000000E+00  0.00000000000E+00  0.91701143637E+03  0.24920036250E+04  0.23171474042E+04 0.  0.
        3    1    3    3  502    0 -0.11398802319E+04  0.15908395466E+03  0.31559320507E+03  0.11934126398E+04  0.10100000352E+00 0.  1.
       -3    1    3    3    0  502  0.11398802319E+04 -0.15908395466E+03  0.60141823130E+03  0.12985909852E+04  0.10100000352E+00 0. -1.
</event>
<event>
 5   0  0.1371753E-05  0.2308227E+04  0.7818609E-02  0.8474684E-01
       -1   -1    0    0    0  501  0.00000000000E+00  0.00000000000E+00  0.71845312507E+03  0.71845312509E+03  0.50400001928E-02 0. -1.
        1   -1    0    0  501    0  0.00000000000E+00  0.00000000000E+00 -0.18539524194E+04  0.18539524194E+04  0.50400001928E-02 0.  1.
    10030    2    1    2    0    0  0.00000000000E+00  0.00000000000E+00 -0.11354992943E+04  0.25724055445E+04  0.23082269468E+04 0.  0.
        3    1    3    3  502    0  0.42345194624E+03  0.80318076293E+03  0.22622680786E+03  0.93572937728E+03  0.10100000352E+00 0. -1.
       -3    1    3    3    0  502 -0.42345194624E+03 -0.80318076293E+03 -0.13617261022E+04  0.16366761672E+04  0.10100000352E+00 0.  1.
</event>
<event>
 5   0  0.1303224E-05  0.2267501E+04  0.7818609E-02  0.8490846E-01
        1   -1    0    0  501    0  0.00000000000E+00  0.00000000000E+00  0.10919495971E+04  0.10919495971E+04  0.50400001928E-02 0. -1.
       -1   -1    0    0    0  501  0.00000000000E+00  0.00000000000E+00 -0.11771515173E+04  0.11771515173E+04  0.50400001928E-02 0.  1.
    10030    2    1    2    0    0  0.00000000000E+00  0.00000000000E+00 -0.85201920186E+02  0.22691011145E+04  0.22675009373E+04 0.  0.
        2    1    3    3  502    0  0.14673359512E+03 -0.37319478073E+03 -0.11038138671E+04  0.11743977799E+04  0.25500000920E-02 0.  1.
       -2    1    3    3    0  502 -0.14673359512E+03  0.37319478073E+03  0.10186119469E+04  0.10947033345E+04  0.25500000920E-02 0. -1.
</event>
<event>
 5   0  0.2938972E-05  0.2271887E+04  0.7818609E-02  0.8489089E-01
        2   -1    0    0  501    0  0.00000000000E+00  0.00000000000E+00  0.21748296587E+04  0.21748296587E+04  0.25500000920E-02 0.  1.
       -2   -1    0    0    0  501  0.00000000000E+00  0.00000000000E+00 -0.59331917031E+03  0.59331917032E+03  0.25500000920E-02 0. -1.
    10030    2    1    2    0    0  0.00000000000E+00  0.00000000000E+00  0.15815104884E+04  0.27681488290E+04  0.22718874344E+04 0.  0.
        2    1    3    3  502    0  0.11131108696E+04 -0.13387023023E+03  0.56797440097E+03  0.12567943216E+04  0.25500000920E-02 0.  1.
       -2    1    3    3    0  502 -0.11131108696E+04  0.13387023023E+03  0.10135360874E+04  0.15113545074E+04  0.25500000920E-02 0. -1.
</event>
<event>
 5   0  0.1284837E-05  0.2256228E+04  0.7818609E-02  0.8495383E-01
        1   -1    0    0  501    0  0.00000000000E+00  0.00000000000E+00  0.12972226704E+04  0.12972226704E+04  0.50400001928E-02 0.  1.
       -1   -1    0    0    0  501  0.00000000000E+00  0.00000000000E+00 -0.98105049797E+03  0.98105049798E+03  0.50400001928E-02 0. -1.
    10030    2    1    2    0    0  0.00000000000E+00  0.00000000000E+00  0.31617217239E+03  0.22782731684E+04  0.22562277782E+04 0.  0.
        4    1    3    3  502    0  0.77937121420E+03  0.67302408918E+03  0.62330280819E+03  0.12036980177E+04  0.12699999809E+01 0. -1.
       -4    1    3    3    0  502 -0.77937121420E+03 -0.67302408918E+03 -0.30713063579E+03  0.10745751507E+04  0.12699999809E+01 0.  1.
</event>
<event>
 5   0  0.2816178E-05  0.2313378E+04  0.7818609E-02  0.8472665E-01
        2   -1    0    0  501    0  0.00000000000E+00  0.00000000000E+00  0.10290243653E+04  0.10290243653E+04  0.25500000920E-02 0.  1.
       -2   -1    0    0    0  501  0.00000000000E+00  0.00000000000E+00 -0.13001916468E+04  0.13001916468E+04  0.25500000920E-02 0. -1.
    10030    2    1    2    0    0  0.00000000000E+00  0.00000000000E+00 -0.27116728149E+03  0.23292160122E+04  0.23133775171E+04 0.  0.
        1    1    3    3  502    0 -0.56897123684E+03  0.10067433758E+04 -0.16161390496E+03  0.11676384489E+04  0.50400001928E-02 0. -1.
       -1    1    3    3    0  502  0.56897123684E+03 -0.10067433758E+04 -0.10955337653E+03  0.11615775633E+04  0.50400001928E-02 0.  1.
</event>
<event>
 5   0  0.1284837E-05  0.2243470E+04  0.7818609E-02  0.8500550E-01
       -1   -1    0    0    0  501  0.00000000000E+00  0.00000000000E+00  0.10300792583E+04  0.10300792583E+04  0.50400001928E-02 0. -1.
        1   -1    0    0  501    0  0.00000000000E+00  0.00000000000E+00 -0.12215459291E+04  0.12215459291E+04  0.50400001928E-02 0.  1.
    10030    2    1    2    0    0  0.00000000000E+00  0.00000000000E+00 -0.19146667085E+03  0.22516251874E+04  0.22434697454E+04 0.  0.
        4    1    3    3  502    0  0.22793470219E+03 -0.24331967737E+03  0.97920110094E+03  0.10344056761E+04  0.12699999809E+01 0. -1.
       -4    1    3    3    0  502 -0.22793470219E+03  0.24331967737E+03 -0.11706677718E+04  0.12172195113E+04  0.12699999809E+01 0.  1.
</event>
<event>
 5   0  0.1371753E-05  0.2279577E+04  0.7818609E-02  0.8486017E-01
       -1   -1    0    0    0  501  0.00000000000E+00  0.00000000000E+00  0.21779325204E+04  0.21779325204E+04  0.50400001928E-02 0. -1.
        1   -1    0    0  501    0  0.00000000000E+00  0.00000000000E+00 -0.59649131163E+03  0.59649131165E+03  0.50400001928E-02 0.  1.
    10030    2    1    2    0    0  0.00000000000E+00  0.00000000000E+00  0.15814412088E+04  0.27744238321E+04  0.22795770009E+04 0.  0.
        3    1    3    3  502    0 -0.17612667702E+03  0.94404507268E+03  0.15378878827E+04  0.18131025497E+04  0.10100000352E+00 0.  1.
       -3    1    3    3    0  502  0.17612667702E+03 -0.94404507268E+03  0.43553326088E+02  0.96132128242E+03  0.10100000352E+00 0. -1.
</event>
<event>
 5   0  0.1303224E-05  0.2292026E+04  0.7818609E-02  0.8481072E-01
        1   -1    0    0  501    0  0.00000000000E+00  0.00000000000E+00  0.10898651438E+04  0.10898651438E+04  0.50400001928E-02 0.  1.
       -1   -1    0    0    0  501  0.00000000000E+00  0.00000000000E+00 -0.12050539641E+04  0.12050539641E+04  0.50400001928E-02 0. -1.
    10030    2    1    2    0    0  0.00000000000E+00  0.00000000000E+00 -0.11518882027E+03  0.22949191079E+04  0.22920264500E+04 0.  0.
        2    1    3    3  502    0 -0.11033442993E+04  0.89782916346E+02 -0.35447611745E+03  0.11623609304E+04  0.25500000920E-02 0. -1.
       -2    1    3    3    0  502  0.11033442993E+04 -0.89782916346E+02  0.23928729718E+03  0.11325581775E+04  0.25500000920E-02 0.  1.
</event>
<event>
 5   0  0.2816178E-05  0.2297569E+04  0.7818609E-02  0.8478880E-01
       -2   -1    0    0    0  501  0.00000000000E+00  0.00000000000E+00  0.16754337204E+04  0.16754337204E+04  0.25500000920E-02 0. -1.
        2   -1    0    0  501    0  0.00000000000E+00  0.00000000000E+00 -0.78768003245E+03  0.78768003245E+03  0.25500000920E-02 0.  1.
    10030    2    1    2    0    0  0.00000000000E+00  0.00000000000E+00  0.88775368795E+03  0.24631137528E+04  0.22975688780E+04 0.  0.
        1    1    3    3  502    0  0.11438499035E+03  0.11176862509E+04  0.18703317183E+03  0.11389854648E+04  0.50400001928E-02 0. -1.
       -1    1    3    3    0  502 -0.11438499035E+03 -0.11176862509E+04  0.70072051612E+03  0.13241282881E+04  0.50400001928E-02 0.  1.
</event>
<event>
 5   0  0.2910126E-05  0.2342539E+04  0.7818609E-02  0.8461335E-01
        2   -1    0    0  501    0  0.00000000000E+00  0.00000000000E+00  0.23272756138E+04  0.23272756138E+04  0.25500000920E-02 0.  1.
       -2   -1    0    0    0  501  0.00000000000E+00  0.00000000000E+00 -0.58947543316E+03  0.58947543317E+03  0.25500000920E-02 0. -1.
    10030    2    1    2    0    0  0.00000000000E+00  0.00000000000E+00  0.17378001807E+04  0.29167510470E+04  0.23425386234E+04 0.  0.
        5    1    3    3  502    0  0.53141880321E+03  0.52703073526E+03  0.19906748366E+04  0.21267288815E+04  0.46999998093E+01 0.  1.
       -5    1    3    3    0  502 -0.53141880321E+03 -0.52703073526E+03 -0.25287465597E+03  0.79002216548E+03  0.46999998093E+01 0. -1.
</event>
<event>
 5   0  0.1308224E-05  0.2349546E+04  0.7818609E-02  0.8458638E-01
        1   -1    0    0  501    0  0.00000000000E+00  0.00000000000E+00  0.16244315731E+04  0.16244315731E+04  0.50400001928E-02 0.  1.
       -1   -1    0    0    0  501  0.00000000000E+00  0.00000000000E+00 -0.84958412087E+03  0.84958412088E+03  0.50400001928E-02 0. -1.
    10030    2    1    2    0    0  0.00000000000E+00  0.00000000000E+00  0.77484745225E+03  0.24740156940E+04  0.23495457178E+04 0.  0.
        5    1    3    3  502    0 -0.74659814575E+03  0.71737683998E+03 -0.19698361557E+03  0.10539748368E+04  0.46999998093E+01 0. -1.
       -5    1    3    3    0  502  0.74659814575E+03 -0.71737683998E+03  0.97183106783E+03  0.14200408572E+04  0.46999998093E+01 0.  1.
</event>
<event>
 5   0  0.2994157E-05  0.2270087E+04  0.7818609E-02  0.8489810E-01
       -2   -1    0    0    0  501  0.00000000000E+00  0.00000000000E+00  0.70804253171E+03  0.70804253171E+03  0.25500000920E-02 0.  1.
        2   -1    0    0  501    0  0.00000000000E+00  0.00000000000E+00 -0.18195569871E+04  0.18195569871E+04  0.25500000920E-02 0. -1.
    10030    2    1    2    0    0  0.00000000000E+00  0.00000000000E+00 -0.11115144554E+04  0.25275995188E+04  0.22700869902E+04 0.  0.
        4    1    3    3  502    0  0.66161726151E+03 -0.44515991253E+03  0.34359232567E+03  0.86830987995E+03  0.12699999809E+01 0.  1.
       -4    1    3    3    0  502 -0.66161726151E+03  0.44515991253E+03 -0.14551067811E+04  0.16592896389E+04  0.12699999809E+01 0. -1.
</event>
<event>
 5   0  0.1327820E-05  0.2083909E+04  0.7818609E-02  0.8568365E-01
        1   -1    0    0  501    0  0.00000000000E+00  0.00000000000E+00  0.24351353306E+04  0.24351353306E+04  0.50400001928E-02 0.  1.
       -1   -1    0    0    0  501  0.00000000000E+00  0.00000000000E+00 -0.44583533830E+03  0.44583533833E+03  0.50400001928E-02 0. -1.
    10030    2    1    2    0    0  0.00000000000E+00  0.00000000000E+00  0.19892999923E+04  0.28809706689E+04  0.20839091957E+04 0.  0.
        1    1    3    3  502    0  0.88992146850E+02 -0.90771137345E+03  0.16911390205E+04  0.19214085267E+04  0.50400001928E-02 0. -1.
       -1    1    3    3    0  502 -0.88992146850E+02  0.90771137345E+03  0.29816097176E+03  0.95956214223E+03  0.50400001928E-02 0.  1.
</event>
<event>
 5   0  0.1308224E-05  0.2284868E+04  0.7818609E-02  0.8483911E-01
       -1   -1    0    0    0  501  0.00000000000E+00  0.00000000000E+00  0.12866090399E+04  0.12866090399E+04  0.50400001928E-02 0.  1.
        1   -1    0    0  501    0  0.00000000000E+00  0.00000000000E+00 -0.10144152446E+04  0.10144152446E+04  0.50400001928E-02 0. -1.
    10030    2    1    2    0    0  0.00000000000E+00  0.00000000000E+00  0.27219379533E+03  0.23010242845E+04  0.22848683322E+04 0.  0.
        5    1    3    3  502    0  0.91552945817E+02  0.76037469648E+03  0.98978302667E+03  0.12514967642E+04  0.46999998093E+01 0.  1.
       -5    1    3    3    0  502 -0.91552945817E+02 -0.76037469648E+03 -0.71758923134E+03  0.10495275203E+04  0.46999998093E+01 0. -1.
</event>
<event>
 5   0  0.1303224E-05  0.2301235E+04  0.7818609E-02  0.8477434E-01
       -1   -1    0    0    0  501  0.00000000000E+00  0.00000000000E+00  0.11867678942E+04  0.11867678942E+04  0.50400001928E-02 0.  1.
        1   -1    0    0  501    0  0.00000000000E+00  0.00000000000E+00 -0.11155680528E+04  0.11155680528E+04  0.50400001928E-02 0. -1.
    10030    2    1    2    0    0  0.00000000000E+00  0.00000000000E+00  0.71199841393E+02  0.23023359470E+04  0.23012347546E+04 0.  0.
        2    1    3    3  502    0  0.75951150418E+02  0.11254654885E+04 -0.19139894594E+03  0.11441480235E+04  0.25500000920E-02 0. -1.
       -2    1    3    3    0  502 -0.75951150418E+02 -0.11254654885E+04  0.26259878734E+03  0.11581879235E+04  0.25500000920E-02 0.  1.
</event>
<event>
 5   0  0.1303224E-05  0.2301012E+04  0.7818609E-02  0.8477522E-01
       -1   -1    0    0    0  501  0.00000000000E+00  0.00000000000E+00  0.88048151131E+03  0.88048151132E+03  0.50400001928E-02 0. -1.
        1   -1    0    0  501    0  0.00000000000E+00  0.00000000000E+00 -0.15033412083E+04  0.15033412083E+04  0.50400001928E-02 0.  1.
    10030    2    1    2    0    0  0.00000000000E+00  0.00000000000E+00 -0.62285969703E+03  0.23838227197E+04  0.23010120722E+04 0.  0.
        2    1    3    3  502    0 -0.96404215481E+03  0.20843760959E+03  0.30220497254E+03  0.10315771221E+04  0.25500000920E-02 0. -1.
       -2    1    3    3    0  502  0.96404215481E+03 -0.20843760959E+03 -0.92506466957E+03  0.13522455976E+04  0.25500000920E-02 0.  1.
</event>
<event>
 5   0  0.1308224E-05  0.2302750E+04  0.7818609E-02  0.8476838E-01
       -1   -1    0    0    0  501  0.00000000000E+00  0.00000000000E+00  0.54543137429E+03  0.54543137431E+03  0.50400001928E-02 0. -1.
        1   -1    0    0  501    0  0.00000000000E+00  0.00000000000E+00 -0.24304870796E+04  0.24304870796E+04  0.50400001928E-02 0.  1.
    10030    2    1    2    0    0  0.00000000000E+00  0.00000000000E+00 -0.18850557053E+04  0.29759184539E+04  0.23027495809E+04 0.  0.
        5    1    3    3  502    0  0.98244659104E+02 -0.81111734407E+03  0.10583868930E+03  0.82388547569E+03  0.46999998093E+01 0. -1.
       -5    1    3    3    0  502 -0.98244659104E+02  0.81111734407E+03 -0.19908943946E+04  0.21520329782E+04  0.46999998093E+01 0.  1.
</event>
<event>
 5   0  0.1308224E-05  0.2268185E+04  0.7818609E-02  0.8490572E-01
       -1   -1    0    0    0  501  0.00000000000E+00  0.00000000000E+00  0.10889008037E+04  0.10889008037E+04  0.50400001928E-02 0. -1.
        1   -1    0    0  501    0  0.00000000000E+00  0.00000000000E+00 -0.11811602347E+04  0.11811602347E+04  0.50400001928E-02 0.  1.
    10030    2    1    2    0    0  0.00000000000E+00  0.00000000000E+00 -0.92259431022E+02  0.22700610384E+04  0.22681854676E+04 0.  0.
        5    1    3    3  502    0  0.84287329801E+03  0.65972856071E+03  0.32896956479E+03  0.11197857987E+04  0.46999998093E+01 0. -1.
       -5    1    3    3    0  502 -0.84287329801E+03 -0.65972856071E+03 -0.42122899581E+03  0.11502752398E+04  0.46999998093E+01 0.  1.
</event>
<event>
 5   0  0.1303224E-05  0.2272956E+04  0.7818609E-02  0.8488661E-01
       -1   -1    0    0    0  501  0.00000000000E+00  0.00000000000E+00  0.11202687789E+04  0.11202687789E+04  0.50400001928E-02 0. -1.
        1   -1    0    0  501    0  0.00000000000E+00  0.00000000000E+00 -0.11529220043E+04  0.11529220043E+04  0.50400001928E-02 0.  1.
    10030    2    1    2    0    0  0.00000000000E+00  0.00000000000E+00 -0.32653225390E+02  0.22731907832E+04  0.22729562477E+04 0.  0.
        2    1    3    3  502    0  0.57936652965E+03  0.41777819488E+03 -0.90037389193E+03  0.11492942796E+04  0.25500000920E-02 0.  1.
       -2    1    3    3    0  502 -0.57936652965E+03 -0.41777819488E+03  0.86772066654E+03  0.11238965037E+04  0.25500000920E-02 0. -1.
</event>
<event>
 5   0  0.1303224E-05  0.2296005E+04  0.7818609E-02  0.8479498E-01
       -1   -1    0    0    0  501  0.00000000000E+00  0.00000000000E+00  0.93319061074E+03  0.93319061075E+03  0.50400001928E-02 0. -1.
        1   -1    0    0  501    0  0.00000000000E+00  0.00000000000E+00 -0.14122625236E+04  0.14122625236E+04  0.50400001928E-02 0.  1.
    10030    2    1    2    0    0  0.00000000000E+00  0.00000000000E+00 -0.47907191284E+03  0.23454531343E+04  0.22960053370E+04 0.  0.
        2    1    3    3  502    0  0.66865739776E+03 -0.64810901669E+03  0.44631155901E+03  0.10326383785E+04  0.25500000920E-02 0. -1.
       -2    1    3    3    0  502 -0.66865739776E+03  0.64810901669E+03 -0.92538347185E+03  0.13128147558E+04  0.25500000920E-02 0.  1.
</event>
<event>
 5   0  0.1017200E-05  0.2299750E+04  0.7818609E-02  0.8478020E-01
       -4   -1    0    0    0  501  0.00000000000E+00  0.00000000000E+00  0.72420927219E+03  0.72421038574E+03  0.12699999809E+01 0. -1.
        4   -1    0    0  501    0  0.00000000000E+00  0.00000000000E+00 -0.18257293259E+04  0.18257297677E+04  0.12699999809E+01 0.  1.
    10030    2    1    2    0    0  0.00000000000E+00  0.00000000000E+00 -0.11015200538E+04  0.25499401534E+04  0.22997496292E+04 0.  0.
        3    1    3    3  502    0 -0.10635712219E+04  0.99568364738E+02 -0.78886066942E+02  0.10711305360E+04  0.10100000352E+00 0. -1.
       -3    1    3    3    0  502  0.10635712219E+04 -0.99568364738E+02 -0.10226339868E+04  0.14788096174E+04  0.10100000352E+00 0.  1.
</event>
<event>
 5   0  0.2816178E-05  0.2291878E+04  0.7818609E-02  0.8481130E-01
       -2   -1    0    0    0  501  0.00000000000E+00  0.00000000000E+00  0.15037185209E+04  0.15037185209E+04  0.25500000920E-02 0.  1.
        2   -1    0    0  501    0  0.00000000000E+00  0.00000000000E+00 -0.87328626452E+03  0.87328626452E+03  0.25500000920E-02 0. -1.
    10030    2    1    2    0    0  0.00000000000E+00  0.00000000000E+00  0.63043225640E+03  0.23770047854E+04  0.22918784698E+04 0.  0.
        1    1    3    3  502    0  0.92760476685E+03 -0.59858494258E+03 -0.34790647319E+01  0.11039776451E+04  0.50400001928E-02 0. -1.
       -1    1    3    3    0  502 -0.92760476685E+03  0.59858494258E+03  0.63391132114E+03  0.12730271403E+04  0.50400001928E-02 0.  1.
</event>
<event>
 5   0  0.1308224E-05  0.2282263E+04  0.7818609E-02  0.8484948E-01
       -1   -1    0    0    0  501  0.00000000000E+00  0.00000000000E+00  0.12019474310E+04  0.12019474310E+04  0.50400001928E-02 0.  1.
        1   -1    0    0  501    0  0.00000000000E+00  0.00000000000E+00 -0.10833924685E+04  0.10833924685E+04  0.50400001928E-02 0. -1.
    10030    2    1    2    0    0  0.00000000000E+00  0.00000000000E+00  0.11855496245E+03  0.22853398995E+04  0.22822627318E+04 0.  0.
        5    1    3    3  502    0 -0.10157058692E+04  0.43119482809E+03  0.35048105270E+03  0.11577765116E+04  0.46999998093E+01 0.  1.
       -5    1    3    3    0  502  0.10157058692E+04 -0.43119482809E+03 -0.23192609025E+03  0.11275633879E+04  0.46999998093E+01 0. -1.
</event>
<event>
 5   0  0.1303224E-05  0.2299648E+04  0.7818609E-02  0.8478060E-01
       -1   -1    0    0    0  501  0.00000000000E+00  0.00000000000E+00  0.10246151213E+04  0.10246151213E+04  0.50400001928E-02 0.  1.
        1   -1    0    0  501    0  0.00000000000E+00  0.00000000000E+00 -0.12903337287E+04  0.12903337287E+04  0.50400001928E-02 0. -1.
    10030    2    1    2    0    0  0.00000000000E+00  0.00000000000E+00 -0.26571860741E+03  0.23149488500E+04  0.22996481904E+04 0.  0.
        2    1    3    3  502    0 -0.96813615217E+03  0.61870974460E+03 -0.17794673547E+03  0.11626497314E+04  0.25500000920E-02 0.  1.
       -2    1    3    3    0  502  0.96813615217E+03 -0.61870974460E+03 -0.87771871941E+02  0.11522991186E+04  0.25500000920E-02 0. -1.
</event>
<event>
 5   0  0.1327820E-05  0.2008811E+04  0.7818609E-02  0.8602512E-01
        1   -1    0    0  501    0  0.00000000000E+00  0.00000000000E+00  0.23059421944E+04  0.23059421944E+04  0.50400001928E-02 0. -1.
       -1   -1    0    0    0  501  0.00000000000E+00  0.00000000000E+00 -0.43749155590E+03  0.43749155593E+03  0.50400001928E-02 0.  1.
    10030    2    1    2    0    0  0.00000000000E+00  0.00000000000E+00  0.18684506385E+04  0.27434337503E+04  0.20088108308E+04 0.  0.
        1    1    3    3  502    0  0.39230139679E+03 -0.45698502972E+02  0.21954416872E+04  0.22306844109E+04  0.50400001928E-02 0. -1.
       -1    1    3    3    0  502 -0.39230139679E+03  0.45698502972E+02 -0.32699104873E+03  0.51274933942E+03  0.50400001928E-02 0.  1.
</event>
<event>
 5   0  0.2910126E-05  0.2304249E+04  0.7818609E-02  0.8476248E-01
        2   -1    0    0  501    0  0.00000000000E+00  0.00000000000E+00  0.23368128925E+04  0.23368128925E+04  0.25500000920E-02 0.  1.
       -2   -1    0    0    0  501  0.00000000000E+00  0.00000000000E+00 -0.56803465206E+03  0.56803465207E+03  0.25500000920E-02 0. -1.
    10030    2    1    2    0    0  0.00000000000E+00  0.00000000000E+00  0.17687782404E+04  0.29048475445E+04  0.23042488566E+04 0.  0.
        5    1    3    3  502    0  0.63622421162E+03 -0.94002932336E+03  0.11331308301E+04  0.16038840184E+04  0.46999998093E+01 0. -1.
       -5    1    3    3    0  502 -0.63622421162E+03  0.94002932336E+03  0.63564741030E+03  0.13009635262E+04  0.46999998093E+01 0.  1.
</event>
<event>
 5   0  0.2910126E-05  0.2305216E+04  0.7818609E-02  0.8475867E-01
       -2   -1    0    0    0  501  0.00000000000E+00  0.00000000000E+00  0.76628415695E+03  0.76628415695E+03  0.25500000920E-02 0.  1.
        2   -1    0    0  501    0  0.00000000000E+00  0.00000000000E+00 -0.17336984574E+04  0.17336984574E+04  0.25500000920E-02 0. -1.
    10030    2    1    2    0    0  0.00000000000E+00  0.00000000000E+00 -0.96741430044E+03  0.24999826143E+04  0.23052163984E+04 0.  0.
        5    1    3    3  502    0 -0.85028986260E+03  0.31904120203E+03 -0.12533916542E+04  0.15478348969E+04  0.46999998093E+01 0. -1.
       -5    1    3    3    0  502  0.85028986260E+03 -0.31904120203E+03  0.28597735379E+03  0.95214771748E+03  0.46999998093E+01 0.  1.
</event>
<event>
 5   0  0.2994157E-05  0.2385488E+04  0.7818609E-02  0.8444957E-01
        2   -1    0    0  501    0  0.00000000000E+00  0.00000000000E+00  0.13882384544E+04  0.13882384544E+04  0.25500000920E-02 0.  1.
       -2   -1    0    0    0  501  0.00000000000E+00  0.00000000000E+00 -0.10247793666E+04  0.10247793666E+04  0.25500000920E-02 0. -1.
    10030    2    1    2    0    0  0.00000000000E+00  0.00000000000E+00  0.36345908786E+03  0.24130178210E+04  0.23854878948E+04 0.  0.
        4    1    3    3  502    0  0.90767426100E+03  0.85948874667E+02  0.95961460471E+03  0.13236772928E+04  0.12699999809E+01 0.  1.
       -4    1    3    3    0  502 -0.90767426100E+03 -0.85948874667E+02 -0.59615551685E+03  0.10893405282E+04  0.12699999809E+01 0. -1.
</event>
<event>
 5   0  0.1308224E-05  0.2297419E+04  0.7818609E-02  0.8478939E-01
       -1   -1    0    0    0  501  0.00000000000E+00  0.00000000000E+00  0.65614200450E+03  0.65614200451E+03  0.50400001928E-02 0. -1.
        1   -1    0    0  501    0  0.00000000000E+00  0.00000000000E+00 -0.20110494375E+04  0.20110494375E+04  0.50400001928E-02 0.  1.
    10030    2    1    2    0    0  0.00000000000E+00  0.00000000000E+00 -0.13549074330E+04  0.26671914420E+04  0.22974194298E+04 0.  0.
        5    1    3    3  502    0 -0.30872857400E+03 -0.69072934240E+03  0.32600801588E+03  0.82384687490E+03  0.46999998093E+01 0. -1.
       -5    1    3    3    0  502  0.30872857400E+03  0.69072934240E+03 -0.16809154489E+04  0.18433445672E+04  0.46999998093E+01 0.  1.
</event>
<event>
 5   0  0.2938972E-05  0.2287342E+04  0.7818609E-02  0.8482929E-01
       -2   -1    0    0    0  501  0.00000000000E+00  0.00000000000E+00  0.65092225474E+03  0.65092225475E+03  0.25500000920E-02 0. -1.
        2   -1    0    0  501    0  0.00000000000E+00  0.00000000000E+00 -0.20094314290E+04  0.20094314290E+04  0.25500000920E-02 0.  1.
    10030    2    1    2    0    0  0.00000000000E+00  0.00000000000E+00 -0.13585091742E+04  0.26603536837E+04  0.22873422450E+04 0.  0.
        2    1    3    3  502    0  0.23319615559E+03  0.28493823487E+03 -0.19386108678E+04  0.19732669210E+04  0.25500000920E-02 0.  1.
       -2    1    3    3    0  502 -0.23319615559E+03 -0.28493823487E+03  0.58010169356E+03  0.68708676275E+03  0.25500000920E-02 0. -1.
</event>
<event>
 5   0  0.1303224E-05  0.2283109E+04  0.7818609E-02  0.8484611E-01
       -1   -1    0    0    0  501  0.00000000000E+00  0.00000000000E+00  0.94999654943E+03  0.94999654944E+03  0.50400001928E-02 0. -1.
        1   -1    0    0  501    0  0.00000000000E+00  0.00000000000E+00 -0.13717388333E+04  0.13717388333E+04  0.50400001928E-02 0.  1.
    10030    2    1    2    0    0  0.00000000000E+00  0.00000000000E+00 -0.42174228386E+03  0.23217353827E+04  0.22831094221E+04 0.  0.
        2    1    3    3  502    0 -0.82938016261E+03  0.69585592956E+03  0.15727601908E+03  0.10939939100E+04  0.25500000920E-02 0. -1.
       -2    1    3    3    0  502  0.82938016261E+03 -0.69585592956E+03 -0.57901830295E+03  0.12277414728E+04  0.25500000920E-02 0.  1.
</event>
<event>
 5   0  0.2938972E-05  0.2326992E+04  0.7818609E-02  0.8467354E-01
       -2   -1    0    0    0  501  0.00000000000E+00  0.00000000000E+00  0.10046342090E+04  0.10046342090E+04  0.25500000920E-02 0.  1.
        2   -1    0    0  501    0  0.00000000000E+00  0.00000000000E+00 -0.13474783205E+04  0.13474783205E+04  0.25500000920E-02 0. -1.
    10030    2    1    2    0    0  0.00000000000E+00  0.00000000000E+00 -0.34284411156E+03  0.23521125295E+04  0.23269918923E+04 0.  0.
        2    1    3    3  502    0 -0.66908029097E+03 -0.95166675596E+03 -0.19124927755E+03  0.11789462822E+04  0.25500000920E-02 0.  1.
       -2    1    3    3    0  502  0.66908029097E+03  0.95166675596E+03 -0.15159483401E+03  0.11731662473E+04  0.25500000920E-02 0. -1.
</event>
<event>
 5   0  0.1308224E-05  0.2324815E+04  0.7818609E-02  0.8468201E-01
        1   -1    0    0  501    0  0.00000000000E+00  0.00000000000E+00  0.14363723099E+04  0.14363723099E+04  0.50400001928E-02 0.  1.
       -1   -1    0    0    0  501  0.00000000000E+00  0.00000000000E+00 -0.94069719973E+03  0.94069719974E+03  0.50400001928E-02 0. -1.
    10030    2    1    2    0    0  0.00000000000E+00  0.00000000000E+00  0.49567511013E+03  0.23770695096E+04  0.23248151838E+04 0.  0.
        5    1    3    3  502    0 -0.32933720569E+03 -0.98968694882E+03  0.77242500470E+03  0.12979236224E+04  0.46999998093E+01 0. -1.
       -5    1    3    3    0  502  0.32933720569E+03  0.98968694882E+03 -0.27674989458E+03  0.10791458872E+04  0.46999998093E+01 0.  1.
</event>
<event>
 5   0  0.2994157E-05  0.2307789E+04  0.7818609E-02  0.8474856E-01
       -2   -1    0    0    0  501  0.00000000000E+00  0.00000000000E+00  0.17600005560E+04  0.17600005560E+04  0.25500000920E-02 0.  1.
        2   -1    0    0  501    0  0.00000000000E+00  0.00000000000E+00 -0.75651801291E+03  0.75651801292E+03  0.25500000920E-02 0. -1.
    10030    2    1    2    0    0  0.00000000000E+00  0.00000000000E+00  0.10034825431E+04  0.25165185689E+04  0.23077886587E+04 0.  0.
        4    1    3    3  502    0  0.51399086100E+03  0.10116729363E+04  0.72995930586E+03  0.13492631087E+04  0.12699999809E+01 0.  1.
       -4    1    3    3    0  502 -0.51399086100E+03 -0.10116729363E+04  0.27352323721E+03  0.11672554602E+04  0.12699999809E+01 0. -1.
</event>
<event>
 5   0  0.1327820E-05  0.2281368E+04  0.7818609E-02  0.8485304E-01
        1   -1    0    0  501    0  0.00000000000E+00  0.00000000000E+00  0.16080333402E+04  0.16080333402E+04  0.50400001928E-02 0. -1.
       -1   -1    0    0    0  501  0.00000000000E+00  0.00000000000E+00 -0.80916229956E+03  0.80916229958E+03  0.50400001928E-02 0.  1.
    10030    2    1    2    0    0  0.00000000000E+00  0.00000000000E+00  0.79887104062E+03  0.24171956398E+04  0.22813679715E+04 0.  0.
        1    1    3    3  502    0  0.62244897334E+03  0.26726830507E+03  0.13718377935E+04  0.15299718961E+04  0.50400001928E-02 0. -1.
       -1    1    3    3    0  502 -0.62244897334E+03 -0.26726830507E+03 -0.57296675288E+03  0.88722374362E+03  0.50400001928E-02 0.  1.
</event>
<event>
 5   0  0.1308224E-05  0.2295264E+04  0.7818609E-02  0.8479791E-01
        1   -1    0    0  501    0  0.00000000000E+00  0.00000000000E+00  0.89692658771E+03  0.89692658772E+03  0.50400001928E-02 0. -1.
       -1   -1    0    0    0  501  0.00000000000E+00  0.00000000000E+00 -0.14684129930E+04  0.14684129930E+04  0.50400001928E-02 0.  1.
    10030    2    1    2    0    0  0.00000000000E+00  0.00000000000E+00 -0.57148640528E+03  0.23653395807E+04  0.22952635188E+04 0.  0.
        5    1    3    3  502    0 -0.41346122411E+03 -0.99952274317E+03 -0.68090929966E+03  0.12781453213E+04  0.46999998093E+01 0.  1.
       -5    1    3    3    0  502  0.41346122411E+03  0.99952274317E+03  0.10942289438E+03  0.10871942594E+04  0.46999998093E+01 0. -1.
</event>
<event>
 5   0  0.1327820E-05  0.2297177E+04  0.7818609E-02  0.8479035E-01
       -1   -1    0    0    0  501  0.00000000000E+00  0.00000000000E+00  0.65062596221E+03  0.65062596223E+03  0.50400001928E-02 0.  1.
        1   -1    0    0  501    0  0.00000000000E+00  0.00000000000E+00 -0.20276714576E+04  0.20276714576E+04  0.50400001928E-02 0. -1.
    10030    2    1    2    0    0  0.00000000000E+00  0.00000000000E+00 -0.13770454954E+04  0.26782974199E+04  0.22971771314E+04 0.  0.
        1    1    3    3  502    0 -0.53934431340E+03 -0.61321746328E+03 -0.16301895171E+04  0.18233062846E+04  0.50400001928E-02 0. -1.
       -1    1    3    3    0  502  0.53934431340E+03  0.61321746328E+03  0.25314402170E+03  0.85499113528E+03  0.50400001928E-02 0.  1.
</event>
<event>
 5   0  0.2938972E-05  0.2302328E+04  0.7818609E-02  0.8477004E-01
       -2   -1    0    0    0  501  0.00000000000E+00  0.00000000000E+00  0.91573729296E+03  0.91573729296E+03  0.25500000920E-02 0. -1.
        2   -1    0    0  501    0  0.00000000000E+00  0.00000000000E+00 -0.14471163229E+04  0.14471163229E+04  0.25500000920E-02 0.  1.
    10030    2    1    2    0    0  0.00000000000E+00  0.00000000000E+00 -0.53137902992E+03  0.23628536158E+04  0.23023278516E+04 0.  0.
        2    1    3    3  502    0 -0.30031147139E+03  0.40062896517E+03  0.79813599790E+03  0.94218449293E+03  0.25500000920E-02 0. -1.
       -2    1    3    3    0  502  0.30031147139E+03 -0.40062896517E+03 -0.13295150278E+04  0.14206691229E+04  0.25500000920E-02 0.  1.
</event>
<event>
 5   0  0.2871888E-05  0.2311291E+04  0.7818609E-02  0.8473482E-01
       -2   -1    0    0    0  501  0.00000000000E+00  0.00000000000E+00  0.18889163578E+04  0.18889163578E+04  0.25500000920E-02 0. -1.
        2   -1    0    0  501    0  0.00000000000E+00  0.00000000000E+00 -0.70702797872E+03  0.70702797872E+03  0.25500000920E-02 0.  1.
    10030    2    1    2    0    0  0.00000000000E+00  0.00000000000E+00  0.11818883791E+04  0.25959443366E+04  0.23112911668E+04 0.  0.
        3    1    3    3  502    0  0.45724308856E+03 -0.12366648799E+03  0.17748781129E+04  0.18369967251E+04  0.10100000352E+00 0. -1.
       -3    1    3    3    0  502 -0.45724308856E+03  0.12366648799E+03 -0.59298973379E+03  0.75894761141E+03  0.10100000352E+00 0.  1.
</event>
<event>
 5   0  0.1308224E-05  0.2273471E+04  0.7818609E-02  0.8488455E-01
       -1   -1    0    0    0  501  0.00000000000E+00  0.00000000000E+00  0.83936407055E+03  0.83936407056E+03  0.50400001928E-02 0.  1.
        1   -1    0    0  501    0  0.00000000000E+00  0.00000000000E+00 -0.15394606095E+04  0.15394606096E+04  0.50400001928E-02 0. -1.
    10030    2    1    2    0    0  0.00000000000E+00  0.00000000000E+00 -0.70009653900E+03  0.23788246801E+04  0.22734712874E+04 0.  0.
        5    1    3    3  502    0  0.35519351012E+02  0.10472050992E+04 -0.81120511216E+03  0.13251324342E+04  0.46999998093E+01 0. -1.
       -5    1    3    3    0  502 -0.35519351012E+02 -0.10472050992E+04  0.11110857316E+03  0.10536922459E+04  0.46999998093E+01 0.  1.
</event>
<event>
 5   0  0.2910126E-05  0.2304357E+04  0.7818609E-02  0.8476205E-01
        2   -1    0    0  501    0  0.00000000000E+00  0.00000000000E+00  0.32542326825E+04  0.32542326825E+04  0.25500000920E-02 0. -1.
       -2   -1    0    0    0  501  0.00000000000E+00  0.00000000000E+00 -0.40793504997E+03  0.40793504998E+03  0.25500000920E-02 0.  1.
    10030    2    1    2    0    0  0.00000000000E+00  0.00000000000E+00  0.28462976325E+04  0.36621677325E+04  0.23043572397E+04 0.  0.
        5    1    3    3  502    0 -0.19220392617E+03  0.10422371124E+04  0.21414640835E+04  0.23893704314E+04  0.46999998093E+01 0. -1.
       -5    1    3    3    0  502  0.19220392617E+03 -0.10422371124E+04  0.70483354908E+03  0.12727973011E+04  0.46999998093E+01 0.  1.
</event>
<event>
 5   0  0.2910126E-05  0.2297625E+04  0.7818609E-02  0.8478858E-01
       -2   -1    0    0    0  501  0.00000000000E+00  0.00000000000E+00  0.13955804479E+04  0.13955804479E+04  0.25500000920E-02 0. -1.
        2   -1    0    0  501    0  0.00000000000E+00  0.00000000000E+00 -0.94567861744E+03  0.94567861745E+03  0.25500000920E-02 0.  1.
    10030    2    1    2    0    0  0.00000000000E+00  0.00000000000E+00  0.44990183049E+03  0.23412590654E+04  0.22976253729E+04 0.  0.
        5    1    3    3  502    0  0.48186940415E+03 -0.61904978765E+03 -0.63022930825E+03  0.10062960962E+04  0.46999998093E+01 0.  1.
       -5    1    3    3    0  502 -0.48186940415E+03  0.61904978765E+03  0.10801311387E+04  0.13349629692E+04  0.46999998093E+01 0. -1.
</event>
<event>
 5   0  0.2910126E-05  0.2202962E+04  0.7818609E-02  0.8517196E-01
        2   -1    0    0  501    0  0.00000000000E+00  0.00000000000E+00  0.21392757975E+04  0.21392757975E+04  0.25500000920E-02 0. -1.
       -2   -1    0    0    0  501  0.00000000000E+00  0.00000000000E+00 -0.56713614199E+03  0.56713614199E+03  0.25500000920E-02 0.  1.
    10030    2    1    2    0    0  0.00000000000E+00  0.00000000000E+00  0.15721396555E+04  0.27064119394E+04  0.22029622080E+04 0.  0.
        5    1    3    3  502    0 -0.10132577816E+03  0.91691697229E+03  0.46665496530E+02  0.92369010277E+03  0.46999998093E+01 0.  1.
       -5    1    3    3    0  502  0.10132577816E+03 -0.91691697229E+03  0.15254741589E+04  0.17827218367E+04  0.46999998093E+01 0. -1.
</event>
<event>
 5   0  0.1327820E-05  0.2304853E+04  0.7818609E-02  0.8476010E-01
        1   -1    0    0  501    0  0.00000000000E+00  0.00000000000E+00  0.11398477485E+04  0.11398477485E+04  0.50400001928E-02 0.  1.
       -1   -1    0    0    0  501  0.00000000000E+00  0.00000000000E+00 -0.11651438587E+04  0.11651438587E+04  0.50400001928E-02 0. -1.
    10030    2    1    2    0    0  0.00000000000E+00  0.00000000000E+00 -0.25296110165E+02  0.23049916072E+04  0.23048527970E+04 0.  0.
        1    1    3    3  502    0 -0.45664558078E+03 -0.96261446747E+03 -0.45191795421E+03  0.11573165672E+04  0.50400001928E-02 0. -1.
       -1    1    3    3    0  502  0.45664558078E+03  0.96261446747E+03  0.42662184404E+03  0.11476750399E+04  0.50400001928E-02 0.  1.
</event>
<event>
 5   0  0.2994157E-05  0.2302292E+04  0.7818609E-02  0.8477018E-01
       -2   -1    0    0    0  501  0.00000000000E+00  0.00000000000E+00  0.10551096459E+04  0.10551096459E+04  0.25500000920E-02 0. -1.
        2   -1    0    0  501    0  0.00000000000E+00  0.00000000000E+00 -0.12559233812E+04  0.12559233812E+04  0.25500000920E-02 0.  1.
    10030    2    1    2    0    0  0.00000000000E+00  0.00000000000E+00 -0.20081373531E+03  0.23110330272E+04  0.23022917922E+04 0.  0.
        4    1    3    3  502    0 -0.76555935131E+03 -0.68840047183E+02 -0.96058231605E+03  0.12302601641E+04  0.12699999809E+01 0.  1.
       -4    1    3    3    0  502  0.76555935131E+03  0.68840047183E+02  0.75976858074E+03  0.10807728631E+04  0.12699999809E+01 0. -1.
</event>
<event>
 5   0  0.1327820E-05  0.2324829E+04  0.7818609E-02  0.8468195E-01
       -1   -1    0    0    0  501  0.00000000000E+00  0.00000000000E+00  0.84629111416E+03  0.84629111417E+03  0.50400001928E-02 0.  1.
        1   -1    0    0  501    0  0.00000000000E+00  0.00000000000E+00 -0.15966225572E+04  0.15966225572E+04  0.50400001928E-02 0. -1.
    10030    2    1    2    0    0  0.00000000000E+00  0.00000000000E+00 -0.75033144306E+03  0.24429136714E+04  0.23248290112E+04 0.  0.
        1    1    3    3  502    0 -0.10629411449E+02  0.11596103151E+04 -0.29111270074E+03  0.11956402769E+04  0.50400001928E-02 0.  1.
       -1    1    3    3    0  502  0.10629411449E+02 -0.11596103151E+04 -0.45921874232E+03  0.12472733945E+04  0.50400001928E-02 0. -1.
</event>
<event>
 5   0  0.1371753E-05  0.2325645E+04  0.7818609E-02  0.8467878E-01
       -1   -1    0    0    0  501  0.00000000000E+00  0.00000000000E+00  0.92851110813E+03  0.92851110815E+03  0.50400001928E-02 0. -1.
        1   -1    0    0  501    0  0.00000000000E+00  0.00000000000E+00 -0.14562621541E+04  0.14562621541E+04  0.50400001928E-02 0.  1.
    10030    2    1    2    0    0  0.00000000000E+00  0.00000000000E+00 -0.52775104600E+03  0.23847732623E+04  0.23256445012E+04 0.  0.
        3    1    3    3  502    0 -0.68540101515E+03 -0.10054930760E+03  0.69382438835E+03  0.98044735039E+03  0.10100000352E+00 0. -1.
       -3    1    3    3    0  502  0.68540101515E+03  0.10054930760E+03 -0.12215754344E+04  0.14043259119E+04  0.10100000352E+00 0.  1.
</event>
<event>
 5   0  0.1303224E-05  0.2309723E+04  0.7818609E-02  0.8474097E-01
        1   -1    0    0  501    0  0.00000000000E+00  0.00000000000E+00  0.22845215675E+04  0.22845215675E+04  0.50400001928E-02 0.  1.
       -1   -1    0    0    0  501  0.00000000000E+00  0.00000000000E+00 -0.58380047981E+03  0.58380047983E+03  0.50400001928E-02 0. -1.
    10030    2    1    2    0    0  0.00000000000E+00  0.00000000000E+00  0.17007210877E+04  0.28683220473E+04  0.23097227429E+04 0.  0.
        2    1    3    3  502    0 -0.60444996775E+03  0.83073842612E+03  0.19533051197E+03  0.10457724920E+04  0.25500000920E-02 0. -1.
       -2    1    3    3    0  502  0.60444996775E+03 -0.83073842612E+03  0.15053905757E+04  0.18225495553E+04  0.25500000920E-02 0.  1.
</event>
<event>
 5   0  0.2994157E-05  0.2306859E+04  0.7818609E-02  0.8475221E-01
        2   -1    0    0  501    0  0.00000000000E+00  0.00000000000E+00  0.17739577205E+04  0.17739577206E+04  0.25500000920E-02 0.  1.
       -2   -1    0    0    0  501  0.00000000000E+00  0.00000000000E+00 -0.74996153206E+03  0.74996153206E+03  0.25500000920E-02 0. -1.
    10030    2    1    2    0    0  0.00000000000E+00  0.00000000000E+00  0.10239961885E+04  0.25239192526E+04  0.23068593801E+04 0.  0.
        4    1    3    3  502    0  0.89625324074E+03 -0.69621285114E+03  0.28666738985E+03  0.11705391967E+04  0.12699999809E+01 0.  1.
       -4    1    3    3    0  502 -0.89625324074E+03  0.69621285114E+03  0.73732879864E+03  0.13533800559E+04  0.12699999809E+01 0. -1.
</event>
<event>
 5   0  0.1284837E-05  0.2298798E+04  0.7818609E-02  0.8478395E-01
        1   -1    0    0  501    0  0.00000000000E+00  0.00000000000E+00  0.20057936795E+04  0.20057936795E+04  0.50400001928E-02 0.  1.
       -1   -1    0    0    0  501  0.00000000000E+00  0.00000000000E+00 -0.65865082587E+03  0.65865082589E+03  0.50400001928E-02 0. -1.
    10030    2    1    2    0    0  0.00000000000E+00  0.00000000000E+00  0.13471428536E+04  0.26644445054E+04  0.22987976540E+04 0.  0.
        4    1    3    3  502    0  0.36251080643E+02  0.53880682045E+03 -0.50245427864E+03  0.73762378327E+03  0.12699999809E+01 0. -1.
       -4    1    3    3    0  502 -0.36251080643E+02 -0.53880682045E+03  0.18495971323E+04  0.19268207221E+04  0.12699999809E+01 0.  1.
</event>
<event>
 5   0  0.1371753E-05  0.2278346E+04  0.7818609E-02  0.8486508E-01
        1   -1    0    0  501    0  0.00000000000E+00  0.00000000000E+00  0.14456349867E+04  0.14456349867E+04  0.50400001928E-02 0.  1.
       -1   -1    0    0    0  501  0.00000000000E+00  0.00000000000E+00 -0.89767796896E+03  0.89767796897E+03  0.50400001928E-02 0. -1.
    10030    2    1    2    0    0  0.00000000000E+00  0.00000000000E+00  0.54795701778E+03  0.23433129557E+04  0.22783456092E+04 0.  0.
        3    1    3    3  502    0  0.70592035980E+03 -0.20515722386E+03 -0.62106703476E+03  0.96236028220E+03  0.10100000352E+00 0. -1.
       -3    1    3    3    0  502 -0.70592035980E+03  0.20515722386E+03  0.11690240525E+04  0.13809526735E+04  0.10100000352E+00 0.  1.
</event>
<event>
 5   0  0.2816178E-05  0.2316416E+04  0.7818609E-02  0.8471477E-01
       -2   -1    0    0    0  501  0.00000000000E+00  0.00000000000E+00  0.64905091503E+03  0.64905091504E+03  0.25500000920E-02 0. -1.
        2   -1    0    0  501    0  0.00000000000E+00  0.00000000000E+00 -0.20667801224E+04  0.20667801224E+04  0.25500000920E-02 0.  1.
    10030    2    1    2    0    0  0.00000000000E+00  0.00000000000E+00 -0.14177292073E+04  0.27158310374E+04  0.23164157913E+04 0.  0.
        1    1    3    3  502    0 -0.44824859089E+03  0.94428698811E+03 -0.12937180284E+04  0.16632230916E+04  0.50400001928E-02 0.  1.
       -1    1    3    3    0  502  0.44824859089E+03 -0.94428698811E+03 -0.12401117889E+03  0.10526079458E+04  0.50400001928E-02 0. -1.
</event>
<event>
 5   0  0.2910126E-05  0.2304712E+04  0.7818609E-02  0.8476066E-01
        2   -1    0    0  501    0  0.00000000000E+00  0.00000000000E+00  0.10928932588E+04  0.10928932588E+04  0.25500000920E-02 0. -1.
       -2   -1    0    0    0  501  0.00000000000E+00  0.00000000000E+00 -0.12150536018E+04  0.12150536019E+04  0.25500000920E-02 0.  1.
    10030    2    1    2    0    0  0.00000000000E+00  0.00000000000E+00 -0.12216034301E+03  0.23079468607E+04  0.23047116007E+04 0.  0.
        5    1    3    3  502    0  0.37250693240E+03 -0.99090641746E+03  0.39480041579E+03  0.11298435295E+04  0.46999998093E+01 0. -1.
       -5    1    3    3    0  502 -0.37250693240E+03  0.99090641746E+03 -0.51696075880E+03  0.11781033312E+04  0.46999998093E+01 0.  1.
</event>
<event>
 5   0  0.1284837E-05  0.2306662E+04  0.7818609E-02  0.8475299E-01
        1   -1    0    0  501    0  0.00000000000E+00  0.00000000000E+00  0.16817618786E+04  0.16817618786E+04  0.50400001928E-02 0.  1.
       -1   -1    0    0    0  501  0.00000000000E+00  0.00000000000E+00 -0.79093985738E+03  0.79093985739E+03  0.50400001928E-02 0. -1.
    10030    2    1    2    0    0  0.00000000000E+00  0.00000000000E+00  0.89082202122E+03  0.24727017360E+04  0.23066620909E+04 0.  0.
        4    1    3    3  502    0  0.48092208201E+03 -0.18310270827E+03  0.15518706827E+04  0.16349669352E+04  0.12699999809E+01 0.  1.
       -4    1    3    3    0  502 -0.48092208201E+03  0.18310270827E+03 -0.66104866143E+03  0.83773480077E+03  0.12699999809E+01 0. -1.
</event>
<event>
 5   0  0.2994157E-05  0.2303260E+04  0.7818609E-02  0.8476637E-01
        2   -1    0    0  501    0  0.00000000000E+00  0.00000000000E+00  0.97688479446E+03  0.97688479447E+03  0.25500000920E-02 0. -1.
       -2   -1    0    0    0  501  0.00000000000E+00  0.00000000000E+00 -0.13576332094E+04  0.13576332094E+04  0.25500000920E-02 0.  1.
    10030    2    1    2    0    0  0.00000000000E+00  0.00000000000E+00 -0.38074841491E+03  0.23345180038E+04  0.23032596369E+04 0.  0.
        4    1    3    3  502    0 -0.46415734780E+03  0.99258069631E+03  0.16882373322E+03  0.11086755828E+04  0.12699999809E+01 0. -1.
       -4    1    3    3    0  502  0.46415734780E+03 -0.99258069631E+03 -0.54957214812E+03  0.12258424210E+04  0.12699999809E+01 0.  1.
</event>
<event>
 5   0  0.2938972E-05  0.2313105E+04  0.7818609E-02  0.8472772E-01
        2   -1    0    0  501    0  0.00000000000E+00  0.00000000000E+00  0.18607730486E+04  0.18607730486E+04  0.25500000920E-02 0.  1.
       -2   -1    0    0    0  501  0.00000000000E+00  0.00000000000E+00 -0.71884868721E+03  0.71884868721E+03  0.25500000920E-02 0. -1.
    10030    2    1    2    0    0  0.00000000000E+00  0.00000000000E+00  0.11419243613E+04  0.25796217358E+04  0.23131054997E+04 0.  0.
        2    1    3    3  502    0 -0.87060288541E+03 -0.56129180175E+02 -0.27580821094E+03  0.91496996573E+03  0.25500000920E-02 0. -1.
       -2    1    3    3    0  502  0.87060288541E+03  0.56129180175E+02  0.14177325723E+04  0.16646517700E+04  0.25500000920E-02 0.  1.
</event>
<event>
 5   0  0.1327820E-05  0.2293032E+04  0.7818609E-02  0.8480674E-01
        1   -1    0    0  501    0  0.00000000000E+00  0.00000000000E+00  0.25810735508E+04  0.25810735508E+04  0.50400001928E-02 0. -1.
       -1   -1    0    0    0  501  0.00000000000E+00  0.00000000000E+00 -0.50928379974E+03  0.50928379976E+03  0.50400001928E-02 0.  1.
    10030    2    1    2    0    0  0.00000000000E+00  0.00000000000E+00  0.20717897510E+04  0.30903573505E+04  0.22930320062E+04 0.  0.
        1    1    3    3  502    0  0.81968165168E+03 -0.48788621840E+03  0.17864966128E+03  0.97047754930E+03  0.50400001928E-02 0.  1.
       -1    1    3    3    0  502 -0.81968165168E+03  0.48788621840E+03  0.18931400898E+04  0.21198798012E+04  0.50400001928E-02 0. -1.
</event>
<event>
 5   0  0.2938972E-05  0.2289347E+04  0.7818609E-02  0.8482133E-01
       -2   -1    0    0    0  501  0.00000000000E+00  0.00000000000E+00  0.66813882101E+03  0.66813882102E+03  0.25500000920E-02 0.  1.
        2   -1    0    0  501    0  0.00000000000E+00  0.00000000000E+00 -0.19610859575E+04  0.19610859575E+04  0.25500000920E-02 0. -1.
    10030    2    1    2    0    0  0.00000000000E+00  0.00000000000E+00 -0.12929471364E+04  0.26292247785E+04  0.22893472079E+04 0.  0.
        2    1    3    3  502    0  0.11041416706E+04  0.14350736191E+02 -0.99281178889E+03  0.14849276146E+04  0.25500000920E-02 0.  1.
       -2    1    3    3    0  502 -0.11041416706E+04 -0.14350736191E+02 -0.30013534755E+03  0.11442971639E+04  0.25500000920E-02 0. -1.
</event>
<event>
 5   0  0.1303224E-05  0.2206080E+04  0.7818609E-02  0.8515902E-01
       -1   -1    0    0    0  501  0.00000000000E+00  0.00000000000E+00  0.10557476521E+04  0.10557476521E+04  0.50400001928E-02 0.  1.
        1   -1    0    0  501    0  0.00000000000E+00  0.00000000000E+00 -0.11524513245E+04  0.11524513245E+04  0.50400001928E-02 0. -1.
    10030    2    1    2    0    0  0.00000000000E+00  0.00000000000E+00 -0.96703672404E+02  0.22081989766E+04  0.22060804881E+04 0.  0.
        2    1    3    3  502    0  0.20220655410E+03 -0.96958025725E+03 -0.53433266056E+03  0.11253820498E+04  0.25500000920E-02 0.  1.
       -2    1    3    3    0  502 -0.20220655410E+03  0.96958025725E+03  0.43762898816E+03  0.10828169268E+04  0.25500000920E-02 0. -1.
</event>
<event>
 5   0  0.1284837E-05  0.2298335E+04  0.7818609E-02  0.8478578E-01
       -1   -1    0    0    0  501  0.00000000000E+00  0.00000000000E+00  0.57660104849E+03  0.57660104851E+03  0.50400001928E-02 0.  1.
        1   -1    0    0  501    0  0.00000000000E+00  0.00000000000E+00 -0.22902947958E+04  0.22902947958E+04  0.50400001928E-02 0. -1.
    10030    2    1    2    0    0  0.00000000000E+00  0.00000000000E+00 -0.17136937473E+04  0.28668958443E+04  0.22983353808E+04 0.  0.
        4    1    3    3  502    0 -0.27786135491E+03 -0.11432850329E+03 -0.22404299132E+04  0.22604879447E+04  0.12699999809E+01 0. -1.
       -4    1    3    3    0  502  0.27786135491E+03  0.11432850329E+03  0.52673616596E+03  0.60640789956E+03  0.12699999809E+01 0.  1.
</event>
<event>
 5   0  0.2816178E-05  0.2247127E+04  0.7818609E-02  0.8499065E-01
       -2   -1    0    0    0  501  0.00000000000E+00  0.00000000000E+00  0.81840351193E+03  0.81840351194E+03  0.25500000920E-02 0. -1.
        2   -1    0    0  501    0  0.00000000000E+00  0.00000000000E+00 -0.15425086957E+04  0.15425086957E+04  0.25500000920E-02 0.  1.
    10030    2    1    2    0    0  0.00000000000E+00  0.00000000000E+00 -0.72410518380E+03  0.23609122077E+04  0.22471266398E+04 0.  0.
        1    1    3    3  502    0  0.16206898087E+03  0.99993728291E+03 -0.87272396793E+03  0.13370819154E+04  0.50400001928E-02 0.  1.
       -1    1    3    3    0  502 -0.16206898087E+03 -0.99993728291E+03  0.14861878413E+03  0.10238302923E+04  0.50400001928E-02 0. -1.
</event>
<event>
 5   0  0.2938972E-05  0.2277372E+04  0.7818609E-02  0.8486897E-01
        2   -1    0    0  501    0  0.00000000000E+00  0.00000000000E+00  0.16557694503E+04  0.16557694503E+04  0.25500000920E-02 0. -1.
       -2   -1    0    0    0  501  0.00000000000E+00  0.00000000000E+00 -0.78308367284E+03  0.78308367285E+03  0.25500000920E-02 0.  1.
    10030    2    1    2    0    0  0.00000000000E+00  0.00000000000E+00  0.87268577746E+03  0.24388531232E+04  0.22773721896E+04 0.  0.
        2    1    3    3  502    0  0.71845945944E+03  0.59378369806E+03 -0.26413401815E+03  0.96877750515E+03  0.25500000920E-02 0.  1.
       -2    1    3    3    0  502 -0.71845945944E+03 -0.59378369806E+03  0.11368197956E+04  0.14700756180E+04  0.25500000920E-02 0. -1.
</event>
<event>
 5   0  0.1327820E-05  0.2289513E+04  0.7818609E-02  0.8482068E-01
       -1   -1    0    0    0  501  0.00000000000E+00  0.00000000000E+00  0.13700171414E+04  0.13700171414E+04  0.50400001928E-02 0. -1.
        1   -1    0    0  501    0  0.00000000000E+00  0.00000000000E+00 -0.95653325563E+03  0.95653325564E+03  0.50400001928E-02 0.  1.
    10030    2    1    2    0    0  0.00000000000E+00  0.00000000000E+00  0.41348388576E+03  0.23265503970E+04  0.22895125739E+04 0.  0.
        1    1    3    3  502    0 -0.57949031947E+03 -0.58443196069E+03 -0.60180386765E+03  0.10195771879E+04  0.50400001928E-02 0.  1.
       -1    1    3    3    0  502  0.57949031947E+03  0.58443196069E+03  0.10152877534E+04  0.13069732091E+04  0.50400001928E-02 0. -1.
</event>
<event>
 5   0  0.1303224E-05  0.2327831E+04  0.7818609E-02  0.8467028E-01
       -1   -1    0    0    0  501  0.00000000000E+00  0.00000000000E+00  0.81543621311E+03  0.81543621313E+03  0.50400001928E-02 0. -1.
        1   -1    0    0  501    0  0.00000000000E+00  0.00000000000E+00 -0.16613178940E+04  0.16613178941E+04  0.50400001928E-02 0.  1.
    10030    2    1    2    0    0  0.00000000000E+00  0.00000000000E+00 -0.84588168093E+03  0.24767541072E+04  0.23278305543E+04 0.  0.
        2    1    3    3  502    0  0.21604956717E+03  0.26003396573E+03  0.76204470534E+03  0.83367092533E+03  0.25500000920E-02 0. -1.
       -2    1    3    3    0  502 -0.21604956717E+03 -0.26003396573E+03 -0.16079263863E+04  0.16430831819E+04  0.25500000920E-02 0.  1.
</event>
<event>
 5   0  0.2816178E-05  0.2330466E+04  0.7818609E-02  0.8466005E-01
       -2   -1    0    0    0  501  0.00000000000E+00  0.00000000000E+00  0.66620189759E+03  0.66620189760E+03  0.25500000920E-02 0. -1.
        2   -1    0    0  501    0  0.00000000000E+00  0.00000000000E+00 -0.20380729756E+04  0.20380729756E+04  0.25500000920E-02 0.  1.
    10030    2    1    2    0    0  0.00000000000E+00  0.00000000000E+00 -0.13718710780E+04  0.27042748732E+04  0.23304661197E+04 0.  0.
        1    1    3    3  502    0 -0.14809234987E+03  0.71243510331E+03  0.37013950987E+03  0.81639351866E+03  0.50400001928E-02 0. -1.
       -1    1    3    3    0  502  0.14809234987E+03 -0.71243510331E+03 -0.17420105879E+04  0.18878813545E+04  0.50400001928E-02 0.  1.
</event>
<event>
 5   0  0.1303224E-05  0.2346375E+04  0.7818609E-02  0.8459857E-01
       -1   -1    0    0    0  501  0.00000000000E+00  0.00000000000E+00  0.73886683194E+03  0.73886683196E+03  0.50400001928E-02 0. -1.
        1   -1    0    0  501    0  0.00000000000E+00  0.00000000000E+00 -0.18628097980E+04  0.18628097980E+04  0.50400001928E-02 0.  1.
    10030    2    1    2    0    0  0.00000000000E+00  0.00000000000E+00 -0.11239429661E+04  0.26016766300E+04  0.23463745430E+04 0.  0.
        2    1    3    3  502    0  0.80328016433E+03  0.70780644778E+03 -0.30068312325E+02  0.10710523299E+04  0.25500000920E-02 0. -1.
       -2    1    3    3    0  502 -0.80328016433E+03 -0.70780644778E+03 -0.10938746537E+04  0.15306243001E+04  0.25500000920E-02 0.  1.
</event>
<event>
 5   0  0.1371753E-05  0.2316271E+04  0.7818609E-02  0.8471533E-01
        1   -1    0    0  501    0  0.00000000000E+00  0.00000000000E+00  0.12355842735E+04  0.12355842735E+04  0.50400001928E-02 0.  1.
       -1   -1    0    0    0  501  0.00000000000E+00  0.00000000000E+00 -0.10855418253E+04  0.10855418253E+04  0.50400001928E-02 0. -1.
    10030    2    1    2    0    0  0.00000000000E+00  0.00000000000E+00  0.15004244819E+03  0.23211260989E+04  0.23162714933E+04 0.  0.
        3    1    3    3  502    0 -0.17487524244E+03 -0.60962880484E+02 -0.10706073545E+04  0.10865072208E+04  0.10100000352E+00 0. -1.
       -3    1    3    3    0  502  0.17487524244E+03  0.60962880484E+02  0.12206498026E+04  0.12346188781E+04  0.10100000352E+00 0.  1.
</event>
<event>
 5   0  0.2994157E-05  0.2317515E+04  0.7818609E-02  0.8471047E-01
        2   -1    0    0  501    0  0.00000000000E+00  0.00000000000E+00  0.94124817905E+03  0.94124817905E+03  0.25500000920E-02 0. -1.
       -2   -1    0    0    0  501  0.00000000000E+00  0.00000000000E+00 -0.14265300164E+04  0.14265300165E+04  0.25500000920E-02 0.  1.
    10030    2    1    2    0    0  0.00000000000E+00  0.00000000000E+00 -0.48528183740E+03  0.23677781955E+04  0.23175148589E+04 0.  0.
        4    1    3    3  502    0  0.33434088774E+02  0.11391467676E+04 -0.45681560475E+03  0.12277847149E+04  0.12699999809E+01 0. -1.
       -4    1    3    3    0  502 -0.33434088774E+02 -0.11391467676E+04 -0.28466232647E+02  0.11399934806E+04  0.12699999809E+01 0.  1.
</event>
<event>
 5   0  0.2994157E-05  0.2293309E+04  0.7818609E-02  0.8480564E-01
       -2   -1    0    0    0  501  0.00000000000E+00  0.00000000000E+00  0.75234064942E+03  0.75234064943E+03  0.25500000920E-02 0. -1.
        2   -1    0    0  501    0  0.00000000000E+00  0.00000000000E+00 -0.17476349041E+04  0.17476349041E+04  0.25500000920E-02 0.  1.
    10030    2    1    2    0    0  0.00000000000E+00  0.00000000000E+00 -0.99529425470E+03  0.24999755535E+04  0.22933092061E+04 0.  0.
        4    1    3    3  502    0  0.24153999232E+03 -0.28375522297E+03 -0.16797867906E+04  0.17206231050E+04  0.12699999809E+01 0.  1.
       -4    1    3    3    0  502 -0.24153999232E+03  0.28375522297E+03  0.68449253594E+03  0.77935244858E+03  0.12699999809E+01 0. -1.
</event>
<event>
 5   0  0.2994157E-05  0.2300563E+04  0.7818609E-02  0.8477699E-01
       -2   -1    0    0    0  501  0.00000000000E+00  0.00000000000E+00  0.80830813235E+03  0.80830813235E+03  0.25500000920E-02 0. -1.
        2   -1    0    0  501    0  0.00000000000E+00  0.00000000000E+00 -0.16369344154E+04  0.16369344154E+04  0.25500000920E-02 0.  1.
    10030    2    1    2    0    0  0.00000000000E+00  0.00000000000E+00 -0.82862628302E+03  0.24452425477E+04  0.23005628877E+04 0.  0.
        4    1    3    3  502    0  0.70187813550E+03  0.33582059386E+03 -0.13147859908E+04  0.15277670643E+04  0.12699999809E+01 0.  1.
       -4    1    3    3    0  502 -0.70187813550E+03 -0.33582059386E+03  0.48615970775E+03  0.91747548342E+03  0.12699999809E+01 0. -1.
</event>
<event>
 5   0  0.2871888E-05  0.2313660E+04  0.7818609E-02  0.8472555E-01
        2   -1    0    0  501    0  0.00000000000E+00  0.00000000000E+00  0.16872056121E+04  0.16872056121E+04  0.25500000920E-02 0.  1.
       -2   -1    0    0    0  501  0.00000000000E+00  0.00000000000E+00 -0.79317881782E+03  0.79317881783E+03  0.25500000920E-02 0. -1.
    10030    2    1    2    0    0  0.00000000000E+00  0.00000000000E+00  0.89402679426E+03  0.24803844299E+04  0.23136600898E+04 0.  0.
        3    1    3    3  502    0  0.10517032348E+04  0.46320279192E+03  0.58931598756E+03  0.12914835903E+04  0.10100000352E+00 0.  1.
       -3    1    3    3    0  502 -0.10517032348E+04 -0.46320279192E+03  0.30471080670E+03  0.11889008396E+04  0.10100000352E+00 0. -1.
</event>
<event>
 5   0  0.1327820E-05  0.2284825E+04  0.7818609E-02  0.8483928E-01
       -1   -1    0    0    0  501  0.00000000000E+00  0.00000000000E+00  0.92480628082E+03  0.92480628084E+03  0.50400001928E-02 0.  1.
        1   -1    0    0  501    0  0.00000000000E+00  0.00000000000E+00 -0.14112217020E+04  0.14112217020E+04  0.50400001928E-02 0. -1.
    10030    2    1    2    0    0  0.00000000000E+00  0.00000000000E+00 -0.48641542115E+03  0.23360279828E+04  0.22848253269E+04 0.  0.
        1    1    3    3  502    0  0.57748006738E+03  0.68770813236E+03 -0.96520645633E+03  0.13183509422E+04  0.50400001928E-02 0. -1.
       -1    1    3    3    0  502 -0.57748006738E+03 -0.68770813236E+03  0.47879103518E+03  0.10176770406E+04  0.50400001928E-02 0.  1.
</event>
<event>
 5   0  0.2938972E-05  0.2343294E+04  0.7818609E-02  0.8461044E-01
       -2   -1    0    0    0  501  0.00000000000E+00  0.00000000000E+00  0.70322658197E+03  0.70322658198E+03  0.25500000920E-02 0.  1.
        2   -1    0    0  501    0  0.00000000000E+00  0.00000000000E+00 -0.19520830369E+04  0.19520830369E+04  0.25500000920E-02 0. -1.
    10030    2    1    2    0    0  0.00000000000E+00  0.00000000000E+00 -0.12488564549E+04  0.26553096188E+04  0.23432939907E+04 0.  0.
        2    1    3    3  502    0 -0.82215951560E+03  0.83354738408E+03 -0.67522040777E+03  0.13515436026E+04  0.25500000920E-02 0.  1.
       -2    1    3    3    0  502  0.82215951560E+03 -0.83354738408E+03 -0.57363604713E+03  0.13037660163E+04  0.25500000920E-02 0. -1.
</event>
<event>
 5   0  0.2816178E-05  0.2308703E+04  0.7818609E-02  0.8474498E-01
       -2   -1    0    0    0  501  0.00000000000E+00  0.00000000000E+00  0.66223107726E+03  0.66223107726E+03  0.25500000920E-02 0.  1.
        2   -1    0    0  501    0  0.00000000000E+00  0.00000000000E+00 -0.20121787054E+04  0.20121787054E+04  0.25500000920E-02 0. -1.
    10030    2    1    2    0    0  0.00000000000E+00  0.00000000000E+00 -0.13499476281E+04  0.26744097826E+04  0.23087029014E+04 0.  0.
        1    1    3    3  502    0  0.36856828324E+03  0.58072202548E+03 -0.17488874523E+04  0.18792785773E+04  0.50400001928E-02 0. -1.
       -1    1    3    3    0  502 -0.36856828324E+03 -0.58072202548E+03  0.39893982420E+03  0.79513120531E+03  0.50400001928E-02 0.  1.
</event>
<event>
 5   0  0.1303224E-05  0.2325293E+04  0.7818609E-02  0.8468015E-01
       -1   -1    0    0    0  501  0.00000000000E+00  0.00000000000E+00  0.60731120925E+03  0.60731120927E+03  0.50400001928E-02 0.  1.
        1   -1    0    0  501    0  0.00000000000E+00  0.00000000000E+00 -0.22257886399E+04  0.22257886399E+04  0.50400001928E-02 0. -1.
    10030    2    1    2    0    0  0.00000000000E+00  0.00000000000E+00 -0.16184774306E+04  0.28330998492E+04  0.23252925755E+04 0.  0.
        2    1    3    3  502    0 -0.82523357555E+03 -0.51335492908E+03 -0.31758089692E+02  0.97239514278E+03  0.25500000920E-02 0.  1.
       -2    1    3    3    0  502  0.82523357555E+03  0.51335492908E+03 -0.15867193409E+04  0.18607047064E+04  0.25500000920E-02 0. -1.
</event>
<event>
 5   0  0.1303224E-05  0.2183902E+04  0.7818609E-02  0.8525158E-01
        1   -1    0    0  501    0  0.00000000000E+00  0.00000000000E+00  0.14268459023E+04  0.14268459023E+04  0.50400001928E-02 0.  1.
       -1   -1    0    0    0  501  0.00000000000E+00  0.00000000000E+00 -0.83565930949E+03  0.83565930951E+03  0.50400001928E-02 0. -1.
    10030    2    1    2    0    0  0.00000000000E+00  0.00000000000E+00  0.59118659277E+03  0.22625052118E+04  0.21839020687E+04 0.  0.
        2    1    3    3  502    0  0.88611628355E+03  0.49360116173E+03  0.71451457595E+03  0.12407156218E+04  0.25500000920E-02 0. -1.
       -2    1    3    3    0  502 -0.88611628355E+03 -0.49360116173E+03 -0.12332798318E+03  0.10217895900E+04  0.25500000920E-02 0.  1.
</event>
<event>
 5   0  0.2816178E-05  0.2299489E+04  0.7818609E-02  0.8478123E-01
       -2   -1    0    0    0  501  0.00000000000E+00  0.00000000000E+00  0.68421840482E+03  0.68421840483E+03  0.25500000920E-02 0. -1.
        2   -1    0    0  501    0  0.00000000000E+00  0.00000000000E+00 -0.19320029556E+04  0.19320029556E+04  0.25500000920E-02 0.  1.
    10030    2    1    2    0    0  0.00000000000E+00  0.00000000000E+00 -0.12477845507E+04  0.26162213604E+04  0.22994886217E+04 0.  0.
        1    1    3    3  502    0 -0.37679230061E+03  0.19814025085E+02 -0.18595575375E+04  0.18974507289E+04  0.50400001928E-02 0.  1.
       -1    1    3    3    0  502  0.37679230061E+03 -0.19814025085E+02  0.61177298673E+03  0.71877063150E+03  0.50400001928E-02 0. -1.
</event>
<event>
 5   0  0.2994157E-05  0.2296452E+04  0.7818609E-02  0.8479321E-01
       -2   -1    0    0    0  501  0.00000000000E+00  0.00000000000E+00  0.12631140788E+04  0.12631140788E+04  0.25500000920E-02 0. -1.
        2   -1    0    0  501    0  0.00000000000E+00  0.00000000000E+00 -0.10437880376E+04  0.10437880376E+04  0.25500000920E-02 0.  1.
    10030    2    1    2    0    0  0.00000000000E+00  0.00000000000E+00  0.21932604116E+03  0.23069021164E+04  0.22964523644E+04 0.  0.
        4    1    3    3  502    0  0.32018493775E+03  0.51528350346E+03 -0.86965061805E+03  0.10603439506E+04  0.12699999809E+01 0.  1.
       -4    1    3    3    0  502 -0.32018493775E+03 -0.51528350346E+03  0.10889766592E+04  0.12465581657E+04  0.12699999809E+01 0. -1.
</event>
<event>
 5   0  0.2994157E-05  0.2297485E+04  0.7818609E-02  0.8478913E-01
       -2   -1    0    0    0  501  0.00000000000E+00  0.00000000000E+00  0.80986824561E+03  0.80986824562E+03  0.25500000920E-02 0.  1.
        2   -1    0    0  501    0  0.00000000000E+00  0.00000000000E+00 -0.16294124211E+04  0.16294124211E+04  0.25500000920E-02 0. -1.
    10030    2    1    2    0    0  0.00000000000E+00  0.00000000000E+00 -0.81954417547E+03  0.24392806667E+04  0.22974850414E+04 0.  0.
        4    1    3    3  502    0 -0.87185970684E+03  0.62701582158E+03  0.23220804386E+02  0.10741643299E+04  0.12699999809E+01 0.  1.
       -4    1    3    3    0  502  0.87185970684E+03 -0.62701582158E+03 -0.84276497986E+03  0.13651163368E+04  0.12699999809E+01 0. -1.
</event>
<event>
 5   0  0.1371753E-05  0.2284759E+04  0.7818609E-02  0.8483955E-01
       -1   -1    0    0    0  501  0.00000000000E+00  0.00000000000E+00  0.11882340616E+04  0.11882340617E+04  0.50400001928E-02 0.  1.
        1   -1    0    0  501    0  0.00000000000E+00  0.00000000000E+00 -0.10982942869E+04  0.10982942870E+04  0.50400001928E-02 0. -1.
    10030    2    1    2    0    0  0.00000000000E+00  0.00000000000E+00  0.89939774701E+02  0.22865283486E+04  0.22847587894E+04 0.  0.
        3    1    3    3  502    0  0.69960730274E+03 -0.15665146790E+03  0.93506337491E+03  0.11782756833E+04  0.10100000352E+00 0.  1.
       -3    1    3    3    0  502 -0.69960730274E+03  0.15665146790E+03 -0.84512360021E+03  0.11082526654E+04  0.10100000352E+00 0. -1.
</event>
<event>
 5   0  0.1308224E-05  0.2320052E+04  0.7818609E-02  0.8470057E-01
       -1   -1    0    0    0  501  0.00000000000E+00  0.00000000000E+00  0.46421856254E+03  0.46421856256E+03  0.50400001928E-02 0.  1.
        1   -1    0    0  501    0  0.00000000000E+00  0.00000000000E+00 -0.28987637222E+04  0.28987637222E+04  0.50400001928E-02 0. -1.
    10030    2    1    2    0    0  0.00000000000E+00  0.00000000000E+00 -0.24345451597E+04  0.33629822848E+04  0.23200516618E+04 0.  0.
        5    1    3    3  502    0  0.12816276238E+02  0.19520356431E+03 -0.28746676406E+04  0.28813199792E+04  0.46999998093E+01 0. -1.
       -5    1    3    3    0  502 -0.12816276238E+02 -0.19520356431E+03  0.44012248091E+03  0.48166230562E+03  0.46999998093E+01 0.  1.
</event>
<event>
 5   0  0.2938972E-05  0.2304240E+04  0.7818609E-02  0.8476251E-01
        2   -1    0    0  501    0  0.00000000000E+00  0.00000000000E+00  0.11923306396E+04  0.11923306396E+04  0.25500000920E-02 0. -1.
       -2   -1    0    0    0  501  0.00000000000E+00  0.00000000000E+00 -0.11132653421E+04  0.11132653421E+04  0.25500000920E-02 0.  1.
    10030    2    1    2    0    0  0.00000000000E+00  0.00000000000E+00  0.79065297530E+02  0.23055959817E+04  0.23042398984E+04 0.  0.
        2    1    3    3  502    0 -0.47941888391E+03  0.28780131402E+03 -0.96838749262E+03  0.11182336064E+04  0.25500000920E-02 0.  1.
       -2    1    3    3    0  502  0.47941888391E+03 -0.28780131402E+03  0.10474527901E+04  0.11873623753E+04  0.25500000920E-02 0. -1.
</event>
<event>
 5   0  0.1303224E-05  0.2280951E+04  0.7818609E-02  0.8485470E-01
       -1   -1    0    0    0  501  0.00000000000E+00  0.00000000000E+00  0.79644326416E+03  0.79644326418E+03  0.50400001928E-02 0.  1.
        1   -1    0    0  501    0  0.00000000000E+00  0.00000000000E+00 -0.16331165547E+04  0.16331165547E+04  0.50400001928E-02 0. -1.
    10030    2    1    2    0    0  0.00000000000E+00  0.00000000000E+00 -0.83667329051E+03  0.24295598189E+04  0.22809512749E+04 0.  0.
        2    1    3    3  502    0  0.58897104735E+03  0.82083688554E+03  0.14531356732E+03  0.10206743458E+04  0.25500000920E-02 0.  1.
       -2    1    3    3    0  502 -0.58897104735E+03 -0.82083688554E+03 -0.98198685782E+03  0.14088854731E+04  0.25500000920E-02 0. -1.
</event>
<event>
 5   0  0.1303224E-05  0.2314928E+04  0.7818609E-02  0.8472058E-01
        1   -1    0    0  501    0  0.00000000000E+00  0.00000000000E+00  0.11662602495E+04  0.11662602495E+04  0.50400001928E-02 0.  1.
       -1   -1    0    0    0  501  0.00000000000E+00  0.00000000000E+00 -0.11487344874E+04  0.11487344874E+04  0.50400001928E-02 0. -1.
    10030    2    1    2    0    0  0.00000000000E+00  0.00000000000E+00  0.17525762084E+02  0.23149947369E+04  0.23149283962E+04 0.  0.
        2    1    3    3  502    0 -0.11349685111E+04 -0.18220995070E+03  0.14430046063E+03  0.11585234612E+04  0.25500000920E-02 0.  1.
       -2    1    3    3    0  502  0.11349685111E+04  0.18220995070E+03 -0.12677469854E+03  0.11564712757E+04  0.25500000920E-02 0. -1.
</event>
<event>
 5   0  0.1327820E-05  0.2294281E+04  0.7818609E-02  0.8480179E-01
       -1   -1    0    0    0  501  0.00000000000E+00  0.00000000000E+00  0.90509601090E+03  0.90509601091E+03  0.50400001928E-02 0.  1.
        1   -1    0    0  501    0  0.00000000000E+00  0.00000000000E+00 -0.14539139679E+04  0.14539139679E+04  0.50400001928E-02 0. -1.
    10030    2    1    2    0    0  0.00000000000E+00  0.00000000000E+00 -0.54881795699E+03  0.23590099788E+04  0.22942813538E+04 0.  0.
        1    1    3    3  502    0  0.83883770383E+03 -0.60656736311E+03 -0.78268232605E+03  0.12977535525E+04  0.50400001928E-02 0. -1.
       -1    1    3    3    0  502 -0.83883770383E+03  0.60656736311E+03  0.23386436906E+03  0.10612564264E+04  0.50400001928E-02 0.  1.
</event>
<event>
 5   0  0.2938972E-05  0.2299544E+04  0.7818609E-02  0.8478101E-01
        2   -1    0    0  501    0  0.00000000000E+00  0.00000000000E+00  0.12193305767E+04  0.12193305767E+04  0.25500000920E-02 0.  1.
       -2   -1    0    0    0  501  0.00000000000E+00  0.00000000000E+00 -0.10841811218E+04  0.10841811218E+04  0.25500000920E-02 0. -1.
    10030    2    1    2    0    0  0.00000000000E+00  0.00000000000E+00  0.13514945489E+03  0.23035116985E+04  0.22995436004E+04 0.  0.
        2    1    3    3  502    0  0.58395193451E+03  0.78528187475E+03 -0.53704589184E+03  0.11162821214E+04  0.25500000920E-02 0. -1.
       -2    1    3    3    0  502 -0.58395193451E+03 -0.78528187475E+03  0.67219534673E+03  0.11872295771E+04  0.25500000920E-02 0.  1.
</event>
<event>
 5   0  0.2994157E-05  0.2298752E+04  0.7818609E-02  0.8478413E-01
       -2   -1    0    0    0  501  0.00000000000E+00  0.00000000000E+00  0.11475450584E+04  0.11475450584E+04  0.25500000920E-02 0. -1.
        2   -1    0    0  501    0  0.00000000000E+00  0.00000000000E+00 -0.11512096264E+04  0.11512096264E+04  0.25500000920E-02 0.  1.
    10030    2    1    2    0    0  0.00000000000E+00  0.00000000000E+00 -0.36645679504E+01  0.22987546848E+04  0.22987517639E+04 0.  0.
        4    1    3    3  502    0  0.70115818221E+03 -0.24741847710E+03  0.87465305994E+03  0.11479800902E+04  0.12699999809E+01 0. -1.
       -4    1    3    3    0  502 -0.70115818221E+03  0.24741847710E+03 -0.87831762789E+03  0.11507745946E+04  0.12699999809E+01 0.  1.
</event>
<event>
 5   0  0.1327820E-05  0.2350744E+04  0.7818609E-02  0.8458178E-01
       -1   -1    0    0    0  501  0.00000000000E+00  0.00000000000E+00  0.15800469680E+04  0.15800469680E+04  0.50400001928E-02 0. -1.
        1   -1    0    0  501    0  0.00000000000E+00  0.00000000000E+00 -0.87434060578E+03  0.87434060579E+03  0.50400001928E-02 0.  1.
    10030    2    1    2    0    0  0.00000000000E+00  0.00000000000E+00  0.70570636224E+03  0.24543875738E+04  0.23507439020E+04 0.  0.
        1    1    3    3  502    0 -0.23531884584E+03  0.82628504932E+03  0.11903259334E+04  0.14679910659E+04  0.50400001928E-02 0. -1.
       -1    1    3    3    0  502  0.23531884584E+03 -0.82628504932E+03 -0.48461957117E+03  0.98639650786E+03  0.50400001928E-02 0.  1.
</event>
<event>
 5   0  0.2816178E-05  0.2311316E+04  0.7818609E-02  0.8473473E-01
       -2   -1    0    0    0  501  0.00000000000E+00  0.00000000000E+00  0.98353415604E+03  0.98353415604E+03  0.25500000920E-02 0.  1.
        2   -1    0    0  501    0  0.00000000000E+00  0.00000000000E+00 -0.13579039833E+04  0.13579039833E+04  0.25500000920E-02 0. -1.
    10030    2    1    2    0    0  0.00000000000E+00  0.00000000000E+00 -0.37436982730E+03  0.23414381394E+04  0.23113155979E+04 0.  0.
        1    1    3    3  502    0  0.30787196470E+03 -0.15328941118E+03  0.93048998801E+03  0.99201532652E+03  0.50400001928E-02 0.  1.
       -1    1    3    3    0  502 -0.30787196470E+03  0.15328941118E+03 -0.13048598153E+04  0.13494228129E+04  0.50400001928E-02 0. -1.
</event>
<event>
 5   0  0.1303224E-05  0.2284012E+04  0.7818609E-02  0.8484252E-01
        1   -1    0    0  501    0  0.00000000000E+00  0.00000000000E+00  0.22948960201E+04  0.22948960201E+04  0.50400001928E-02 0.  1.
       -1   -1    0    0    0  501  0.00000000000E+00  0.00000000000E+00 -0.56829502096E+03  0.56829502098E+03  0.50400001928E-02 0. -1.
    10030    2    1    2    0    0  0.00000000000E+00  0.00000000000E+00  0.17266009992E+04  0.28631910411E+04  0.22840122433E+04 0.  0.
        2    1    3    3  502    0 -0.89404405360E+01  0.34045648634E+03  0.22297524848E+04  0.22556122659E+04  0.25500000920E-02 0.  1.
       -2    1    3    3    0  502  0.89404405360E+01 -0.34045648634E+03 -0.50315148565E+03  0.60757877521E+03  0.25500000920E-02 0. -1.
</event>
<event>
 5   0  0.1327820E-05  0.2190488E+04  0.7818609E-02  0.8522398E-01
        1   -1    0    0  501    0  0.00000000000E+00  0.00000000000E+00  0.15364978839E+04  0.15364978839E+04  0.50400001928E-02 0.  1.
       -1   -1    0    0    0  501  0.00000000000E+00  0.00000000000E+00 -0.78070978706E+03  0.78070978708E+03  0.50400001928E-02 0. -1.
    10030    2    1    2    0    0  0.00000000000E+00  0.00000000000E+00  0.75578809684E+03  0.23172076710E+04  0.21904875583E+04 0.  0.
        1    1    3    3  502    0 -0.10671908389E+04 -0.19187507493E+03  0.54125093337E+03  0.12118848559E+04  0.50400001928E-02 0.  1.
       -1    1    3    3    0  502  0.10671908389E+04  0.19187507493E+03  0.21453716347E+03  0.11053228151E+04  0.50400001928E-02 0. -1.
</event>
<event>
 5   0  0.1371753E-05  0.2290662E+04  0.7818609E-02  0.8481612E-01
       -1   -1    0    0    0  501  0.00000000000E+00  0.00000000000E+00  0.11400157768E+04  0.11400157768E+04  0.50400001928E-02 0.  1.
        1   -1    0    0  501    0  0.00000000000E+00  0.00000000000E+00 -0.11506707906E+04  0.11506707906E+04  0.50400001928E-02 0. -1.
    10030    2    1    2    0    0  0.00000000000E+00  0.00000000000E+00 -0.10655013810E+02  0.22906865674E+04  0.22906617866E+04 0.  0.
        3    1    3    3  502    0 -0.11553284571E+03  0.73645029302E+02  0.11317913929E+04  0.11400540321E+04  0.10100000352E+00 0.  1.
       -3    1    3    3    0  502  0.11553284571E+03 -0.73645029302E+02 -0.11424464068E+04  0.11506325353E+04  0.10100000352E+00 0. -1.
</event>
<event>
 5   0  0.1327820E-05  0.2290418E+04  0.7818609E-02  0.8481709E-01
       -1   -1    0    0    0  501  0.00000000000E+00  0.00000000000E+00  0.63657688483E+03  0.63657688484E+03  0.50400001928E-02 0.  1.
        1   -1    0    0  501    0  0.00000000000E+00  0.00000000000E+00 -0.20602433042E+04  0.20602433042E+04  0.50400001928E-02 0. -1.
    10030    2    1    2    0    0  0.00000000000E+00  0.00000000000E+00 -0.14236664193E+04  0.26968201890E+04  0.22904176602E+04 0.  0.
        1    1    3    3  502    0  0.24197789368E+03  0.83185741019E+03 -0.15937030658E+04  0.18139541102E+04  0.50400001928E-02 0. -1.
       -1    1    3    3    0  502 -0.24197789368E+03 -0.83185741019E+03  0.17003664650E+03  0.88286607879E+03  0.50400001928E-02 0.  1.
</event>
<event>
 5   0  0.1327820E-05  0.2305719E+04  0.7818609E-02  0.8475670E-01
       -1   -1    0    0    0  501  0.00000000000E+00  0.00000000000E+00  0.16820393903E+04  0.16820393903E+04  0.50400001928E-02 0.  1.
        1   -1    0    0  501    0  0.00000000000E+00  0.00000000000E+00 -0.79016293198E+03  0.79016293200E+03  0.50400001928E-02 0. -1.
    10030    2    1    2    0    0  0.00000000000E+00  0.00000000000E+00  0.89187645834E+03  0.24722023223E+04  0.23057191298E+04 0.  0.
        1    1    3    3  502    0  0.24718112939E+03  0.11259295881E+04  0.46353114855E+03  0.12424480165E+04  0.50400001928E-02 0. -1.
       -1    1    3    3    0  502 -0.24718112939E+03 -0.11259295881E+04  0.42834530979E+03  0.12297543058E+04  0.50400001928E-02 0.  1.
</event>
<event>
 5   0  0.1303224E-05  0.2318667E+04  0.7818609E-02  0.8470597E-01
       -1   -1    0    0    0  501  0.00000000000E+00  0.00000000000E+00  0.10812794088E+04  0.10812794088E+04  0.50400001928E-02 0.  1.
        1   -1    0    0  501    0  0.00000000000E+00  0.00000000000E+00 -0.12430225307E+04  0.12430225307E+04  0.50400001928E-02 0. -1.
    10030    2    1    2    0    0  0.00000000000E+00  0.00000000000E+00 -0.16174312191E+03  0.23243019395E+04  0.23186674337E+04 0.  0.
        2    1    3    3  502    0 -0.47725905418E+03 -0.86283753298E+03 -0.69209900984E+03  0.12046849599E+04  0.25500000920E-02 0. -1.
       -2    1    3    3    0  502  0.47725905418E+03  0.86283753298E+03  0.53035588792E+03  0.11196169796E+04  0.25500000920E-02 0.  1.
</event>
<event>
 5   0  0.1327820E-05  0.2302820E+04  0.7818609E-02  0.8476810E-01
       -1   -1    0    0    0  501  0.00000000000E+00  0.00000000000E+00  0.79113733304E+03  0.79113733306E+03  0.50400001928E-02 0. -1.
        1   -1    0    0  501    0  0.00000000000E+00  0.00000000000E+00 -0.16757461516E+04  0.16757461516E+04  0.50400001928E-02 0.  1.
    10030    2    1    2    0    0  0.00000000000E+00  0.00000000000E+00 -0.88460881855E+03  0.24668834847E+04  0.23028203067E+04 0.  0.
        1    1    3    3  502    0  0.76367723544E+03  0.60407897317E+03 -0.11006022267E+04  0.14695031770E+04  0.50400001928E-02 0.  1.
       -1    1    3    3    0  502 -0.76367723544E+03 -0.60407897317E+03  0.21599340814E+03  0.99738030768E+03  0.50400001928E-02 0. -1.
</event>
<event>
 5   0  0.2938972E-05  0.2305258E+04  0.7818609E-02  0.8475851E-01
       -2   -1    0    0    0  501  0.00000000000E+00  0.00000000000E+00  0.72870875829E+03  0.72870875829E+03  0.25500000920E-02 0. -1.
        2   -1    0    0  501    0  0.00000000000E+00  0.00000000000E+00 -0.18231617435E+04  0.18231617435E+04  0.25500000920E-02 0.  1.
    10030    2    1    2    0    0  0.00000000000E+00  0.00000000000E+00 -0.10944529852E+04  0.25518705018E+04  0.23052582764E+04 0.  0.
        2    1    3    3  502    0 -0.11411953525E+04 -0.16021586174E+03 -0.57337497974E+03  0.12871498834E+04  0.25500000920E-02 0. -1.
       -2    1    3    3    0  502  0.11411953525E+04  0.16021586174E+03 -0.52107800546E+03  0.12647206184E+04  0.25500000920E-02 0.  1.
</event>
<event>
 5   0  0.1303224E-05  0.2302180E+04  0.7818609E-02  0.8477062E-01
        1   -1    0    0  501    0  0.00000000000E+00  0.00000000000E+00  0.83251552434E+03  0.83251552435E+03  0.50400001928E-02 0. -1.
       -1   -1    0    0    0  501  0.00000000000E+00  0.00000000000E+00 -0.15915716129E+04  0.15915716129E+04  0.50400001928E-02 0.  1.
    10030    2    1    2    0    0  0.00000000000E+00  0.00000000000E+00 -0.75905608854E+03  0.24240871372E+04  0.23021799025E+04 0.  0.
        2    1    3    3  502    0 -0.56034079389E+02  0.25973620841E+03 -0.15588378763E+04  0.15813216752E+04  0.25500000920E-02 0.  1.
       -2    1    3    3    0  502  0.56034079389E+02 -0.25973620841E+03  0.79978178772E+03  0.84276546203E+03  0.25500000920E-02 0. -1.
</event>
<event>
 5   0  0.1308224E-05  0.2312166E+04  0.7818609E-02  0.8473140E-01
       -1   -1    0    0    0  501  0.00000000000E+00  0.00000000000E+00  0.12977720590E+04  0.12977720590E+04  0.50400001928E-02 0.  1.
        1   -1    0    0  501    0  0.00000000000E+00  0.00000000000E+00 -0.10298631960E+04  0.10298631960E+04  0.50400001928E-02 0. -1.
    10030    2    1    2    0    0  0.00000000000E+00  0.00000000000E+00  0.26790886298E+03  0.23276352551E+04  0.23121658076E+04 0.  0.
        5    1    3    3  502    0  0.20695966630E+03 -0.64685513278E+03  0.10757625710E+04  0.12722189534E+04  0.46999998093E+01 0.  1.
       -5    1    3    3    0  502 -0.20695966630E+03  0.64685513278E+03 -0.80785370800E+03  0.10554163017E+04  0.46999998093E+01 0. -1.
</event>
<event>
 5   0  0.2816178E-05  0.2327028E+04  0.7818609E-02  0.8467340E-01
        2   -1    0    0  501    0  0.00000000000E+00  0.00000000000E+00  0.21167104527E+04  0.21167104527E+04  0.25500000920E-02 0. -1.
       -2   -1    0    0    0  501  0.00000000000E+00  0.00000000000E+00 -0.63956086687E+03  0.63956086687E+03  0.25500000920E-02 0.  1.
    10030    2    1    2    0    0  0.00000000000E+00  0.00000000000E+00  0.14771495859E+04  0.27562713196E+04  0.23270282955E+04 0.  0.
        1    1    3    3  502    0  0.79922019442E+03  0.52987579358E+03 -0.41950827716E+02  0.95983391676E+03  0.50400001928E-02 0.  1.
       -1    1    3    3    0  502 -0.79922019442E+03 -0.52987579358E+03  0.15191004136E+04  0.17964374028E+04  0.50400001928E-02 0. -1.
</event>
<event>
 5   0  0.2816178E-05  0.2387139E+04  0.7818609E-02  0.8444334E-01
        2   -1    0    0  501    0  0.00000000000E+00  0.00000000000E+00  0.46161874004E+03  0.46161874004E+03  0.25500000920E-02 0. -1.
       -2   -1    0    0    0  501  0.00000000000E+00  0.00000000000E+00 -0.30861151470E+04  0.30861151470E+04  0.25500000920E-02 0.  1.
    10030    2    1    2    0    0  0.00000000000E+00  0.00000000000E+00 -0.26244964069E+04  0.35477338870E+04  0.23871393640E+04 0.  0.
        1    1    3    3  502    0  0.69520385261E+03  0.95618300077E+03 -0.10679783992E+04  0.15931642065E+04  0.50400001928E-02 0. -1.
       -1    1    3    3    0  502 -0.69520385261E+03 -0.95618300077E+03 -0.15565180077E+04  0.19545696805E+04  0.50400001928E-02 0.  1.
</event>
<event>
 5   0  0.2938972E-05  0.2283171E+04  0.7818609E-02  0.8484586E-01
       -2   -1    0    0    0  501  0.00000000000E+00  0.00000000000E+00  0.79330865827E+03  0.79330865827E+03  0.25500000920E-02 0. -1.
        2   -1    0    0  501    0  0.00000000000E+00  0.00000000000E+00 -0.16427623712E+04  0.16427623712E+04  0.25500000920E-02 0.  1.
    10030    2    1    2    0    0  0.00000000000E+00  0.00000000000E+00 -0.84945371296E+03  0.24360710295E+04  0.22831711391E+04 0.  0.
        2    1    3    3  502    0 -0.52645583055E+03 -0.79609332669E+03  0.24355417301E+03  0.98500708704E+03  0.25500000920E-02 0. -1.
       -2    1    3    3    0  502  0.52645583055E+03  0.79609332669E+03 -0.10930078860E+04  0.14510639425E+04  0.25500000920E-02 0.  1.
</event>
<event>
 5   0  0.2910126E-05  0.2305052E+04  0.7818609E-02  0.8475932E-01
        2   -1    0    0  501    0  0.00000000000E+00  0.00000000000E+00  0.94348441273E+03  0.94348441274E+03  0.25500000920E-02 0.  1.
       -2   -1    0    0    0  501  0.00000000000E+00  0.00000000000E+00 -0.14078829424E+04  0.14078829424E+04  0.25500000920E-02 0. -1.
    10030    2    1    2    0    0  0.00000000000E+00  0.00000000000E+00 -0.46439852967E+03  0.23513673551E+04  0.23050515058E+04 0.  0.
        5    1    3    3  502    0 -0.52179885175E+03  0.98850455978E+03  0.54296618948E+02  0.11191003169E+04  0.46999998093E+01 0.  1.
       -5    1    3    3    0  502  0.52179885175E+03 -0.98850455978E+03 -0.51869514862E+03  0.12322670383E+04  0.46999998093E+01 0. -1.
</event>
<event>
 5   0  0.1284837E-05  0.2305279E+04  0.7818609E-02  0.8475843E-01
       -1   -1    0    0    0  501  0.00000000000E+00  0.00000000000E+00  0.14317314350E+04  0.14317314350E+04  0.50400001928E-02 0.  1.
        1   -1    0    0  501    0  0.00000000000E+00  0.00000000000E+00 -0.92795148001E+03  0.92795148002E+03  0.50400001928E-02 0. -1.
    10030    2    1    2    0    0  0.00000000000E+00  0.00000000000E+00  0.50377995502E+03  0.23596829151E+04  0.23052785551E+04 0.  0.
        4    1    3    3  502    0  0.26442489061E+03 -0.85935198667E+03 -0.48635858402E+03  0.10222292526E+04  0.12699999809E+01 0. -1.
       -4    1    3    3    0  502 -0.26442489061E+03  0.85935198667E+03  0.99013853904E+03  0.13374536624E+04  0.12699999809E+01 0.  1.
</event>
<event>
 5   0  0.2816178E-05  0.2299727E+04  0.7818609E-02  0.8478029E-01
       -2   -1    0    0    0  501  0.00000000000E+00  0.00000000000E+00  0.61465624304E+03  0.61465624305E+03  0.25500000920E-02 0. -1.
        2   -1    0    0  501    0  0.00000000000E+00  0.00000000000E+00 -0.21510985365E+04  0.21510985365E+04  0.25500000920E-02 0.  1.
    10030    2    1    2    0    0  0.00000000000E+00  0.00000000000E+00 -0.15364422935E+04  0.27657547796E+04  0.22997270663E+04 0.  0.
        1    1    3    3  502    0  0.33668148085E+03 -0.10963660432E+04 -0.86749016480E+03  0.14380236807E+04  0.50400001928E-02 0. -1.
       -1    1    3    3    0  502 -0.33668148085E+03  0.10963660432E+04 -0.66895212870E+03  0.13277310988E+04  0.50400001928E-02 0.  1.
</event>
<event>
 5   0  0.1327820E-05  0.2289848E+04  0.7818609E-02  0.8481935E-01
       -1   -1    0    0    0  501  0.00000000000E+00  0.00000000000E+00  0.91643501285E+03  0.91643501287E+03  0.50400001928E-02 0.  1.
        1   -1    0    0  501    0  0.00000000000E+00  0.00000000000E+00 -0.14303805265E+04  0.14303805266E+04  0.50400001928E-02 0. -1.
    10030    2    1    2    0    0  0.00000000000E+00  0.00000000000E+00 -0.51394551369E+03  0.23468155394E+04  0.22898478519E+04 0.  0.
        1    1    3    3  502    0  0.10213960364E+04  0.42869498974E+03 -0.55369502723E+03  0.12383890506E+04  0.50400001928E-02 0. -1.
       -1    1    3    3    0  502 -0.10213960364E+04 -0.42869498974E+03  0.39749513546E+02  0.11084264889E+04  0.50400001928E-02 0.  1.
</event>
<event>
 5   0  0.1303224E-05  0.2311037E+04  0.7818609E-02  0.8473582E-01
        1   -1    0    0  501    0  0.00000000000E+00  0.00000000000E+00  0.12217703838E+04  0.12217703838E+04  0.50400001928E-02 0.  1.
       -1   -1    0    0    0  501  0.00000000000E+00  0.00000000000E+00 -0.10928587997E+04  0.10928587998E+04  0.50400001928E-02 0. -1.
    10030    2    1    2    0    0  0.00000000000E+00  0.00000000000E+00  0.12891158401E+03  0.23146291835E+04  0.23110365771E+04 0.  0.
        2    1    3    3  502    0  0.26456527877E+03 -0.59946333421E+03 -0.88879656769E+03  0.11042238969E+04  0.25500000920E-02 0. -1.
       -2    1    3    3    0  502 -0.26456527877E+03  0.59946333421E+03  0.10177081517E+04  0.12104052866E+04  0.25500000920E-02 0.  1.
</event>
<event>
 5   0  0.1327820E-05  0.2341429E+04  0.7818609E-02  0.8461763E-01
       -1   -1    0    0    0  501  0.00000000000E+00  0.00000000000E+00  0.95651585251E+03  0.95651585253E+03  0.50400001928E-02 0. -1.
        1   -1    0    0  501    0  0.00000000000E+00  0.00000000000E+00 -0.14328798522E+04  0.14328798522E+04  0.50400001928E-02 0.  1.
    10030    2    1    2    0    0  0.00000000000E+00  0.00000000000E+00 -0.47636399968E+03  0.23893957047E+04  0.23414288743E+04 0.  0.
        1    1    3    3  502    0 -0.14029776548E+03  0.36361734752E+02  0.94732542537E+03  0.95834811021E+03  0.50400001928E-02 0. -1.
       -1    1    3    3    0  502  0.14029776548E+03 -0.36361734752E+02 -0.14236894251E+04  0.14310475945E+04  0.50400001928E-02 0.  1.
</event>
<event>
 5   0  0.1308224E-05  0.2283997E+04  0.7818609E-02  0.8484258E-01
        1   -1    0    0  501    0  0.00000000000E+00  0.00000000000E+00  0.18946920391E+04  0.18946920391E+04  0.50400001928E-02 0.  1.
       -1   -1    0    0    0  501  0.00000000000E+00  0.00000000000E+00 -0.68832350878E+03  0.68832350880E+03  0.50400001928E-02 0. -1.
    10030    2    1    2    0    0  0.00000000000E+00  0.00000000000E+00  0.12063685303E+04  0.25830155479E+04  0.22839974364E+04 0.  0.
        5    1    3    3  502    0  0.29358589126E+03 -0.89139020484E+03 -0.13266921957E+03  0.94783563166E+03  0.46999998093E+01 0. -1.
       -5    1    3    3    0  502 -0.29358589126E+03  0.89139020484E+03  0.13390377498E+04  0.16351799162E+04  0.46999998093E+01 0.  1.
</event>
<event>
 5   0  0.1303224E-05  0.2259916E+04  0.7818609E-02  0.8493896E-01
        1   -1    0    0  501    0  0.00000000000E+00  0.00000000000E+00  0.14302198817E+04  0.14302198817E+04  0.50400001928E-02 0. -1.
       -1   -1    0    0    0  501  0.00000000000E+00  0.00000000000E+00 -0.89273315377E+03  0.89273315378E+03  0.50400001928E-02 0.  1.
    10030    2    1    2    0    0  0.00000000000E+00  0.00000000000E+00  0.53748672796E+03  0.23229530355E+04  0.22599156671E+04 0.  0.
        2    1    3    3  502    0  0.25153866266E+03 -0.97378845577E+03 -0.26066584044E+03  0.10389813934E+04  0.25500000920E-02 0.  1.
       -2    1    3    3    0  502 -0.25153866266E+03  0.97378845577E+03  0.79815256840E+03  0.12839716421E+04  0.25500000920E-02 0. -1.
</event>
<event>
 5   0  0.2816178E-05  0.2314207E+04  0.7818609E-02  0.8472340E-01
        2   -1    0    0  501    0  0.00000000000E+00  0.00000000000E+00  0.21041874916E+04  0.21041874916E+04  0.25500000920E-02 0.  1.
       -2   -1    0    0    0  501  0.00000000000E+00  0.00000000000E+00 -0.63629722597E+03  0.63629722598E+03  0.25500000920E-02 0. -1.
    10030    2    1    2    0    0  0.00000000000E+00  0.00000000000E+00  0.14678902656E+04  0.27404847175E+04  0.23142071332E+04 0.  0.
        1    1    3    3  502    0 -0.14056463804E+03  0.11043781384E+03 -0.61984685941E+03  0.64510856245E+03  0.50400001928E-02 0. -1.
       -1    1    3    3    0  502  0.14056463804E+03 -0.11043781384E+03  0.20877371250E+04  0.20953761551E+04  0.50400001928E-02 0.  1.
</event>
<event>
 5   0  0.2871888E-05  0.2284683E+04  0.7818609E-02  0.8483985E-01
       -2   -1    0    0    0  501  0.00000000000E+00  0.00000000000E+00  0.85383280622E+03  0.85383280622E+03  0.25500000920E-02 0. -1.
        2   -1    0    0  501    0  0.00000000000E+00  0.00000000000E+00 -0.15283371140E+04  0.15283371140E+04  0.25500000920E-02 0.  1.
    10030    2    1    2    0    0  0.00000000000E+00  0.00000000000E+00 -0.67450430779E+03  0.23821699202E+04  0.22846832314E+04 0.  0.
        3    1    3    3  502    0  0.54262498956E+03  0.52769509464E+03  0.55484931945E+03  0.93848908874E+03  0.10100000352E+00 0. -1.
       -3    1    3    3    0  502 -0.54262498956E+03 -0.52769509464E+03 -0.12293536272E+04  0.14436808315E+04  0.10100000352E+00 0.  1.
</event>
<event>
 5   0  0.1327820E-05  0.2313598E+04  0.7818609E-02  0.8472579E-01
        1   -1    0    0  501    0  0.00000000000E+00  0.00000000000E+00  0.20021817959E+04  0.20021817959E+04  0.50400001928E-02 0.  1.
       -1   -1    0    0    0  501  0.00000000000E+00  0.00000000000E+00 -0.66836261549E+03  0.66836261551E+03  0.50400001928E-02 0. -1.
    10030    2    1    2    0    0  0.00000000000E+00  0.00000000000E+00  0.13338191804E+04  0.26705444114E+04  0.23135975984E+04 0.  0.
        1    1    3    3  502    0 -0.69653099296E+03  0.75643150575E+03  0.12786131524E+04  0.16407911630E+04  0.50400001928E-02 0.  1.
       -1    1    3    3    0  502  0.69653099296E+03 -0.75643150575E+03  0.55206028004E+02  0.10297532484E+04  0.50400001928E-02 0. -1.
</event>
<event>
 5   0  0.1303224E-05  0.2309900E+04  0.7818609E-02  0.8474028E-01
       -1   -1    0    0    0  501  0.00000000000E+00  0.00000000000E+00  0.12510108310E+04  0.12510108310E+04  0.50400001928E-02 0.  1.
        1   -1    0    0  501    0  0.00000000000E+00  0.00000000000E+00 -0.10662650996E+04  0.10662650996E+04  0.50400001928E-02 0. -1.
    10030    2    1    2    0    0  0.00000000000E+00  0.00000000000E+00  0.18474573141E+03  0.23172759306E+04  0.23098997280E+04 0.  0.
        2    1    3    3  502    0  0.58113433273E+03 -0.10747711421E+03 -0.90308647177E+03  0.10792745796E+04  0.25500000920E-02 0. -1.
       -2    1    3    3    0  502 -0.58113433273E+03  0.10747711421E+03  0.10878322032E+04  0.12380013510E+04  0.25500000920E-02 0.  1.
</event>
<event>
 5   0  0.1327820E-05  0.2564885E+04  0.7818609E-02  0.8380228E-01
       -1   -1    0    0    0  501  0.00000000000E+00  0.00000000000E+00  0.84478872958E+03  0.84478872959E+03  0.50400001928E-02 0. -1.
        1   -1    0    0  501    0  0.00000000000E+00  0.00000000000E+00 -0.19468288466E+04  0.19468288466E+04  0.50400001928E-02 0.  1.
    10030    2    1    2    0    0  0.00000000000E+00  0.00000000000E+00 -0.11020401170E+04  0.27916175762E+04  0.25648852357E+04 0.  0.
        1    1    3    3  502    0 -0.49178735378E+03 -0.46728991480E+03  0.63350792836E+03  0.92819554035E+03  0.50400001928E-02 0. -1.
       -1    1    3    3    0  502  0.49178735378E+03  0.46728991480E+03 -0.17355480453E+04  0.18634220358E+04  0.50400001928E-02 0.  1.
</event>
<event>
 5   0  0.1303224E-05  0.2277591E+04  0.7818609E-02  0.8486809E-01
       -1   -1    0    0    0  501  0.00000000000E+00  0.00000000000E+00  0.74374335356E+03  0.74374335358E+03  0.50400001928E-02 0.  1.
        1   -1    0    0  501    0  0.00000000000E+00  0.00000000000E+00 -0.17436870794E+04  0.17436870795E+04  0.50400001928E-02 0. -1.
    10030    2    1    2    0    0  0.00000000000E+00  0.00000000000E+00 -0.99994372589E+03  0.24874304330E+04  0.22775914261E+04 0.  0.
        2    1    3    3  502    0 -0.81417772175E+02 -0.11285897912E+04 -0.64030935860E+03  0.13001307031E+04  0.25500000920E-02 0. -1.
       -2    1    3    3    0  502  0.81417772175E+02  0.11285897912E+04 -0.35963436729E+03  0.11872997299E+04  0.25500000920E-02 0.  1.
</event>
<event>
 5   0  0.1371753E-05  0.2276215E+04  0.7818609E-02  0.8487359E-01
       -1   -1    0    0    0  501  0.00000000000E+00  0.00000000000E+00  0.67939161956E+03  0.67939161958E+03  0.50400001928E-02 0. -1.
        1   -1    0    0  501    0  0.00000000000E+00  0.00000000000E+00 -0.19065413705E+04  0.19065413705E+04  0.50400001928E-02 0.  1.
    10030    2    1    2    0    0  0.00000000000E+00  0.00000000000E+00 -0.12271497510E+04  0.25859329901E+04  0.22762146028E+04 0.  0.
        3    1    3    3  502    0 -0.72918833734E+03  0.24430541972E+03  0.33956287874E+03  0.84065672438E+03  0.10100000352E+00 0. -1.
       -3    1    3    3    0  502  0.72918833734E+03 -0.24430541972E+03 -0.15667126297E+04  0.17452762657E+04  0.10100000352E+00 0.  1.
</event>
<event>
 5   0  0.2816178E-05  0.2256262E+04  0.7818609E-02  0.8495369E-01
        2   -1    0    0  501    0  0.00000000000E+00  0.00000000000E+00  0.62860928926E+03  0.62860928927E+03  0.25500000920E-02 0. -1.
       -2   -1    0    0    0  501  0.00000000000E+00  0.00000000000E+00 -0.20245954377E+04  0.20245954377E+04  0.25500000920E-02 0.  1.
    10030    2    1    2    0    0  0.00000000000E+00  0.00000000000E+00 -0.13959861484E+04  0.26532047270E+04  0.22562619521E+04 0.  0.
        1    1    3    3  502    0 -0.90428929620E+03  0.42289750489E+03 -0.80100570259E+02  0.10014976447E+04  0.50400001928E-02 0. -1.
       -1    1    3    3    0  502  0.90428929620E+03 -0.42289750489E+03 -0.13158855782E+04  0.16517070823E+04  0.50400001928E-02 0.  1.
</event>
<event>
 5   0  0.1308224E-05  0.2297117E+04  0.7818609E-02  0.8479059E-01
       -1   -1    0    0    0  501  0.00000000000E+00  0.00000000000E+00  0.68852850143E+03  0.68852850145E+03  0.50400001928E-02 0. -1.
        1   -1    0    0  501    0  0.00000000000E+00  0.00000000000E+00 -0.19159501345E+04  0.19159501345E+04  0.50400001928E-02 0.  1.
    10030    2    1    2    0    0  0.00000000000E+00  0.00000000000E+00 -0.12274216331E+04  0.26044786359E+04  0.22971166927E+04 0.  0.
        5    1    3    3  502    0 -0.41506059113E+02  0.44311569565E+03 -0.18141992055E+04  0.18679976231E+04  0.46999998093E+01 0.  1.
       -5    1    3    3    0  502  0.41506059113E+02 -0.44311569565E+03  0.58677757247E+03  0.73648101281E+03  0.46999998093E+01 0. -1.
</event>
<event>
 5   0  0.2938972E-05  0.2295289E+04  0.7818609E-02  0.8479781E-01
        2   -1    0    0  501    0  0.00000000000E+00  0.00000000000E+00  0.12552553718E+04  0.12552553718E+04  0.25500000920E-02 0. -1.
       -2   -1    0    0    0  501  0.00000000000E+00  0.00000000000E+00 -0.10492589760E+04  0.10492589760E+04  0.25500000920E-02 0.  1.
    10030    2    1    2    0    0  0.00000000000E+00  0.00000000000E+00  0.20599639578E+03  0.23045143478E+04  0.22952890590E+04 0.  0.
        2    1    3    3  502    0  0.26111527983E+03 -0.36317520839E+03 -0.95813686798E+03  0.10574042175E+04  0.25500000920E-02 0.  1.
       -2    1    3    3    0  502 -0.26111527983E+03  0.36317520839E+03  0.11641332638E+04  0.12471101303E+04  0.25500000920E-02 0. -1.
</event>
<event>
 5   0  0.1303224E-05  0.2298410E+04  0.7818609E-02  0.8478548E-01
       -1   -1    0    0    0  501  0.00000000000E+00  0.00000000000E+00  0.88698232451E+03  0.88698232453E+03  0.50400001928E-02 0.  1.
        1   -1    0    0  501    0  0.00000000000E+00  0.00000000000E+00 -0.14889495484E+04  0.14889495484E+04  0.50400001928E-02 0. -1.
    10030    2    1    2    0    0  0.00000000000E+00  0.00000000000E+00 -0.60196722392E+03  0.23759318730E+04  0.22984098256E+04 0.  0.
        2    1    3    3  502    0  0.67483175522E+03  0.51082949298E+03  0.50262134591E+03  0.98436420400E+03  0.25500000920E-02 0.  1.
       -2    1    3    3    0  502 -0.67483175522E+03 -0.51082949298E+03 -0.11045885698E+04  0.13915676690E+04  0.25500000920E-02 0. -1.
</event>
<event>
 5   0  0.2871888E-05  0.2285574E+04  0.7818609E-02  0.8483631E-01
       -2   -1    0    0    0  501  0.00000000000E+00  0.00000000000E+00  0.12350154983E+04  0.12350154983E+04  0.25500000920E-02 0. -1.
        2   -1    0    0  501    0  0.00000000000E+00  0.00000000000E+00 -0.10574461059E+04  0.10574461059E+04  0.25500000920E-02 0.  1.
    10030    2    1    2    0    0  0.00000000000E+00  0.00000000000E+00  0.17756939240E+03  0.22924616043E+04  0.22855741768E+04 0.  0.
        3    1    3    3  502    0 -0.93460225603E+03  0.65628171772E+03  0.13104537053E+03  0.11495042276E+04  0.10100000352E+00 0. -1.
       -3    1    3    3    0  502  0.93460225603E+03 -0.65628171772E+03  0.46524021869E+02  0.11429573766E+04  0.10100000352E+00 0.  1.
</event>
<event>
 5   0  0.1327820E-05  0.2301247E+04  0.7818609E-02  0.8477430E-01
        1   -1    0    0  501    0  0.00000000000E+00  0.00000000000E+00  0.14885619095E+04  0.14885619096E+04  0.50400001928E-02 0. -1.
       -1   -1    0    0    0  501  0.00000000000E+00  0.00000000000E+00 -0.88940519522E+03  0.88940519524E+03  0.50400001928E-02 0.  1.
    10030    2    1    2    0    0  0.00000000000E+00  0.00000000000E+00  0.59915671432E+03  0.23779671048E+04  0.23012472234E+04 0.  0.
        1    1    3    3  502    0 -0.90350399665E+02  0.41192344017E+03  0.14058251806E+04  0.14677154199E+04  0.50400001928E-02 0. -1.
       -1    1    3    3    0  502  0.90350399665E+02 -0.41192344017E+03 -0.80666846631E+03  0.91025168489E+03  0.50400001928E-02 0.  1.
</event>
<event>
 5   0  0.2871888E-05  0.2300934E+04  0.7818609E-02  0.8477553E-01
       -2   -1    0    0    0  501  0.00000000000E+00  0.00000000000E+00  0.83190011244E+03  0.83190011244E+03  0.25500000920E-02 0.  1.
        2   -1    0    0  501    0  0.00000000000E+00  0.00000000000E+00 -0.15910260051E+04  0.15910260051E+04  0.25500000920E-02 0. -1.
    10030    2    1    2    0    0  0.00000000000E+00  0.00000000000E+00 -0.75912589266E+03  0.24229261175E+04  0.23009343429E+04 0.  0.
        3    1    3    3  502    0 -0.84101993792E+03 -0.28218015243E+03  0.39182926821E+03  0.96977851081E+03  0.10100000352E+00 0.  1.
       -3    1    3    3    0  502  0.84101993792E+03  0.28218015243E+03 -0.11509551609E+04  0.14531476067E+04  0.10100000352E+00 0. -1.
</event>
<event>
 5   0  0.1371753E-05  0.2294184E+04  0.7818609E-02  0.8480218E-01
       -1   -1    0    0    0  501  0.00000000000E+00  0.00000000000E+00  0.84070199176E+03  0.84070199177E+03  0.50400001928E-02 0.  1.
        1   -1    0    0  501    0  0.00000000000E+00  0.00000000000E+00 -0.15651440535E+04  0.15651440535E+04  0.50400001928E-02 0. -1.
    10030    2    1    2    0    0  0.00000000000E+00  0.00000000000E+00 -0.72444206176E+03  0.24058460453E+04  0.22941837095E+04 0.  0.
        3    1    3    3  502    0 -0.59447512586E+03  0.58167428279E+03  0.46621257662E+03  0.95346726390E+03  0.10100000352E+00 0.  1.
       -3    1    3    3    0  502  0.59447512586E+03 -0.58167428279E+03 -0.11906546384E+04  0.14523787814E+04  0.10100000352E+00 0. -1.
</event>
<event>
 5   0  0.1308224E-05  0.2302046E+04  0.7818609E-02  0.8477115E-01
        1   -1    0    0  501    0  0.00000000000E+00  0.00000000000E+00  0.12693323948E+04  0.12693323948E+04  0.50400001928E-02 0.  1.
       -1   -1    0    0    0  501  0.00000000000E+00  0.00000000000E+00 -0.10437404471E+04  0.10437404471E+04  0.50400001928E-02 0. -1.
    10030    2    1    2    0    0  0.00000000000E+00  0.00000000000E+00  0.22559194770E+03  0.23130728419E+04  0.23020456653E+04 0.  0.
        5    1    3    3  502    0  0.32420384029E+03  0.59414885977E+03  0.10482283508E+04  0.12477683130E+04  0.46999998093E+01 0.  1.
       -5    1    3    3    0  502 -0.32420384029E+03 -0.59414885977E+03 -0.82263640309E+03  0.10653045289E+04  0.46999998093E+01 0. -1.
</event>
<event>
 5   0  0.1371753E-05  0.2293860E+04  0.7818609E-02  0.8480346E-01
        1   -1    0    0  501    0  0.00000000000E+00  0.00000000000E+00  0.12879933411E+04  0.12879933411E+04  0.50400001928E-02 0. -1.
       -1   -1    0    0    0  501  0.00000000000E+00  0.00000000000E+00 -0.10213161251E+04  0.10213161251E+04  0.50400001928E-02 0.  1.
    10030    2    1    2    0    0  0.00000000000E+00  0.00000000000E+00  0.26667721601E+03  0.23093094663E+04  0.22938599507E+04 0.  0.
        3    1    3    3  502    0  0.10211181653E+04  0.40183631021E+03 -0.20251528887E+03  0.11158705929E+04  0.10100000352E+00 0.  1.
       -3    1    3    3    0  502 -0.10211181653E+04 -0.40183631021E+03  0.46919250487E+03  0.11934388734E+04  0.10100000352E+00 0. -1.
</event>
<event>
 5   0  0.2910126E-05  0.2193498E+04  0.7818609E-02  0.8521139E-01
        2   -1    0    0  501    0  0.00000000000E+00  0.00000000000E+00  0.16365543443E+04  0.16365543443E+04  0.25500000920E-02 0. -1.
       -2   -1    0    0    0  501  0.00000000000E+00  0.00000000000E+00 -0.73499417554E+03  0.73499417554E+03  0.25500000920E-02 0.  1.
    10030    2    1    2    0    0  0.00000000000E+00  0.00000000000E+00  0.90156016871E+03  0.23715485198E+04  0.21934975824E+04 0.  0.
        5    1    3    3  502    0 -0.65115576284E+03 -0.21841173354E+03  0.13752475972E+04  0.15372168215E+04  0.46999998093E+01 0. -1.
       -5    1    3    3    0  502  0.65115576284E+03  0.21841173354E+03 -0.47368742848E+03  0.83433169826E+03  0.46999998093E+01 0.  1.
</event>
<event>
 5   0  0.2816178E-05  0.2312421E+04  0.7818609E-02  0.8473040E-01
       -2   -1    0    0    0  501  0.00000000000E+00  0.00000000000E+00  0.24859493949E+04  0.24859493949E+04  0.25500000920E-02 0. -1.
        2   -1    0    0  501    0  0.00000000000E+00  0.00000000000E+00 -0.53775131656E+03  0.53775131657E+03  0.25500000920E-02 0.  1.
    10030    2    1    2    0    0  0.00000000000E+00  0.00000000000E+00  0.19481980783E+04  0.30237007114E+04  0.23124208614E+04 0.  0.
        1    1    3    3  502    0  0.63200034739E+03 -0.39215894953E+03  0.21316010759E+04  0.22576395256E+04  0.50400001928E-02 0. -1.
       -1    1    3    3    0  502 -0.63200034739E+03  0.39215894953E+03 -0.18340299763E+03  0.76606118579E+03  0.50400001928E-02 0.  1.
</event>
<event>
 5   0  0.2816178E-05  0.2242554E+04  0.7818609E-02  0.8500922E-01
        2   -1    0    0  501    0  0.00000000000E+00  0.00000000000E+00  0.22912046864E+04  0.22912046864E+04  0.25500000920E-02 0.  1.
       -2   -1    0    0    0  501  0.00000000000E+00  0.00000000000E+00 -0.54873427847E+03  0.54873427847E+03  0.25500000920E-02 0. -1.
    10030    2    1    2    0    0  0.00000000000E+00  0.00000000000E+00  0.17424704080E+04  0.28399389649E+04  0.22425543921E+04 0.  0.
        1    1    3    3  502    0  0.62799417695E+03 -0.53470135406E+03  0.18331719683E+04  0.20101745421E+04  0.50400001928E-02 0.  1.
       -1    1    3    3    0  502 -0.62799417695E+03  0.53470135406E+03 -0.90701560313E+02  0.82976442282E+03  0.50400001928E-02 0. -1.
</event>
<event>
 5   0  0.1303224E-05  0.2082731E+04  0.7818609E-02  0.8568889E-01
       -1   -1    0    0    0  501  0.00000000000E+00  0.00000000000E+00  0.65674996911E+03  0.65674996913E+03  0.50400001928E-02 0.  1.
        1   -1    0    0  501    0  0.00000000000E+00  0.00000000000E+00 -0.16512255996E+04  0.16512255996E+04  0.50400001928E-02 0. -1.
    10030    2    1    2    0    0  0.00000000000E+00  0.00000000000E+00 -0.99447563047E+03  0.23079755687E+04  0.20827312468E+04 0.  0.
        2    1    3    3  502    0 -0.88817393809E+03 -0.42096003710E+03 -0.11596053318E+03  0.98970053167E+03  0.25500000920E-02 0.  1.
       -2    1    3    3    0  502  0.88817393809E+03  0.42096003710E+03 -0.87851509729E+03  0.13182750370E+04  0.25500000920E-02 0. -1.
</event>
<event>
 5   0  0.1017200E-05  0.2294087E+04  0.7818609E-02  0.8480256E-01
       -4   -1    0    0    0  501  0.00000000000E+00  0.00000000000E+00  0.16583622414E+04  0.16583627277E+04  0.12699999809E+01 0. -1.
        4   -1    0    0  501    0  0.00000000000E+00  0.00000000000E+00 -0.79337695615E+03  0.79337797263E+03  0.12699999809E+01 0.  1.
    10030    2    1    2    0    0  0.00000000000E+00  0.00000000000E+00  0.86498528525E+03  0.24517407003E+04  0.22940865106E+04 0.  0.
        4    1    3    3  502    0  0.67438200677E+03  0.36874854568E+03 -0.47745370851E+03  0.90483713323E+03  0.12699999809E+01 0.  1.
       -4    1    3    3    0  502 -0.67438200677E+03 -0.36874854568E+03  0.13424389938E+04  0.15469035671E+04  0.12699999809E+01 0. -1.
</event>
<event>
 5   0  0.2938972E-05  0.2305252E+04  0.7818609E-02  0.8475853E-01
       -2   -1    0    0    0  501  0.00000000000E+00  0.00000000000E+00  0.11102610541E+04  0.11102610541E+04  0.25500000920E-02 0.  1.
        2   -1    0    0  501    0  0.00000000000E+00  0.00000000000E+00 -0.11966078590E+04  0.11966078590E+04  0.25500000920E-02 0. -1.
    10030    2    1    2    0    0  0.00000000000E+00  0.00000000000E+00 -0.86346804876E+02  0.23068689131E+04  0.23052523531E+04 0.  0.
        2    1    3    3  502    0 -0.10911442292E+04 -0.29455178936E+03 -0.26958549910E+03  0.11619091302E+04  0.25500000920E-02 0. -1.
       -2    1    3    3    0  502  0.10911442292E+04  0.29455178936E+03  0.18323869422E+03  0.11449597829E+04  0.25500000920E-02 0.  1.
</event>
<event>
 5   0  0.1308224E-05  0.2322464E+04  0.7818609E-02  0.8469116E-01
       -1   -1    0    0    0  501  0.00000000000E+00  0.00000000000E+00  0.63930136064E+03  0.63930136066E+03  0.50400001928E-02 0. -1.
        1   -1    0    0  501    0  0.00000000000E+00  0.00000000000E+00 -0.21092703685E+04  0.21092703685E+04  0.50400001928E-02 0.  1.
    10030    2    1    2    0    0  0.00000000000E+00  0.00000000000E+00 -0.14699690079E+04  0.27485717292E+04  0.23224637061E+04 0.  0.
        5    1    3    3  502    0 -0.28735202765E+03  0.54124135970E+03 -0.19023250807E+04  0.19985935555E+04  0.46999998093E+01 0.  1.
       -5    1    3    3    0  502  0.28735202765E+03 -0.54124135970E+03  0.43235607288E+03  0.74997817368E+03  0.46999998093E+01 0. -1.
</event>
<event>
 5   0  0.1284837E-05  0.2276612E+04  0.7818609E-02  0.8487200E-01
        1   -1    0    0  501    0  0.00000000000E+00  0.00000000000E+00  0.18729063278E+04  0.18729063278E+04  0.50400001928E-02 0.  1.
       -1   -1    0    0    0  501  0.00000000000E+00  0.00000000000E+00 -0.69183440054E+03  0.69183440056E+03  0.50400001928E-02 0. -1.
    10030    2    1    2    0    0  0.00000000000E+00  0.00000000000E+00  0.11810719273E+04  0.25647407284E+04  0.22766124190E+04 0.  0.
        4    1    3    3  502    0 -0.10841540856E+04  0.31099310636E+02  0.97978190553E+03  0.14616194593E+04  0.12699999809E+01 0. -1.
       -4    1    3    3    0  502  0.10841540856E+04 -0.31099310636E+02  0.20129002173E+03  0.11031212691E+04  0.12699999809E+01 0.  1.
</event>
<event>
 5   0  0.1371753E-05  0.2308234E+04  0.7818609E-02  0.8474682E-01
        1   -1    0    0  501    0  0.00000000000E+00  0.00000000000E+00  0.14849779623E+04  0.14849779624E+04  0.50400001928E-02 0.  1.
       -1   -1    0    0    0  501  0.00000000000E+00  0.00000000000E+00 -0.89697343571E+03  0.89697343573E+03  0.50400001928E-02 0. -1.
    10030    2    1    2    0    0  0.00000000000E+00  0.00000000000E+00  0.58800452663E+03  0.23819513981E+04  0.23082337705E+04 0.  0.
        3    1    3    3  502    0  0.27630017341E+03 -0.82458332268E+02 -0.85920483625E+03  0.90629692884E+03  0.10100000352E+00 0. -1.
       -3    1    3    3    0  502 -0.27630017341E+03  0.82458332268E+02  0.14472093629E+04  0.14756544692E+04  0.10100000352E+00 0.  1.
</event>
<event>
 5   0  0.1308224E-05  0.2285814E+04  0.7818609E-02  0.8483536E-01
       -1   -1    0    0    0  501  0.00000000000E+00  0.00000000000E+00  0.11276361072E+04  0.11276361072E+04  0.50400001928E-02 0. -1.
        1   -1    0    0  501    0  0.00000000000E+00  0.00000000000E+00 -0.11583844886E+04  0.11583844886E+04  0.50400001928E-02 0.  1.
    10030    2    1    2    0    0  0.00000000000E+00  0.00000000000E+00 -0.30748381368E+02  0.22860205958E+04  0.22858137942E+04 0.  0.
        5    1    3    3  502    0  0.36008899098E+03 -0.35778859486E+03  0.10086995664E+04  0.11292358768E+04  0.46999998093E+01 0. -1.
       -5    1    3    3    0  502 -0.36008899098E+03  0.35778859486E+03 -0.10394479478E+04  0.11567847191E+04  0.46999998093E+01 0.  1.
</event>
<event>
 5   0  0.2938972E-05  0.2148537E+04  0.7818609E-02  0.8540159E-01
       -2   -1    0    0    0  501  0.00000000000E+00  0.00000000000E+00  0.68684785581E+03  0.68684785581E+03  0.25500000920E-02 0.  1.
        2   -1    0    0  501    0  0.00000000000E+00  0.00000000000E+00 -0.16802161819E+04  0.16802161819E+04  0.25500000920E-02 0. -1.
    10030    2    1    2    0    0  0.00000000000E+00  0.00000000000E+00 -0.99336832611E+03  0.23670640377E+04  0.21485370668E+04 0.  0.
        2    1    3    3  502    0  0.95245829706E+03 -0.37075776257E+03 -0.86110659687E+03  0.13364664969E+04  0.25500000920E-02 0. -1.
       -2    1    3    3    0  502 -0.95245829706E+03  0.37075776257E+03 -0.13226172924E+03  0.10305975408E+04  0.25500000920E-02 0.  1.
</event>
<event>
 5   0  0.2938972E-05  0.2297558E+04  0.7818609E-02  0.8478885E-01
        2   -1    0    0  501    0  0.00000000000E+00  0.00000000000E+00  0.90685354348E+03  0.90685354348E+03  0.25500000920E-02 0.  1.
       -2   -1    0    0    0  501  0.00000000000E+00  0.00000000000E+00 -0.14552434589E+04  0.14552434589E+04  0.25500000920E-02 0. -1.
    10030    2    1    2    0    0  0.00000000000E+00  0.00000000000E+00 -0.54838991539E+03  0.23620970024E+04  0.22975575617E+04 0.  0.
        2    1    3    3  502    0 -0.34668831841E+03 -0.10367055822E+04 -0.63730368899E+03  0.12653486659E+04  0.25500000920E-02 0. -1.
       -2    1    3    3    0  502  0.34668831841E+03  0.10367055822E+04  0.88913773602E+02  0.10967483364E+04  0.25500000920E-02 0.  1.
</event>
<event>
 5   0  0.1284837E-05  0.2304169E+04  0.7818609E-02  0.8476279E-01
        1   -1    0    0  501    0  0.00000000000E+00  0.00000000000E+00  0.14092502005E+04  0.14092502005E+04  0.50400001928E-02 0.  1.
       -1   -1    0    0    0  501  0.00000000000E+00  0.00000000000E+00 -0.94184725856E+03  0.94184725858E+03  0.50400001928E-02 0. -1.
    10030    2    1    2    0    0  0.00000000000E+00  0.00000000000E+00  0.46740294190E+03  0.23510974590E+04  0.23041687768E+04 0.  0.
        4    1    3    3  502    0  0.71921727062E+03  0.80913021721E+03  0.63584982974E+03  0.12554966386E+04  0.12699999809E+01 0.  1.
       -4    1    3    3    0  502 -0.71921727062E+03 -0.80913021721E+03 -0.16844688784E+03  0.10956008204E+04  0.12699999809E+01 0. -1.
</event>
<event>
 5   0  0.1327820E-05  0.2258099E+04  0.7818609E-02  0.8494628E-01
       -1   -1    0    0    0  501  0.00000000000E+00  0.00000000000E+00  0.13558917524E+04  0.13558917524E+04  0.50400001928E-02 0.  1.
        1   -1    0    0  501    0  0.00000000000E+00  0.00000000000E+00 -0.94015815462E+03  0.94015815463E+03  0.50400001928E-02 0. -1.
    10030    2    1    2    0    0  0.00000000000E+00  0.00000000000E+00  0.41573359778E+03  0.22960499070E+04  0.22580989242E+04 0.  0.
        1    1    3    3  502    0  0.25256347414E+03  0.42266441511E+02 -0.91024045553E+03  0.94557519398E+03  0.50400001928E-02 0. -1.
       -1    1    3    3    0  502 -0.25256347414E+03 -0.42266441511E+02  0.13259740533E+04  0.13504747131E+04  0.50400001928E-02 0.  1.
</event>
<event>
 5   0  0.1327820E-05  0.2280010E+04  0.7818609E-02  0.8485845E-01
        1   -1    0    0  501    0  0.00000000000E+00  0.00000000000E+00  0.12210782806E+04  0.12210782806E+04  0.50400001928E-02 0. -1.
       -1   -1    0    0    0  501  0.00000000000E+00  0.00000000000E+00 -0.10643146855E+04  0.10643146855E+04  0.50400001928E-02 0.  1.
    10030    2    1    2    0    0  0.00000000000E+00  0.00000000000E+00  0.15676359503E+03  0.22853929661E+04  0.22800101282E+04 0.  0.
        1    1    3    3  502    0 -0.61196354715E+02  0.90797110125E+03  0.76662867187E+03  0.11899058934E+04  0.50400001928E-02 0. -1.
       -1    1    3    3    0  502  0.61196354715E+02 -0.90797110125E+03 -0.60986507685E+03  0.10954870727E+04  0.50400001928E-02 0.  1.
</event>
<event>
 5   0  0.1308224E-05  0.2313694E+04  0.7818609E-02  0.8472541E-01
        1   -1    0    0  501    0  0.00000000000E+00  0.00000000000E+00  0.89100007397E+03  0.89100007399E+03  0.50400001928E-02 0. -1.
       -1   -1    0    0    0  501  0.00000000000E+00  0.00000000000E+00 -0.15020149638E+04  0.15020149638E+04  0.50400001928E-02 0.  1.
    10030    2    1    2    0    0  0.00000000000E+00  0.00000000000E+00 -0.61101488983E+03  0.23930150378E+04  0.23136943998E+04 0.  0.
        5    1    3    3  502    0 -0.16790121624E+03 -0.17803904812E+03 -0.14749265994E+04  0.14950984197E+04  0.46999998093E+01 0.  1.
       -5    1    3    3    0  502  0.16790121624E+03  0.17803904812E+03  0.86391170957E+03  0.89791661806E+03  0.46999998093E+01 0. -1.
</event>
<event>
 5   0  0.2816178E-05  0.2306924E+04  0.7818609E-02  0.8475196E-01
       -2   -1    0    0    0  501  0.00000000000E+00  0.00000000000E+00  0.20208931066E+04  0.20208931066E+04  0.25500000920E-02 0. -1.
        2   -1    0    0  501    0  0.00000000000E+00  0.00000000000E+00 -0.65835962158E+03  0.65835962159E+03  0.25500000920E-02 0.  1.
    10030    2    1    2    0    0  0.00000000000E+00  0.00000000000E+00  0.13625334851E+04  0.26792527282E+04  0.23069238574E+04 0.  0.
        1    1    3    3  502    0  0.33543144097E+03 -0.17478029777E+03  0.19468220838E+04  0.19832243015E+04  0.50400001928E-02 0. -1.
       -1    1    3    3    0  502 -0.33543144097E+03  0.17478029777E+03 -0.58428859877E+03  0.69602842669E+03  0.50400001928E-02 0.  1.
</event>
<event>
 5   0  0.2871888E-05  0.2272668E+04  0.7818609E-02  0.8488776E-01
        2   -1    0    0  501    0  0.00000000000E+00  0.00000000000E+00  0.59488891061E+03  0.59488891062E+03  0.25500000920E-02 0. -1.
       -2   -1    0    0    0  501  0.00000000000E+00  0.00000000000E+00 -0.21705820557E+04  0.21705820557E+04  0.25500000920E-02 0.  1.
    10030    2    1    2    0    0  0.00000000000E+00  0.00000000000E+00 -0.15756931451E+04  0.27654709663E+04  0.22726682068E+04 0.  0.
        3    1    3    3  502    0  0.39601132010E+03 -0.91897448941E+03 -0.14430395571E+04  0.17560473375E+04  0.10100000352E+00 0.  1.
       -3    1    3    3    0  502 -0.39601132010E+03  0.91897448941E+03 -0.13265358795E+03  0.10094236288E+04  0.10100000352E+00 0. -1.
</event>
<event>
 5   0  0.2816178E-05  0.2315729E+04  0.7818609E-02  0.8471745E-01
        2   -1    0    0  501    0  0.00000000000E+00  0.00000000000E+00  0.15343315060E+04  0.15343315060E+04  0.25500000920E-02 0. -1.
       -2   -1    0    0    0  501  0.00000000000E+00  0.00000000000E+00 -0.87376830481E+03  0.87376830481E+03  0.25500000920E-02 0.  1.
    10030    2    1    2    0    0  0.00000000000E+00  0.00000000000E+00  0.66056320121E+03  0.24080998108E+04  0.23157290334E+04 0.  0.
        1    1    3    3  502    0 -0.19326470043E+03 -0.74047112031E+03  0.12338492104E+04  0.14519065392E+04  0.50400001928E-02 0. -1.
       -1    1    3    3    0  502  0.19326470043E+03  0.74047112031E+03 -0.57328600918E+03  0.95619327168E+03  0.50400001928E-02 0.  1.
</event>
<event>
 5   0  0.2871888E-05  0.2302007E+04  0.7818609E-02  0.8477130E-01
        2   -1    0    0  501    0  0.00000000000E+00  0.00000000000E+00  0.10913558944E+04  0.10913558944E+04  0.25500000920E-02 0. -1.
       -2   -1    0    0    0  501  0.00000000000E+00  0.00000000000E+00 -0.12139115792E+04  0.12139115792E+04  0.25500000920E-02 0.  1.
    10030    2    1    2    0    0  0.00000000000E+00  0.00000000000E+00 -0.12255568474E+03  0.23052674736E+04  0.23020074346E+04 0.  0.
        3    1    3    3  502    0 -0.66642884652E+03 -0.24704643855E+03  0.84534962926E+03  0.11044344055E+04  0.10100000352E+00 0. -1.
       -3    1    3    3    0  502  0.66642884652E+03  0.24704643855E+03 -0.96790531399E+03  0.12008330681E+04  0.10100000352E+00 0.  1.
</event>
<event>
 5   0  0.2910126E-05  0.2277422E+04  0.7818609E-02  0.8486877E-01
       -2   -1    0    0    0  501  0.00000000000E+00  0.00000000000E+00  0.12737273814E+04  0.12737273814E+04  0.25500000920E-02 0. -1.
        2   -1    0    0  501    0  0.00000000000E+00  0.00000000000E+00 -0.10180061252E+04  0.10180061252E+04  0.25500000920E-02 0.  1.
    10030    2    1    2    0    0  0.00000000000E+00  0.00000000000E+00  0.25572125619E+03  0.22917335065E+04  0.22774215912E+04 0.  0.
        5    1    3    3  502    0 -0.83497142681E+03  0.75356866191E+03  0.30673363312E+03  0.11658261549E+04  0.46999998093E+01 0.  1.
       -5    1    3    3    0  502  0.83497142681E+03 -0.75356866191E+03 -0.51012376925E+02  0.11259073516E+04  0.46999998093E+01 0. -1.
</event>
<event>
 5   0  0.1017200E-05  0.2287147E+04  0.7818609E-02  0.8483006E-01
       -4   -1    0    0    0  501  0.00000000000E+00  0.00000000000E+00  0.15968046613E+04  0.15968051663E+04  0.12699999809E+01 0. -1.
        4   -1    0    0  501    0  0.00000000000E+00  0.00000000000E+00 -0.81898492623E+03  0.81898591093E+03  0.12699999809E+01 0.  1.
    10030    2    1    2    0    0  0.00000000000E+00  0.00000000000E+00  0.77781973504E+03  0.24157910772E+04  0.22871473474E+04 0.  0.
        2    1    3    3  502    0  0.57271020023E+03 -0.98946307767E+03  0.41738137277E+03  0.12170625973E+04  0.25500000920E-02 0.  1.
       -2    1    3    3    0  502 -0.57271020023E+03  0.98946307767E+03  0.36043836227E+03  0.11987284799E+04  0.25500000920E-02 0. -1.
</event>
<event>
 5   0  0.1371753E-05  0.2121678E+04  0.7818609E-02  0.8551754E-01
       -1   -1    0    0    0  501  0.00000000000E+00  0.00000000000E+00  0.91726509497E+03  0.91726509498E+03  0.50400001928E-02 0.  1.
        1   -1    0    0  501    0  0.00000000000E+00  0.00000000000E+00 -0.12268852080E+04  0.12268852080E+04  0.50400001928E-02 0. -1.
    10030    2    1    2    0    0  0.00000000000E+00  0.00000000000E+00 -0.30962011302E+03  0.21441503030E+04  0.21216776163E+04 0.  0.
        3    1    3    3  502    0  0.83313671778E+03  0.13571972411E+03 -0.80414375605E+03  0.11658403941E+04  0.10100000352E+00 0. -1.
       -3    1    3    3    0  502 -0.83313671778E+03 -0.13571972411E+03  0.49452364303E+03  0.97830990884E+03  0.10100000352E+00 0.  1.
</event>
<event>
 5   0  0.2816178E-05  0.2314157E+04  0.7818609E-02  0.8472360E-01
        2   -1    0    0  501    0  0.00000000000E+00  0.00000000000E+00  0.22872192669E+04  0.22872192669E+04  0.25500000920E-02 0. -1.
       -2   -1    0    0    0  501  0.00000000000E+00  0.00000000000E+00 -0.58535320655E+03  0.58535320655E+03  0.25500000920E-02 0.  1.
    10030    2    1    2    0    0  0.00000000000E+00  0.00000000000E+00  0.17018660603E+04  0.28725724734E+04  0.23141574121E+04 0.  0.
        1    1    3    3  502    0  0.32120838749E+03  0.28609184920E+03 -0.48241899503E+03  0.64633695636E+03  0.50400001928E-02 0.  1.
       -1    1    3    3    0  502 -0.32120838749E+03 -0.28609184920E+03  0.21842850553E+04  0.22262355171E+04  0.50400001928E-02 0. -1.
</event>
<event>
 5   0  0.1371753E-05  0.2303102E+04  0.7818609E-02  0.8476699E-01
        1   -1    0    0  501    0  0.00000000000E+00  0.00000000000E+00  0.57089451740E+03  0.57089451742E+03  0.50400001928E-02 0.  1.
       -1   -1    0    0    0  501  0.00000000000E+00  0.00000000000E+00 -0.23227933776E+04  0.23227933776E+04  0.50400001928E-02 0. -1.
    10030    2    1    2    0    0  0.00000000000E+00  0.00000000000E+00 -0.17518988602E+04  0.28936878950E+04  0.23031022594E+04 0.  0.
        3    1    3    3  502    0 -0.48714380849E+02  0.29734449082E+03 -0.22723876479E+04  0.22922767000E+04  0.10100000352E+00 0. -1.
       -3    1    3    3    0  502  0.48714380849E+02 -0.29734449082E+03  0.52048878769E+03  0.60141119497E+03  0.10100000352E+00 0.  1.
</event>
<event>
 5   0  0.1303224E-05  0.2295905E+04  0.7818609E-02  0.8479538E-01
        1   -1    0    0  501    0  0.00000000000E+00  0.00000000000E+00  0.13798064229E+04  0.13798064229E+04  0.50400001928E-02 0. -1.
       -1   -1    0    0    0  501  0.00000000000E+00  0.00000000000E+00 -0.95505761278E+03  0.95505761279E+03  0.50400001928E-02 0.  1.
    10030    2    1    2    0    0  0.00000000000E+00  0.00000000000E+00  0.42474881011E+03  0.23348640357E+04  0.22959047266E+04 0.  0.
        2    1    3    3  502    0  0.54495197153E+03  0.54220796738E+03  0.10793859928E+04  0.13251551806E+04  0.25500000920E-02 0. -1.
       -2    1    3    3    0  502 -0.54495197153E+03 -0.54220796738E+03 -0.65463718267E+03  0.10097088551E+04  0.25500000920E-02 0.  1.
</event>
<event>
 5   0  0.1284837E-05  0.2338777E+04  0.7818609E-02  0.8462787E-01
        1   -1    0    0  501    0  0.00000000000E+00  0.00000000000E+00  0.20231298208E+04  0.20231298208E+04  0.50400001928E-02 0.  1.
       -1   -1    0    0    0  501  0.00000000000E+00  0.00000000000E+00 -0.67591768728E+03  0.67591768730E+03  0.50400001928E-02 0. -1.
    10030    2    1    2    0    0  0.00000000000E+00  0.00000000000E+00  0.13472121335E+04  0.26990475081E+04  0.23387767996E+04 0.  0.
        4    1    3    3  502    0  0.97981721314E+03  0.39968195651E+03  0.99268295540E+02  0.10628467646E+04  0.12699999809E+01 0.  1.
       -4    1    3    3    0  502 -0.97981721314E+03 -0.39968195651E+03  0.12479438380E+04  0.16362007436E+04  0.12699999809E+01 0. -1.
</event>
<event>
 5   0  0.2994157E-05  0.2299516E+04  0.7818609E-02  0.8478112E-01
        2   -1    0    0  501    0  0.00000000000E+00  0.00000000000E+00  0.22265674134E+04  0.22265674134E+04  0.25500000920E-02 0.  1.
       -2   -1    0    0    0  501  0.00000000000E+00  0.00000000000E+00 -0.59371388545E+03  0.59371388546E+03  0.25500000920E-02 0. -1.
    10030    2    1    2    0    0  0.00000000000E+00  0.00000000000E+00  0.16328535279E+04  0.28202812988E+04  0.22995164624E+04 0.  0.
        4    1    3    3  502    0  0.51173822960E+03 -0.21776701571E+03 -0.41776964250E+03  0.69558002836E+03  0.12699999809E+01 0. -1.
       -4    1    3    3    0  502 -0.51173822960E+03  0.21776701571E+03  0.20506231704E+04  0.21247012705E+04  0.12699999809E+01 0.  1.
</event>
<event>
 5   0  0.1017200E-05  0.2340856E+04  0.7818609E-02  0.8461984E-01
       -3   -1    0    0    0  501  0.00000000000E+00  0.00000000000E+00  0.13204232415E+04  0.13204232453E+04  0.10100000352E+00 0. -1.
        3   -1    0    0  501    0  0.00000000000E+00  0.00000000000E+00 -0.10374720464E+04  0.10374720513E+04  0.10100000352E+00 0.  1.
    10030    2    1    2    0    0  0.00000000000E+00  0.00000000000E+00  0.28295119502E+03  0.23578952967E+04  0.23408564354E+04 0.  0.
        2    1    3    3  502    0  0.30595713675E+03  0.64880291713E+03 -0.79010612787E+03  0.10671563560E+04  0.25500000920E-02 0.  1.
       -2    1    3    3    0  502 -0.30595713675E+03 -0.64880291713E+03  0.10730573229E+04  0.12907389407E+04  0.25500000920E-02 0. -1.
</event>
<event>
 5   0  0.1308224E-05  0.2299212E+04  0.7818609E-02  0.8478232E-01
        1   -1    0    0  501    0  0.00000000000E+00  0.00000000000E+00  0.13732106337E+04  0.13732106337E+04  0.50400001928E-02 0. -1.
       -1   -1    0    0    0  501  0.00000000000E+00  0.00000000000E+00 -0.96241187373E+03  0.96241187374E+03  0.50400001928E-02 0.  1.
    10030    2    1    2    0    0  0.00000000000E+00  0.00000000000E+00  0.41079875992E+03  0.23356225074E+04  0.22992122294E+04 0.  0.
        5    1    3    3  502    0 -0.88533742643E+03 -0.37273576786E+03  0.84692036497E+03  0.12806445666E+04  0.46999998093E+01 0. -1.
       -5    1    3    3    0  502  0.88533742643E+03  0.37273576786E+03 -0.43612160505E+03  0.10549779408E+04  0.46999998093E+01 0.  1.
</event>
<event>
 5   0  0.1308224E-05  0.2243993E+04  0.7818609E-02  0.8500337E-01
       -1   -1    0    0    0  501  0.00000000000E+00  0.00000000000E+00  0.93695856734E+03  0.93695856735E+03  0.50400001928E-02 0. -1.
        1   -1    0    0  501    0  0.00000000000E+00  0.00000000000E+00 -0.13435771552E+04  0.13435771553E+04  0.50400001928E-02 0.  1.
    10030    2    1    2    0    0  0.00000000000E+00  0.00000000000E+00 -0.40661858791E+03  0.22805357226E+04  0.22439929826E+04 0.  0.
        5    1    3    3  502    0 -0.10533865539E+04  0.89915344798E+02  0.17850284074E+03  0.10721909136E+04  0.46999998093E+01 0.  1.
       -5    1    3    3    0  502  0.10533865539E+04 -0.89915344798E+02 -0.58512142864E+03  0.12083448090E+04  0.46999998093E+01 0. -1.
</event>
<event>
 5   0  0.2910126E-05  0.2295259E+04  0.7818609E-02  0.8479793E-01
       -2   -1    0    0    0  501  0.00000000000E+00  0.00000000000E+00  0.10798350189E+04  0.10798350189E+04  0.25500000920E-02 0. -1.
        2   -1    0    0  501    0  0.00000000000E+00  0.00000000000E+00 -0.12196801135E+04  0.12196801135E+04  0.25500000920E-02 0.  1.
    10030    2    1    2    0    0  0.00000000000E+00  0.00000000000E+00 -0.13984509455E+03  0.22995151324E+04  0.22952588511E+04 0.  0.
        5    1    3    3  502    0 -0.83761698617E+03 -0.63149285491E+03 -0.53623789020E+03  0.11781165504E+04  0.46999998093E+01 0.  1.
       -5    1    3    3    0  502  0.83761698617E+03  0.63149285491E+03  0.39639279564E+03  0.11213985820E+04  0.46999998093E+01 0. -1.
</event>
<event>
 5   0  0.2816178E-05  0.2297519E+04  0.7818609E-02  0.8478900E-01
       -2   -1    0    0    0  501  0.00000000000E+00  0.00000000000E+00  0.71995026864E+03  0.71995026864E+03  0.25500000920E-02 0. -1.
        2   -1    0    0  501    0  0.00000000000E+00  0.00000000000E+00 -0.18329715855E+04  0.18329715855E+04  0.25500000920E-02 0.  1.
    10030    2    1    2    0    0  0.00000000000E+00  0.00000000000E+00 -0.11130213169E+04  0.25529218542E+04  0.22975189970E+04 0.  0.
        1    1    3    3  502    0  0.25385055005E+03 -0.10741870082E+04 -0.91022170295E+03  0.14306716531E+04  0.50400001928E-02 0.  1.
       -1    1    3    3    0  502 -0.25385055005E+03  0.10741870082E+04 -0.20279961394E+03  0.11222502011E+04  0.50400001928E-02 0. -1.
</event>
<event>
 5   0  0.1303224E-05  0.2281473E+04  0.7818609E-02  0.8485262E-01
       -1   -1    0    0    0  501  0.00000000000E+00  0.00000000000E+00  0.61015674438E+03  0.61015674440E+03  0.50400001928E-02 0. -1.
        1   -1    0    0  501    0  0.00000000000E+00  0.00000000000E+00 -0.21326971428E+04  0.21326971428E+04  0.50400001928E-02 0.  1.
    10030    2    1    2    0    0  0.00000000000E+00  0.00000000000E+00 -0.15225403984E+04  0.27428538872E+04  0.22814728098E+04 0.  0.
        2    1    3    3  502    0  0.30140768905E+03 -0.34247801756E+02 -0.20833182085E+04  0.21052872167E+04  0.25500000920E-02 0.  1.
       -2    1    3    3    0  502 -0.30140768905E+03  0.34247801756E+02  0.56077781013E+03  0.63756667046E+03  0.25500000920E-02 0. -1.
</event>
<event>
 5   0  0.2910126E-05  0.2288529E+04  0.7818609E-02  0.8482458E-01
       -2   -1    0    0    0  501  0.00000000000E+00  0.00000000000E+00  0.62697584774E+03  0.62697584774E+03  0.25500000920E-02 0. -1.
        2   -1    0    0  501    0  0.00000000000E+00  0.00000000000E+00 -0.20883433915E+04  0.20883433915E+04  0.25500000920E-02 0.  1.
    10030    2    1    2    0    0  0.00000000000E+00  0.00000000000E+00 -0.14613675438E+04  0.27153192392E+04  0.22885286699E+04 0.  0.
        5    1    3    3  502    0  0.10313098803E+04 -0.23172707278E+03 -0.12506069891E+04  0.16374789881E+04  0.46999998093E+01 0.  1.
       -5    1    3    3    0  502 -0.10313098803E+04  0.23172707278E+03 -0.21076055469E+03  0.10778402511E+04  0.46999998093E+01 0. -1.
</event>
<event>
 5   0  0.2816178E-05  0.2337168E+04  0.7818609E-02  0.8463409E-01
       -2   -1    0    0    0  501  0.00000000000E+00  0.00000000000E+00  0.10595649386E+04  0.10595649386E+04  0.25500000920E-02 0.  1.
        2   -1    0    0  501    0  0.00000000000E+00  0.00000000000E+00 -0.12888205549E+04  0.12888205549E+04  0.25500000920E-02 0. -1.
    10030    2    1    2    0    0  0.00000000000E+00  0.00000000000E+00 -0.22925561631E+03  0.23483854936E+04  0.23371684340E+04 0.  0.
        1    1    3    3  502    0 -0.67795696627E+03 -0.66150073616E+03 -0.80229553189E+03  0.12413246926E+04  0.50400001928E-02 0. -1.
       -1    1    3    3    0  502  0.67795696627E+03  0.66150073616E+03  0.57303991558E+03  0.11070608009E+04  0.50400001928E-02 0.  1.
</event>
<event>
 5   0  0.2816178E-05  0.2301509E+04  0.7818609E-02  0.8477326E-01
       -2   -1    0    0    0  501  0.00000000000E+00  0.00000000000E+00  0.18884872367E+04  0.18884872367E+04  0.25500000920E-02 0.  1.
        2   -1    0    0  501    0  0.00000000000E+00  0.00000000000E+00 -0.70121504443E+03  0.70121504444E+03  0.25500000920E-02 0. -1.
    10030    2    1    2    0    0  0.00000000000E+00  0.00000000000E+00  0.11872721922E+04  0.25897022811E+04  0.23015087761E+04 0.  0.
        1    1    3    3  502    0 -0.21212200385E+03 -0.69839470522E+02 -0.67659772702E+03  0.71250107396E+03  0.50400001928E-02 0. -1.
       -1    1    3    3    0  502  0.21212200385E+03  0.69839470522E+02  0.18638699193E+04  0.18772012072E+04  0.50400001928E-02 0.  1.
</event>
<event>
 5   0  0.2871888E-05  0.2366070E+04  0.7818609E-02  0.8452317E-01
       -2   -1    0    0    0  501  0.00000000000E+00  0.00000000000E+00  0.11802418933E+04  0.11802418933E+04  0.25500000920E-02 0.  1.
        2   -1    0    0  501    0  0.00000000000E+00  0.00000000000E+00 -0.11858344477E+04  0.11858344477E+04  0.25500000920E-02 0. -1.
    10030    2    1    2    0    0  0.00000000000E+00  0.00000000000E+00 -0.55925544730E+01  0.23660763410E+04  0.23660697316E+04 0.  0.
        3    1    3    3  502    0  0.53430015545E+03 -0.10555060990E+04 -0.41009819641E+01  0.11830412543E+04  0.10100000352E+00 0.  1.
       -3    1    3    3    0  502 -0.53430015545E+03  0.10555060990E+04 -0.14915725088E+01  0.11830350866E+04  0.10100000352E+00 0. -1.
</event>
<event>
 5   0  0.1284837E-05  0.2433652E+04  0.7818609E-02  0.8427011E-01
       -1   -1    0    0    0  501  0.00000000000E+00  0.00000000000E+00  0.12842094814E+04  0.12842094814E+04  0.50400001928E-02 0. -1.
        1   -1    0    0  501    0  0.00000000000E+00  0.00000000000E+00 -0.11529777535E+04  0.11529777535E+04  0.50400001928E-02 0.  1.
    10030    2    1    2    0    0  0.00000000000E+00  0.00000000000E+00  0.13123172788E+03  0.24371872349E+04  0.24336515469E+04 0.  0.
        4    1    3    3  502    0 -0.97561714214E+03  0.57614015679E+03 -0.37875964642E+03  0.11946659663E+04  0.12699999809E+01 0.  1.
       -4    1    3    3    0  502  0.97561714214E+03 -0.57614015679E+03  0.50999137430E+03  0.12425212687E+04  0.12699999809E+01 0. -1.
</event>
<event>
 5   0  0.1284837E-05  0.2295434E+04  0.7818609E-02  0.8479723E-01
        1   -1    0    0  501    0  0.00000000000E+00  0.00000000000E+00  0.10412559591E+04  0.10412559591E+04  0.50400001928E-02 0.  1.
       -1   -1    0    0    0  501  0.00000000000E+00  0.00000000000E+00 -0.12650632225E+04  0.12650632225E+04  0.50400001928E-02 0. -1.
    10030    2    1    2    0    0  0.00000000000E+00  0.00000000000E+00 -0.22380726347E+03  0.23063191816E+04  0.22954342675E+04 0.  0.
        4    1    3    3  502    0  0.59941246657E+03  0.16026698510E+03  0.85821739111E+03  0.10590181844E+04  0.12699999809E+01 0.  1.
       -4    1    3    3    0  502 -0.59941246657E+03 -0.16026698510E+03 -0.10820246546E+04  0.12473009972E+04  0.12699999809E+01 0. -1.
</event>
<event>
 5   0  0.1327820E-05  0.2220442E+04  0.7818609E-02  0.8509967E-01
       -1   -1    0    0    0  501  0.00000000000E+00  0.00000000000E+00  0.65861275399E+03  0.65861275401E+03  0.50400001928E-02 0. -1.
        1   -1    0    0  501    0  0.00000000000E+00  0.00000000000E+00 -0.18714958526E+04  0.18714958526E+04  0.50400001928E-02 0.  1.
    10030    2    1    2    0    0  0.00000000000E+00  0.00000000000E+00 -0.12128830986E+04  0.25301086066E+04  0.22204423321E+04 0.  0.
        1    1    3    3  502    0  0.60973666994E+03  0.32437183223E+03 -0.15969182067E+04  0.17398688604E+04  0.50400001928E-02 0. -1.
       -1    1    3    3    0  502 -0.60973666994E+03 -0.32437183223E+03  0.38403510815E+03  0.79023974624E+03  0.50400001928E-02 0.  1.
</event>
<event>
 5   0  0.2910126E-05  0.2297733E+04  0.7818609E-02  0.8478816E-01
       -2   -1    0    0    0  501  0.00000000000E+00  0.00000000000E+00  0.48149523699E+03  0.48149523700E+03  0.25500000920E-02 0. -1.
        2   -1    0    0  501    0  0.00000000000E+00  0.00000000000E+00 -0.27412392972E+04  0.27412392972E+04  0.25500000920E-02 0.  1.
    10030    2    1    2    0    0  0.00000000000E+00  0.00000000000E+00 -0.22597440602E+04  0.32227345342E+04  0.22977325041E+04 0.  0.
        5    1    3    3  502    0 -0.77421452519E+03  0.47948848782E+03 -0.21122273001E+04  0.23001833836E+04  0.46999998093E+01 0.  1.
       -5    1    3    3    0  502  0.77421452519E+03 -0.47948848782E+03 -0.14751676014E+03  0.92255115061E+03  0.46999998093E+01 0. -1.
</event>
<event>
 5   0  0.1327820E-05  0.2310036E+04  0.7818609E-02  0.8473975E-01
        1   -1    0    0  501    0  0.00000000000E+00  0.00000000000E+00  0.19850280841E+04  0.19850280841E+04  0.50400001928E-02 0. -1.
       -1   -1    0    0    0  501  0.00000000000E+00  0.00000000000E+00 -0.67206428594E+03  0.67206428596E+03  0.50400001928E-02 0.  1.
    10030    2    1    2    0    0  0.00000000000E+00  0.00000000000E+00  0.13129637981E+04  0.26570923700E+04  0.23100359148E+04 0.  0.
        1    1    3    3  502    0 -0.95952460321E+03  0.48485537527E+03  0.17079473167E+03  0.10885508897E+04  0.50400001928E-02 0.  1.
       -1    1    3    3    0  502  0.95952460321E+03 -0.48485537527E+03  0.11421690665E+04  0.15685414803E+04  0.50400001928E-02 0. -1.
</event>
<event>
 5   0  0.2910126E-05  0.2295113E+04  0.7818609E-02  0.8479851E-01
        2   -1    0    0  501    0  0.00000000000E+00  0.00000000000E+00  0.22151305973E+04  0.22151305973E+04  0.25500000920E-02 0. -1.
       -2   -1    0    0    0  501  0.00000000000E+00  0.00000000000E+00 -0.59449564278E+03  0.59449564278E+03  0.25500000920E-02 0.  1.
    10030    2    1    2    0    0  0.00000000000E+00  0.00000000000E+00  0.16206349545E+04  0.28096262401E+04  0.22951126232E+04 0.  0.
        5    1    3    3  502    0 -0.68225643151E+03 -0.65253522540E+03  0.16089351172E+04  0.18654678662E+04  0.46999998093E+01 0. -1.
       -5    1    3    3    0  502  0.68225643151E+03  0.65253522540E+03  0.11699837358E+02  0.94415837385E+03  0.46999998093E+01 0.  1.
</event>
<event>
 5   0  0.2816178E-05  0.2297203E+04  0.7818609E-02  0.8479025E-01
       -2   -1    0    0    0  501  0.00000000000E+00  0.00000000000E+00  0.90287754797E+03  0.90287754798E+03  0.25500000920E-02 0.  1.
        2   -1    0    0  501    0  0.00000000000E+00  0.00000000000E+00 -0.14612008611E+04  0.14612008611E+04  0.25500000920E-02 0. -1.
    10030    2    1    2    0    0  0.00000000000E+00  0.00000000000E+00 -0.55832331317E+03  0.23640784091E+04  0.22972030390E+04 0.  0.
        1    1    3    3  502    0  0.42295744518E+03 -0.97524051300E+03  0.16858871699E+03  0.10762942043E+04  0.50400001928E-02 0.  1.
       -1    1    3    3    0  502 -0.42295744518E+03  0.97524051300E+03 -0.72691203016E+03  0.12877842048E+04  0.50400001928E-02 0. -1.
</event>
<event>
 5   0  0.2994157E-05  0.2301587E+04  0.7818609E-02  0.8477296E-01
       -2   -1    0    0    0  501  0.00000000000E+00  0.00000000000E+00  0.94473516042E+03  0.94473516042E+03  0.25500000920E-02 0. -1.
        2   -1    0    0  501    0  0.00000000000E+00  0.00000000000E+00 -0.14017959628E+04  0.14017959628E+04  0.25500000920E-02 0.  1.
    10030    2    1    2    0    0  0.00000000000E+00  0.00000000000E+00 -0.45706080241E+03  0.23465311233E+04  0.23015872209E+04 0.  0.
        4    1    3    3  502    0  0.31871669434E+03 -0.56271977884E+03  0.74194527653E+03  0.98423487391E+03  0.12699999809E+01 0. -1.
       -4    1    3    3    0  502 -0.31871669434E+03  0.56271977884E+03 -0.11990060789E+04  0.13622962493E+04  0.12699999809E+01 0.  1.
</event>
<event>
 5   0  0.2910126E-05  0.2290441E+04  0.7818609E-02  0.8481700E-01
        2   -1    0    0  501    0  0.00000000000E+00  0.00000000000E+00  0.21178650492E+04  0.21178650492E+04  0.25500000920E-02 0.  1.
       -2   -1    0    0    0  501  0.00000000000E+00  0.00000000000E+00 -0.61926964463E+03  0.61926964464E+03  0.25500000920E-02 0. -1.
    10030    2    1    2    0    0  0.00000000000E+00  0.00000000000E+00  0.14985954046E+04  0.27371346938E+04  0.22904406008E+04 0.  0.
        5    1    3    3  502    0 -0.91875152576E+03  0.63932339172E+03  0.10387521976E+04  0.15270451805E+04  0.46999998093E+01 0.  1.
       -5    1    3    3    0  502  0.91875152576E+03 -0.63932339172E+03  0.45984320695E+03  0.12100895133E+04  0.46999998093E+01 0. -1.
</event>
<event>
 5   0  0.1284837E-05  0.2278037E+04  0.7818609E-02  0.8486632E-01
        1   -1    0    0  501    0  0.00000000000E+00  0.00000000000E+00  0.14375694716E+04  0.14375694716E+04  0.50400001928E-02 0.  1.
       -1   -1    0    0    0  501  0.00000000000E+00  0.00000000000E+00 -0.90246950190E+03  0.90246950191E+03  0.50400001928E-02 0. -1.
    10030    2    1    2    0    0  0.00000000000E+00  0.00000000000E+00  0.53509996973E+03  0.23400389736E+04  0.22780365274E+04 0.  0.
        4    1    3    3  502    0 -0.18522616286E+02  0.11028347518E+04  0.55949201880E+03  0.12367782781E+04  0.12699999809E+01 0.  1.
       -4    1    3    3    0  502  0.18522616286E+02 -0.11028347518E+04 -0.24392049070E+02  0.11032606955E+04  0.12699999809E+01 0. -1.
</event>
<event>
 5   0  0.2816178E-05  0.2308089E+04  0.7818609E-02  0.8474739E-01
       -2   -1    0    0    0  501  0.00000000000E+00  0.00000000000E+00  0.18026557588E+04  0.18026557588E+04  0.25500000920E-02 0.  1.
        2   -1    0    0  501    0  0.00000000000E+00  0.00000000000E+00 -0.73880929712E+03  0.73880929713E+03  0.25500000920E-02 0. -1.
    10030    2    1    2    0    0  0.00000000000E+00  0.00000000000E+00  0.10638464617E+04  0.25414650559E+04  0.23080891093E+04 0.  0.
        1    1    3    3  502    0 -0.85086930226E+03  0.49368993223E+03 -0.13250516025E+03  0.99260562976E+03  0.50400001928E-02 0. -1.
       -1    1    3    3    0  502  0.85086930226E+03 -0.49368993223E+03  0.11963516219E+04  0.15488594262E+04  0.50400001928E-02 0.  1.
</event>
<event>
 5   0  0.1284837E-05  0.2291432E+04  0.7818609E-02  0.8481307E-01
       -1   -1    0    0    0  501  0.00000000000E+00  0.00000000000E+00  0.12191636275E+04  0.12191636275E+04  0.50400001928E-02 0.  1.
        1   -1    0    0  501    0  0.00000000000E+00  0.00000000000E+00 -0.10766928082E+04  0.10766928082E+04  0.50400001928E-02 0. -1.
    10030    2    1    2    0    0  0.00000000000E+00  0.00000000000E+00  0.14247081923E+03  0.22958564357E+04  0.22914316134E+04 0.  0.
        4    1    3    3  502    0  0.47962559252E+03 -0.99463667875E+03  0.37730896537E+03  0.11669218054E+04  0.12699999809E+01 0.  1.
       -4    1    3    3    0  502 -0.47962559252E+03  0.99463667875E+03 -0.23483814614E+03  0.11289346303E+04  0.12699999809E+01 0. -1.
</event>
<event>
 5   0  0.1303224E-05  0.2303117E+04  0.7818609E-02  0.8476693E-01
       -1   -1    0    0    0  501  0.00000000000E+00  0.00000000000E+00  0.69403380166E+03  0.69403380168E+03  0.50400001928E-02 0. -1.
        1   -1    0    0  501    0  0.00000000000E+00  0.00000000000E+00 -0.19106954305E+04  0.19106954305E+04  0.50400001928E-02 0.  1.
    10030    2    1    2    0    0  0.00000000000E+00  0.00000000000E+00 -0.12166616289E+04  0.26047292322E+04  0.23031172037E+04 0.  0.
        2    1    3    3  502    0 -0.28158258252E+03 -0.64379851902E+03 -0.16401229500E+04  0.17843117931E+04  0.25500000920E-02 0.  1.
       -2    1    3    3    0  502  0.28158258252E+03  0.64379851902E+03  0.42346132115E+03  0.82041743910E+03  0.25500000920E-02 0. -1.
</event>
<event>
 5   0  0.1303224E-05  0.2313776E+04  0.7818609E-02  0.8472509E-01
        1   -1    0    0  501    0  0.00000000000E+00  0.00000000000E+00  0.12989263204E+04  0.12989263205E+04  0.50400001928E-02 0. -1.
       -1   -1    0    0    0  501  0.00000000000E+00  0.00000000000E+00 -0.10303813279E+04  0.10303813279E+04  0.50400001928E-02 0.  1.
    10030    2    1    2    0    0  0.00000000000E+00  0.00000000000E+00  0.26854499254E+03  0.23293076484E+04  0.23137756390E+04 0.  0.
        2    1    3    3  502    0 -0.78379906925E+03 -0.35395788443E+03  0.91326417531E+03  0.12544634785E+04  0.25500000920E-02 0. -1.
       -2    1    3    3    0  502  0.78379906925E+03  0.35395788443E+03 -0.64471918277E+03  0.10748441699E+04  0.25500000920E-02 0.  1.
</event>
<event>
 5   0  0.1327820E-05  0.2301541E+04  0.7818609E-02  0.8477314E-01
       -1   -1    0    0    0  501  0.00000000000E+00  0.00000000000E+00  0.64743366667E+03  0.64743366669E+03  0.50400001928E-02 0. -1.
        1   -1    0    0  501    0  0.00000000000E+00  0.00000000000E+00 -0.20454186002E+04  0.20454186002E+04  0.50400001928E-02 0.  1.
    10030    2    1    2    0    0  0.00000000000E+00  0.00000000000E+00 -0.13979849335E+04  0.26928522669E+04  0.23015411048E+04 0.  0.
        1    1    3    3  502    0  0.89665322146E+03  0.45746356582E+03 -0.13514962427E+04  0.16851712102E+04  0.50400001928E-02 0.  1.
       -1    1    3    3    0  502 -0.89665322146E+03 -0.45746356582E+03 -0.46488690818E+02  0.10076810567E+04  0.50400001928E-02 0. -1.
</event>
<event>
 5   0  0.1284837E-05  0.2328687E+04  0.7818609E-02  0.8466695E-01
        1   -1    0    0  501    0  0.00000000000E+00  0.00000000000E+00  0.14775358301E+04  0.14775358301E+04  0.50400001928E-02 0. -1.
       -1   -1    0    0    0  501  0.00000000000E+00  0.00000000000E+00 -0.91753822105E+03  0.91753822106E+03  0.50400001928E-02 0.  1.
    10030    2    1    2    0    0  0.00000000000E+00  0.00000000000E+00  0.55999760909E+03  0.23950740512E+04  0.23286868378E+04 0.  0.
        4    1    3    3  502    0 -0.22120904066E+03  0.63230996050E+03  0.12594848447E+04  0.14265528426E+04  0.12699999809E+01 0. -1.
       -4    1    3    3    0  502  0.22120904066E+03 -0.63230996050E+03 -0.69948723561E+03  0.96852120860E+03  0.12699999809E+01 0.  1.
</event>
<event>
 5   0  0.2994157E-05  0.2303749E+04  0.7818609E-02  0.8476444E-01
       -2   -1    0    0    0  501  0.00000000000E+00  0.00000000000E+00  0.98602653426E+03  0.98602653426E+03  0.25500000920E-02 0. -1.
        2   -1    0    0  501    0  0.00000000000E+00  0.00000000000E+00 -0.13456177225E+04  0.13456177225E+04  0.25500000920E-02 0.  1.
    10030    2    1    2    0    0  0.00000000000E+00  0.00000000000E+00 -0.35959118826E+03  0.23316442568E+04  0.23037489268E+04 0.  0.
        4    1    3    3  502    0 -0.84002197379E+03  0.64279398209E+03  0.28178826383E+03  0.10946356738E+04  0.12699999809E+01 0.  1.
       -4    1    3    3    0  502  0.84002197379E+03 -0.64279398209E+03 -0.64137945209E+03  0.12370085830E+04  0.12699999809E+01 0. -1.
</event>
<event>
 5   0  0.2994157E-05  0.2318241E+04  0.7818609E-02  0.8470763E-01
       -2   -1    0    0    0  501  0.00000000000E+00  0.00000000000E+00  0.18178435953E+04  0.18178435953E+04  0.25500000920E-02 0. -1.
        2   -1    0    0  501    0  0.00000000000E+00  0.00000000000E+00 -0.73909597027E+03  0.73909597027E+03  0.25500000920E-02 0.  1.
    10030    2    1    2    0    0  0.00000000000E+00  0.00000000000E+00  0.10787476251E+04  0.25569395656E+04  0.23182414679E+04 0.  0.
        4    1    3    3  502    0 -0.18385529453E+03 -0.36064249532E+03  0.17373450297E+04  0.17838820431E+04  0.12699999809E+01 0. -1.
       -4    1    3    3    0  502  0.18385529453E+03  0.36064249532E+03 -0.65859740463E+03  0.77305752247E+03  0.12699999809E+01 0.  1.
</event>
<event>
 5   0  0.1308224E-05  0.2320701E+04  0.7818609E-02  0.8469803E-01
        1   -1    0    0  501    0  0.00000000000E+00  0.00000000000E+00  0.72184225822E+03  0.72184225823E+03  0.50400001928E-02 0.  1.
       -1   -1    0    0    0  501  0.00000000000E+00  0.00000000000E+00 -0.18652460222E+04  0.18652460222E+04  0.50400001928E-02 0. -1.
    10030    2    1    2    0    0  0.00000000000E+00  0.00000000000E+00 -0.11434037640E+04  0.25870882804E+04  0.23207011017E+04 0.  0.
        5    1    3    3  502    0 -0.63493556351E+03  0.30368551636E+03  0.45669973852E+03  0.83902610438E+03  0.46999998093E+01 0.  1.
       -5    1    3    3    0  502  0.63493556351E+03 -0.30368551636E+03 -0.16001035025E+04  0.17480621760E+04  0.46999998093E+01 0. -1.
</event>
<event>
 5   0  0.2938972E-05  0.2288520E+04  0.7818609E-02  0.8482461E-01
       -2   -1    0    0    0  501  0.00000000000E+00  0.00000000000E+00  0.10777242701E+04  0.10777242701E+04  0.25500000920E-02 0. -1.
        2   -1    0    0  501    0  0.00000000000E+00  0.00000000000E+00 -0.12149037996E+04  0.12149037996E+04  0.25500000920E-02 0.  1.
    10030    2    1    2    0    0  0.00000000000E+00  0.00000000000E+00 -0.13717952944E+03  0.22926280697E+04  0.22885203173E+04 0.  0.
        2    1    3    3  502    0 -0.45888764264E+03  0.10482001527E+04 -0.74066012269E+02  0.11466417064E+04  0.25500000920E-02 0.  1.
       -2    1    3    3    0  502  0.45888764264E+03 -0.10482001527E+04 -0.63113517175E+02  0.11459863633E+04  0.25500000920E-02 0. -1.
</event>
<event>
 5   0  0.1308224E-05  0.2152836E+04  0.7818609E-02  0.8538319E-01
       -1   -1    0    0    0  501  0.00000000000E+00  0.00000000000E+00  0.10583137164E+04  0.10583137165E+04  0.50400001928E-02 0. -1.
        1   -1    0    0  501    0  0.00000000000E+00  0.00000000000E+00 -0.10948321134E+04  0.10948321134E+04  0.50400001928E-02 0.  1.
    10030    2    1    2    0    0  0.00000000000E+00  0.00000000000E+00 -0.36518396990E+02  0.21531458299E+04  0.21528361228E+04 0.  0.
        5    1    3    3  502    0 -0.58579592418E+03 -0.10034987784E+03  0.87932564110E+03  0.10613494410E+04  0.46999998093E+01 0. -1.
       -5    1    3    3    0  502  0.58579592418E+03  0.10034987784E+03 -0.91584403809E+03  0.10917963889E+04  0.46999998093E+01 0.  1.
</event>
<event>
 5   0  0.2816178E-05  0.2294969E+04  0.7818609E-02  0.8479907E-01
       -2   -1    0    0    0  501  0.00000000000E+00  0.00000000000E+00  0.88013645159E+03  0.88013645159E+03  0.25500000920E-02 0.  1.
        2   -1    0    0  501    0  0.00000000000E+00  0.00000000000E+00 -0.14960417195E+04  0.14960417195E+04  0.25500000920E-02 0. -1.
    10030    2    1    2    0    0  0.00000000000E+00  0.00000000000E+00 -0.61590526791E+03  0.23761781711E+04  0.22949691505E+04 0.  0.
        1    1    3    3  502    0 -0.24153862741E+03 -0.10930671765E+04 -0.46870966039E+02  0.11204167298E+04  0.50400001928E-02 0.  1.
       -1    1    3    3    0  502  0.24153862741E+03  0.10930671765E+04 -0.56903430187E+03  0.12557614413E+04  0.50400001928E-02 0. -1.
</event>
<event>
 5   0  0.2994157E-05  0.2295846E+04  0.7818609E-02  0.8479561E-01
       -2   -1    0    0    0  501  0.00000000000E+00  0.00000000000E+00  0.78010000442E+03  0.78010000442E+03  0.25500000920E-02 0. -1.
        2   -1    0    0  501    0  0.00000000000E+00  0.00000000000E+00 -0.16891778814E+04  0.16891778814E+04  0.25500000920E-02 0.  1.
    10030    2    1    2    0    0  0.00000000000E+00  0.00000000000E+00 -0.90907787695E+03  0.24692778858E+04  0.22958463997E+04 0.  0.
        4    1    3    3  502    0  0.10457434073E+04  0.46326887958E+03 -0.55952814959E+03  0.12732912832E+04  0.12699999809E+01 0. -1.
       -4    1    3    3    0  502 -0.10457434073E+04 -0.46326887958E+03 -0.34954972736E+03  0.11959866026E+04  0.12699999809E+01 0.  1.
</event>
<event>
 5   0  0.1308224E-05  0.2306201E+04  0.7818609E-02  0.8475480E-01
       -1   -1    0    0    0  501  0.00000000000E+00  0.00000000000E+00  0.91519517454E+03  0.91519517455E+03  0.50400001928E-02 0.  1.
        1   -1    0    0  501    0  0.00000000000E+00  0.00000000000E+00 -0.14528488527E+04  0.14528488527E+04  0.50400001928E-02 0. -1.
    10030    2    1    2    0    0  0.00000000000E+00  0.00000000000E+00 -0.53765367819E+03  0.23680440273E+04  0.23062005632E+04 0.  0.
        5    1    3    3  502    0  0.12631614940E+03 -0.10995401139E+04  0.63382608938E+02  0.11085953621E+04  0.46999998093E+01 0.  1.
       -5    1    3    3    0  502 -0.12631614940E+03  0.10995401139E+04 -0.60103628713E+03  0.12594486652E+04  0.46999998093E+01 0. -1.
</event>
<event>
 5   0  0.2994157E-05  0.2289692E+04  0.7818609E-02  0.8481996E-01
        2   -1    0    0  501    0  0.00000000000E+00  0.00000000000E+00  0.99438684966E+03  0.99438684966E+03  0.25500000920E-02 0. -1.
       -2   -1    0    0    0  501  0.00000000000E+00  0.00000000000E+00 -0.13180713480E+04  0.13180713480E+04  0.25500000920E-02 0.  1.
    10030    2    1    2    0    0  0.00000000000E+00  0.00000000000E+00 -0.32368449836E+03  0.23124581977E+04  0.22896923945E+04 0.  0.
        4    1    3    3  502    0 -0.91037267441E+03  0.39799195890E+03  0.41257922544E+03  0.10758249095E+04  0.12699999809E+01 0. -1.
       -4    1    3    3    0  502  0.91037267441E+03 -0.39799195890E+03 -0.73626372380E+03  0.12366332882E+04  0.12699999809E+01 0.  1.
</event>
<event>
 5   0  0.2910126E-05  0.2305323E+04  0.7818609E-02  0.8475825E-01
        2   -1    0    0  501    0  0.00000000000E+00  0.00000000000E+00  0.98800272736E+03  0.98800272737E+03  0.25500000920E-02 0. -1.
       -2   -1    0    0    0  501  0.00000000000E+00  0.00000000000E+00 -0.13447623634E+04  0.13447623634E+04  0.25500000920E-02 0.  1.
    10030    2    1    2    0    0  0.00000000000E+00  0.00000000000E+00 -0.35675963602E+03  0.23327650907E+04  0.23053233029E+04 0.  0.
        5    1    3    3  502    0  0.58333842830E+03  0.71484128084E+03  0.52073138930E+03  0.10594645103E+04  0.46999998093E+01 0. -1.
       -5    1    3    3    0  502 -0.58333842830E+03 -0.71484128084E+03 -0.87749102532E+03  0.12733005805E+04  0.46999998093E+01 0.  1.
</event>
<event>
 5   0  0.2816178E-05  0.2301280E+04  0.7818609E-02  0.8477416E-01
       -2   -1    0    0    0  501  0.00000000000E+00  0.00000000000E+00  0.66857069673E+03  0.66857069673E+03  0.25500000920E-02 0.  1.
        2   -1    0    0  501    0  0.00000000000E+00  0.00000000000E+00 -0.19803034931E+04  0.19803034931E+04  0.25500000920E-02 0. -1.
    10030    2    1    2    0    0  0.00000000000E+00  0.00000000000E+00 -0.13117327963E+04  0.26488741898E+04  0.23012804141E+04 0.  0.
        1    1    3    3  502    0  0.56610616462E+03 -0.64658594537E+03 -0.15365639650E+04  0.17605619537E+04  0.50400001928E-02 0. -1.
       -1    1    3    3    0  502 -0.56610616462E+03  0.64658594537E+03  0.22483116863E+03  0.88831223609E+03  0.50400001928E-02 0.  1.
</event>
<event>
 5   0  0.1284837E-05  0.2267416E+04  0.7818609E-02  0.8490881E-01
        1   -1    0    0  501    0  0.00000000000E+00  0.00000000000E+00  0.17097618677E+04  0.17097618677E+04  0.50400001928E-02 0. -1.
       -1   -1    0    0    0  501  0.00000000000E+00  0.00000000000E+00 -0.75173839655E+03  0.75173839657E+03  0.50400001928E-02 0.  1.
    10030    2    1    2    0    0  0.00000000000E+00  0.00000000000E+00  0.95802347110E+03  0.24615002642E+04  0.22674158374E+04 0.  0.
        4    1    3    3  502    0  0.87836725880E+03  0.64075190224E+03  0.82775717697E+03  0.13664829302E+04  0.12699999809E+01 0. -1.
       -4    1    3    3    0  502 -0.87836725880E+03 -0.64075190224E+03  0.13026629413E+03  0.10950173340E+04  0.12699999809E+01 0.  1.
</event>
<event>
 5   0  0.2816178E-05  0.2298563E+04  0.7818609E-02  0.8478488E-01
        2   -1    0    0  501    0  0.00000000000E+00  0.00000000000E+00  0.13529258323E+04  0.13529258323E+04  0.25500000920E-02 0. -1.
       -2   -1    0    0    0  501  0.00000000000E+00  0.00000000000E+00 -0.97628968294E+03  0.97628968294E+03  0.25500000920E-02 0.  1.
    10030    2    1    2    0    0  0.00000000000E+00  0.00000000000E+00  0.37663614934E+03  0.23292155152E+04  0.22985626220E+04 0.  0.
        1    1    3    3  502    0  0.39769634537E+03  0.99191042100E+03  0.61680316379E+03  0.12338941645E+04  0.50400001928E-02 0. -1.
       -1    1    3    3    0  502 -0.39769634537E+03 -0.99191042100E+03 -0.24016701445E+03  0.10953213507E+04  0.50400001928E-02 0.  1.
</event>
<event>
 5   0  0.1303224E-05  0.2297431E+04  0.7818609E-02  0.8478935E-01
        1   -1    0    0  501    0  0.00000000000E+00  0.00000000000E+00  0.12995081416E+04  0.12995081416E+04  0.50400001928E-02 0. -1.
       -1   -1    0    0    0  501  0.00000000000E+00  0.00000000000E+00 -0.10154205261E+04  0.10154205261E+04  0.50400001928E-02 0.  1.
    10030    2    1    2    0    0  0.00000000000E+00  0.00000000000E+00  0.28408761557E+03  0.23149286677E+04  0.22974309485E+04 0.  0.
        2    1    3    3  502    0  0.78880887374E+03  0.63545102356E+01 -0.69935339063E+03  0.10542082262E+04  0.25500000920E-02 0.  1.
       -2    1    3    3    0  502 -0.78880887374E+03 -0.63545102356E+01  0.98344100620E+03  0.12607204416E+04  0.25500000920E-02 0. -1.
</event>
<event>
 5   0  0.2871888E-05  0.2296884E+04  0.7818609E-02  0.8479151E-01
        2   -1    0    0  501    0  0.00000000000E+00  0.00000000000E+00  0.17617414468E+04  0.17617414468E+04  0.25500000920E-02 0.  1.
       -2   -1    0    0    0  501  0.00000000000E+00  0.00000000000E+00 -0.74864536670E+03  0.74864536671E+03  0.25500000920E-02 0. -1.
    10030    2    1    2    0    0  0.00000000000E+00  0.00000000000E+00  0.10130960801E+04  0.25103868135E+04  0.22968844738E+04 0.  0.
        3    1    3    3  502    0  0.17173003402E+03 -0.19337440470E+03  0.17295007818E+04  0.17487303478E+04  0.10100000352E+00 0.  1.
       -3    1    3    3    0  502 -0.17173003402E+03  0.19337440470E+03 -0.71640470167E+03  0.76165646571E+03  0.10100000352E+00 0. -1.
</event>
<event>
 5   0  0.1284837E-05  0.2306882E+04  0.7818609E-02  0.8475213E-01
       -1   -1    0    0    0  501  0.00000000000E+00  0.00000000000E+00  0.11036861925E+04  0.11036861926E+04  0.50400001928E-02 0.  1.
        1   -1    0    0  501    0  0.00000000000E+00  0.00000000000E+00 -0.12054384577E+04  0.12054384578E+04  0.50400001928E-02 0. -1.
    10030    2    1    2    0    0  0.00000000000E+00  0.00000000000E+00 -0.10175226520E+03  0.23091246503E+04  0.23068816890E+04 0.  0.
        4    1    3    3  502    0  0.45384123876E+03  0.10477796437E+04  0.11240855100E+03  0.11473671370E+04  0.12699999809E+01 0. -1.
       -4    1    3    3    0  502 -0.45384123876E+03 -0.10477796437E+04 -0.21416081621E+03  0.11617575134E+04  0.12699999809E+01 0.  1.
</event>
<event>
 5   0  0.1284837E-05  0.2155228E+04  0.7818609E-02  0.8537298E-01
        1   -1    0    0  501    0  0.00000000000E+00  0.00000000000E+00  0.18703596918E+04  0.18703596918E+04  0.50400001928E-02 0. -1.
       -1   -1    0    0    0  501  0.00000000000E+00  0.00000000000E+00 -0.62087102541E+03  0.62087102543E+03  0.50400001928E-02 0.  1.
    10030    2    1    2    0    0  0.00000000000E+00  0.00000000000E+00  0.12494886663E+04  0.24912307172E+04  0.21552281919E+04 0.  0.
        4    1    3    3  502    0 -0.37899552752E+03 -0.98366659522E+03  0.88324514498E+03  0.13752676756E+04  0.12699999809E+01 0. -1.
       -4    1    3    3    0  502  0.37899552752E+03  0.98366659522E+03  0.36624352137E+03  0.11159630416E+04  0.12699999809E+01 0.  1.
</event>
<event>
 5   0  0.2816178E-05  0.2293279E+04  0.7818609E-02  0.8480576E-01
       -2   -1    0    0    0  501  0.00000000000E+00  0.00000000000E+00  0.64196417985E+03  0.64196417986E+03  0.25500000920E-02 0. -1.
        2   -1    0    0  501    0  0.00000000000E+00  0.00000000000E+00 -0.20480623144E+04  0.20480623144E+04  0.25500000920E-02 0.  1.
    10030    2    1    2    0    0  0.00000000000E+00  0.00000000000E+00 -0.14060981345E+04  0.26900264942E+04  0.22932794369E+04 0.  0.
        1    1    3    3  502    0 -0.76189881331E+03  0.73669127748E+03 -0.12164696901E+04  0.16133822693E+04  0.50400001928E-02 0.  1.
       -1    1    3    3    0  502  0.76189881331E+03 -0.73669127748E+03 -0.18962844442E+03  0.10766442249E+04  0.50400001928E-02 0. -1.
</event>
<event>
 5   0  0.2994157E-05  0.2295879E+04  0.7818609E-02  0.8479548E-01
       -2   -1    0    0    0  501  0.00000000000E+00  0.00000000000E+00  0.21157515502E+04  0.21157515502E+04  0.25500000920E-02 0.  1.
        2   -1    0    0  501    0  0.00000000000E+00  0.00000000000E+00 -0.62283565594E+03  0.62283565594E+03  0.25500000920E-02 0. -1.
    10030    2    1    2    0    0  0.00000000000E+00  0.00000000000E+00  0.14929158942E+04  0.27385872061E+04  0.22958793562E+04 0.  0.
        4    1    3    3  502    0  0.79257193061E+03 -0.20179166189E+03 -0.21439652334E+03  0.84549253227E+03  0.12699999809E+01 0. -1.
       -4    1    3    3    0  502 -0.79257193061E+03  0.20179166189E+03  0.17073124176E+04  0.18930946739E+04  0.12699999809E+01 0.  1.
</event>
<event>
 5   0  0.1308224E-05  0.2290084E+04  0.7818609E-02  0.8481841E-01
       -1   -1    0    0    0  501  0.00000000000E+00  0.00000000000E+00  0.13126638648E+04  0.13126638649E+04  0.50400001928E-02 0. -1.
        1   -1    0    0  501    0  0.00000000000E+00  0.00000000000E+00 -0.99882473193E+03  0.99882473194E+03  0.50400001928E-02 0.  1.
    10030    2    1    2    0    0  0.00000000000E+00  0.00000000000E+00  0.31383913292E+03  0.23114885968E+04  0.22900839574E+04 0.  0.
        5    1    3    3  502    0  0.28933303228E+03 -0.33140831254E+01 -0.96130464486E+03  0.10039189693E+04  0.46999998093E+01 0.  1.
       -5    1    3    3    0  502 -0.28933303228E+03  0.33140831254E+01  0.12751437778E+04  0.13075696275E+04  0.46999998093E+01 0. -1.
</event>
<event>
 5   0  0.2816178E-05  0.2292191E+04  0.7818609E-02  0.8481006E-01
        2   -1    0    0  501    0  0.00000000000E+00  0.00000000000E+00  0.14841867979E+04  0.14841867979E+04  0.25500000920E-02 0.  1.
       -2   -1    0    0    0  501  0.00000000000E+00  0.00000000000E+00 -0.88501992963E+03  0.88501992963E+03  0.25500000920E-02 0. -1.
    10030    2    1    2    0    0  0.00000000000E+00  0.00000000000E+00  0.59916686831E+03  0.23692067276E+04  0.22921910003E+04 0.  0.
        1    1    3    3  502    0 -0.42220473164E+03 -0.83382355537E+03 -0.38604142478E+03  0.10112104324E+04  0.50400001928E-02 0. -1.
       -1    1    3    3    0  502  0.42220473164E+03  0.83382355537E+03  0.98520829308E+03  0.13579962952E+04  0.50400001928E-02 0.  1.
</event>
<event>
 5   0  0.2871888E-05  0.2290403E+04  0.7818609E-02  0.8481715E-01
       -2   -1    0    0    0  501  0.00000000000E+00  0.00000000000E+00  0.95654378851E+03  0.95654378852E+03  0.25500000920E-02 0. -1.
        2   -1    0    0  501    0  0.00000000000E+00  0.00000000000E+00 -0.13710673536E+04  0.13710673536E+04  0.25500000920E-02 0.  1.
    10030    2    1    2    0    0  0.00000000000E+00  0.00000000000E+00 -0.41452356509E+03  0.23276111421E+04  0.22904025504E+04 0.  0.
        3    1    3    3  502    0 -0.49167970767E+03  0.32434414715E+03 -0.12053254705E+04  0.13415504317E+04  0.10100000352E+00 0.  1.
       -3    1    3    3    0  502  0.49167970767E+03 -0.32434414715E+03  0.79080190545E+03  0.98606071040E+03  0.10100000352E+00 0. -1.
</event>
<event>
 5   0  0.1327820E-05  0.2293601E+04  0.7818609E-02  0.8480449E-01
        1   -1    0    0  501    0  0.00000000000E+00  0.00000000000E+00  0.17739860217E+04  0.17739860217E+04  0.50400001928E-02 0. -1.
       -1   -1    0    0    0  501  0.00000000000E+00  0.00000000000E+00 -0.74135369481E+03  0.74135369483E+03  0.50400001928E-02 0.  1.
    10030    2    1    2    0    0  0.00000000000E+00  0.00000000000E+00  0.10326323269E+04  0.25153397166E+04  0.22936007427E+04 0.  0.
        1    1    3    3  502    0 -0.89413724554E+03 -0.32363936904E+03  0.12193258216E+04  0.15462791839E+04  0.50400001928E-02 0. -1.
       -1    1    3    3    0  502  0.89413724554E+03  0.32363936904E+03 -0.18669349473E+03  0.96906053271E+03  0.50400001928E-02 0.  1.
</event>
<event>
 5   0  0.1327820E-05  0.2284364E+04  0.7818609E-02  0.8484112E-01
        1   -1    0    0  501    0  0.00000000000E+00  0.00000000000E+00  0.15933939230E+04  0.15933939230E+04  0.50400001928E-02 0. -1.
       -1   -1    0    0    0  501  0.00000000000E+00  0.00000000000E+00 -0.81874284345E+03  0.81874284346E+03  0.50400001928E-02 0.  1.
    10030    2    1    2    0    0  0.00000000000E+00  0.00000000000E+00  0.77465107952E+03  0.24121367664E+04  0.22843641314E+04 0.  0.
        1    1    3    3  502    0  0.17830535346E+03 -0.48714499310E+03  0.14618264514E+04  0.15511413918E+04  0.50400001928E-02 0. -1.
       -1    1    3    3    0  502 -0.17830535346E+03  0.48714499310E+03 -0.68717537188E+03  0.86099537462E+03  0.50400001928E-02 0.  1.
</event>
<event>
 5   0  0.1371753E-05  0.2297678E+04  0.7818609E-02  0.8478837E-01
        1   -1    0    0  501    0  0.00000000000E+00  0.00000000000E+00  0.21924806998E+04  0.21924806998E+04  0.50400001928E-02 0.  1.
       -1   -1    0    0    0  501  0.00000000000E+00  0.00000000000E+00 -0.60198060935E+03  0.60198060937E+03  0.50400001928E-02 0. -1.
    10030    2    1    2    0    0  0.00000000000E+00  0.00000000000E+00  0.15905000905E+04  0.27944613092E+04  0.22976778431E+04 0.  0.
        3    1    3    3  502    0  0.59349908584E+03  0.82997436701E+02  0.19873237623E+04  0.20757132475E+04  0.10100000352E+00 0.  1.
       -3    1    3    3    0  502 -0.59349908584E+03 -0.82997436701E+02 -0.39682367188E+03  0.71874806167E+03  0.10100000352E+00 0. -1.
</event>
<event>
 5   0  0.1308224E-05  0.2319088E+04  0.7818609E-02  0.8470433E-01
       -1   -1    0    0    0  501  0.00000000000E+00  0.00000000000E+00  0.82016543024E+03  0.82016543026E+03  0.50400001928E-02 0.  1.
        1   -1    0    0  501    0  0.00000000000E+00  0.00000000000E+00 -0.16393554237E+04  0.16393554237E+04  0.50400001928E-02 0. -1.
    10030    2    1    2    0    0  0.00000000000E+00  0.00000000000E+00 -0.81918999342E+03  0.24595208539E+04  0.23190883091E+04 0.  0.
        5    1    3    3  502    0  0.14374537471E+03 -0.23085022629E+03 -0.16050461543E+04  0.16279280718E+04  0.46999998093E+01 0. -1.
       -5    1    3    3    0  502 -0.14374537471E+03  0.23085022629E+03  0.78585616084E+03  0.83159278211E+03  0.46999998093E+01 0.  1.
</event>
<event>
 5   0  0.1308224E-05  0.2129221E+04  0.7818609E-02  0.8548479E-01
        1   -1    0    0  501    0  0.00000000000E+00  0.00000000000E+00  0.12392722469E+04  0.12392722469E+04  0.50400001928E-02 0.  1.
       -1   -1    0    0    0  501  0.00000000000E+00  0.00000000000E+00 -0.91456572212E+03  0.91456572213E+03  0.50400001928E-02 0. -1.
    10030    2    1    2    0    0  0.00000000000E+00  0.00000000000E+00  0.32470652475E+03  0.21538379690E+04  0.21292213764E+04 0.  0.
        5    1    3    3  502    0 -0.91104377914E+03  0.48544228226E+03 -0.10088377824E+03  0.10372341123E+04  0.46999998093E+01 0. -1.
       -5    1    3    3    0  502  0.91104377914E+03 -0.48544228226E+03  0.42559030300E+03  0.11166038568E+04  0.46999998093E+01 0.  1.
</event>
<event>
 5   0  0.2994157E-05  0.2297833E+04  0.7818609E-02  0.8478776E-01
       -2   -1    0    0    0  501  0.00000000000E+00  0.00000000000E+00  0.16077036637E+04  0.16077036637E+04  0.25500000920E-02 0.  1.
        2   -1    0    0  501    0  0.00000000000E+00  0.00000000000E+00 -0.82105249093E+03  0.82105249093E+03  0.25500000920E-02 0. -1.
    10030    2    1    2    0    0  0.00000000000E+00  0.00000000000E+00  0.78665117278E+03  0.24287561546E+04  0.22978329772E+04 0.  0.
        4    1    3    3  502    0 -0.64388093130E+03  0.67680773382E+03 -0.31363002994E+03  0.98540183216E+03  0.12699999809E+01 0. -1.
       -4    1    3    3    0  502  0.64388093130E+03 -0.67680773382E+03  0.11002812027E+04  0.14433543225E+04  0.12699999809E+01 0.  1.
</event>
<event>
 5   0  0.2816178E-05  0.2298276E+04  0.7818609E-02  0.8478601E-01
       -2   -1    0    0    0  501  0.00000000000E+00  0.00000000000E+00  0.12799601530E+04  0.12799601530E+04  0.25500000920E-02 0.  1.
        2   -1    0    0  501    0  0.00000000000E+00  0.00000000000E+00 -0.10316866684E+04  0.10316866684E+04  0.25500000920E-02 0. -1.
    10030    2    1    2    0    0  0.00000000000E+00  0.00000000000E+00  0.24827348460E+03  0.23116468214E+04  0.22982757240E+04 0.  0.
        1    1    3    3  502    0  0.88284687558E+03  0.22496596226E+03  0.82856087490E+03  0.12314793597E+04  0.50400001928E-02 0.  1.
       -1    1    3    3    0  502 -0.88284687558E+03 -0.22496596226E+03 -0.58028739030E+03  0.10801674617E+04  0.50400001928E-02 0. -1.
</event>
<event>
 5   0  0.1303224E-05  0.2132775E+04  0.7818609E-02  0.8546942E-01
        1   -1    0    0  501    0  0.00000000000E+00  0.00000000000E+00  0.18573827075E+04  0.18573827075E+04  0.50400001928E-02 0.  1.
       -1   -1    0    0    0  501  0.00000000000E+00  0.00000000000E+00 -0.61224967544E+03  0.61224967546E+03  0.50400001928E-02 0. -1.
    10030    2    1    2    0    0  0.00000000000E+00  0.00000000000E+00  0.12451330321E+04  0.24696323830E+04  0.21327746809E+04 0.  0.
        2    1    3    3  502    0 -0.59959229512E+03 -0.10682952628E+03 -0.39105304959E+03  0.72377203293E+03  0.25500000920E-02 0. -1.
       -2    1    3    3    0  502  0.59959229512E+03  0.10682952628E+03  0.16361860817E+04  0.17458603501E+04  0.25500000920E-02 0.  1.
</event>
<event>
 5   0  0.2910126E-05  0.2150520E+04  0.7818609E-02  0.8539310E-01
        2   -1    0    0  501    0  0.00000000000E+00  0.00000000000E+00  0.81464887319E+03  0.81464887320E+03  0.25500000920E-02 0.  1.
       -2   -1    0    0    0  501  0.00000000000E+00  0.00000000000E+00 -0.14192418374E+04  0.14192418374E+04  0.25500000920E-02 0. -1.
    10030    2    1    2    0    0  0.00000000000E+00  0.00000000000E+00 -0.60459296418E+03  0.22338907106E+04  0.21505197173E+04 0.  0.
        5    1    3    3  502    0 -0.37064425601E+03 -0.17523948111E+03  0.73025945475E+03  0.83748850828E+03  0.46999998093E+01 0.  1.
       -5    1    3    3    0  502  0.37064425601E+03  0.17523948111E+03 -0.13348524189E+04  0.13964022023E+04  0.46999998093E+01 0. -1.
</event>
<event>
 5   0  0.1303224E-05  0.2298921E+04  0.7818609E-02  0.8478346E-01
        1   -1    0    0  501    0  0.00000000000E+00  0.00000000000E+00  0.14417854577E+04  0.14417854577E+04  0.50400001928E-02 0. -1.
       -1   -1    0    0    0  501  0.00000000000E+00  0.00000000000E+00 -0.91640542406E+03  0.91640542407E+03  0.50400001928E-02 0.  1.
    10030    2    1    2    0    0  0.00000000000E+00  0.00000000000E+00  0.52538003359E+03  0.23581908817E+04  0.22989214982E+04 0.  0.
        2    1    3    3  502    0  0.72974120027E+03  0.32272511665E+03  0.11114187672E+04  0.13681832466E+04  0.25500000920E-02 0. -1.
       -2    1    3    3    0  502 -0.72974120027E+03 -0.32272511665E+03 -0.58603873360E+03  0.99000763511E+03  0.25500000920E-02 0.  1.
</event>
<event>
 5   0  0.2938972E-05  0.2294171E+04  0.7818609E-02  0.8480223E-01
        2   -1    0    0  501    0  0.00000000000E+00  0.00000000000E+00  0.20508720351E+04  0.20508720351E+04  0.25500000920E-02 0.  1.
       -2   -1    0    0    0  501  0.00000000000E+00  0.00000000000E+00 -0.64158335479E+03  0.64158335480E+03  0.25500000920E-02 0. -1.
    10030    2    1    2    0    0  0.00000000000E+00  0.00000000000E+00  0.14092886804E+04  0.26924553899E+04  0.22941711885E+04 0.  0.
        2    1    3    3  502    0 -0.34709270750E+03  0.37676392784E+03 -0.49987957259E+03  0.71575414216E+03  0.25500000920E-02 0. -1.
       -2    1    3    3    0  502  0.34709270750E+03 -0.37676392784E+03  0.19091682529E+04  0.19767012478E+04  0.25500000920E-02 0.  1.
</event>
<event>
 5   0  0.2871888E-05  0.2283385E+04  0.7818609E-02  0.8484501E-01
       -2   -1    0    0    0  501  0.00000000000E+00  0.00000000000E+00  0.76082027946E+03  0.76082027946E+03  0.25500000920E-02 0. -1.
        2   -1    0    0  501    0  0.00000000000E+00  0.00000000000E+00 -0.17132324742E+04  0.17132324742E+04  0.25500000920E-02 0.  1.
    10030    2    1    2    0    0  0.00000000000E+00  0.00000000000E+00 -0.95241219476E+03  0.24740527537E+04  0.22833852148E+04 0.  0.
        3    1    3    3  502    0 -0.62602096882E+03 -0.27215968359E+03 -0.14677667593E+04  0.16187379086E+04  0.10100000352E+00 0.  1.
       -3    1    3    3    0  502  0.62602096882E+03  0.27215968359E+03  0.51535456457E+03  0.85531484507E+03  0.10100000352E+00 0. -1.
</event>
<event>
 5   0  0.2816178E-05  0.2312288E+04  0.7818609E-02  0.8473092E-01
        2   -1    0    0  501    0  0.00000000000E+00  0.00000000000E+00  0.10370486436E+04  0.10370486436E+04  0.25500000920E-02 0.  1.
       -2   -1    0    0    0  501  0.00000000000E+00  0.00000000000E+00 -0.12889161685E+04  0.12889161685E+04  0.25500000920E-02 0. -1.
    10030    2    1    2    0    0  0.00000000000E+00  0.00000000000E+00 -0.25186752497E+03  0.23259648121E+04  0.23122878405E+04 0.  0.
        1    1    3    3  502    0  0.12751419002E+03  0.48530232351E+03 -0.11736754119E+04  0.12764373021E+04  0.50400001928E-02 0. -1.
       -1    1    3    3    0  502 -0.12751419002E+03 -0.48530232351E+03  0.92180788689E+03  0.10495275100E+04  0.50400001928E-02 0.  1.
</event>
<event>
 5   0  0.2994157E-05  0.2299159E+04  0.7818609E-02  0.8478253E-01
       -2   -1    0    0    0  501  0.00000000000E+00  0.00000000000E+00  0.67965026299E+03  0.67965026299E+03  0.25500000920E-02 0.  1.
        2   -1    0    0  501    0  0.00000000000E+00  0.00000000000E+00 -0.19444309854E+04  0.19444309854E+04  0.25500000920E-02 0. -1.
    10030    2    1    2    0    0  0.00000000000E+00  0.00000000000E+00 -0.12647807225E+04  0.26240812484E+04  0.22991590033E+04 0.  0.
        4    1    3    3  502    0 -0.71930371914E+03  0.88596416095E+03 -0.79054106609E+03  0.13882676705E+04  0.12699999809E+01 0. -1.
       -4    1    3    3    0  502  0.71930371914E+03 -0.88596416095E+03 -0.47423965636E+03  0.12358135779E+04  0.12699999809E+01 0.  1.
</event>
<event>
 5   0  0.1308224E-05  0.2300264E+04  0.7818609E-02  0.8477817E-01
       -1   -1    0    0    0  501  0.00000000000E+00  0.00000000000E+00  0.53209950888E+03  0.53209950890E+03  0.50400001928E-02 0. -1.
        1   -1    0    0  501    0  0.00000000000E+00  0.00000000000E+00 -0.24860089394E+04  0.24860089394E+04  0.50400001928E-02 0.  1.
    10030    2    1    2    0    0  0.00000000000E+00  0.00000000000E+00 -0.19539094305E+04  0.30181084483E+04  0.23002644507E+04 0.  0.
        5    1    3    3  502    0  0.88460273040E+03 -0.10628748019E+03 -0.19312213335E+04  0.21268420130E+04  0.46999998093E+01 0.  1.
       -5    1    3    3    0  502 -0.88460273040E+03  0.10628748019E+03 -0.22688097039E+02  0.89126643537E+03  0.46999998093E+01 0. -1.
</event>
<event>
 5   0  0.1284837E-05  0.2297655E+04  0.7818609E-02  0.8478846E-01
       -1   -1    0    0    0  501  0.00000000000E+00  0.00000000000E+00  0.10627434628E+04  0.10627434628E+04  0.50400001928E-02 0. -1.
        1   -1    0    0  501    0  0.00000000000E+00  0.00000000000E+00 -0.12418842455E+04  0.12418842455E+04  0.50400001928E-02 0.  1.
    10030    2    1    2    0    0  0.00000000000E+00  0.00000000000E+00 -0.17914078276E+03  0.23046277083E+04  0.22976547726E+04 0.  0.
        4    1    3    3  502    0  0.84685887658E+03  0.43530536770E+03 -0.73428230163E+03  0.12024278903E+04  0.12699999809E+01 0.  1.
       -4    1    3    3    0  502 -0.84685887658E+03 -0.43530536770E+03  0.55514151888E+03  0.11021998180E+04  0.12699999809E+01 0. -1.
</event>
<event>
 5   0  0.1017200E-05  0.2278047E+04  0.7818609E-02  0.8486628E-01
        3   -1    0    0  501    0  0.00000000000E+00  0.00000000000E+00  0.16036108339E+04  0.16036108371E+04  0.10100000352E+00 0.  1.
       -3   -1    0    0    0  501  0.00000000000E+00  0.00000000000E+00 -0.80903305837E+03  0.80903306467E+03  0.10100000352E+00 0. -1.
    10030    2    1    2    0    0  0.00000000000E+00  0.00000000000E+00  0.79457777550E+03  0.24126439017E+04  0.22780466973E+04 0.  0.
        4    1    3    3  502    0  0.21388421394E+03  0.15573238883E+03  0.15706156658E+04  0.15927442408E+04  0.12699999809E+01 0.  1.
       -4    1    3    3    0  502 -0.21388421394E+03 -0.15573238883E+03 -0.77603789032E+03  0.81989966095E+03  0.12699999809E+01 0. -1.
</event>
<event>
 5   0  0.2871888E-05  0.2230726E+04  0.7818609E-02  0.8505747E-01
        2   -1    0    0  501    0  0.00000000000E+00  0.00000000000E+00  0.16454263630E+04  0.16454263630E+04  0.25500000920E-02 0.  1.
       -2   -1    0    0    0  501  0.00000000000E+00  0.00000000000E+00 -0.75605604742E+03  0.75605604742E+03  0.25500000920E-02 0. -1.
    10030    2    1    2    0    0  0.00000000000E+00  0.00000000000E+00  0.88937031555E+03  0.24014824104E+04  0.22307259377E+04 0.  0.
        3    1    3    3  502    0  0.35741134932E+03 -0.95584428735E+03  0.92931494685E+03  0.13802200748E+04  0.10100000352E+00 0.  1.
       -3    1    3    3    0  502 -0.35741134932E+03  0.95584428735E+03 -0.39944631303E+02  0.10212623356E+04  0.10100000352E+00 0. -1.
</event>
<event>
 5   0  0.2938972E-05  0.2301106E+04  0.7818609E-02  0.8477485E-01
        2   -1    0    0  501    0  0.00000000000E+00  0.00000000000E+00  0.11792784415E+04  0.11792784415E+04  0.25500000920E-02 0. -1.
       -2   -1    0    0    0  501  0.00000000000E+00  0.00000000000E+00 -0.11225277369E+04  0.11225277369E+04  0.25500000920E-02 0.  1.
    10030    2    1    2    0    0  0.00000000000E+00  0.00000000000E+00  0.56750704593E+02  0.23018061783E+04  0.23011064817E+04 0.  0.
        2    1    3    3  502    0 -0.55037491537E+03  0.67078045196E+03  0.78419348236E+03  0.11695376779E+04  0.25500000920E-02 0. -1.
       -2    1    3    3    0  502  0.55037491537E+03 -0.67078045196E+03 -0.72744277776E+03  0.11322685005E+04  0.25500000920E-02 0.  1.
</event>
<event>
 5   0  0.2910126E-05  0.2292169E+04  0.7818609E-02  0.8481015E-01
        2   -1    0    0  501    0  0.00000000000E+00  0.00000000000E+00  0.97832565379E+03  0.97832565379E+03  0.25500000920E-02 0.  1.
       -2   -1    0    0    0  501  0.00000000000E+00  0.00000000000E+00 -0.13426097878E+04  0.13426097878E+04  0.25500000920E-02 0. -1.
    10030    2    1    2    0    0  0.00000000000E+00  0.00000000000E+00 -0.36428413399E+03  0.23209354416E+04  0.22921689278E+04 0.  0.
        5    1    3    3  502    0 -0.22344413641E+03 -0.49646853863E+03  0.83901801446E+03  0.10001907871E+04  0.46999998093E+01 0.  1.
       -5    1    3    3    0  502  0.22344413641E+03  0.49646853863E+03 -0.12033021485E+04  0.13207446545E+04  0.46999998093E+01 0. -1.
</event>
<event>
 5   0  0.1284837E-05  0.2292145E+04  0.7818609E-02  0.8481025E-01
        1   -1    0    0  501    0  0.00000000000E+00  0.00000000000E+00  0.13864546461E+04  0.13864546461E+04  0.50400001928E-02 0. -1.
       -1   -1    0    0    0  501  0.00000000000E+00  0.00000000000E+00 -0.94736725315E+03  0.94736725316E+03  0.50400001928E-02 0.  1.
    10030    2    1    2    0    0  0.00000000000E+00  0.00000000000E+00  0.43908739299E+03  0.23338218993E+04  0.22921446113E+04 0.  0.
        4    1    3    3  502    0  0.73035744634E+03  0.47565983447E+03 -0.53816882158E+03  0.10243542214E+04  0.12699999809E+01 0.  1.
       -4    1    3    3    0  502 -0.73035744634E+03 -0.47565983447E+03  0.97725621457E+03  0.13094676779E+04  0.12699999809E+01 0. -1.
</event>
<event>
 5   0  0.1327820E-05  0.2203812E+04  0.7818609E-02  0.8516843E-01
        1   -1    0    0  501    0  0.00000000000E+00  0.00000000000E+00  0.19996465963E+04  0.19996465963E+04  0.50400001928E-02 0.  1.
       -1   -1    0    0    0  501  0.00000000000E+00  0.00000000000E+00 -0.60720558668E+03  0.60720558670E+03  0.50400001928E-02 0. -1.
    10030    2    1    2    0    0  0.00000000000E+00  0.00000000000E+00  0.13924410096E+04  0.26068521830E+04  0.22038117748E+04 0.  0.
        1    1    3    3  502    0 -0.20167146358E+03  0.15470509597E+03  0.19644962475E+04  0.19808711600E+04  0.50400001928E-02 0.  1.
       -1    1    3    3    0  502  0.20167146358E+03 -0.15470509597E+03 -0.57205523790E+03  0.62598102301E+03  0.50400001928E-02 0. -1.
</event>
<event>
 5   0  0.2938972E-05  0.2343948E+04  0.7818609E-02  0.8460792E-01
        2   -1    0    0  501    0  0.00000000000E+00  0.00000000000E+00  0.17575034998E+04  0.17575034998E+04  0.25500000920E-02 0. -1.
       -2   -1    0    0    0  501  0.00000000000E+00  0.00000000000E+00 -0.78151956435E+03  0.78151956436E+03  0.25500000920E-02 0.  1.
    10030    2    1    2    0    0  0.00000000000E+00  0.00000000000E+00  0.97598393546E+03  0.25390230642E+04  0.23439482669E+04 0.  0.
        2    1    3    3  502    0 -0.28725608918E+03 -0.93778668870E+03 -0.20693155986E+03  0.10023874524E+04  0.25500000920E-02 0.  1.
       -2    1    3    3    0  502  0.28725608918E+03  0.93778668870E+03  0.11829154953E+04  0.15366356118E+04  0.25500000920E-02 0. -1.
</event>
<event>
 5   0  0.1284837E-05  0.2309898E+04  0.7818609E-02  0.8474029E-01
        1   -1    0    0  501    0  0.00000000000E+00  0.00000000000E+00  0.11256119957E+04  0.11256119957E+04  0.50400001928E-02 0. -1.
       -1   -1    0    0    0  501  0.00000000000E+00  0.00000000000E+00 -0.11850504322E+04  0.11850504322E+04  0.50400001928E-02 0.  1.
    10030    2    1    2    0    0  0.00000000000E+00  0.00000000000E+00 -0.59438436539E+02  0.23106624279E+04  0.23098978177E+04 0.  0.
        4    1    3    3  502    0  0.93036033182E+03 -0.46118049699E+03  0.47606417957E+03  0.11423206703E+04  0.12699999809E+01 0. -1.
       -4    1    3    3    0  502 -0.93036033182E+03  0.46118049699E+03 -0.53550261611E+03  0.11683417576E+04  0.12699999809E+01 0.  1.
</event>
<event>
 5   0  0.2994157E-05  0.2293639E+04  0.7818609E-02  0.8480433E-01
       -2   -1    0    0    0  501  0.00000000000E+00  0.00000000000E+00  0.11938846668E+04  0.11938846668E+04  0.25500000920E-02 0. -1.
        2   -1    0    0  501    0  0.00000000000E+00  0.00000000000E+00 -0.11016098894E+04  0.11016098894E+04  0.25500000920E-02 0.  1.
    10030    2    1    2    0    0  0.00000000000E+00  0.00000000000E+00  0.92274777421E+02  0.22954945562E+04  0.22936391659E+04 0.  0.
        4    1    3    3  502    0 -0.30416416224E+03  0.96824257957E+03 -0.48832082860E+03  0.11262630133E+04  0.12699999809E+01 0.  1.
       -4    1    3    3    0  502  0.30416416224E+03 -0.96824257957E+03  0.58059560603E+03  0.11692315430E+04  0.12699999809E+01 0. -1.
</event>
<event>
 5   0  0.1308224E-05  0.2302476E+04  0.7818609E-02  0.8476946E-01
        1   -1    0    0  501    0  0.00000000000E+00  0.00000000000E+00  0.11339226070E+04  0.11339226070E+04  0.50400001928E-02 0.  1.
       -1   -1    0    0    0  501  0.00000000000E+00  0.00000000000E+00 -0.11688175020E+04  0.11688175020E+04  0.50400001928E-02 0. -1.
    10030    2    1    2    0    0  0.00000000000E+00  0.00000000000E+00 -0.34894894987E+02  0.23027401090E+04  0.23024757015E+04 0.  0.
        5    1    3    3  502    0 -0.10077723024E+04  0.27419864970E+03  0.46689794136E+03  0.11440304588E+04  0.46999998093E+01 0.  1.
       -5    1    3    3    0  502  0.10077723024E+04 -0.27419864970E+03 -0.50179283635E+03  0.11587096502E+04  0.46999998093E+01 0. -1.
</event>
<event>
 5   0  0.2871888E-05  0.2320704E+04  0.7818609E-02  0.8469802E-01
        2   -1    0    0  501    0  0.00000000000E+00  0.00000000000E+00  0.97583915059E+03  0.97583915060E+03  0.25500000920E-02 0. -1.
       -2   -1    0    0    0  501  0.00000000000E+00  0.00000000000E+00 -0.13797530169E+04  0.13797530169E+04  0.25500000920E-02 0.  1.
    10030    2    1    2    0    0  0.00000000000E+00  0.00000000000E+00 -0.40391386626E+03  0.23555921675E+04  0.23207042138E+04 0.  0.
        3    1    3    3  502    0 -0.63197030326E+02  0.11085997736E+04  0.13989942563E+03  0.11191779046E+04  0.10100000352E+00 0. -1.
       -3    1    3    3    0  502  0.63197030326E+02 -0.11085997736E+04 -0.54381329190E+03  0.12364142628E+04  0.10100000352E+00 0.  1.
</event>
<event>
 5   0  0.2816178E-05  0.2297679E+04  0.7818609E-02  0.8478837E-01
        2   -1    0    0  501    0  0.00000000000E+00  0.00000000000E+00  0.13244586754E+04  0.13244586754E+04  0.25500000920E-02 0. -1.
       -2   -1    0    0    0  501  0.00000000000E+00  0.00000000000E+00 -0.99650671534E+03  0.99650671535E+03  0.25500000920E-02 0.  1.
    10030    2    1    2    0    0  0.00000000000E+00  0.00000000000E+00  0.32795196001E+03  0.23209653907E+04  0.22976787976E+04 0.  0.
        1    1    3    3  502    0 -0.85237831035E+03 -0.61096935314E+03  0.63777081577E+03  0.12274298138E+04  0.50400001928E-02 0. -1.
       -1    1    3    3    0  502  0.85237831035E+03  0.61096935314E+03 -0.30981885576E+03  0.10935355769E+04  0.50400001928E-02 0.  1.
</event>
<event>
 5   0  0.1371753E-05  0.2297528E+04  0.7818609E-02  0.8478896E-01
       -1   -1    0    0    0  501  0.00000000000E+00  0.00000000000E+00  0.10692084770E+04  0.10692084770E+04  0.50400001928E-02 0. -1.
        1   -1    0    0  501    0  0.00000000000E+00  0.00000000000E+00 -0.12342387331E+04  0.12342387331E+04  0.50400001928E-02 0.  1.
    10030    2    1    2    0    0  0.00000000000E+00  0.00000000000E+00 -0.16503025612E+03  0.23034472101E+04  0.22975278158E+04 0.  0.
        3    1    3    3  502    0  0.68141456506E+03  0.80246960357E+03  0.37842501679E+03  0.11186995922E+04  0.10100000352E+00 0. -1.
       -3    1    3    3    0  502 -0.68141456506E+03 -0.80246960357E+03 -0.54345527291E+03  0.11847476178E+04  0.10100000352E+00 0.  1.
</event>
<event>
 5   0  0.1284837E-05  0.2313212E+04  0.7818609E-02  0.8472730E-01
       -1   -1    0    0    0  501  0.00000000000E+00  0.00000000000E+00  0.89969794883E+03  0.89969794884E+03  0.50400001928E-02 0.  1.
        1   -1    0    0  501    0  0.00000000000E+00  0.00000000000E+00 -0.14868740742E+04  0.14868740742E+04  0.50400001928E-02 0. -1.
    10030    2    1    2    0    0  0.00000000000E+00  0.00000000000E+00 -0.58717612537E+03  0.23865720230E+04  0.23132120999E+04 0.  0.
        4    1    3    3  502    0 -0.10112309779E+04 -0.42690098036E+03  0.82532556622E+02  0.11007478246E+04  0.12699999809E+01 0.  1.
       -4    1    3    3    0  502  0.10112309779E+04  0.42690098036E+03 -0.66970868199E+03  0.12858241984E+04  0.12699999809E+01 0. -1.
</event>
<event>
 5   0  0.1284837E-05  0.2319369E+04  0.7818609E-02  0.8470323E-01
        1   -1    0    0  501    0  0.00000000000E+00  0.00000000000E+00  0.10503976303E+04  0.10503976303E+04  0.50400001928E-02 0.  1.
       -1   -1    0    0    0  501  0.00000000000E+00  0.00000000000E+00 -0.12803417331E+04  0.12803417331E+04  0.50400001928E-02 0. -1.
    10030    2    1    2    0    0  0.00000000000E+00  0.00000000000E+00 -0.22994410274E+03  0.23307393634E+04  0.23193688128E+04 0.  0.
        4    1    3    3  502    0 -0.87509385815E+03  0.26710925549E+03 -0.83101682587E+03  0.12360126184E+04  0.12699999809E+01 0. -1.
       -4    1    3    3    0  502  0.87509385815E+03 -0.26710925549E+03  0.60107272313E+03  0.10947267451E+04  0.12699999809E+01 0.  1.
</event>
<event>
 5   0  0.1284837E-05  0.2297318E+04  0.7818609E-02  0.8478979E-01
        1   -1    0    0  501    0  0.00000000000E+00  0.00000000000E+00  0.18057929358E+04  0.18057929358E+04  0.50400001928E-02 0.  1.
       -1   -1    0    0    0  501  0.00000000000E+00  0.00000000000E+00 -0.73065830083E+03  0.73065830085E+03  0.50400001928E-02 0. -1.
    10030    2    1    2    0    0  0.00000000000E+00  0.00000000000E+00  0.10751346349E+04  0.25364512366E+04  0.22973180869E+04 0.  0.
        4    1    3    3  502    0 -0.11255207209E+03  0.91249252780E+03  0.12977935264E+04  0.15904654138E+04  0.12699999809E+01 0.  1.
       -4    1    3    3    0  502  0.11255207209E+03 -0.91249252780E+03 -0.22265889149E+03  0.94598582287E+03  0.12699999809E+01 0. -1.
</event>
<event>
 5   0  0.1371753E-05  0.2322285E+04  0.7818609E-02  0.8469186E-01
       -1   -1    0    0    0  501  0.00000000000E+00  0.00000000000E+00  0.15579676861E+04  0.15579676861E+04  0.50400001928E-02 0.  1.
        1   -1    0    0  501    0  0.00000000000E+00  0.00000000000E+00 -0.86539146075E+03  0.86539146077E+03  0.50400001928E-02 0. -1.
    10030    2    1    2    0    0  0.00000000000E+00  0.00000000000E+00  0.69257622537E+03  0.24233591469E+04  0.23222850228E+04 0.  0.
        3    1    3    3  502    0  0.48194865030E+03  0.10122895147E+04  0.31069094908E+02  0.11215925561E+04  0.10100000352E+00 0. -1.
       -3    1    3    3    0  502 -0.48194865030E+03 -0.10122895147E+04  0.66150713047E+03  0.13017665908E+04  0.10100000352E+00 0.  1.
</event>
<event>
 5   0  0.2910126E-05  0.2347315E+04  0.7818609E-02  0.8459496E-01
        2   -1    0    0  501    0  0.00000000000E+00  0.00000000000E+00  0.15543420287E+04  0.15543420287E+04  0.25500000920E-02 0.  1.
       -2   -1    0    0    0  501  0.00000000000E+00  0.00000000000E+00 -0.88620929717E+03  0.88620929717E+03  0.25500000920E-02 0. -1.
    10030    2    1    2    0    0  0.00000000000E+00  0.00000000000E+00  0.66813273156E+03  0.24405513259E+04  0.23473153660E+04 0.  0.
        5    1    3    3  502    0 -0.18467466423E+03  0.58717076026E+03 -0.70491336000E+03  0.93584142268E+03  0.46999998093E+01 0. -1.
       -5    1    3    3    0  502  0.18467466423E+03 -0.58717076026E+03  0.13730460916E+04  0.15047099032E+04  0.46999998093E+01 0.  1.
</event>
<event>
 5   0  0.2938972E-05  0.2298992E+04  0.7818609E-02  0.8478319E-01
        2   -1    0    0  501    0  0.00000000000E+00  0.00000000000E+00  0.13295080071E+04  0.13295080071E+04  0.25500000920E-02 0.  1.
       -2   -1    0    0    0  501  0.00000000000E+00  0.00000000000E+00 -0.99385749309E+03  0.99385749309E+03  0.25500000920E-02 0. -1.
    10030    2    1    2    0    0  0.00000000000E+00  0.00000000000E+00  0.33565051400E+03  0.23233655002E+04  0.22989923836E+04 0.  0.
        2    1    3    3  502    0  0.27853637946E+03 -0.69201108692E+03 -0.71602064560E+03  0.10339958530E+04  0.25500000920E-02 0. -1.
       -2    1    3    3    0  502 -0.27853637946E+03  0.69201108692E+03  0.10516711596E+04  0.12893696472E+04  0.25500000920E-02 0.  1.
</event>
<event>
 5   0  0.1303224E-05  0.2294303E+04  0.7818609E-02  0.8480171E-01
       -1   -1    0    0    0  501  0.00000000000E+00  0.00000000000E+00  0.10504553557E+04  0.10504553557E+04  0.50400001928E-02 0. -1.
        1   -1    0    0  501    0  0.00000000000E+00  0.00000000000E+00 -0.12527488710E+04  0.12527488710E+04  0.50400001928E-02 0.  1.
    10030    2    1    2    0    0  0.00000000000E+00  0.00000000000E+00 -0.20229351537E+03  0.23032042267E+04  0.22943031717E+04 0.  0.
        2    1    3    3  502    0  0.64607950977E+03 -0.48741824058E+02  0.84918440202E+03  0.10681332534E+04  0.25500000920E-02 0. -1.
       -2    1    3    3    0  502 -0.64607950977E+03  0.48741824058E+02 -0.10514779174E+04  0.12350709733E+04  0.25500000920E-02 0.  1.
</event>
<event>
 5   0  0.1327820E-05  0.2300601E+04  0.7818609E-02  0.8477684E-01
       -1   -1    0    0    0  501  0.00000000000E+00  0.00000000000E+00  0.49753658334E+03  0.49753658336E+03  0.50400001928E-02 0. -1.
        1   -1    0    0  501    0  0.00000000000E+00  0.00000000000E+00 -0.26594854912E+04  0.26594854912E+04  0.50400001928E-02 0.  1.
    10030    2    1    2    0    0  0.00000000000E+00  0.00000000000E+00 -0.21619489079E+04  0.31570220746E+04  0.23006010734E+04 0.  0.
        1    1    3    3  502    0 -0.52864600293E+03  0.10201884111E+04 -0.11553850260E+04  0.16294678729E+04  0.50400001928E-02 0. -1.
       -1    1    3    3    0  502  0.52864600293E+03 -0.10201884111E+04 -0.10065638819E+04  0.15275542016E+04  0.50400001928E-02 0.  1.
</event>
<event>
 5   0  0.1371753E-05  0.2310722E+04  0.7818609E-02  0.8473705E-01
       -1   -1    0    0    0  501  0.00000000000E+00  0.00000000000E+00  0.88536327901E+03  0.88536327902E+03  0.50400001928E-02 0. -1.
        1   -1    0    0  501    0  0.00000000000E+00  0.00000000000E+00 -0.15076968417E+04  0.15076968417E+04  0.50400001928E-02 0.  1.
    10030    2    1    2    0    0  0.00000000000E+00  0.00000000000E+00 -0.62233356272E+03  0.23930601208E+04  0.23107223283E+04 0.  0.
        3    1    3    3  502    0 -0.93324638839E+03  0.27470516321E+03 -0.95663089891E+03  0.13643879342E+04  0.10100000352E+00 0.  1.
       -3    1    3    3    0  502  0.93324638839E+03 -0.27470516321E+03  0.33429733619E+03  0.10286721865E+04  0.10100000352E+00 0. -1.
</event>
<event>
 5   0  0.1327820E-05  0.2298023E+04  0.7818609E-02  0.8478701E-01
        1   -1    0    0  501    0  0.00000000000E+00  0.00000000000E+00  0.15728509941E+04  0.15728509941E+04  0.50400001928E-02 0. -1.
       -1   -1    0    0    0  501  0.00000000000E+00  0.00000000000E+00 -0.83938520403E+03  0.83938520405E+03  0.50400001928E-02 0.  1.
    10030    2    1    2    0    0  0.00000000000E+00  0.00000000000E+00  0.73346579008E+03  0.24122361982E+04  0.22980233703E+04 0.  0.
        1    1    3    3  502    0  0.22478926172E+03 -0.88321110347E+03 -0.36778429729E+03  0.98278042046E+03  0.50400001928E-02 0.  1.
       -1    1    3    3    0  502 -0.22478926172E+03  0.88321110347E+03  0.11012500874E+04  0.14294557777E+04  0.50400001928E-02 0. -1.
</event>
<event>
 5   0  0.1284837E-05  0.2218602E+04  0.7818609E-02  0.8510725E-01
       -1   -1    0    0    0  501  0.00000000000E+00  0.00000000000E+00  0.68779701244E+03  0.68779701246E+03  0.50400001928E-02 0. -1.
        1   -1    0    0  501    0  0.00000000000E+00  0.00000000000E+00 -0.17891164778E+04  0.17891164778E+04  0.50400001928E-02 0.  1.
    10030    2    1    2    0    0  0.00000000000E+00  0.00000000000E+00 -0.11013194653E+04  0.24769134902E+04  0.22186022341E+04 0.  0.
        4    1    3    3  502    0  0.26383571112E+03 -0.23365993076E+03  0.62363176834E+03  0.71632704897E+03  0.12699999809E+01 0. -1.
       -4    1    3    3    0  502 -0.26383571112E+03  0.23365993076E+03 -0.17249512337E+04  0.17605864413E+04  0.12699999809E+01 0.  1.
</event>
<event>
 5   0  0.1284837E-05  0.2327953E+04  0.7818609E-02  0.8466980E-01
        1   -1    0    0  501    0  0.00000000000E+00  0.00000000000E+00  0.17370064180E+04  0.17370064180E+04  0.50400001928E-02 0.  1.
       -1   -1    0    0    0  501  0.00000000000E+00  0.00000000000E+00 -0.77998666534E+03  0.77998666536E+03  0.50400001928E-02 0. -1.
    10030    2    1    2    0    0  0.00000000000E+00  0.00000000000E+00  0.95701975262E+03  0.25169930833E+04  0.23279534735E+04 0.  0.
        4    1    3    3  502    0 -0.10952941180E+04 -0.35449585955E+03  0.66422447826E+03  0.13291095853E+04  0.12699999809E+01 0.  1.
       -4    1    3    3    0  502  0.10952941180E+04  0.35449585955E+03  0.29279527437E+03  0.11878834980E+04  0.12699999809E+01 0. -1.
</event>
<event>
 5   0  0.1371753E-05  0.2295037E+04  0.7818609E-02  0.8479880E-01
        1   -1    0    0  501    0  0.00000000000E+00  0.00000000000E+00  0.14260813727E+04  0.14260813727E+04  0.50400001928E-02 0.  1.
       -1   -1    0    0    0  501  0.00000000000E+00  0.00000000000E+00 -0.92336894398E+03  0.92336894400E+03  0.50400001928E-02 0. -1.
    10030    2    1    2    0    0  0.00000000000E+00  0.00000000000E+00  0.50271242872E+03  0.23494503167E+04  0.22950374735E+04 0.  0.
        3    1    3    3  502    0  0.30141433909E+03 -0.10735943263E+03 -0.87677964182E+03  0.93333766778E+03  0.10100000352E+00 0. -1.
       -3    1    3    3    0  502 -0.30141433909E+03  0.10735943263E+03  0.13794920705E+04  0.14161126489E+04  0.10100000352E+00 0.  1.
</event>
<event>
 5   0  0.2938972E-05  0.2302290E+04  0.7818609E-02  0.8477019E-01
       -2   -1    0    0    0  501  0.00000000000E+00  0.00000000000E+00  0.84545351068E+03  0.84545351068E+03  0.25500000920E-02 0. -1.
        2   -1    0    0  501    0  0.00000000000E+00  0.00000000000E+00 -0.15673660852E+04  0.15673660852E+04  0.25500000920E-02 0.  1.
    10030    2    1    2    0    0  0.00000000000E+00  0.00000000000E+00 -0.72191257449E+03  0.24128195959E+04  0.23022903025E+04 0.  0.
        2    1    3    3  502    0 -0.29863400256E+03  0.69617137232E+03 -0.12693434198E+04  0.14781980802E+04  0.25500000920E-02 0.  1.
       -2    1    3    3    0  502  0.29863400256E+03 -0.69617137232E+03  0.54743084526E+03  0.93462151563E+03  0.25500000920E-02 0. -1.
</event>
<event>
 5   0  0.1017200E-05  0.2433924E+04  0.7818609E-02  0.8426911E-01
        3   -1    0    0  501    0  0.00000000000E+00  0.00000000000E+00  0.13226488607E+04  0.13226488645E+04  0.10100000352E+00 0.  1.
       -3   -1    0    0    0  501  0.00000000000E+00  0.00000000000E+00 -0.11197198147E+04  0.11197198192E+04  0.10100000352E+00 0. -1.
    10030    2    1    2    0    0  0.00000000000E+00  0.00000000000E+00  0.20292904599E+03  0.24423686837E+04  0.24339237025E+04 0.  0.
        2    1    3    3  502    0 -0.11683179533E+04  0.30079520234E+03  0.26186768261E+03  0.12345117565E+04  0.25500000920E-02 0.  1.
       -2    1    3    3    0  502  0.11683179533E+04 -0.30079520234E+03 -0.58938636619E+02  0.12078569272E+04  0.25500000920E-02 0. -1.
</event>
<event>
 5   0  0.2816178E-05  0.2304704E+04  0.7818609E-02  0.8476069E-01
        2   -1    0    0  501    0  0.00000000000E+00  0.00000000000E+00  0.15615425228E+04  0.15615425228E+04  0.25500000920E-02 0.  1.
       -2   -1    0    0    0  501  0.00000000000E+00  0.00000000000E+00 -0.85038662412E+03  0.85038662412E+03  0.25500000920E-02 0. -1.
    10030    2    1    2    0    0  0.00000000000E+00  0.00000000000E+00  0.71115589867E+03  0.24119291469E+04  0.23047037765E+04 0.  0.
        1    1    3    3  502    0  0.28602659802E+02  0.31274485545E+03 -0.80473770226E+03  0.86384618204E+03  0.50400001928E-02 0. -1.
       -1    1    3    3    0  502 -0.28602659802E+02 -0.31274485545E+03  0.15158936009E+04  0.15480829649E+04  0.50400001928E-02 0.  1.
</event>
<event>
 5   0  0.1371753E-05  0.2283829E+04  0.7818609E-02  0.8484324E-01
       -1   -1    0    0    0  501  0.00000000000E+00  0.00000000000E+00  0.13444461961E+04  0.13444461961E+04  0.50400001928E-02 0. -1.
        1   -1    0    0  501    0  0.00000000000E+00  0.00000000000E+00 -0.96989325053E+03  0.96989325054E+03  0.50400001928E-02 0.  1.
    10030    2    1    2    0    0  0.00000000000E+00  0.00000000000E+00  0.37455294561E+03  0.23143394467E+04  0.22838294957E+04 0.  0.
        3    1    3    3  502    0 -0.70602508380E+02  0.10996261607E+03  0.13368442027E+04  0.13432158887E+04  0.10100000352E+00 0. -1.
       -3    1    3    3    0  502  0.70602508380E+02 -0.10996261607E+03 -0.96229125712E+03  0.97112355798E+03  0.10100000352E+00 0.  1.
</event>
<event>
 5   0  0.2816178E-05  0.2254316E+04  0.7818609E-02  0.8496155E-01
       -2   -1    0    0    0  501  0.00000000000E+00  0.00000000000E+00  0.95583240461E+03  0.95583240462E+03  0.25500000920E-02 0.  1.
        2   -1    0    0  501    0  0.00000000000E+00  0.00000000000E+00 -0.13291922723E+04  0.13291922723E+04  0.25500000920E-02 0. -1.
    10030    2    1    2    0    0  0.00000000000E+00  0.00000000000E+00 -0.37335986766E+03  0.22850246769E+04  0.22543159014E+04 0.  0.
        1    1    3    3  502    0 -0.18657197175E+03 -0.93431785944E+03 -0.79715160156E+03  0.12422598919E+04  0.50400001928E-02 0. -1.
       -1    1    3    3    0  502  0.18657197175E+03  0.93431785944E+03  0.42379173389E+03  0.10427647850E+04  0.50400001928E-02 0.  1.
</event>
<event>
 5   0  0.1327820E-05  0.2301074E+04  0.7818609E-02  0.8477498E-01
       -1   -1    0    0    0  501  0.00000000000E+00  0.00000000000E+00  0.11277055065E+04  0.11277055065E+04  0.50400001928E-02 0. -1.
        1   -1    0    0  501    0  0.00000000000E+00  0.00000000000E+00 -0.11738302329E+04  0.11738302329E+04  0.50400001928E-02 0.  1.
    10030    2    1    2    0    0  0.00000000000E+00  0.00000000000E+00 -0.46124726389E+02  0.23015357395E+04  0.23010735037E+04 0.  0.
        1    1    3    3  502    0  0.10903453022E+04  0.36251782613E+02 -0.38860499386E+03  0.11580936538E+04  0.50400001928E-02 0. -1.
       -1    1    3    3    0  502 -0.10903453022E+04 -0.36251782613E+02  0.34248026747E+03  0.11434420857E+04  0.50400001928E-02 0.  1.
</event>
<event>
 5   0  0.2910126E-05  0.2300350E+04  0.7818609E-02  0.8477783E-01
       -2   -1    0    0    0  501  0.00000000000E+00  0.00000000000E+00  0.57958986162E+03  0.57958986163E+03  0.25500000920E-02 0.  1.
        2   -1    0    0  501    0  0.00000000000E+00  0.00000000000E+00 -0.22824805315E+04  0.22824805315E+04  0.25500000920E-02 0. -1.
    10030    2    1    2    0    0  0.00000000000E+00  0.00000000000E+00 -0.17028906699E+04  0.28620703931E+04  0.23003500389E+04 0.  0.
        5    1    3    3  502    0  0.25894288333E+03  0.10235907211E+04 -0.14190071148E+04  0.17687262827E+04  0.46999998093E+01 0. -1.
       -5    1    3    3    0  502 -0.25894288333E+03 -0.10235907211E+04 -0.28388355504E+03  0.10933441105E+04  0.46999998093E+01 0.  1.
</event>
<event>
 5   0  0.1303224E-05  0.2287972E+04  0.7818609E-02  0.8482679E-01
        1   -1    0    0  501    0  0.00000000000E+00  0.00000000000E+00  0.11844246848E+04  0.11844246848E+04  0.50400001928E-02 0.  1.
       -1   -1    0    0    0  501  0.00000000000E+00  0.00000000000E+00 -0.11049284539E+04  0.11049284540E+04  0.50400001928E-02 0. -1.
    10030    2    1    2    0    0  0.00000000000E+00  0.00000000000E+00  0.79496230825E+02  0.22893531387E+04  0.22879724962E+04 0.  0.
        2    1    3    3  502    0 -0.53095325288E+03  0.98232398460E+03  0.28856012263E+03  0.11533163971E+04  0.25500000920E-02 0. -1.
       -2    1    3    3    0  502  0.53095325288E+03 -0.98232398460E+03 -0.20906389181E+03  0.11360367416E+04  0.25500000920E-02 0.  1.
</event>
<event>
 5   0  0.2871888E-05  0.2301121E+04  0.7818609E-02  0.8477479E-01
       -2   -1    0    0    0  501  0.00000000000E+00  0.00000000000E+00  0.61936335287E+03  0.61936335287E+03  0.25500000920E-02 0.  1.
        2   -1    0    0  501    0  0.00000000000E+00  0.00000000000E+00 -0.21373389638E+04  0.21373389639E+04  0.25500000920E-02 0. -1.
    10030    2    1    2    0    0  0.00000000000E+00  0.00000000000E+00 -0.15179756110E+04  0.27567023167E+04  0.23011209676E+04 0.  0.
        3    1    3    3  502    0  0.62238448419E+03 -0.64839103780E+03  0.10157390574E+03  0.90448363865E+03  0.10100000352E+00 0.  1.
       -3    1    3    3    0  502 -0.62238448419E+03  0.64839103780E+03 -0.16195495167E+04  0.18522186781E+04  0.10100000352E+00 0. -1.
</event>
<event>
 5   0  0.2938972E-05  0.2309547E+04  0.7818609E-02  0.8474166E-01
       -2   -1    0    0    0  501  0.00000000000E+00  0.00000000000E+00  0.64830827327E+03  0.64830827328E+03  0.25500000920E-02 0. -1.
        2   -1    0    0  501    0  0.00000000000E+00  0.00000000000E+00 -0.20568952451E+04  0.20568952451E+04  0.25500000920E-02 0.  1.
    10030    2    1    2    0    0  0.00000000000E+00  0.00000000000E+00 -0.14085869718E+04  0.27052035184E+04  0.23095473190E+04 0.  0.
        2    1    3    3  502    0  0.51308406526E+03  0.64471371267E+03 -0.16519657105E+04  0.18460503075E+04  0.25500000920E-02 0.  1.
       -2    1    3    3    0  502 -0.51308406526E+03 -0.64471371267E+03  0.24337873863E+03  0.85915321087E+03  0.25500000920E-02 0. -1.
</event>
<event>
 5   0  0.1303224E-05  0.2296878E+04  0.7818609E-02  0.8479153E-01
       -1   -1    0    0    0  501  0.00000000000E+00  0.00000000000E+00  0.62884526795E+03  0.62884526797E+03  0.50400001928E-02 0. -1.
        1   -1    0    0  501    0  0.00000000000E+00  0.00000000000E+00 -0.20973547094E+04  0.20973547094E+04  0.50400001928E-02 0.  1.
    10030    2    1    2    0    0  0.00000000000E+00  0.00000000000E+00 -0.14685094414E+04  0.27261999774E+04  0.22968775189E+04 0.  0.
        2    1    3    3  502    0 -0.56602944396E+03 -0.98980987664E+03 -0.57151883579E+03  0.12754398077E+04  0.25500000920E-02 0. -1.
       -2    1    3    3    0  502  0.56602944396E+03  0.98980987664E+03 -0.89699060564E+03  0.14507601697E+04  0.25500000920E-02 0.  1.
</event>
<event>
 5   0  0.2910126E-05  0.2293275E+04  0.7818609E-02  0.8480577E-01
        2   -1    0    0  501    0  0.00000000000E+00  0.00000000000E+00  0.14158441732E+04  0.14158441732E+04  0.25500000920E-02 0. -1.
       -2   -1    0    0    0  501  0.00000000000E+00  0.00000000000E+00 -0.92861762854E+03  0.92861762854E+03  0.25500000920E-02 0.  1.
    10030    2    1    2    0    0  0.00000000000E+00  0.00000000000E+00  0.48722654462E+03  0.23444618017E+04  0.22932752634E+04 0.  0.
        5    1    3    3  502    0 -0.11872321545E+03  0.11067006734E+03  0.14040313173E+04  0.14133892230E+04  0.46999998093E+01 0. -1.
       -5    1    3    3    0  502  0.11872321545E+03 -0.11067006734E+03 -0.91680477267E+03  0.93107257874E+03  0.46999998093E+01 0.  1.
</event>
<event>
 5   0  0.2910126E-05  0.2221669E+04  0.7818609E-02  0.8509463E-01
        2   -1    0    0  501    0  0.00000000000E+00  0.00000000000E+00  0.15482833828E+04  0.15482833828E+04  0.25500000920E-02 0.  1.
       -2   -1    0    0    0  501  0.00000000000E+00  0.00000000000E+00 -0.79698134658E+03  0.79698134659E+03  0.25500000920E-02 0. -1.
    10030    2    1    2    0    0  0.00000000000E+00  0.00000000000E+00  0.75130203617E+03  0.23452647293E+04  0.22216687199E+04 0.  0.
        5    1    3    3  502    0  0.23412541855E+03  0.36169648962E+03 -0.70516972462E+03  0.82639306189E+03  0.46999998093E+01 0. -1.
       -5    1    3    3    0  502 -0.23412541855E+03 -0.36169648962E+03  0.14564717608E+04  0.15188716675E+04  0.46999998093E+01 0.  1.
</event>
<event>
 5   0  0.2871888E-05  0.2319581E+04  0.7818609E-02  0.8470241E-01
       -2   -1    0    0    0  501  0.00000000000E+00  0.00000000000E+00  0.68904568021E+03  0.68904568021E+03  0.25500000920E-02 0.  1.
        2   -1    0    0  501    0  0.00000000000E+00  0.00000000000E+00 -0.19521398402E+04  0.19521398402E+04  0.25500000920E-02 0. -1.
    10030    2    1    2    0    0  0.00000000000E+00  0.00000000000E+00 -0.12630941600E+04  0.26411855204E+04  0.23195805863E+04 0.  0.
        3    1    3    3  502    0  0.73740298650E+03 -0.11029968169E+03  0.37998269028E+03  0.83684887488E+03  0.10100000352E+00 0.  1.
       -3    1    3    3    0  502 -0.73740298650E+03  0.11029968169E+03 -0.16430768502E+04  0.18043366455E+04  0.10100000352E+00 0. -1.
</event>
<event>
 5   0  0.2816178E-05  0.2334569E+04  0.7818609E-02  0.8464415E-01
       -2   -1    0    0    0  501  0.00000000000E+00  0.00000000000E+00  0.16254482887E+04  0.16254482887E+04  0.25500000920E-02 0.  1.
        2   -1    0    0  501    0  0.00000000000E+00  0.00000000000E+00 -0.83826269610E+03  0.83826269610E+03  0.25500000920E-02 0. -1.
    10030    2    1    2    0    0  0.00000000000E+00  0.00000000000E+00  0.78718559262E+03  0.24637109848E+04  0.23345686239E+04 0.  0.
        1    1    3    3  502    0  0.28923518392E+03  0.86993396950E+03 -0.36895023211E+03  0.98821373028E+03  0.50400001928E-02 0. -1.
       -1    1    3    3    0  502 -0.28923518392E+03 -0.86993396950E+03  0.11561358247E+04  0.14754972545E+04  0.50400001928E-02 0.  1.
</event>
<event>
 5   0  0.1308224E-05  0.2304095E+04  0.7818609E-02  0.8476308E-01
       -1   -1    0    0    0  501  0.00000000000E+00  0.00000000000E+00  0.12142541115E+04  0.12142541115E+04  0.50400001928E-02 0. -1.
        1   -1    0    0  501    0  0.00000000000E+00  0.00000000000E+00 -0.10930274317E+04  0.10930274317E+04  0.50400001928E-02 0.  1.
    10030    2    1    2    0    0  0.00000000000E+00  0.00000000000E+00  0.12122667976E+03  0.23072815432E+04  0.23040946620E+04 0.  0.
        5    1    3    3  502    0 -0.87601888536E+02 -0.23273784232E+03 -0.10658202787E+04  0.10944569204E+04  0.46999998093E+01 0.  1.
       -5    1    3    3    0  502  0.87601888536E+02  0.23273784232E+03  0.11870469584E+04  0.12128246228E+04  0.46999998093E+01 0. -1.
</event>
<event>
 5   0  0.1327820E-05  0.2297754E+04  0.7818609E-02  0.8478807E-01
        1   -1    0    0  501    0  0.00000000000E+00  0.00000000000E+00  0.19277545522E+04  0.19277545522E+04  0.50400001928E-02 0.  1.
       -1   -1    0    0    0  501  0.00000000000E+00  0.00000000000E+00 -0.68469212169E+03  0.68469212171E+03  0.50400001928E-02 0. -1.
    10030    2    1    2    0    0  0.00000000000E+00  0.00000000000E+00  0.12430624306E+04  0.26124466740E+04  0.22977539942E+04 0.  0.
        1    1    3    3  502    0 -0.10509615561E+04 -0.45230124175E+03  0.50325630449E+03  0.12499454043E+04  0.50400001928E-02 0.  1.
       -1    1    3    3    0  502  0.10509615561E+04  0.45230124175E+03  0.73980612606E+03  0.13625012697E+04  0.50400001928E-02 0. -1.
</event>
<event>
 5   0  0.2938972E-05  0.2291831E+04  0.7818609E-02  0.8481149E-01
        2   -1    0    0  501    0  0.00000000000E+00  0.00000000000E+00  0.19395333937E+04  0.19395333937E+04  0.25500000920E-02 0.  1.
       -2   -1    0    0    0  501  0.00000000000E+00  0.00000000000E+00 -0.67703012491E+03  0.67703012492E+03  0.25500000920E-02 0. -1.
    10030    2    1    2    0    0  0.00000000000E+00  0.00000000000E+00  0.12625032687E+04  0.26165635186E+04  0.22918311768E+04 0.  0.
        2    1    3    3  502    0 -0.38060988460E+03  0.10290397152E+04  0.25374022378E+03  0.11261308631E+04  0.25500000920E-02 0. -1.
       -2    1    3    3    0  502  0.38060988460E+03 -0.10290397152E+04  0.10087630450E+04  0.14904326555E+04  0.25500000920E-02 0.  1.
</event>
<event>
 5   0  0.1303224E-05  0.2300788E+04  0.7818609E-02  0.8477610E-01
        1   -1    0    0  501    0  0.00000000000E+00  0.00000000000E+00  0.10436258354E+04  0.10436258354E+04  0.50400001928E-02 0. -1.
       -1   -1    0    0    0  501  0.00000000000E+00  0.00000000000E+00 -0.12680851668E+04  0.12680851668E+04  0.50400001928E-02 0.  1.
    10030    2    1    2    0    0  0.00000000000E+00  0.00000000000E+00 -0.22445933144E+03  0.23117110022E+04  0.23007880750E+04 0.  0.
        2    1    3    3  502    0  0.98706649267E+03  0.90609529385E+02 -0.69886461731E+03  0.12128157738E+04  0.25500000920E-02 0.  1.
       -2    1    3    3    0  502 -0.98706649267E+03 -0.90609529385E+02  0.47440528588E+03  0.10988952284E+04  0.25500000920E-02 0. -1.
</event>
<event>
 5   0  0.2816178E-05  0.2297441E+04  0.7818609E-02  0.8478931E-01
        2   -1    0    0  501    0  0.00000000000E+00  0.00000000000E+00  0.12597235298E+04  0.12597235298E+04  0.25500000920E-02 0. -1.
       -2   -1    0    0    0  501  0.00000000000E+00  0.00000000000E+00 -0.10474987704E+04  0.10474987704E+04  0.25500000920E-02 0.  1.
    10030    2    1    2    0    0  0.00000000000E+00  0.00000000000E+00  0.21222475940E+03  0.23072223003E+04  0.22974410535E+04 0.  0.
        1    1    3    3  502    0  0.99528856184E+02  0.11369280867E+04 -0.25009117086E+02  0.11415502282E+04  0.50400001928E-02 0. -1.
       -1    1    3    3    0  502 -0.99528856184E+02 -0.11369280867E+04  0.23723387648E+03  0.11656720721E+04  0.50400001928E-02 0.  1.
</event>
<event>
 5   0  0.2910126E-05  0.2294750E+04  0.7818609E-02  0.8479994E-01
       -2   -1    0    0    0  501  0.00000000000E+00  0.00000000000E+00  0.47688401138E+03  0.47688401139E+03  0.25500000920E-02 0.  1.
        2   -1    0    0  501    0  0.00000000000E+00  0.00000000000E+00 -0.27605644465E+04  0.27605644465E+04  0.25500000920E-02 0. -1.
    10030    2    1    2    0    0  0.00000000000E+00  0.00000000000E+00 -0.22836804351E+04  0.32374484579E+04  0.22947497005E+04 0.  0.
        5    1    3    3  502    0 -0.83246236726E+03  0.18906770699E+03 -0.60287017958E+02  0.85580184930E+03  0.46999998093E+01 0.  1.
       -5    1    3    3    0  502  0.83246236726E+03 -0.18906770699E+03 -0.22233934171E+04  0.23816466086E+04  0.46999998093E+01 0. -1.
</event>
<event>
 5   0  0.1308224E-05  0.2309072E+04  0.7818609E-02  0.8474353E-01
       -1   -1    0    0    0  501  0.00000000000E+00  0.00000000000E+00  0.14703075270E+04  0.14703075270E+04  0.50400001928E-02 0.  1.
        1   -1    0    0  501    0  0.00000000000E+00  0.00000000000E+00 -0.90658142832E+03  0.90658142834E+03  0.50400001928E-02 0. -1.
    10030    2    1    2    0    0  0.00000000000E+00  0.00000000000E+00  0.56372609869E+03  0.23768889554E+04  0.23090721062E+04 0.  0.
        5    1    3    3  502    0  0.38546087284E+03 -0.65353582354E+03 -0.61389107499E+03  0.97599871880E+03  0.46999998093E+01 0. -1.
       -5    1    3    3    0  502 -0.38546087284E+03  0.65353582354E+03  0.11776171737E+04  0.14008902366E+04  0.46999998093E+01 0.  1.
</event>
<event>
 5   0  0.1308224E-05  0.2301658E+04  0.7818609E-02  0.8477268E-01
       -1   -1    0    0    0  501  0.00000000000E+00  0.00000000000E+00  0.71946897953E+03  0.71946897955E+03  0.50400001928E-02 0. -1.
        1   -1    0    0  501    0  0.00000000000E+00  0.00000000000E+00 -0.18408122510E+04  0.18408122510E+04  0.50400001928E-02 0.  1.
    10030    2    1    2    0    0  0.00000000000E+00  0.00000000000E+00 -0.11213432715E+04  0.25602812306E+04  0.23016579344E+04 0.  0.
        5    1    3    3  502    0  0.17920282021E+03 -0.11290826494E+04 -0.41375559792E+03  0.12157948284E+04  0.46999998093E+01 0.  1.
       -5    1    3    3    0  502 -0.17920282021E+03  0.11290826494E+04 -0.70758767356E+03  0.13444864022E+04  0.46999998093E+01 0. -1.
</event>
<event>
 5   0  0.2816178E-05  0.2295676E+04  0.7818609E-02  0.8479628E-01
       -2   -1    0    0    0  501  0.00000000000E+00  0.00000000000E+00  0.25441741474E+04  0.25441741474E+04  0.25500000920E-02 0. -1.
        2   -1    0    0  501    0  0.00000000000E+00  0.00000000000E+00 -0.51786218080E+03  0.51786218081E+03  0.25500000920E-02 0.  1.
    10030    2    1    2    0    0  0.00000000000E+00  0.00000000000E+00  0.20263119666E+04  0.30620363282E+04  0.22956755627E+04 0.  0.
        1    1    3    3  502    0  0.57480529897E+03  0.52086970853E+02  0.23365509110E+04  0.24067788315E+04  0.50400001928E-02 0. -1.
       -1    1    3    3    0  502 -0.57480529897E+03 -0.52086970853E+02 -0.31023894442E+03  0.65525749665E+03  0.50400001928E-02 0.  1.
</event>
<event>
 5   0  0.2994157E-05  0.2320216E+04  0.7818609E-02  0.8469993E-01
       -2   -1    0    0    0  501  0.00000000000E+00  0.00000000000E+00  0.11753401156E+04  0.11753401156E+04  0.25500000920E-02 0.  1.
        2   -1    0    0  501    0  0.00000000000E+00  0.00000000000E+00 -0.11450730273E+04  0.11450730273E+04  0.25500000920E-02 0. -1.
    10030    2    1    2    0    0  0.00000000000E+00  0.00000000000E+00  0.30267088224E+02  0.23204131429E+04  0.23202157350E+04 0.  0.
        4    1    3    3  502    0  0.22991556706E+03  0.10829409443E+04 -0.33163273693E+03  0.11556834090E+04  0.12699999809E+01 0. -1.
       -4    1    3    3    0  502 -0.22991556706E+03 -0.10829409443E+04  0.36189982515E+03  0.11647297339E+04  0.12699999809E+01 0.  1.
</event>
<event>
 5   0  0.1017200E-05  0.2306214E+04  0.7818609E-02  0.8475475E-01
        4   -1    0    0  501    0  0.00000000000E+00  0.00000000000E+00  0.12819774720E+04  0.12819781011E+04  0.12699999809E+01 0.  1.
       -4   -1    0    0    0  501  0.00000000000E+00  0.00000000000E+00 -0.10371901396E+04  0.10371909171E+04  0.12699999809E+01 0. -1.
    10030    2    1    2    0    0  0.00000000000E+00  0.00000000000E+00  0.24478733243E+03  0.23191690182E+04  0.23062142348E+04 0.  0.
        5    1    3    3  502    0 -0.19395316421E+02 -0.84619351480E+03 -0.66508516156E+03  0.10764664439E+04  0.46999998093E+01 0. -1.
       -5    1    3    3    0  502  0.19395316421E+02  0.84619351480E+03  0.90987249399E+03  0.12427025743E+04  0.46999998093E+01 0.  1.
</event>
<event>
 5   0  0.1284837E-05  0.2297399E+04  0.7818609E-02  0.8478947E-01
        1   -1    0    0  501    0  0.00000000000E+00  0.00000000000E+00  0.11930337528E+04  0.11930337528E+04  0.50400001928E-02 0.  1.
       -1   -1    0    0    0  501  0.00000000000E+00  0.00000000000E+00 -0.11060125067E+04  0.11060125067E+04  0.50400001928E-02 0. -1.
    10030    2    1    2    0    0  0.00000000000E+00  0.00000000000E+00  0.87021246148E+02  0.22990462595E+04  0.22973987477E+04 0.  0.
        4    1    3    3  502    0 -0.11199628798E+02  0.32653428979E+03 -0.10585322873E+04  0.11078096814E+04  0.12699999809E+01 0. -1.
       -4    1    3    3    0  502  0.11199628798E+02 -0.32653428979E+03  0.11455535335E+04  0.11912365781E+04  0.12699999809E+01 0.  1.
</event>
<event>
 5   0  0.2871888E-05  0.2312278E+04  0.7818609E-02  0.8473096E-01
        2   -1    0    0  501    0  0.00000000000E+00  0.00000000000E+00  0.25643048788E+04  0.25643048788E+04  0.25500000920E-02 0.  1.
       -2   -1    0    0    0  501  0.00000000000E+00  0.00000000000E+00 -0.52125544407E+03  0.52125544408E+03  0.25500000920E-02 0. -1.
    10030    2    1    2    0    0  0.00000000000E+00  0.00000000000E+00  0.20430494347E+04  0.30855603229E+04  0.23122784247E+04 0.  0.
        3    1    3    3  502    0 -0.87738573140E+03  0.52935524805E+03  0.30709641446E+03  0.10697340409E+04  0.10100000352E+00 0. -1.
       -3    1    3    3    0  502  0.87738573140E+03 -0.52935524805E+03  0.17359530202E+04  0.20158262820E+04  0.10100000352E+00 0.  1.
</event>
<event>
 5   0  0.1327820E-05  0.2284944E+04  0.7818609E-02  0.8483881E-01
        1   -1    0    0  501    0  0.00000000000E+00  0.00000000000E+00  0.14790067518E+04  0.14790067518E+04  0.50400001928E-02 0.  1.
       -1   -1    0    0    0  501  0.00000000000E+00  0.00000000000E+00 -0.88251250340E+03  0.88251250342E+03  0.50400001928E-02 0. -1.
    10030    2    1    2    0    0  0.00000000000E+00  0.00000000000E+00  0.59649424835E+03  0.23615192552E+04  0.22849437201E+04 0.  0.
        1    1    3    3  502    0 -0.95084630534E+03  0.49694285411E+03  0.70406529518E+03  0.12832649128E+04  0.50400001928E-02 0.  1.
       -1    1    3    3    0  502  0.95084630534E+03 -0.49694285411E+03 -0.10757104683E+03  0.10782543423E+04  0.50400001928E-02 0. -1.
</event>
<event>
 5   0  0.2910126E-05  0.2231398E+04  0.7818609E-02  0.8505472E-01
       -2   -1    0    0    0  501  0.00000000000E+00  0.00000000000E+00  0.11283554093E+04  0.11283554093E+04  0.25500000920E-02 0.  1.
        2   -1    0    0  501    0  0.00000000000E+00  0.00000000000E+00 -0.11031845222E+04  0.11031845222E+04  0.25500000920E-02 0. -1.
    10030    2    1    2    0    0  0.00000000000E+00  0.00000000000E+00  0.25170887177E+02  0.22315399315E+04  0.22313979682E+04 0.  0.
        5    1    3    3  502    0  0.53839227569E+03 -0.87955065970E+03  0.43839008838E+03  0.11205728736E+04  0.46999998093E+01 0. -1.
       -5    1    3    3    0  502 -0.53839227569E+03  0.87955065970E+03 -0.41321920121E+03  0.11109670579E+04  0.46999998093E+01 0.  1.
</event>
<event>
 5   0  0.1303224E-05  0.2295261E+04  0.7818609E-02  0.8479792E-01
       -1   -1    0    0    0  501  0.00000000000E+00  0.00000000000E+00  0.94566658748E+03  0.94566658750E+03  0.50400001928E-02 0.  1.
        1   -1    0    0  501    0  0.00000000000E+00  0.00000000000E+00 -0.13927272075E+04  0.13927272075E+04  0.50400001928E-02 0. -1.
    10030    2    1    2    0    0  0.00000000000E+00  0.00000000000E+00 -0.44706061999E+03  0.23383937950E+04  0.22952608441E+04 0.  0.
        2    1    3    3  502    0  0.78835236681E+03 -0.81454388160E+03 -0.40598912397E+03  0.12040798803E+04  0.25500000920E-02 0.  1.
       -2    1    3    3    0  502 -0.78835236681E+03  0.81454388160E+03 -0.41071496017E+02  0.11343139147E+04  0.25500000920E-02 0. -1.
</event>
<event>
 5   0  0.2816178E-05  0.2287251E+04  0.7818609E-02  0.8482965E-01
        2   -1    0    0  501    0  0.00000000000E+00  0.00000000000E+00  0.17159225526E+04  0.17159225526E+04  0.25500000920E-02 0. -1.
       -2   -1    0    0    0  501  0.00000000000E+00  0.00000000000E+00 -0.76220181851E+03  0.76220181852E+03  0.25500000920E-02 0.  1.
    10030    2    1    2    0    0  0.00000000000E+00  0.00000000000E+00  0.95372073412E+03  0.24781243712E+04  0.22872510051E+04 0.  0.
        1    1    3    3  502    0 -0.98663369712E+03 -0.71695194770E+02 -0.14486780287E+03  0.99978644399E+03  0.50400001928E-02 0.  1.
       -1    1    3    3    0  502  0.98663369712E+03  0.71695194770E+02  0.10985885370E+04  0.14783379272E+04  0.50400001928E-02 0. -1.
</event>
<event>
 5   0  0.2938972E-05  0.2304104E+04  0.7818609E-02  0.8476305E-01
        2   -1    0    0  501    0  0.00000000000E+00  0.00000000000E+00  0.12183164451E+04  0.12183164451E+04  0.25500000920E-02 0. -1.
       -2   -1    0    0    0  501  0.00000000000E+00  0.00000000000E+00 -0.10893917383E+04  0.10893917383E+04  0.25500000920E-02 0.  1.
    10030    2    1    2    0    0  0.00000000000E+00  0.00000000000E+00  0.12892470683E+03  0.23077081834E+04  0.23041040515E+04 0.  0.
        2    1    3    3  502    0 -0.53830655920E+03 -0.79306619203E+02  0.10815114331E+04  0.12106735611E+04  0.25500000920E-02 0. -1.
       -2    1    3    3    0  502  0.53830655920E+03  0.79306619203E+02 -0.95258672630E+03  0.10970346224E+04  0.25500000920E-02 0.  1.
</event>
<event>
 5   0  0.1017200E-05  0.2305858E+04  0.7818609E-02  0.8475615E-01
       -3   -1    0    0    0  501  0.00000000000E+00  0.00000000000E+00  0.14585166437E+04  0.14585166472E+04  0.10100000352E+00 0.  1.
        3   -1    0    0  501    0  0.00000000000E+00  0.00000000000E+00 -0.91136786120E+03  0.91136786680E+03  0.10100000352E+00 0. -1.
    10030    2    1    2    0    0  0.00000000000E+00  0.00000000000E+00  0.54714878247E+03  0.23698845140E+04  0.23058579356E+04 0.  0.
        5    1    3    3  502    0 -0.57783187276E+03 -0.11196520251E+03  0.12924627476E+04  0.14201788351E+04  0.46999998093E+01 0.  1.
       -5    1    3    3    0  502  0.57783187276E+03  0.11196520251E+03 -0.74531396516E+03  0.94970567883E+03  0.46999998093E+01 0. -1.
</event>
<event>
 5   0  0.1284837E-05  0.2231370E+04  0.7818609E-02  0.8505484E-01
       -1   -1    0    0    0  501  0.00000000000E+00  0.00000000000E+00  0.69877346343E+03  0.69877346345E+03  0.50400001928E-02 0. -1.
        1   -1    0    0  501    0  0.00000000000E+00  0.00000000000E+00 -0.17813399924E+04  0.17813399924E+04  0.50400001928E-02 0.  1.
    10030    2    1    2    0    0  0.00000000000E+00  0.00000000000E+00 -0.10825665289E+04  0.24801134558E+04  0.22313700868E+04 0.  0.
        4    1    3    3  502    0 -0.58656492522E+03  0.81433488073E+03 -0.10830085397E+04  0.14765191564E+04  0.12699999809E+01 0.  1.
       -4    1    3    3    0  502  0.58656492522E+03 -0.81433488073E+03  0.44201071819E+00  0.10035942994E+04  0.12699999809E+01 0. -1.
</event>
<event>
 5   0  0.2994157E-05  0.2070947E+04  0.7818609E-02  0.8574151E-01
        2   -1    0    0  501    0  0.00000000000E+00  0.00000000000E+00  0.69156043185E+03  0.69156043185E+03  0.25500000920E-02 0.  1.
       -2   -1    0    0    0  501  0.00000000000E+00  0.00000000000E+00 -0.15504139382E+04  0.15504139382E+04  0.25500000920E-02 0. -1.
    10030    2    1    2    0    0  0.00000000000E+00  0.00000000000E+00 -0.85885350636E+03  0.22419743701E+04  0.20709465784E+04 0.  0.
        4    1    3    3  502    0 -0.75076999541E+03  0.70823942570E+03 -0.33921005730E+03  0.10864270551E+04  0.12699999809E+01 0.  1.
       -4    1    3    3    0  502  0.75076999541E+03 -0.70823942570E+03 -0.51964344906E+03  0.11555473150E+04  0.12699999809E+01 0. -1.
</event>
<event>
 5   0  0.2910126E-05  0.2298545E+04  0.7818609E-02  0.8478495E-01
       -2   -1    0    0    0  501  0.00000000000E+00  0.00000000000E+00  0.59211853519E+03  0.59211853519E+03  0.25500000920E-02 0.  1.
        2   -1    0    0  501    0  0.00000000000E+00  0.00000000000E+00 -0.22306797102E+04  0.22306797102E+04  0.25500000920E-02 0. -1.
    10030    2    1    2    0    0  0.00000000000E+00  0.00000000000E+00 -0.16385611750E+04  0.28227982453E+04  0.22985445851E+04 0.  0.
        5    1    3    3  502    0  0.10982691705E+04  0.33841146346E+03 -0.80781114816E+03  0.14047414106E+04  0.46999998093E+01 0. -1.
       -5    1    3    3    0  502 -0.10982691705E+04 -0.33841146346E+03 -0.83075002681E+03  0.14180568348E+04  0.46999998093E+01 0.  1.
</event>
<event>
 5   0  0.1327820E-05  0.2306468E+04  0.7818609E-02  0.8475375E-01
        1   -1    0    0  501    0  0.00000000000E+00  0.00000000000E+00  0.12731814272E+04  0.12731814272E+04  0.50400001928E-02 0. -1.
       -1   -1    0    0    0  501  0.00000000000E+00  0.00000000000E+00 -0.10445868720E+04  0.10445868720E+04  0.50400001928E-02 0.  1.
    10030    2    1    2    0    0  0.00000000000E+00  0.00000000000E+00  0.22859455521E+03  0.23177682992E+04  0.23064679530E+04 0.  0.
        1    1    3    3  502    0  0.23736958432E+03 -0.11144368146E+04  0.29303064174E+03  0.11765120867E+04  0.50400001928E-02 0. -1.
       -1    1    3    3    0  502 -0.23736958432E+03  0.11144368146E+04 -0.64436086537E+02  0.11412562125E+04  0.50400001928E-02 0.  1.
</event>
<event>
 5   0  0.2994157E-05  0.2295241E+04  0.7818609E-02  0.8479800E-01
       -2   -1    0    0    0  501  0.00000000000E+00  0.00000000000E+00  0.90523273563E+03  0.90523273563E+03  0.25500000920E-02 0. -1.
        2   -1    0    0  501    0  0.00000000000E+00  0.00000000000E+00 -0.14549112969E+04  0.14549112969E+04  0.25500000920E-02 0.  1.
    10030    2    1    2    0    0  0.00000000000E+00  0.00000000000E+00 -0.54967856124E+03  0.23601440325E+04  0.22952414543E+04 0.  0.
        4    1    3    3  502    0  0.36121205775E+03 -0.58956207979E+03  0.66701650851E+03  0.96071339748E+03  0.12699999809E+01 0. -1.
       -4    1    3    3    0  502 -0.36121205775E+03  0.58956207979E+03 -0.12166950697E+04  0.13994306350E+04  0.12699999809E+01 0.  1.
</event>
<event>
 5   0  0.1371753E-05  0.2307662E+04  0.7818609E-02  0.8474906E-01
       -1   -1    0    0    0  501  0.00000000000E+00  0.00000000000E+00  0.11050972441E+04  0.11050972441E+04  0.50400001928E-02 0.  1.
        1   -1    0    0  501    0  0.00000000000E+00  0.00000000000E+00 -0.12047141493E+04  0.12047141493E+04  0.50400001928E-02 0. -1.
    10030    2    1    2    0    0  0.00000000000E+00  0.00000000000E+00 -0.99616905162E+02  0.23098113934E+04  0.23076622685E+04 0.  0.
        3    1    3    3  502    0 -0.48847420593E+03 -0.10404943216E+04  0.50738038397E+02  0.11505693555E+04  0.10100000352E+00 0.  1.
       -3    1    3    3    0  502  0.48847420593E+03  0.10404943216E+04 -0.15035494356E+03  0.11592420379E+04  0.10100000352E+00 0. -1.
</event>
<event>
 5   0  0.1303224E-05  0.2252959E+04  0.7818609E-02  0.8496703E-01
       -1   -1    0    0    0  501  0.00000000000E+00  0.00000000000E+00  0.12565870111E+04  0.12565870111E+04  0.50400001928E-02 0. -1.
        1   -1    0    0  501    0  0.00000000000E+00  0.00000000000E+00 -0.10098436932E+04  0.10098436932E+04  0.50400001928E-02 0.  1.
    10030    2    1    2    0    0  0.00000000000E+00  0.00000000000E+00  0.24674331793E+03  0.22664307043E+04  0.22529593588E+04 0.  0.
        2    1    3    3  502    0  0.78817818016E+03  0.39803334491E+03  0.82705484670E+03  0.12098244116E+04  0.25500000920E-02 0. -1.
       -2    1    3    3    0  502 -0.78817818016E+03 -0.39803334491E+03 -0.58031152878E+03  0.10566062927E+04  0.25500000920E-02 0.  1.
</event>
<event>
 5   0  0.1303224E-05  0.2296653E+04  0.7818609E-02  0.8479242E-01
        1   -1    0    0  501    0  0.00000000000E+00  0.00000000000E+00  0.11461600336E+04  0.11461600336E+04  0.50400001928E-02 0. -1.
       -1   -1    0    0    0  501  0.00000000000E+00  0.00000000000E+00 -0.11504971854E+04  0.11504971854E+04  0.50400001928E-02 0.  1.
    10030    2    1    2    0    0  0.00000000000E+00  0.00000000000E+00 -0.43371518060E+01  0.22966572190E+04  0.22966531237E+04 0.  0.
        2    1    3    3  502    0 -0.17978970742E+03 -0.75195987420E+03  0.84688293739E+03  0.11467252073E+04  0.25500000920E-02 0. -1.
       -2    1    3    3    0  502  0.17978970742E+03  0.75195987420E+03 -0.85122008920E+03  0.11499320117E+04  0.25500000920E-02 0.  1.
</event>
<event>
 5   0  0.1327820E-05  0.2332173E+04  0.7818609E-02  0.8465343E-01
        1   -1    0    0  501    0  0.00000000000E+00  0.00000000000E+00  0.14897714027E+04  0.14897714027E+04  0.50400001928E-02 0. -1.
       -1   -1    0    0    0  501  0.00000000000E+00  0.00000000000E+00 -0.91272902785E+03  0.91272902787E+03  0.50400001928E-02 0.  1.
    10030    2    1    2    0    0  0.00000000000E+00  0.00000000000E+00  0.57704237485E+03  0.24025004306E+04  0.23321728959E+04 0.  0.
        1    1    3    3  502    0 -0.61649032373E+03 -0.85134118254E+03  0.80863792698E+03  0.13261739800E+04  0.50400001928E-02 0. -1.
       -1    1    3    3    0  502  0.61649032373E+03  0.85134118254E+03 -0.23159555213E+03  0.10763264505E+04  0.50400001928E-02 0.  1.
</event>
<event>
 5   0  0.1308224E-05  0.2309909E+04  0.7818609E-02  0.8474024E-01
        1   -1    0    0  501    0  0.00000000000E+00  0.00000000000E+00  0.98831183533E+03  0.98831183535E+03  0.50400001928E-02 0. -1.
       -1   -1    0    0    0  501  0.00000000000E+00  0.00000000000E+00 -0.13496956231E+04  0.13496956231E+04  0.50400001928E-02 0.  1.
    10030    2    1    2    0    0  0.00000000000E+00  0.00000000000E+00 -0.36138378780E+03  0.23380074585E+04  0.23099092263E+04 0.  0.
        5    1    3    3  502    0 -0.44636764877E+03  0.80781101211E+02  0.89436202287E+03  0.10028335765E+04  0.46999998093E+01 0. -1.
       -5    1    3    3    0  502  0.44636764877E+03 -0.80781101211E+02 -0.12557458107E+04  0.13351738820E+04  0.46999998093E+01 0.  1.
</event>
<event>
 5   0  0.1303224E-05  0.2296063E+04  0.7818609E-02  0.8479475E-01
        1   -1    0    0  501    0  0.00000000000E+00  0.00000000000E+00  0.14591342465E+04  0.14591342465E+04  0.50400001928E-02 0.  1.
       -1   -1    0    0    0  501  0.00000000000E+00  0.00000000000E+00 -0.90325943483E+03  0.90325943484E+03  0.50400001928E-02 0. -1.
    10030    2    1    2    0    0  0.00000000000E+00  0.00000000000E+00  0.55587481164E+03  0.23623936813E+04  0.22960633918E+04 0.  0.
        2    1    3    3  502    0 -0.69997852197E+03 -0.23065368626E+03 -0.62772180286E+03  0.96809385702E+03  0.25500000920E-02 0. -1.
       -2    1    3    3    0  502  0.69997852197E+03  0.23065368626E+03  0.11835966145E+04  0.13942998243E+04  0.25500000920E-02 0.  1.
</event>
<event>
 5   0  0.2994157E-05  0.2483509E+04  0.7818609E-02  0.8408884E-01
        2   -1    0    0  501    0  0.00000000000E+00  0.00000000000E+00  0.54223558538E+03  0.54223558539E+03  0.25500000920E-02 0. -1.
       -2   -1    0    0    0  501  0.00000000000E+00  0.00000000000E+00 -0.28436969772E+04  0.28436969772E+04  0.25500000920E-02 0.  1.
    10030    2    1    2    0    0  0.00000000000E+00  0.00000000000E+00 -0.23014613918E+04  0.33859325626E+04  0.24835085626E+04 0.  0.
        4    1    3    3  502    0  0.81725533232E+03  0.31326151108E+03  0.50203371476E+02  0.87667613401E+03  0.12699999809E+01 0. -1.
       -4    1    3    3    0  502 -0.81725533232E+03 -0.31326151108E+03 -0.23516647633E+04  0.25092564286E+04  0.12699999809E+01 0.  1.
</event>
<event>
 5   0  0.2994157E-05  0.2296316E+04  0.7818609E-02  0.8479375E-01
        2   -1    0    0  501    0  0.00000000000E+00  0.00000000000E+00  0.11510722594E+04  0.11510722594E+04  0.25500000920E-02 0.  1.
       -2   -1    0    0    0  501  0.00000000000E+00  0.00000000000E+00 -0.11452510146E+04  0.11452510146E+04  0.25500000920E-02 0. -1.
    10030    2    1    2    0    0  0.00000000000E+00  0.00000000000E+00  0.58212448325E+01  0.22963232740E+04  0.22963158955E+04 0.  0.
        4    1    3    3  502    0 -0.50660687470E+03 -0.87070664051E+03 -0.54798540322E+03  0.11467650999E+04  0.12699999809E+01 0. -1.
       -4    1    3    3    0  502  0.50660687470E+03  0.87070664051E+03  0.55380664805E+03  0.11495581741E+04  0.12699999809E+01 0.  1.
</event>
<event>
 5   0  0.2816178E-05  0.2299843E+04  0.7818609E-02  0.8477983E-01
       -2   -1    0    0    0  501  0.00000000000E+00  0.00000000000E+00  0.75210745821E+03  0.75210745822E+03  0.25500000920E-02 0.  1.
        2   -1    0    0  501    0  0.00000000000E+00  0.00000000000E+00 -0.17581529637E+04  0.17581529637E+04  0.25500000920E-02 0. -1.
    10030    2    1    2    0    0  0.00000000000E+00  0.00000000000E+00 -0.10060455055E+04  0.25102604219E+04  0.22998434353E+04 0.  0.
        1    1    3    3  502    0 -0.69004779496E+03  0.79709601775E+03 -0.18960983184E+01  0.10542919975E+04  0.50400001928E-02 0.  1.
       -1    1    3    3    0  502  0.69004779496E+03 -0.79709601775E+03 -0.10041494072E+04  0.14559684244E+04  0.50400001928E-02 0. -1.
</event>
<event>
 5   0  0.1284837E-05  0.2331571E+04  0.7818609E-02  0.8465576E-01
       -1   -1    0    0    0  501  0.00000000000E+00  0.00000000000E+00  0.99420173443E+03  0.99420173444E+03  0.50400001928E-02 0.  1.
        1   -1    0    0  501    0  0.00000000000E+00  0.00000000000E+00 -0.13669815568E+04  0.13669815568E+04  0.50400001928E-02 0. -1.
    10030    2    1    2    0    0  0.00000000000E+00  0.00000000000E+00 -0.37277982236E+03  0.23611832912E+04  0.23315706592E+04 0.  0.
        4    1    3    3  502    0  0.43997254743E+03  0.68769894002E+03 -0.10291541634E+04  0.13136459110E+04  0.12699999809E+01 0. -1.
       -4    1    3    3    0  502 -0.43997254743E+03 -0.68769894002E+03  0.65637434101E+03  0.10475373803E+04  0.12699999809E+01 0.  1.
</event>
<event>
 5   0  0.1284837E-05  0.2296185E+04  0.7818609E-02  0.8479427E-01
       -1   -1    0    0    0  501  0.00000000000E+00  0.00000000000E+00  0.13678348586E+04  0.13678348586E+04  0.50400001928E-02 0.  1.
        1   -1    0    0  501    0  0.00000000000E+00  0.00000000000E+00 -0.96365141832E+03  0.96365141834E+03  0.50400001928E-02 0. -1.
    10030    2    1    2    0    0  0.00000000000E+00  0.00000000000E+00  0.40418344024E+03  0.23314862769E+04  0.22961846629E+04 0.  0.
        4    1    3    3  502    0 -0.44050456451E+03  0.54644527917E+02  0.12771825238E+04  0.13521194873E+04  0.12699999809E+01 0.  1.
       -4    1    3    3    0  502  0.44050456451E+03 -0.54644527917E+02 -0.87299908359E+03  0.97936678963E+03  0.12699999809E+01 0. -1.
</event>
<event>
 5   0  0.2910126E-05  0.2299479E+04  0.7818609E-02  0.8478126E-01
        2   -1    0    0  501    0  0.00000000000E+00  0.00000000000E+00  0.25405675342E+04  0.25405675342E+04  0.25500000920E-02 0. -1.
       -2   -1    0    0    0  501  0.00000000000E+00  0.00000000000E+00 -0.52031736073E+03  0.52031736073E+03  0.25500000920E-02 0.  1.
    10030    2    1    2    0    0  0.00000000000E+00  0.00000000000E+00  0.20202501735E+04  0.30608848949E+04  0.22994794143E+04 0.  0.
        5    1    3    3  502    0 -0.86834097855E+03 -0.73305284123E+03  0.12425830742E+04  0.16838697424E+04  0.46999998093E+01 0. -1.
       -5    1    3    3    0  502  0.86834097855E+03  0.73305284123E+03  0.77766709931E+03  0.13770151526E+04  0.46999998093E+01 0.  1.
</event>
<event>
 5   0  0.1308224E-05  0.2293951E+04  0.7818609E-02  0.8480310E-01
        1   -1    0    0  501    0  0.00000000000E+00  0.00000000000E+00  0.15052864312E+04  0.15052864312E+04  0.50400001928E-02 0. -1.
       -1   -1    0    0    0  501  0.00000000000E+00  0.00000000000E+00 -0.87395531623E+03  0.87395531624E+03  0.50400001928E-02 0.  1.
    10030    2    1    2    0    0  0.00000000000E+00  0.00000000000E+00  0.63133111496E+03  0.23792417474E+04  0.22939512453E+04 0.  0.
        5    1    3    3  502    0 -0.54315475666E+03  0.18528487143E+02 -0.73192310315E+03  0.91164352323E+03  0.46999998093E+01 0.  1.
       -5    1    3    3    0  502  0.54315475666E+03 -0.18528487143E+02  0.13632542181E+04  0.14675982242E+04  0.46999998093E+01 0. -1.
</event>
<event>
 5   0  0.1017200E-05  0.2289298E+04  0.7818609E-02  0.8482153E-01
        3   -1    0    0  501    0  0.00000000000E+00  0.00000000000E+00  0.98478716395E+03  0.98478716913E+03  0.10100000352E+00 0.  1.
       -3   -1    0    0    0  501  0.00000000000E+00  0.00000000000E+00 -0.13304617180E+04  0.13304617218E+04  0.10100000352E+00 0. -1.
    10030    2    1    2    0    0  0.00000000000E+00  0.00000000000E+00 -0.34567455405E+03  0.23152488910E+04  0.22892982614E+04 0.  0.
        4    1    3    3  502    0  0.15268889392E+03  0.10941752854E+03  0.96909183598E+03  0.98713053511E+03  0.12699999809E+01 0.  1.
       -4    1    3    3    0  502 -0.15268889392E+03 -0.10941752854E+03 -0.13147663900E+04  0.13281183558E+04  0.12699999809E+01 0. -1.
</event>
<event>
 5   0  0.2938972E-05  0.2236547E+04  0.7818609E-02  0.8503369E-01
       -2   -1    0    0    0  501  0.00000000000E+00  0.00000000000E+00  0.71473499924E+03  0.71473499925E+03  0.25500000920E-02 0.  1.
        2   -1    0    0  501    0  0.00000000000E+00  0.00000000000E+00 -0.17496488042E+04  0.17496488042E+04  0.25500000920E-02 0. -1.
    10030    2    1    2    0    0  0.00000000000E+00  0.00000000000E+00 -0.10349138049E+04  0.24643838034E+04  0.22365466565E+04 0.  0.
        2    1    3    3  502    0  0.55192674784E+03 -0.77359970745E+03 -0.11669582220E+04  0.15049488809E+04  0.25500000920E-02 0. -1.
       -2    1    3    3    0  502 -0.55192674784E+03  0.77359970745E+03  0.13204441709E+03  0.95943492246E+03  0.25500000920E-02 0.  1.
</event>
<event>
 5   0  0.1371753E-05  0.2340916E+04  0.7818609E-02  0.8461961E-01
        1   -1    0    0  501    0  0.00000000000E+00  0.00000000000E+00  0.27454642011E+04  0.27454642011E+04  0.50400001928E-02 0. -1.
       -1   -1    0    0    0  501  0.00000000000E+00  0.00000000000E+00 -0.49899470637E+03  0.49899470640E+03  0.50400001928E-02 0.  1.
    10030    2    1    2    0    0  0.00000000000E+00  0.00000000000E+00  0.22464694947E+04  0.32444589075E+04  0.23409161480E+04 0.  0.
        3    1    3    3  502    0 -0.15815803253E+03  0.30311995928E+03 -0.42824174386E+03  0.54798419170E+03  0.10100000352E+00 0.  1.
       -3    1    3    3    0  502  0.15815803253E+03 -0.30311995928E+03  0.26747112386E+04  0.26964747158E+04  0.10100000352E+00 0. -1.
</event>
<event>
 5   0  0.2871888E-05  0.2289223E+04  0.7818609E-02  0.8482182E-01
       -2   -1    0    0    0  501  0.00000000000E+00  0.00000000000E+00  0.13066060819E+04  0.13066060819E+04  0.25500000920E-02 0. -1.
        2   -1    0    0  501    0  0.00000000000E+00  0.00000000000E+00 -0.10027011437E+04  0.10027011437E+04  0.25500000920E-02 0.  1.
    10030    2    1    2    0    0  0.00000000000E+00  0.00000000000E+00  0.30390493816E+03  0.23093072256E+04  0.22892229360E+04 0.  0.
        3    1    3    3  502    0 -0.91025398803E+03  0.67866045873E+03  0.57914659783E+01  0.11354188180E+04  0.10100000352E+00 0.  1.
       -3    1    3    3    0  502  0.91025398803E+03 -0.67866045873E+03  0.29811347218E+03  0.11738884076E+04  0.10100000352E+00 0. -1.
</event>
<event>
 5   0  0.2994157E-05  0.2301093E+04  0.7818609E-02  0.8477490E-01
       -2   -1    0    0    0  501  0.00000000000E+00  0.00000000000E+00  0.11194295818E+04  0.11194295818E+04  0.25500000920E-02 0. -1.
        2   -1    0    0  501    0  0.00000000000E+00  0.00000000000E+00 -0.11825281709E+04  0.11825281709E+04  0.25500000920E-02 0.  1.
    10030    2    1    2    0    0  0.00000000000E+00  0.00000000000E+00 -0.63098589136E+02  0.23019577528E+04  0.23010927977E+04 0.  0.
        4    1    3    3  502    0  0.21327540339E+03 -0.69332996798E+03  0.86184997967E+03  0.11264900543E+04  0.12699999809E+01 0. -1.
       -4    1    3    3    0  502 -0.21327540339E+03  0.69332996798E+03 -0.92494856880E+03  0.11754676984E+04  0.12699999809E+01 0.  1.
</event>
<event>
 5   0  0.2994157E-05  0.2342880E+04  0.7818609E-02  0.8461203E-01
       -2   -1    0    0    0  501  0.00000000000E+00  0.00000000000E+00  0.13059648665E+04  0.13059648665E+04  0.25500000920E-02 0. -1.
        2   -1    0    0  501    0  0.00000000000E+00  0.00000000000E+00 -0.10507725970E+04  0.10507725970E+04  0.25500000920E-02 0.  1.
    10030    2    1    2    0    0  0.00000000000E+00  0.00000000000E+00  0.25519226953E+03  0.23567374635E+04  0.23428803591E+04 0.  0.
        4    1    3    3  502    0 -0.71272727340E+03 -0.71524481470E+03 -0.46981479443E+03  0.11136798755E+04  0.12699999809E+01 0. -1.
       -4    1    3    3    0  502  0.71272727340E+03  0.71524481470E+03  0.72500706396E+03  0.12430575879E+04  0.12699999809E+01 0.  1.
</event>
<event>
 5   0  0.1303224E-05  0.2113844E+04  0.7818609E-02  0.8555169E-01
        1   -1    0    0  501    0  0.00000000000E+00  0.00000000000E+00  0.10830723869E+04  0.10830723869E+04  0.50400001928E-02 0.  1.
       -1   -1    0    0    0  501  0.00000000000E+00  0.00000000000E+00 -0.10314032065E+04  0.10314032065E+04  0.50400001928E-02 0. -1.
    10030    2    1    2    0    0  0.00000000000E+00  0.00000000000E+00  0.51669180447E+02  0.21144755935E+04  0.21138442069E+04 0.  0.
        2    1    3    3  502    0  0.31884840049E+03  0.76021710550E+03 -0.63579322855E+03  0.10410703048E+04  0.25500000920E-02 0. -1.
       -2    1    3    3    0  502 -0.31884840049E+03 -0.76021710550E+03  0.68746240900E+03  0.10734052887E+04  0.25500000920E-02 0.  1.
</event>
<event>
 5   0  0.2816178E-05  0.2296703E+04  0.7818609E-02  0.8479222E-01
        2   -1    0    0  501    0  0.00000000000E+00  0.00000000000E+00  0.25171161958E+04  0.25171161958E+04  0.25500000920E-02 0. -1.
       -2   -1    0    0    0  501  0.00000000000E+00  0.00000000000E+00 -0.52389752539E+03  0.52389752540E+03  0.25500000920E-02 0.  1.
    10030    2    1    2    0    0  0.00000000000E+00  0.00000000000E+00  0.19932186705E+04  0.30410137212E+04  0.22967028072E+04 0.  0.
        1    1    3    3  502    0 -0.36352555467E+03 -0.10495230519E+04  0.13827806829E+04  0.17736211214E+04  0.50400001928E-02 0.  1.
       -1    1    3    3    0  502  0.36352555467E+03  0.10495230519E+04  0.61043798755E+03  0.12673925998E+04  0.50400001928E-02 0. -1.
</event>
<event>
 5   0  0.1327820E-05  0.2294109E+04  0.7818609E-02  0.8480247E-01
        1   -1    0    0  501    0  0.00000000000E+00  0.00000000000E+00  0.11769542515E+04  0.11769542515E+04  0.50400001928E-02 0.  1.
       -1   -1    0    0    0  501  0.00000000000E+00  0.00000000000E+00 -0.11179143766E+04  0.11179143766E+04  0.50400001928E-02 0. -1.
    10030    2    1    2    0    0  0.00000000000E+00  0.00000000000E+00  0.59039874892E+02  0.22948686281E+04  0.22941090457E+04 0.  0.
        1    1    3    3  502    0 -0.27252291313E+03 -0.11032333803E+04  0.18558905780E+03  0.11514494900E+04  0.50400001928E-02 0.  1.
       -1    1    3    3    0  502  0.27252291313E+03  0.11032333803E+04 -0.12654918291E+03  0.11434191381E+04  0.50400001928E-02 0. -1.
</event>
<event>
 5   0  0.1308224E-05  0.2327001E+04  0.7818609E-02  0.8467351E-01
       -1   -1    0    0    0  501  0.00000000000E+00  0.00000000000E+00  0.65012359451E+03  0.65012359453E+03  0.50400001928E-02 0.  1.
        1   -1    0    0  501    0  0.00000000000E+00  0.00000000000E+00 -0.20822706822E+04  0.20822706822E+04  0.50400001928E-02 0. -1.
    10030    2    1    2    0    0  0.00000000000E+00  0.00000000000E+00 -0.14321470877E+04  0.27323942767E+04  0.23270009030E+04 0.  0.
        5    1    3    3  502    0  0.23471961000E+03  0.36815163932E+03  0.55027144413E+03  0.70245973342E+03  0.46999998093E+01 0. -1.
       -5    1    3    3    0  502 -0.23471961000E+03 -0.36815163932E+03 -0.19824185318E+04  0.20299345433E+04  0.46999998093E+01 0.  1.
</event>
<event>
 5   0  0.2816178E-05  0.2271696E+04  0.7818609E-02  0.8489165E-01
       -2   -1    0    0    0  501  0.00000000000E+00  0.00000000000E+00  0.95068586633E+03  0.95068586633E+03  0.25500000920E-02 0.  1.
        2   -1    0    0  501    0  0.00000000000E+00  0.00000000000E+00 -0.13570741116E+04  0.13570741116E+04  0.25500000920E-02 0. -1.
    10030    2    1    2    0    0  0.00000000000E+00  0.00000000000E+00 -0.40638824523E+03  0.23077599779E+04  0.22716964387E+04 0.  0.
        1    1    3    3  502    0 -0.65995598648E+03  0.77679815819E+03  0.30595485966E+03  0.10642206815E+04  0.50400001928E-02 0.  1.
       -1    1    3    3    0  502  0.65995598648E+03 -0.77679815819E+03 -0.71234310490E+03  0.12435392964E+04  0.50400001928E-02 0. -1.
</event>
<event>
 5   0  0.1308224E-05  0.2319422E+04  0.7818609E-02  0.8470302E-01
       -1   -1    0    0    0  501  0.00000000000E+00  0.00000000000E+00  0.17301827798E+04  0.17301827798E+04  0.50400001928E-02 0. -1.
        1   -1    0    0  501    0  0.00000000000E+00  0.00000000000E+00 -0.77733408478E+03  0.77733408480E+03  0.50400001928E-02 0.  1.
    10030    2    1    2    0    0  0.00000000000E+00  0.00000000000E+00  0.95284869498E+03  0.25075168646E+04  0.23194223830E+04 0.  0.
        5    1    3    3  502    0 -0.50130211882E+02 -0.11257202904E+04  0.18006072735E+03  0.11411411683E+04  0.46999998093E+01 0.  1.
       -5    1    3    3    0  502  0.50130211882E+02  0.11257202904E+04  0.77278796763E+03  0.13663756963E+04  0.46999998093E+01 0. -1.
</event>
<event>
 5   0  0.1371753E-05  0.2310238E+04  0.7818609E-02  0.8473895E-01
       -1   -1    0    0    0  501  0.00000000000E+00  0.00000000000E+00  0.11345017328E+04  0.11345017328E+04  0.50400001928E-02 0.  1.
        1   -1    0    0  501    0  0.00000000000E+00  0.00000000000E+00 -0.11761110089E+04  0.11761110089E+04  0.50400001928E-02 0. -1.
    10030    2    1    2    0    0  0.00000000000E+00  0.00000000000E+00 -0.41609276102E+02  0.23106127416E+04  0.23102380635E+04 0.  0.
        3    1    3    3  502    0  0.38026860738E+03  0.35633517323E+03  0.10102461529E+04  0.11367393144E+04  0.10100000352E+00 0.  1.
       -3    1    3    3    0  502 -0.38026860738E+03 -0.35633517323E+03 -0.10518554290E+04  0.11738734272E+04  0.10100000352E+00 0. -1.
</event>
<event>
 5   0  0.1284837E-05  0.2180669E+04  0.7818609E-02  0.8526517E-01
        1   -1    0    0  501    0  0.00000000000E+00  0.00000000000E+00  0.27131775845E+04  0.27131775845E+04  0.50400001928E-02 0.  1.
       -1   -1    0    0    0  501  0.00000000000E+00  0.00000000000E+00 -0.43816882729E+03  0.43816882732E+03  0.50400001928E-02 0. -1.
    10030    2    1    2    0    0  0.00000000000E+00  0.00000000000E+00  0.22750087572E+04  0.31513464118E+04  0.21806694756E+04 0.  0.
        4    1    3    3  502    0  0.52230856817E+03  0.70372068563E+03  0.20749449503E+04  0.22524269585E+04  0.12699999809E+01 0.  1.
       -4    1    3    3    0  502 -0.52230856817E+03 -0.70372068563E+03  0.20006380687E+03  0.89891945327E+03  0.12699999809E+01 0. -1.
</event>
<event>
 5   0  0.2910126E-05  0.2229560E+04  0.7818609E-02  0.8506225E-01
       -2   -1    0    0    0  501  0.00000000000E+00  0.00000000000E+00  0.65777564141E+03  0.65777564142E+03  0.25500000920E-02 0.  1.
        2   -1    0    0  501    0  0.00000000000E+00  0.00000000000E+00 -0.18892978274E+04  0.18892978274E+04  0.25500000920E-02 0. -1.
    10030    2    1    2    0    0  0.00000000000E+00  0.00000000000E+00 -0.12315221859E+04  0.25470734688E+04  0.22295596787E+04 0.  0.
        5    1    3    3  502    0  0.12375100760E+03  0.49373422195E+03 -0.17487795234E+04  0.18213565563E+04  0.46999998093E+01 0. -1.
       -5    1    3    3    0  502 -0.12375100760E+03 -0.49373422195E+03  0.51725733748E+03  0.72571691243E+03  0.46999998093E+01 0.  1.
</event>
<event>
 5   0  0.2816178E-05  0.2299704E+04  0.7818609E-02  0.8478038E-01
        2   -1    0    0  501    0  0.00000000000E+00  0.00000000000E+00  0.13547738919E+04  0.13547738919E+04  0.25500000920E-02 0.  1.
       -2   -1    0    0    0  501  0.00000000000E+00  0.00000000000E+00 -0.97592601832E+03  0.97592601832E+03  0.25500000920E-02 0. -1.
    10030    2    1    2    0    0  0.00000000000E+00  0.00000000000E+00  0.37884787360E+03  0.23306999102E+04  0.22997035375E+04 0.  0.
        1    1    3    3  502    0  0.48554825940E+03  0.77724664500E+03 -0.51440718832E+03  0.10509444394E+04  0.50400001928E-02 0. -1.
       -1    1    3    3    0  502 -0.48554825940E+03 -0.77724664500E+03  0.89325506192E+03  0.12797554708E+04  0.50400001928E-02 0.  1.
</event>
<event>
 5   0  0.1303224E-05  0.2290678E+04  0.7818609E-02  0.8481606E-01
        1   -1    0    0  501    0  0.00000000000E+00  0.00000000000E+00  0.12819401278E+04  0.12819401279E+04  0.50400001928E-02 0.  1.
       -1   -1    0    0    0  501  0.00000000000E+00  0.00000000000E+00 -0.10232935513E+04  0.10232935513E+04  0.50400001928E-02 0. -1.
    10030    2    1    2    0    0  0.00000000000E+00  0.00000000000E+00  0.25864657657E+03  0.23052336791E+04  0.22906776866E+04 0.  0.
        2    1    3    3  502    0 -0.11141685534E+03  0.10877141142E+04 -0.21382049369E+03  0.11141162028E+04  0.25500000920E-02 0.  1.
       -2    1    3    3    0  502  0.11141685534E+03 -0.10877141142E+04  0.47246707027E+03  0.11911174763E+04  0.25500000920E-02 0. -1.
</event>
<event>
 5   0  0.1308224E-05  0.2303299E+04  0.7818609E-02  0.8476621E-01
        1   -1    0    0  501    0  0.00000000000E+00  0.00000000000E+00  0.18535246554E+04  0.18535246554E+04  0.50400001928E-02 0.  1.
       -1   -1    0    0    0  501  0.00000000000E+00  0.00000000000E+00 -0.71555396632E+03  0.71555396634E+03  0.50400001928E-02 0. -1.
    10030    2    1    2    0    0  0.00000000000E+00  0.00000000000E+00  0.11379706891E+04  0.25690786217E+04  0.23032993022E+04 0.  0.
        5    1    3    3  502    0 -0.68683460048E+02 -0.53351270320E+03 -0.56680973069E+03  0.78144006997E+03  0.46999998093E+01 0. -1.
       -5    1    3    3    0  502  0.68683460048E+02  0.53351270320E+03  0.17047804198E+04  0.17876385518E+04  0.46999998093E+01 0.  1.
</event>
<event>
 5   0  0.2871888E-05  0.2292043E+04  0.7818609E-02  0.8481065E-01
        2   -1    0    0  501    0  0.00000000000E+00  0.00000000000E+00  0.14221782413E+04  0.14221782413E+04  0.25500000920E-02 0. -1.
       -2   -1    0    0    0  501  0.00000000000E+00  0.00000000000E+00 -0.92348881807E+03  0.92348881808E+03  0.25500000920E-02 0.  1.
    10030    2    1    2    0    0  0.00000000000E+00  0.00000000000E+00  0.49868942325E+03  0.23456670594E+04  0.22920433706E+04 0.  0.
        3    1    3    3  502    0 -0.36709143170E+02  0.10063487477E+04 -0.31051939417E+03  0.10538062761E+04  0.10100000352E+00 0.  1.
       -3    1    3    3    0  502  0.36709143170E+02 -0.10063487477E+04  0.80920881742E+03  0.12918607833E+04  0.10100000352E+00 0. -1.
</event>
<event>
 5   0  0.2816178E-05  0.2155485E+04  0.7818609E-02  0.8537188E-01
       -2   -1    0    0    0  501  0.00000000000E+00  0.00000000000E+00  0.64431309010E+03  0.64431309010E+03  0.25500000920E-02 0. -1.
        2   -1    0    0  501    0  0.00000000000E+00  0.00000000000E+00 -0.18027392151E+04  0.18027392151E+04  0.25500000920E-02 0.  1.
    10030    2    1    2    0    0  0.00000000000E+00  0.00000000000E+00 -0.11584261250E+04  0.24470523052E+04  0.21554846084E+04 0.  0.
        1    1    3    3  502    0  0.26259961047E+02  0.39482799860E+03  0.55886092636E+03  0.68476584981E+03  0.50400001928E-02 0. -1.
       -1    1    3    3    0  502 -0.26259961047E+02 -0.39482799860E+03 -0.17172870513E+04  0.17622864554E+04  0.50400001928E-02 0.  1.
</event>
<event>
 5   0  0.1017200E-05  0.2305730E+04  0.7818609E-02  0.8475665E-01
       -3   -1    0    0    0  501  0.00000000000E+00  0.00000000000E+00  0.13355337934E+04  0.13355337972E+04  0.10100000352E+00 0.  1.
        3   -1    0    0  501    0  0.00000000000E+00  0.00000000000E+00 -0.99518075284E+03  0.99518075796E+03  0.10100000352E+00 0. -1.
    10030    2    1    2    0    0  0.00000000000E+00  0.00000000000E+00  0.34035304054E+03  0.23307145552E+04  0.23057298509E+04 0.  0.
        1    1    3    3  502    0 -0.63047190449E+03 -0.28850109043E+03  0.11012271007E+04  0.13013181121E+04  0.50400001928E-02 0.  1.
       -1    1    3    3    0  502  0.63047190449E+03  0.28850109043E+03 -0.76087406016E+03  0.10293964431E+04  0.50400001928E-02 0. -1.
</event>
<event>
 5   0  0.1303224E-05  0.2287160E+04  0.7818609E-02  0.8483001E-01
        1   -1    0    0  501    0  0.00000000000E+00  0.00000000000E+00  0.94104071722E+03  0.94104071724E+03  0.50400001928E-02 0.  1.
       -1   -1    0    0    0  501  0.00000000000E+00  0.00000000000E+00 -0.13897113495E+04  0.13897113496E+04  0.50400001928E-02 0. -1.
    10030    2    1    2    0    0  0.00000000000E+00  0.00000000000E+00 -0.44867063232E+03  0.23307520668E+04  0.22871597803E+04 0.  0.
        2    1    3    3  502    0 -0.73030436553E+03  0.79456756133E+03 -0.60982130645E+03  0.12395822287E+04  0.25500000920E-02 0. -1.
       -2    1    3    3    0  502  0.73030436553E+03 -0.79456756133E+03  0.16115067413E+03  0.10911698381E+04  0.25500000920E-02 0.  1.
</event>
<event>
 5   0  0.1308224E-05  0.2319683E+04  0.7818609E-02  0.8470201E-01
        1   -1    0    0  501    0  0.00000000000E+00  0.00000000000E+00  0.84671667155E+03  0.84671667157E+03  0.50400001928E-02 0.  1.
       -1   -1    0    0    0  501  0.00000000000E+00  0.00000000000E+00 -0.15887631343E+04  0.15887631343E+04  0.50400001928E-02 0. -1.
    10030    2    1    2    0    0  0.00000000000E+00  0.00000000000E+00 -0.74204646278E+03  0.24354798059E+04  0.23196829378E+04 0.  0.
        5    1    3    3  502    0  0.58812674942E+03 -0.13724397743E+03 -0.14106453993E+04  0.15344938955E+04  0.46999998093E+01 0. -1.
       -5    1    3    3    0  502 -0.58812674942E+03  0.13724397743E+03  0.66859893656E+03  0.90098591038E+03  0.46999998093E+01 0.  1.
</event>
<event>
 5   0  0.1303224E-05  0.2304198E+04  0.7818609E-02  0.8476268E-01
       -1   -1    0    0    0  501  0.00000000000E+00  0.00000000000E+00  0.66652413009E+03  0.66652413011E+03  0.50400001928E-02 0. -1.
        1   -1    0    0  501    0  0.00000000000E+00  0.00000000000E+00 -0.19914243669E+04  0.19914243670E+04  0.50400001928E-02 0.  1.
    10030    2    1    2    0    0  0.00000000000E+00  0.00000000000E+00 -0.13249002369E+04  0.26579484971E+04  0.23041982500E+04 0.  0.
        2    1    3    3  502    0  0.10088936357E+04 -0.42168411480E+03 -0.24391227625E+03  0.11203468478E+04  0.25500000920E-02 0. -1.
       -2    1    3    3    0  502 -0.10088936357E+04  0.42168411480E+03 -0.10809879606E+04  0.15376016493E+04  0.25500000920E-02 0.  1.
</event>
<event>
 5   0  0.1308224E-05  0.2303956E+04  0.7818609E-02  0.8476363E-01
       -1   -1    0    0    0  501  0.00000000000E+00  0.00000000000E+00  0.11269005029E+04  0.11269005029E+04  0.50400001928E-02 0.  1.
        1   -1    0    0  501    0  0.00000000000E+00  0.00000000000E+00 -0.11776131096E+04  0.11776131097E+04  0.50400001928E-02 0. -1.
    10030    2    1    2    0    0  0.00000000000E+00  0.00000000000E+00 -0.50712606740E+02  0.23045136126E+04  0.23039555599E+04 0.  0.
        5    1    3    3  502    0 -0.88024579585E+03 -0.57029403907E+03 -0.50187778695E+03  0.11627430306E+04  0.46999998093E+01 0. -1.
       -5    1    3    3    0  502  0.88024579585E+03  0.57029403907E+03  0.45116518021E+03  0.11417705820E+04  0.46999998093E+01 0.  1.
</event>
<event>
 5   0  0.1303224E-05  0.2307826E+04  0.7818609E-02  0.8474842E-01
        1   -1    0    0  501    0  0.00000000000E+00  0.00000000000E+00  0.16447681402E+04  0.16447681402E+04  0.50400001928E-02 0.  1.
       -1   -1    0    0    0  501  0.00000000000E+00  0.00000000000E+00 -0.80954563674E+03  0.80954563676E+03  0.50400001928E-02 0. -1.
    10030    2    1    2    0    0  0.00000000000E+00  0.00000000000E+00  0.83522250347E+03  0.24543137770E+04  0.23078257052E+04 0.  0.
        2    1    3    3  502    0 -0.27614551662E+03  0.64252417166E+03 -0.55848293499E+03  0.89498427148E+03  0.25500000920E-02 0. -1.
       -2    1    3    3    0  502  0.27614551662E+03 -0.64252417166E+03  0.13937054385E+04  0.15593295055E+04  0.25500000920E-02 0.  1.
</event>
<event>
 5   0  0.2871888E-05  0.2293578E+04  0.7818609E-02  0.8480457E-01
       -2   -1    0    0    0  501  0.00000000000E+00  0.00000000000E+00  0.98749242934E+03  0.98749242934E+03  0.25500000920E-02 0. -1.
        2   -1    0    0  501    0  0.00000000000E+00  0.00000000000E+00 -0.13317827373E+04  0.13317827373E+04  0.25500000920E-02 0.  1.
    10030    2    1    2    0    0  0.00000000000E+00  0.00000000000E+00 -0.34429030795E+03  0.23192751666E+04  0.22935783140E+04 0.  0.
        3    1    3    3  502    0  0.79698725331E+03  0.39617925792E+03  0.55912979130E+03  0.10510817381E+04  0.10100000352E+00 0. -1.
       -3    1    3    3    0  502 -0.79698725331E+03 -0.39617925792E+03 -0.90342009925E+03  0.12681934286E+04  0.10100000352E+00 0.  1.
</event>
<event>
 5   0  0.2938972E-05  0.2309844E+04  0.7818609E-02  0.8474050E-01
        2   -1    0    0  501    0  0.00000000000E+00  0.00000000000E+00  0.13111049849E+04  0.13111049849E+04  0.25500000920E-02 0.  1.
       -2   -1    0    0    0  501  0.00000000000E+00  0.00000000000E+00 -0.10173443386E+04  0.10173443386E+04  0.25500000920E-02 0. -1.
    10030    2    1    2    0    0  0.00000000000E+00  0.00000000000E+00  0.29376064630E+03  0.23284493235E+04  0.23098443530E+04 0.  0.
        2    1    3    3  502    0  0.97675911991E+03 -0.26025526298E+03 -0.41623713035E+03  0.10931809223E+04  0.25500000920E-02 0. -1.
       -2    1    3    3    0  502 -0.97675911991E+03  0.26025526298E+03  0.70999777665E+03  0.12352684012E+04  0.25500000920E-02 0.  1.
</event>
<event>
 5   0  0.2816178E-05  0.2023640E+04  0.7818609E-02  0.8595647E-01
       -2   -1    0    0    0  501  0.00000000000E+00  0.00000000000E+00  0.49583773058E+03  0.49583773059E+03  0.25500000920E-02 0. -1.
        2   -1    0    0  501    0  0.00000000000E+00  0.00000000000E+00 -0.20647478971E+04  0.20647478971E+04  0.25500000920E-02 0.  1.
    10030    2    1    2    0    0  0.00000000000E+00  0.00000000000E+00 -0.15689101665E+04  0.25605856276E+04  0.20236401968E+04 0.  0.
        1    1    3    3  502    0  0.69905056242E+03  0.69452572982E+03 -0.10750481603E+04  0.14583436581E+04  0.50400001928E-02 0. -1.
       -1    1    3    3    0  502 -0.69905056242E+03 -0.69452572982E+03 -0.49386200619E+03  0.11022419695E+04  0.50400001928E-02 0.  1.
</event>
<event>
 5   0  0.1303224E-05  0.2318380E+04  0.7818609E-02  0.8470709E-01
        1   -1    0    0  501    0  0.00000000000E+00  0.00000000000E+00  0.18169679527E+04  0.18169679527E+04  0.50400001928E-02 0.  1.
       -1   -1    0    0    0  501  0.00000000000E+00  0.00000000000E+00 -0.73954083774E+03  0.73954083775E+03  0.50400001928E-02 0. -1.
    10030    2    1    2    0    0  0.00000000000E+00  0.00000000000E+00  0.10774271149E+04  0.25565087904E+04  0.23183804708E+04 0.  0.
        2    1    3    3  502    0  0.44633149035E+03 -0.72060598958E+03 -0.33322320543E+03  0.91078125592E+03  0.25500000920E-02 0. -1.
       -2    1    3    3    0  502 -0.44633149035E+03  0.72060598958E+03  0.14106503204E+04  0.16457275345E+04  0.25500000920E-02 0.  1.
</event>
<event>
 5   0  0.2994157E-05  0.2307658E+04  0.7818609E-02  0.8474908E-01
        2   -1    0    0  501    0  0.00000000000E+00  0.00000000000E+00  0.20282945945E+04  0.20282945945E+04  0.25500000920E-02 0. -1.
       -2   -1    0    0    0  501  0.00000000000E+00  0.00000000000E+00 -0.65637497822E+03  0.65637497822E+03  0.25500000920E-02 0.  1.
    10030    2    1    2    0    0  0.00000000000E+00  0.00000000000E+00  0.13719196163E+04  0.26846695728E+04  0.23076583979E+04 0.  0.
        4    1    3    3  502    0 -0.15858668321E+03  0.11169725312E+04  0.40447419785E+03  0.11984900338E+04  0.12699999809E+01 0.  1.
       -4    1    3    3    0  502  0.15858668321E+03 -0.11169725312E+04  0.96744541847E+03  0.14861795390E+04  0.12699999809E+01 0. -1.
</event>
<event>
 5   0  0.1327820E-05  0.2305371E+04  0.7818609E-02  0.8475807E-01
       -1   -1    0    0    0  501  0.00000000000E+00  0.00000000000E+00  0.14432095699E+04  0.14432095699E+04  0.50400001928E-02 0. -1.
        1   -1    0    0  501    0  0.00000000000E+00  0.00000000000E+00 -0.92064479373E+03  0.92064479375E+03  0.50400001928E-02 0.  1.
    10030    2    1    2    0    0  0.00000000000E+00  0.00000000000E+00  0.52256477614E+03  0.23638543636E+04  0.23053705791E+04 0.  0.
        1    1    3    3  502    0 -0.14783309053E+03 -0.42408218936E+03 -0.82724324914E+03  0.94129257899E+03  0.50400001928E-02 0.  1.
       -1    1    3    3    0  502  0.14783309053E+03  0.42408218936E+03  0.13498080253E+04  0.14225617846E+04  0.50400001928E-02 0. -1.
</event>
<event>
 5   0  0.1284837E-05  0.2284480E+04  0.7818609E-02  0.8484066E-01
       -1   -1    0    0    0  501  0.00000000000E+00  0.00000000000E+00  0.65191906820E+03  0.65191906822E+03  0.50400001928E-02 0. -1.
        1   -1    0    0  501    0  0.00000000000E+00  0.00000000000E+00 -0.20013408601E+04  0.20013408601E+04  0.50400001928E-02 0.  1.
    10030    2    1    2    0    0  0.00000000000E+00  0.00000000000E+00 -0.13494217919E+04  0.26532599283E+04  0.22844800447E+04 0.  0.
        4    1    3    3  502    0 -0.38218945036E+03  0.10702515658E+04 -0.54125541986E+03  0.12587558272E+04  0.12699999809E+01 0. -1.
       -4    1    3    3    0  502  0.38218945036E+03 -0.10702515658E+04 -0.80816637201E+03  0.13945041011E+04  0.12699999809E+01 0.  1.
</event>
<event>
 5   0  0.2871888E-05  0.2294552E+04  0.7818609E-02  0.8480072E-01
       -2   -1    0    0    0  501  0.00000000000E+00  0.00000000000E+00  0.70335611782E+03  0.70335611782E+03  0.25500000920E-02 0. -1.
        2   -1    0    0  501    0  0.00000000000E+00  0.00000000000E+00 -0.18713730649E+04  0.18713730649E+04  0.25500000920E-02 0.  1.
    10030    2    1    2    0    0  0.00000000000E+00  0.00000000000E+00 -0.11680169471E+04  0.25747291827E+04  0.22945515413E+04 0.  0.
        3    1    3    3  502    0 -0.87957562569E+03  0.21667744544E+03  0.20597244222E+03  0.92899249395E+03  0.10100000352E+00 0. -1.
       -3    1    3    3    0  502  0.87957562569E+03 -0.21667744544E+03 -0.13739893893E+04  0.16457366888E+04  0.10100000352E+00 0.  1.
</event>
<event>
 5   0  0.1308224E-05  0.2301316E+04  0.7818609E-02  0.8477402E-01
       -1   -1    0    0    0  501  0.00000000000E+00  0.00000000000E+00  0.54770986257E+03  0.54770986259E+03  0.50400001928E-02 0. -1.
        1   -1    0    0  501    0  0.00000000000E+00  0.00000000000E+00 -0.24173643446E+04  0.24173643446E+04  0.50400001928E-02 0.  1.
    10030    2    1    2    0    0  0.00000000000E+00  0.00000000000E+00 -0.18696544820E+04  0.29650742072E+04  0.23013163998E+04 0.  0.
        5    1    3    3  502    0 -0.24935046178E+03  0.50262923661E+03  0.35949864904E+03  0.66638815337E+03  0.46999998093E+01 0. -1.
       -5    1    3    3    0  502  0.24935046178E+03 -0.50262923661E+03 -0.22291531310E+04  0.22986860538E+04  0.46999998093E+01 0.  1.
</event>
<event>
 5   0  0.2871888E-05  0.2302637E+04  0.7818609E-02  0.8476882E-01
       -2   -1    0    0    0  501  0.00000000000E+00  0.00000000000E+00  0.71489973936E+03  0.71489973937E+03  0.25500000920E-02 0. -1.
        2   -1    0    0  501    0  0.00000000000E+00  0.00000000000E+00 -0.18541540801E+04  0.18541540801E+04  0.25500000920E-02 0.  1.
    10030    2    1    2    0    0  0.00000000000E+00  0.00000000000E+00 -0.11392543408E+04  0.25690538195E+04  0.23026369828E+04 0.  0.
        3    1    3    3  502    0  0.18454989080E+03 -0.10096067219E+04  0.12432815508E+02  0.10264107269E+04  0.10100000352E+00 0. -1.
       -3    1    3    3    0  502 -0.18454989080E+03  0.10096067219E+04 -0.11516871563E+04  0.15426430926E+04  0.10100000352E+00 0.  1.
</event>
<event>
 5   0  0.1284837E-05  0.2296400E+04  0.7818609E-02  0.8479342E-01
        1   -1    0    0  501    0  0.00000000000E+00  0.00000000000E+00  0.12337888556E+04  0.12337888556E+04  0.50400001928E-02 0. -1.
       -1   -1    0    0    0  501  0.00000000000E+00  0.00000000000E+00 -0.10685481937E+04  0.10685481937E+04  0.50400001928E-02 0.  1.
    10030    2    1    2    0    0  0.00000000000E+00  0.00000000000E+00  0.16524066189E+03  0.23023370493E+04  0.22963996630E+04 0.  0.
        4    1    3    3  502    0 -0.73851987323E+03  0.47554383855E+02 -0.79753796648E+03  0.10879988251E+04  0.12699999809E+01 0.  1.
       -4    1    3    3    0  502  0.73851987323E+03 -0.47554383855E+02  0.96277862838E+03  0.12143382242E+04  0.12699999809E+01 0. -1.
</event>
<event>
 5   0  0.1308224E-05  0.2403960E+04  0.7818609E-02  0.8438022E-01
       -1   -1    0    0    0  501  0.00000000000E+00  0.00000000000E+00  0.87164419807E+03  0.87164419809E+03  0.50400001928E-02 0.  1.
        1   -1    0    0  501    0  0.00000000000E+00  0.00000000000E+00 -0.16575067600E+04  0.16575067600E+04  0.50400001928E-02 0. -1.
    10030    2    1    2    0    0  0.00000000000E+00  0.00000000000E+00 -0.78586256195E+03  0.25291509581E+04  0.24039601916E+04 0.  0.
        5    1    3    3  502    0  0.40517262397E+03  0.11297537786E+04 -0.32454138563E+03  0.12433252416E+04  0.46999998093E+01 0. -1.
       -5    1    3    3    0  502 -0.40517262397E+03 -0.11297537786E+04 -0.46132117632E+03  0.12858257165E+04  0.46999998093E+01 0.  1.
</event>
<event>
 5   0  0.2910126E-05  0.2302651E+04  0.7818609E-02  0.8476877E-01
       -2   -1    0    0    0  501  0.00000000000E+00  0.00000000000E+00  0.99460997175E+03  0.99460997175E+03  0.25500000920E-02 0. -1.
        2   -1    0    0  501    0  0.00000000000E+00  0.00000000000E+00 -0.13327335452E+04  0.13327335452E+04  0.25500000920E-02 0.  1.
    10030    2    1    2    0    0  0.00000000000E+00  0.00000000000E+00 -0.33812357346E+03  0.23273435170E+04  0.23026507106E+04 0.  0.
        5    1    3    3  502    0 -0.11284609601E+04  0.20053500415E+03 -0.58853242027E+02  0.11476603245E+04  0.46999998093E+01 0.  1.
       -5    1    3    3    0  502  0.11284609601E+04 -0.20053500415E+03 -0.27927033143E+03  0.11796831924E+04  0.46999998093E+01 0. -1.
</event>
<event>
 5   0  0.1327820E-05  0.2115038E+04  0.7818609E-02  0.8554648E-01
       -1   -1    0    0    0  501  0.00000000000E+00  0.00000000000E+00  0.80307058381E+03  0.80307058383E+03  0.50400001928E-02 0.  1.
        1   -1    0    0  501    0  0.00000000000E+00  0.00000000000E+00 -0.13925883213E+04  0.13925883213E+04  0.50400001928E-02 0. -1.
    10030    2    1    2    0    0  0.00000000000E+00  0.00000000000E+00 -0.58951773750E+03  0.21956589052E+04  0.21150382656E+04 0.  0.
        1    1    3    3  502    0  0.61885368152E+03  0.45463478948E+03 -0.10495740724E+04  0.13004916011E+04  0.50400001928E-02 0. -1.
       -1    1    3    3    0  502 -0.61885368152E+03 -0.45463478948E+03  0.46005633493E+03  0.89516730407E+03  0.50400001928E-02 0.  1.
</event>
<event>
 5   0  0.2910126E-05  0.2309973E+04  0.7818609E-02  0.8473999E-01
        2   -1    0    0  501    0  0.00000000000E+00  0.00000000000E+00  0.13536936827E+04  0.13536936827E+04  0.25500000920E-02 0. -1.
       -2   -1    0    0    0  501  0.00000000000E+00  0.00000000000E+00 -0.98544733302E+03  0.98544733303E+03  0.25500000920E-02 0.  1.
    10030    2    1    2    0    0  0.00000000000E+00  0.00000000000E+00  0.36824634968E+03  0.23391410157E+04  0.23099730123E+04 0.  0.
        5    1    3    3  502    0  0.87983217305E+03  0.11807015206E+03  0.93232126700E+03  0.12873578556E+04  0.46999998093E+01 0. -1.
       -5    1    3    3    0  502 -0.87983217305E+03 -0.11807015206E+03 -0.56407491732E+03  0.10517831601E+04  0.46999998093E+01 0.  1.
</event>
<event>
 5   0  0.1303224E-05  0.2300489E+04  0.7818609E-02  0.8477728E-01
        1   -1    0    0  501    0  0.00000000000E+00  0.00000000000E+00  0.10003215650E+04  0.10003215650E+04  0.50400001928E-02 0.  1.
       -1   -1    0    0    0  501  0.00000000000E+00  0.00000000000E+00 -0.13226368405E+04  0.13226368405E+04  0.50400001928E-02 0. -1.
    10030    2    1    2    0    0  0.00000000000E+00  0.00000000000E+00 -0.32231527542E+03  0.23229584055E+04  0.23004887778E+04 0.  0.
        2    1    3    3  502    0  0.82556899396E+03 -0.48976948270E+03  0.47877028232E+03  0.10726878825E+04  0.25500000920E-02 0.  1.
       -2    1    3    3    0  502 -0.82556899396E+03  0.48976948270E+03 -0.80108555774E+03  0.12502705230E+04  0.25500000920E-02 0. -1.
</event>
<event>
 5   0  0.1371753E-05  0.2430233E+04  0.7818609E-02  0.8428271E-01
       -1   -1    0    0    0  501  0.00000000000E+00  0.00000000000E+00  0.16431927486E+04  0.16431927487E+04  0.50400001928E-02 0.  1.
        1   -1    0    0  501    0  0.00000000000E+00  0.00000000000E+00 -0.89856081757E+03  0.89856081759E+03  0.50400001928E-02 0. -1.
    10030    2    1    2    0    0  0.00000000000E+00  0.00000000000E+00  0.74463193107E+03  0.25417535662E+04  0.24302334206E+04 0.  0.
        3    1    3    3  502    0  0.24944825694E+03 -0.70632310238E+03  0.13729815735E+04  0.15640317034E+04  0.10100000352E+00 0.  1.
       -3    1    3    3    0  502 -0.24944825694E+03  0.70632310238E+03 -0.62834964240E+03  0.97772186288E+03  0.10100000352E+00 0. -1.
</event>
<event>
 5   0  0.1308224E-05  0.2305658E+04  0.7818609E-02  0.8475693E-01
        1   -1    0    0  501    0  0.00000000000E+00  0.00000000000E+00  0.13019215614E+04  0.13019215614E+04  0.50400001928E-02 0.  1.
       -1   -1    0    0    0  501  0.00000000000E+00  0.00000000000E+00 -0.10208104567E+04  0.10208104567E+04  0.50400001928E-02 0. -1.
    10030    2    1    2    0    0  0.00000000000E+00  0.00000000000E+00  0.28111110462E+03  0.23227320181E+04  0.23056583821E+04 0.  0.
        5    1    3    3  502    0  0.47379519381E+03 -0.17522357418E+03  0.11844760780E+04  0.12877075973E+04  0.46999998093E+01 0.  1.
       -5    1    3    3    0  502 -0.47379519381E+03  0.17522357418E+03 -0.90336497339E+03  0.10350244209E+04  0.46999998093E+01 0. -1.
</event>
<event>
 5   0  0.2938972E-05  0.2289869E+04  0.7818609E-02  0.8481926E-01
       -2   -1    0    0    0  501  0.00000000000E+00  0.00000000000E+00  0.10163876993E+04  0.10163876993E+04  0.25500000920E-02 0.  1.
        2   -1    0    0  501    0  0.00000000000E+00  0.00000000000E+00 -0.12897394050E+04  0.12897394050E+04  0.25500000920E-02 0. -1.
    10030    2    1    2    0    0  0.00000000000E+00  0.00000000000E+00 -0.27335170573E+03  0.23061271043E+04  0.22898692247E+04 0.  0.
        2    1    3    3  502    0  0.69897823498E+03 -0.68999905815E+03  0.45589440650E+03  0.10828245394E+04  0.25500000920E-02 0.  1.
       -2    1    3    3    0  502 -0.69897823498E+03  0.68999905815E+03 -0.72924611223E+03  0.12233025650E+04  0.25500000920E-02 0. -1.
</event>
<event>
 5   0  0.2816178E-05  0.2299241E+04  0.7818609E-02  0.8478221E-01
        2   -1    0    0  501    0  0.00000000000E+00  0.00000000000E+00  0.79511454030E+03  0.79511454031E+03  0.25500000920E-02 0.  1.
       -2   -1    0    0    0  501  0.00000000000E+00  0.00000000000E+00 -0.16621841175E+04  0.16621841175E+04  0.25500000920E-02 0. -1.
    10030    2    1    2    0    0  0.00000000000E+00  0.00000000000E+00 -0.86706957719E+03  0.24572986578E+04  0.22992405359E+04 0.  0.
        1    1    3    3  502    0  0.53351786148E+02  0.10627509000E+04 -0.89858058424E+03  0.13927429608E+04  0.50400001928E-02 0.  1.
       -1    1    3    3    0  502 -0.53351786148E+02 -0.10627509000E+04  0.31511007049E+02  0.10645556970E+04  0.50400001928E-02 0. -1.
</event>
<event>
 5   0  0.1327820E-05  0.2304399E+04  0.7818609E-02  0.8476189E-01
        1   -1    0    0  501    0  0.00000000000E+00  0.00000000000E+00  0.10974029224E+04  0.10974029224E+04  0.50400001928E-02 0. -1.
       -1   -1    0    0    0  501  0.00000000000E+00  0.00000000000E+00 -0.12097319806E+04  0.12097319806E+04  0.50400001928E-02 0.  1.
    10030    2    1    2    0    0  0.00000000000E+00  0.00000000000E+00 -0.11232905819E+03  0.23071349030E+04  0.23043987596E+04 0.  0.
        1    1    3    3  502    0 -0.83421872587E+03  0.52179004558E+03 -0.65635749987E+03  0.11827894580E+04  0.50400001928E-02 0.  1.
       -1    1    3    3    0  502  0.83421872587E+03 -0.52179004558E+03  0.54402844168E+03  0.11243454450E+04  0.50400001928E-02 0. -1.
</event>
<event>
 5   0  0.1371753E-05  0.2301488E+04  0.7818609E-02  0.8477335E-01
        1   -1    0    0  501    0  0.00000000000E+00  0.00000000000E+00  0.80208622179E+03  0.80208622181E+03  0.50400001928E-02 0.  1.
       -1   -1    0    0    0  501  0.00000000000E+00  0.00000000000E+00 -0.16509590691E+04  0.16509590691E+04  0.50400001928E-02 0. -1.
    10030    2    1    2    0    0  0.00000000000E+00  0.00000000000E+00 -0.84887284730E+03  0.24530452909E+04  0.23014877989E+04 0.  0.
        3    1    3    3  502    0 -0.10536491282E+04  0.36148828573E+03 -0.73217290805E+03  0.13330144199E+04  0.10100000352E+00 0. -1.
       -3    1    3    3    0  502  0.10536491282E+04 -0.36148828573E+03 -0.11669993925E+03  0.11200308710E+04  0.10100000352E+00 0.  1.
</event>
<event>
 5   0  0.1371753E-05  0.2126555E+04  0.7818609E-02  0.8549635E-01
       -1   -1    0    0    0  501  0.00000000000E+00  0.00000000000E+00  0.69301626353E+03  0.69301626355E+03  0.50400001928E-02 0. -1.
        1   -1    0    0  501    0  0.00000000000E+00  0.00000000000E+00 -0.16313605922E+04  0.16313605922E+04  0.50400001928E-02 0.  1.
    10030    2    1    2    0    0  0.00000000000E+00  0.00000000000E+00 -0.93834432871E+03  0.23243768558E+04  0.21265553575E+04 0.  0.
        3    1    3    3  502    0 -0.93120414709E+03  0.40652832518E+03 -0.12673446483E+03  0.10239473021E+04  0.10100000352E+00 0.  1.
       -3    1    3    3    0  502  0.93120414709E+03 -0.40652832518E+03 -0.81160986388E+03  0.13004295537E+04  0.10100000352E+00 0. -1.
</event>
<event>
 5   0  0.1303224E-05  0.2290539E+04  0.7818609E-02  0.8481661E-01
        1   -1    0    0  501    0  0.00000000000E+00  0.00000000000E+00  0.18605764463E+04  0.18605764463E+04  0.50400001928E-02 0.  1.
       -1   -1    0    0    0  501  0.00000000000E+00  0.00000000000E+00 -0.70496575858E+03  0.70496575860E+03  0.50400001928E-02 0. -1.
    10030    2    1    2    0    0  0.00000000000E+00  0.00000000000E+00  0.11556106877E+04  0.25655422049E+04  0.22905394001E+04 0.  0.
        2    1    3    3  502    0  0.85614028979E+03  0.22349437608E+03 -0.23662310039E+03  0.91592380883E+03  0.25500000920E-02 0. -1.
       -2    1    3    3    0  502 -0.85614028979E+03 -0.22349437608E+03  0.13922337881E+04  0.16496183961E+04  0.25500000920E-02 0.  1.
</event>
<event>
 5   0  0.2816178E-05  0.2310912E+04  0.7818609E-02  0.8473631E-01
        2   -1    0    0  501    0  0.00000000000E+00  0.00000000000E+00  0.96818860803E+03  0.96818860804E+03  0.25500000920E-02 0.  1.
       -2   -1    0    0    0  501  0.00000000000E+00  0.00000000000E+00 -0.13789444758E+04  0.13789444758E+04  0.25500000920E-02 0. -1.
    10030    2    1    2    0    0  0.00000000000E+00  0.00000000000E+00 -0.41075586780E+03  0.23471330839E+04  0.23109117963E+04 0.  0.
        1    1    3    3  502    0  0.53120220139E+03 -0.45095373772E+02  0.83580880465E+03  0.99135550104E+03  0.50400001928E-02 0.  1.
       -1    1    3    3    0  502 -0.53120220139E+03  0.45095373772E+02 -0.12465646724E+04  0.13557775828E+04  0.50400001928E-02 0. -1.
</event>
<event>
 5   0  0.2871888E-05  0.2303833E+04  0.7818609E-02  0.8476411E-01
        2   -1    0    0  501    0  0.00000000000E+00  0.00000000000E+00  0.15514175251E+04  0.15514175251E+04  0.25500000920E-02 0. -1.
       -2   -1    0    0    0  501  0.00000000000E+00  0.00000000000E+00 -0.85528957653E+03  0.85528957653E+03  0.25500000920E-02 0.  1.
    10030    2    1    2    0    0  0.00000000000E+00  0.00000000000E+00  0.69612794860E+03  0.24067071017E+04  0.23038326659E+04 0.  0.
        3    1    3    3  502    0 -0.84645234468E+03  0.67221875349E+03 -0.67901827485E+02  0.10830375306E+04  0.10100000352E+00 0. -1.
       -3    1    3    3    0  502  0.84645234468E+03 -0.67221875349E+03  0.76402977608E+03  0.13236695710E+04  0.10100000352E+00 0.  1.
</event>
<event>
 5   0  0.1371753E-05  0.2314511E+04  0.7818609E-02  0.8472222E-01
       -1   -1    0    0    0  501  0.00000000000E+00  0.00000000000E+00  0.92627465596E+03  0.92627465597E+03  0.50400001928E-02 0. -1.
        1   -1    0    0  501    0  0.00000000000E+00  0.00000000000E+00 -0.14458348260E+04  0.14458348260E+04  0.50400001928E-02 0.  1.
    10030    2    1    2    0    0  0.00000000000E+00  0.00000000000E+00 -0.51956017003E+03  0.23721094820E+04  0.23145108823E+04 0.  0.
        3    1    3    3  502    0 -0.51980895205E+03  0.80044923015E+03 -0.93052840373E+03  0.13329679055E+04  0.10100000352E+00 0.  1.
       -3    1    3    3    0  502  0.51980895205E+03 -0.80044923015E+03  0.41096823370E+03  0.10391415765E+04  0.10100000352E+00 0. -1.
</event>
<event>
 5   0  0.2994157E-05  0.2290723E+04  0.7818609E-02  0.8481588E-01
       -2   -1    0    0    0  501  0.00000000000E+00  0.00000000000E+00  0.19370215227E+04  0.19370215227E+04  0.25500000920E-02 0.  1.
        2   -1    0    0  501    0  0.00000000000E+00  0.00000000000E+00 -0.67725265307E+03  0.67725265308E+03  0.25500000920E-02 0. -1.
    10030    2    1    2    0    0  0.00000000000E+00  0.00000000000E+00  0.12597688696E+04  0.26142741758E+04  0.22907229997E+04 0.  0.
        4    1    3    3  502    0 -0.51320727731E+03 -0.26628259032E+03  0.17582530143E+04  0.18508763877E+04  0.12699999809E+01 0.  1.
       -4    1    3    3    0  502  0.51320727731E+03  0.26628259032E+03 -0.49848414469E+03  0.76339778805E+03  0.12699999809E+01 0. -1.
</event>
<event>
 5   0  0.1371753E-05  0.2151368E+04  0.7818609E-02  0.8538947E-01
       -1   -1    0    0    0  501  0.00000000000E+00  0.00000000000E+00  0.64554877208E+03  0.64554877210E+03  0.50400001928E-02 0.  1.
        1   -1    0    0  501    0  0.00000000000E+00  0.00000000000E+00 -0.17924225999E+04  0.17924225999E+04  0.50400001928E-02 0. -1.
    10030    2    1    2    0    0  0.00000000000E+00  0.00000000000E+00 -0.11468738278E+04  0.24379713720E+04  0.21513681307E+04 0.  0.
        3    1    3    3  502    0  0.88507070649E+03  0.41638585168E+03 -0.10806950132E+04  0.14576107349E+04  0.10100000352E+00 0. -1.
       -3    1    3    3    0  502 -0.88507070649E+03 -0.41638585168E+03 -0.66178814643E+02  0.98036063704E+03  0.10100000352E+00 0.  1.
</event>
<event>
 5   0  0.1371753E-05  0.2296889E+04  0.7818609E-02  0.8479149E-01
        1   -1    0    0  501    0  0.00000000000E+00  0.00000000000E+00  0.10339809265E+04  0.10339809265E+04  0.50400001928E-02 0. -1.
       -1   -1    0    0    0  501  0.00000000000E+00  0.00000000000E+00 -0.12755789178E+04  0.12755789178E+04  0.50400001928E-02 0.  1.
    10030    2    1    2    0    0  0.00000000000E+00  0.00000000000E+00 -0.24159799126E+03  0.23095598443E+04  0.22968885661E+04 0.  0.
        3    1    3    3  502    0  0.11402799950E+04  0.12834565851E+03 -0.16810303762E+03  0.11597282943E+04  0.10100000352E+00 0.  1.
       -3    1    3    3    0  502 -0.11402799950E+04 -0.12834565851E+03 -0.73494953647E+02  0.11498315501E+04  0.10100000352E+00 0. -1.
</event>
<event>
 5   0  0.2871888E-05  0.2307295E+04  0.7818609E-02  0.8475050E-01
       -2   -1    0    0    0  501  0.00000000000E+00  0.00000000000E+00  0.67195878058E+03  0.67195878058E+03  0.25500000920E-02 0.  1.
        2   -1    0    0  501    0  0.00000000000E+00  0.00000000000E+00 -0.19806312978E+04  0.19806312978E+04  0.25500000920E-02 0. -1.
    10030    2    1    2    0    0  0.00000000000E+00  0.00000000000E+00 -0.13086725172E+04  0.26525900784E+04  0.23072950324E+04 0.  0.
        3    1    3    3  502    0 -0.93452853140E+03 -0.25393294302E+03 -0.13751214620E+04  0.16818990935E+04  0.10100000352E+00 0. -1.
       -3    1    3    3    0  502  0.93452853140E+03  0.25393294302E+03  0.66448944750E+02  0.97069098482E+03  0.10100000352E+00 0.  1.
</event>
<event>
 5   0  0.1284837E-05  0.2295652E+04  0.7818609E-02  0.8479637E-01
        1   -1    0    0  501    0  0.00000000000E+00  0.00000000000E+00  0.10107629529E+04  0.10107629529E+04  0.50400001928E-02 0.  1.
       -1   -1    0    0    0  501  0.00000000000E+00  0.00000000000E+00 -0.13034757688E+04  0.13034757688E+04  0.50400001928E-02 0. -1.
    10030    2    1    2    0    0  0.00000000000E+00  0.00000000000E+00 -0.29271281590E+03  0.23142387217E+04  0.22956524276E+04 0.  0.
        4    1    3    3  502    0 -0.76529303176E+03  0.31006080980E+03 -0.95011473989E+03  0.12587814592E+04  0.12699999809E+01 0. -1.
       -4    1    3    3    0  502  0.76529303176E+03 -0.31006080980E+03  0.65740192399E+03  0.10554572624E+04  0.12699999809E+01 0.  1.
</event>
<event>
 5   0  0.1371753E-05  0.2312687E+04  0.7818609E-02  0.8472936E-01
       -1   -1    0    0    0  501  0.00000000000E+00  0.00000000000E+00  0.67369676917E+03  0.67369676919E+03  0.50400001928E-02 0.  1.
        1   -1    0    0  501    0  0.00000000000E+00  0.00000000000E+00 -0.19847657004E+04  0.19847657004E+04  0.50400001928E-02 0. -1.
    10030    2    1    2    0    0  0.00000000000E+00  0.00000000000E+00 -0.13110689312E+04  0.26584624696E+04  0.23126869567E+04 0.  0.
        3    1    3    3  502    0 -0.41634017127E+03  0.10684476565E+04 -0.82684922317E+03  0.14137182113E+04  0.10100000352E+00 0.  1.
       -3    1    3    3    0  502  0.41634017127E+03 -0.10684476565E+04 -0.48421970808E+03  0.12447442584E+04  0.10100000352E+00 0. -1.
</event>
<event>
 5   0  0.2938972E-05  0.2298677E+04  0.7818609E-02  0.8478443E-01
       -2   -1    0    0    0  501  0.00000000000E+00  0.00000000000E+00  0.77291790014E+03  0.77291790015E+03  0.25500000920E-02 0. -1.
        2   -1    0    0  501    0  0.00000000000E+00  0.00000000000E+00 -0.17090804828E+04  0.17090804828E+04  0.25500000920E-02 0.  1.
    10030    2    1    2    0    0  0.00000000000E+00  0.00000000000E+00 -0.93616258268E+03  0.24819983830E+04  0.22986769220E+04 0.  0.
        2    1    3    3  502    0  0.70879366620E+03 -0.12971888645E+03  0.49874106636E+03  0.87633218703E+03  0.25500000920E-02 0. -1.
       -2    1    3    3    0  502 -0.70879366620E+03  0.12971888645E+03 -0.14349036490E+04  0.16056661959E+04  0.25500000920E-02 0.  1.
</event>
<event>
 5   0  0.1284837E-05  0.2299699E+04  0.7818609E-02  0.8478040E-01
        1   -1    0    0  501    0  0.00000000000E+00  0.00000000000E+00  0.92494729241E+03  0.92494729243E+03  0.50400001928E-02 0.  1.
       -1   -1    0    0    0  501  0.00000000000E+00  0.00000000000E+00 -0.14294367288E+04  0.14294367288E+04  0.50400001928E-02 0. -1.
    10030    2    1    2    0    0  0.00000000000E+00  0.00000000000E+00 -0.50448943636E+03  0.23543840212E+04  0.22996987907E+04 0.  0.
        4    1    3    3  502    0 -0.39024465779E+03 -0.89114390378E+03  0.37529413837E+03  0.10427251092E+04  0.12699999809E+01 0.  1.
       -4    1    3    3    0  502  0.39024465779E+03  0.89114390378E+03 -0.87978357473E+03  0.13116589120E+04  0.12699999809E+01 0. -1.
</event>
<event>
 5   0  0.2816178E-05  0.2304183E+04  0.7818609E-02  0.8476274E-01
        2   -1    0    0  501    0  0.00000000000E+00  0.00000000000E+00  0.17795341655E+04  0.17795341655E+04  0.25500000920E-02 0. -1.
       -2   -1    0    0    0  501  0.00000000000E+00  0.00000000000E+00 -0.74587790351E+03  0.74587790351E+03  0.25500000920E-02 0.  1.
    10030    2    1    2    0    0  0.00000000000E+00  0.00000000000E+00  0.10336562620E+04  0.25254120690E+04  0.23041833370E+04 0.  0.
        1    1    3    3  502    0  0.65885672117E+03  0.89349087742E+03  0.85445861967E+03  0.14008988757E+04  0.50400001928E-02 0. -1.
       -1    1    3    3    0  502 -0.65885672117E+03 -0.89349087742E+03  0.17919764236E+03  0.11245131934E+04  0.50400001928E-02 0.  1.
</event>
<event>
 5   0  0.1303224E-05  0.2290511E+04  0.7818609E-02  0.8481672E-01
       -1   -1    0    0    0  501  0.00000000000E+00  0.00000000000E+00  0.16752749897E+04  0.16752749897E+04  0.50400001928E-02 0. -1.
        1   -1    0    0  501    0  0.00000000000E+00  0.00000000000E+00 -0.78292256968E+03  0.78292256969E+03  0.50400001928E-02 0.  1.
    10030    2    1    2    0    0  0.00000000000E+00  0.00000000000E+00  0.89235242006E+03  0.24581975594E+04  0.22905113839E+04 0.  0.
        2    1    3    3  502    0 -0.36231711037E+03  0.10694311804E+04  0.24070820804E+03  0.11545116628E+04  0.25500000920E-02 0.  1.
       -2    1    3    3    0  502  0.36231711037E+03 -0.10694311804E+04  0.65164421202E+03  0.13036858967E+04  0.25500000920E-02 0. -1.
</event>
<event>
 5   0  0.1284837E-05  0.2320475E+04  0.7818609E-02  0.8469892E-01
        1   -1    0    0  501    0  0.00000000000E+00  0.00000000000E+00  0.12613731885E+04  0.12613731885E+04  0.50400001928E-02 0.  1.
       -1   -1    0    0    0  501  0.00000000000E+00  0.00000000000E+00 -0.10672108874E+04  0.10672108874E+04  0.50400001928E-02 0. -1.
    10030    2    1    2    0    0  0.00000000000E+00  0.00000000000E+00  0.19416230113E+03  0.23285840760E+04  0.23204751237E+04 0.  0.
        4    1    3    3  502    0  0.39324395749E+03  0.99401017076E+03 -0.35555223403E+03  0.11265505021E+04  0.12699999809E+01 0. -1.
       -4    1    3    3    0  502 -0.39324395749E+03 -0.99401017076E+03  0.54971453517E+03  0.12020335739E+04  0.12699999809E+01 0.  1.
</event>
<event>
 5   0  0.2871888E-05  0.2313777E+04  0.7818609E-02  0.8472509E-01
       -2   -1    0    0    0  501  0.00000000000E+00  0.00000000000E+00  0.49818219737E+03  0.49818219738E+03  0.25500000920E-02 0. -1.
        2   -1    0    0  501    0  0.00000000000E+00  0.00000000000E+00 -0.26865503563E+04  0.26865503563E+04  0.25500000920E-02 0.  1.
    10030    2    1    2    0    0  0.00000000000E+00  0.00000000000E+00 -0.21883681589E+04  0.31847325537E+04  0.23137774827E+04 0.  0.
        3    1    3    3  502    0 -0.90835043173E+03 -0.47565960802E+03 -0.18316158021E+04  0.20990876652E+04  0.10100000352E+00 0. -1.
       -3    1    3    3    0  502  0.90835043173E+03  0.47565960802E+03 -0.35675235680E+03  0.10856448884E+04  0.10100000352E+00 0.  1.
</event>
<event>
 5   0  0.1371753E-05  0.2290614E+04  0.7818609E-02  0.8481631E-01
       -1   -1    0    0    0  501  0.00000000000E+00  0.00000000000E+00  0.88126250017E+03  0.88126250019E+03  0.50400001928E-02 0. -1.
        1   -1    0    0  501    0  0.00000000000E+00  0.00000000000E+00 -0.14884643491E+04  0.14884643491E+04  0.50400001928E-02 0.  1.
    10030    2    1    2    0    0  0.00000000000E+00  0.00000000000E+00 -0.60720184889E+03  0.23697268493E+04  0.22906137289E+04 0.  0.
        3    1    3    3  502    0  0.71695812969E+03 -0.63369945614E+02  0.61805749461E+03  0.94870426719E+03  0.10100000352E+00 0. -1.
       -3    1    3    3    0  502 -0.71695812969E+03  0.63369945614E+02 -0.12252593435E+04  0.14210225821E+04  0.10100000352E+00 0.  1.
</event>
<event>
 5   0  0.2938972E-05  0.2301951E+04  0.7818609E-02  0.8477152E-01
        2   -1    0    0  501    0  0.00000000000E+00  0.00000000000E+00  0.13169072983E+04  0.13169072983E+04  0.25500000920E-02 0.  1.
       -2   -1    0    0    0  501  0.00000000000E+00  0.00000000000E+00 -0.10059512496E+04  0.10059512496E+04  0.25500000920E-02 0. -1.
    10030    2    1    2    0    0  0.00000000000E+00  0.00000000000E+00  0.31095604862E+03  0.23228585479E+04  0.23019509485E+04 0.  0.
        2    1    3    3  502    0  0.33663822490E+02 -0.47357465235E+03 -0.90253834161E+03  0.10197949119E+04  0.25500000920E-02 0. -1.
       -2    1    3    3    0  502 -0.33663822490E+02  0.47357465235E+03  0.12134943902E+04  0.13030636360E+04  0.25500000920E-02 0.  1.
</event>
<event>
 5   0  0.2871888E-05  0.2344653E+04  0.7818609E-02  0.8460520E-01
       -2   -1    0    0    0  501  0.00000000000E+00  0.00000000000E+00  0.12563492847E+04  0.12563492847E+04  0.25500000920E-02 0. -1.
        2   -1    0    0  501    0  0.00000000000E+00  0.00000000000E+00 -0.10939226887E+04  0.10939226887E+04  0.25500000920E-02 0.  1.
    10030    2    1    2    0    0  0.00000000000E+00  0.00000000000E+00  0.16242659600E+03  0.23502719734E+04  0.23446526289E+04 0.  0.
        3    1    3    3  502    0  0.23751551833E+03  0.99533075944E+03  0.65464380055E+03  0.12147655979E+04  0.10100000352E+00 0. -1.
       -3    1    3    3    0  502 -0.23751551833E+03 -0.99533075944E+03 -0.49221720455E+03  0.11355063755E+04  0.10100000352E+00 0.  1.
</event>
<event>
 5   0  0.2938972E-05  0.2274308E+04  0.7818609E-02  0.8488121E-01
        2   -1    0    0  501    0  0.00000000000E+00  0.00000000000E+00  0.15317036358E+04  0.15317036358E+04  0.25500000920E-02 0.  1.
       -2   -1    0    0    0  501  0.00000000000E+00  0.00000000000E+00 -0.84423567329E+03  0.84423567329E+03  0.25500000920E-02 0. -1.
    10030    2    1    2    0    0  0.00000000000E+00  0.00000000000E+00  0.68746796251E+03  0.23759393091E+04  0.22743076751E+04 0.  0.
        2    1    3    3  502    0  0.10573098183E+04 -0.41838851203E+03  0.35718779972E+03  0.11918624599E+04  0.25500000920E-02 0.  1.
       -2    1    3    3    0  502 -0.10573098183E+04  0.41838851203E+03  0.33028016279E+03  0.11840768492E+04  0.25500000920E-02 0. -1.
</event>
<event>
 5   0  0.2938972E-05  0.2307652E+04  0.7818609E-02  0.8474910E-01
       -2   -1    0    0    0  501  0.00000000000E+00  0.00000000000E+00  0.83796725962E+03  0.83796725962E+03  0.25500000920E-02 0. -1.
        2   -1    0    0  501    0  0.00000000000E+00  0.00000000000E+00 -0.15887424232E+04  0.15887424232E+04  0.25500000920E-02 0.  1.
    10030    2    1    2    0    0  0.00000000000E+00  0.00000000000E+00 -0.75077516358E+03  0.24267096828E+04  0.23076517368E+04 0.  0.
        2    1    3    3  502    0 -0.10028227587E+04  0.16546099836E+03  0.19894311722E+03  0.10356684756E+04  0.25500000920E-02 0. -1.
       -2    1    3    3    0  502  0.10028227587E+04 -0.16546099836E+03 -0.94971828080E+03  0.13910412073E+04  0.25500000920E-02 0.  1.
</event>
<event>
 5   0  0.1308224E-05  0.2241037E+04  0.7818609E-02  0.8501539E-01
       -1   -1    0    0    0  501  0.00000000000E+00  0.00000000000E+00  0.41879562910E+03  0.41879562913E+03  0.50400001928E-02 0. -1.
        1   -1    0    0  501    0  0.00000000000E+00  0.00000000000E+00 -0.29980285125E+04  0.29980285125E+04  0.50400001928E-02 0.  1.
    10030    2    1    2    0    0  0.00000000000E+00  0.00000000000E+00 -0.25792328834E+04  0.34168241416E+04  0.22410365789E+04 0.  0.
        5    1    3    3  502    0  0.47192134908E+03  0.72966753125E+03 -0.23681625172E+04  0.25225662060E+04  0.46999998093E+01 0.  1.
       -5    1    3    3    0  502 -0.47192134908E+03 -0.72966753125E+03 -0.21107036616E+03  0.89425793558E+03  0.46999998093E+01 0. -1.
</event>
<event>
 5   0  0.1284837E-05  0.2292557E+04  0.7818609E-02  0.8480862E-01
       -1   -1    0    0    0  501  0.00000000000E+00  0.00000000000E+00  0.10510474448E+04  0.10510474448E+04  0.50400001928E-02 0. -1.
        1   -1    0    0  501    0  0.00000000000E+00  0.00000000000E+00 -0.12501379663E+04  0.12501379663E+04  0.50400001928E-02 0.  1.
    10030    2    1    2    0    0  0.00000000000E+00  0.00000000000E+00 -0.19909052155E+03  0.23011854111E+04  0.22925569264E+04 0.  0.
        4    1    3    3  502    0 -0.97794899818E+03  0.16446137529E+02  0.50044854437E+03  0.10986833379E+04  0.12699999809E+01 0. -1.
       -4    1    3    3    0  502  0.97794899818E+03 -0.16446137529E+02 -0.69953906592E+03  0.12025020732E+04  0.12699999809E+01 0.  1.
</event>
<event>
 5   0  0.2938972E-05  0.2253763E+04  0.7818609E-02  0.8496378E-01
        2   -1    0    0  501    0  0.00000000000E+00  0.00000000000E+00  0.12818439493E+04  0.12818439493E+04  0.25500000920E-02 0.  1.
       -2   -1    0    0    0  501  0.00000000000E+00  0.00000000000E+00 -0.99065261887E+03  0.99065261888E+03  0.25500000920E-02 0. -1.
    10030    2    1    2    0    0  0.00000000000E+00  0.00000000000E+00  0.29119133047E+03  0.22724965682E+04  0.22537631334E+04 0.  0.
        2    1    3    3  502    0  0.63606902757E+03 -0.52801996390E+03  0.91777654176E+03  0.12351933738E+04  0.25500000920E-02 0.  1.
       -2    1    3    3    0  502 -0.63606902757E+03  0.52801996390E+03 -0.62658521129E+03  0.10373031944E+04  0.25500000920E-02 0. -1.
</event>
<event>
 5   0  0.2938972E-05  0.2301300E+04  0.7818609E-02  0.8477409E-01
        2   -1    0    0  501    0  0.00000000000E+00  0.00000000000E+00  0.10175257173E+04  0.10175257173E+04  0.25500000920E-02 0.  1.
       -2   -1    0    0    0  501  0.00000000000E+00  0.00000000000E+00 -0.13011914774E+04  0.13011914774E+04  0.25500000920E-02 0. -1.
    10030    2    1    2    0    0  0.00000000000E+00  0.00000000000E+00 -0.28366576006E+03  0.23187171947E+04  0.23013003206E+04 0.  0.
        2    1    3    3  502    0  0.94716708202E+03 -0.64851681711E+03 -0.22178231538E+03  0.11691394009E+04  0.25500000920E-02 0. -1.
       -2    1    3    3    0  502 -0.94716708202E+03  0.64851681711E+03 -0.61883444685E+02  0.11495777938E+04  0.25500000920E-02 0.  1.
</event>
<event>
 5   0  0.2871888E-05  0.2281985E+04  0.7818609E-02  0.8485058E-01
       -2   -1    0    0    0  501  0.00000000000E+00  0.00000000000E+00  0.15657802646E+04  0.15657802646E+04  0.25500000920E-02 0.  1.
        2   -1    0    0  501    0  0.00000000000E+00  0.00000000000E+00 -0.83144701325E+03  0.83144701326E+03  0.25500000920E-02 0. -1.
    10030    2    1    2    0    0  0.00000000000E+00  0.00000000000E+00  0.73433325132E+03  0.23972272778E+04  0.22819845086E+04 0.  0.
        3    1    3    3  502    0 -0.10576419627E+03  0.11192807557E+04  0.16268869731E+03  0.11359767153E+04  0.10100000352E+00 0. -1.
       -3    1    3    3    0  502  0.10576419627E+03 -0.11192807557E+04  0.57164455402E+03  0.12612505626E+04  0.10100000352E+00 0.  1.
</event>
<event>
 5   0  0.1303224E-05  0.2294778E+04  0.7818609E-02  0.8479983E-01
       -1   -1    0    0    0  501  0.00000000000E+00  0.00000000000E+00  0.86824485757E+03  0.86824485759E+03  0.50400001928E-02 0.  1.
        1   -1    0    0  501    0  0.00000000000E+00  0.00000000000E+00 -0.15162793695E+04  0.15162793695E+04  0.50400001928E-02 0. -1.
    10030    2    1    2    0    0  0.00000000000E+00  0.00000000000E+00 -0.64803451194E+03  0.23845242271E+04  0.22947782161E+04 0.  0.
        2    1    3    3  502    0  0.47163441726E+03 -0.54271333799E+03  0.60511393121E+03  0.93975510668E+03  0.25500000920E-02 0.  1.
       -2    1    3    3    0  502 -0.47163441726E+03  0.54271333799E+03 -0.12531484431E+04  0.14447691204E+04  0.25500000920E-02 0. -1.
</event>
<event>
 5   0  0.1327820E-05  0.2276865E+04  0.7818609E-02  0.8487099E-01
       -1   -1    0    0    0  501  0.00000000000E+00  0.00000000000E+00  0.80079456898E+03  0.80079456899E+03  0.50400001928E-02 0.  1.
        1   -1    0    0  501    0  0.00000000000E+00  0.00000000000E+00 -0.16184289614E+04  0.16184289614E+04  0.50400001928E-02 0. -1.
    10030    2    1    2    0    0  0.00000000000E+00  0.00000000000E+00 -0.81763439246E+03  0.24192235304E+04  0.22768654968E+04 0.  0.
        1    1    3    3  502    0  0.61154083042E+03  0.92882933589E+03 -0.66760879594E+03  0.12970765694E+04  0.50400001928E-02 0. -1.
       -1    1    3    3    0  502 -0.61154083042E+03 -0.92882933589E+03 -0.15002559652E+03  0.11221469610E+04  0.50400001928E-02 0.  1.
</event>
<event>
 5   0  0.2938972E-05  0.2286620E+04  0.7818609E-02  0.8483216E-01
        2   -1    0    0  501    0  0.00000000000E+00  0.00000000000E+00  0.13932694444E+04  0.13932694444E+04  0.25500000920E-02 0. -1.
       -2   -1    0    0    0  501  0.00000000000E+00  0.00000000000E+00 -0.93819416345E+03  0.93819416345E+03  0.25500000920E-02 0.  1.
    10030    2    1    2    0    0  0.00000000000E+00  0.00000000000E+00  0.45507528095E+03  0.23314636079E+04  0.22866195668E+04 0.  0.
        2    1    3    3  502    0 -0.70662248867E+02 -0.83141248673E+03 -0.56940298666E+03  0.10101780228E+04  0.25500000920E-02 0.  1.
       -2    1    3    3    0  502  0.70662248867E+02  0.83141248673E+03  0.10244782676E+04  0.13212855851E+04  0.25500000920E-02 0. -1.
</event>
<event>
 5   0  0.2910126E-05  0.2301590E+04  0.7818609E-02  0.8477294E-01
       -2   -1    0    0    0  501  0.00000000000E+00  0.00000000000E+00  0.10590403050E+04  0.10590403050E+04  0.25500000920E-02 0.  1.
        2   -1    0    0  501    0  0.00000000000E+00  0.00000000000E+00 -0.12504997111E+04  0.12504997111E+04  0.25500000920E-02 0. -1.
    10030    2    1    2    0    0  0.00000000000E+00  0.00000000000E+00 -0.19145940609E+03  0.23095400160E+04  0.23015904026E+04 0.  0.
        5    1    3    3  502    0  0.46023616637E+03  0.10270119213E+04  0.14538483384E+03  0.11347817655E+04  0.46999998093E+01 0.  1.
       -5    1    3    3    0  502 -0.46023616637E+03 -0.10270119213E+04 -0.33684423993E+03  0.11747582506E+04  0.46999998093E+01 0. -1.
</event>
<event>
 5   0  0.1017200E-05  0.2337259E+04  0.7818609E-02  0.8463374E-01
        4   -1    0    0  501    0  0.00000000000E+00  0.00000000000E+00  0.14124667015E+04  0.14124672724E+04  0.12699999809E+01 0. -1.
       -4   -1    0    0    0  501  0.00000000000E+00  0.00000000000E+00 -0.96688551098E+03  0.96688634505E+03  0.12699999809E+01 0.  1.
    10030    2    1    2    0    0  0.00000000000E+00  0.00000000000E+00  0.44558119049E+03  0.23793536175E+04  0.23372593009E+04 0.  0.
        5    1    3    3  502    0 -0.36246950629E+03  0.44901256822E+03  0.12572996405E+04  0.13834091605E+04  0.46999998093E+01 0. -1.
       -5    1    3    3    0  502  0.36246950629E+03 -0.44901256822E+03 -0.81171844997E+03  0.99594445700E+03  0.46999998093E+01 0.  1.
</event>
<event>
 5   0  0.1308224E-05  0.2286109E+04  0.7818609E-02  0.8483418E-01
       -1   -1    0    0    0  501  0.00000000000E+00  0.00000000000E+00  0.54530309803E+03  0.54530309805E+03  0.50400001928E-02 0. -1.
        1   -1    0    0  501    0  0.00000000000E+00  0.00000000000E+00 -0.23960501697E+04  0.23960501697E+04  0.50400001928E-02 0.  1.
    10030    2    1    2    0    0  0.00000000000E+00  0.00000000000E+00 -0.18507470716E+04  0.29413532677E+04  0.22861089918E+04 0.  0.
        5    1    3    3  502    0 -0.42782052614E+03 -0.10323929998E+04 -0.61635491600E+03  0.12762371179E+04  0.46999998093E+01 0. -1.
       -5    1    3    3    0  502  0.42782052614E+03  0.10323929998E+04 -0.12343921556E+04  0.16651161499E+04  0.46999998093E+01 0.  1.
</event>
<event>
 5   0  0.2994157E-05  0.2294514E+04  0.7818609E-02  0.8480087E-01
       -2   -1    0    0    0  501  0.00000000000E+00  0.00000000000E+00  0.90507369092E+03  0.90507369092E+03  0.25500000920E-02 0. -1.
        2   -1    0    0  501    0  0.00000000000E+00  0.00000000000E+00 -0.14542443600E+04  0.14542443600E+04  0.25500000920E-02 0.  1.
    10030    2    1    2    0    0  0.00000000000E+00  0.00000000000E+00 -0.54917066910E+03  0.23593180509E+04  0.22945137266E+04 0.  0.
        4    1    3    3  502    0 -0.35621832981E+03 -0.30852148901E+03 -0.13501294963E+04  0.14300098871E+04  0.12699999809E+01 0.  1.
       -4    1    3    3    0  502  0.35621832981E+03  0.30852148901E+03  0.80095882715E+03  0.92930816384E+03  0.12699999809E+01 0. -1.
</event>
<event>
 5   0  0.1371753E-05  0.2298040E+04  0.7818609E-02  0.8478694E-01
       -1   -1    0    0    0  501  0.00000000000E+00  0.00000000000E+00  0.14371330298E+04  0.14371330298E+04  0.50400001928E-02 0. -1.
        1   -1    0    0  501    0  0.00000000000E+00  0.00000000000E+00 -0.91866717414E+03  0.91866717415E+03  0.50400001928E-02 0.  1.
    10030    2    1    2    0    0  0.00000000000E+00  0.00000000000E+00  0.51846585565E+03  0.23558002039E+04  0.22980399817E+04 0.  0.
        3    1    3    3  502    0  0.35460915518E+03 -0.24779190363E+02  0.13793467883E+04  0.14244154007E+04  0.10100000352E+00 0. -1.
       -3    1    3    3    0  502 -0.35460915518E+03  0.24779190363E+02 -0.86088093267E+03  0.93138480321E+03  0.10100000352E+00 0.  1.
</event>
<event>
 5   0  0.1303224E-05  0.2288750E+04  0.7818609E-02  0.8482370E-01
       -1   -1    0    0    0  501  0.00000000000E+00  0.00000000000E+00  0.16443281342E+04  0.16443281342E+04  0.50400001928E-02 0.  1.
        1   -1    0    0  501    0  0.00000000000E+00  0.00000000000E+00 -0.79643091497E+03  0.79643091498E+03  0.50400001928E-02 0. -1.
    10030    2    1    2    0    0  0.00000000000E+00  0.00000000000E+00  0.84789721920E+03  0.24407590492E+04  0.22887496678E+04 0.  0.
        2    1    3    3  502    0 -0.52833111369E+03  0.72320024542E+03  0.11836091394E+04  0.14842785977E+04  0.25500000920E-02 0. -1.
       -2    1    3    3    0  502  0.52833111369E+03 -0.72320024542E+03 -0.33571192021E+03  0.95648045147E+03  0.25500000920E-02 0.  1.
</event>
<event>
 5   0  0.2938972E-05  0.2280317E+04  0.7818609E-02  0.8485723E-01
       -2   -1    0    0    0  501  0.00000000000E+00  0.00000000000E+00  0.91329189865E+03  0.91329189866E+03  0.25500000920E-02 0. -1.
        2   -1    0    0  501    0  0.00000000000E+00  0.00000000000E+00 -0.14233796886E+04  0.14233796886E+04  0.25500000920E-02 0.  1.
    10030    2    1    2    0    0  0.00000000000E+00  0.00000000000E+00 -0.51008778996E+03  0.23366715873E+04  0.22803167660E+04 0.  0.
        2    1    3    3  502    0  0.51348987134E+03  0.98151619357E+03  0.21657716395E+02  0.11079327339E+04  0.25500000920E-02 0. -1.
       -2    1    3    3    0  502 -0.51348987134E+03 -0.98151619357E+03 -0.53174550636E+03  0.12287388534E+04  0.25500000920E-02 0.  1.
</event>
<event>
 5   0  0.2871888E-05  0.2296720E+04  0.7818609E-02  0.8479216E-01
       -2   -1    0    0    0  501  0.00000000000E+00  0.00000000000E+00  0.14449748656E+04  0.14449748656E+04  0.25500000920E-02 0. -1.
        2   -1    0    0  501    0  0.00000000000E+00  0.00000000000E+00 -0.91263201681E+03  0.91263201682E+03  0.25500000920E-02 0.  1.
    10030    2    1    2    0    0  0.00000000000E+00  0.00000000000E+00  0.53234284877E+03  0.23576068824E+04  0.22967196832E+04 0.  0.
        3    1    3    3  502    0  0.71201288078E+03  0.83041330727E+03 -0.92640197973E+02  0.10977845052E+04  0.10100000352E+00 0.  1.
       -3    1    3    3    0  502 -0.71201288078E+03 -0.83041330727E+03  0.62498304675E+03  0.12598223772E+04  0.10100000352E+00 0. -1.
</event>
<event>
 5   0  0.1284837E-05  0.2299235E+04  0.7818609E-02  0.8478223E-01
        1   -1    0    0  501    0  0.00000000000E+00  0.00000000000E+00  0.16189816190E+04  0.16189816191E+04  0.50400001928E-02 0.  1.
       -1   -1    0    0    0  501  0.00000000000E+00  0.00000000000E+00 -0.81632812838E+03  0.81632812839E+03  0.50400001928E-02 0. -1.
    10030    2    1    2    0    0  0.00000000000E+00  0.00000000000E+00  0.80265349067E+03  0.24353097475E+04  0.22992348597E+04 0.  0.
        4    1    3    3  502    0  0.63397769281E+02  0.92138130831E+03  0.11264267092E+04  0.14566404967E+04  0.12699999809E+01 0.  1.
       -4    1    3    3    0  502 -0.63397769281E+02 -0.92138130831E+03 -0.32377321854E+03  0.97866925077E+03  0.12699999809E+01 0. -1.
</event>
<event>
 5   0  0.2871888E-05  0.2105461E+04  0.7818609E-02  0.8558842E-01
       -2   -1    0    0    0  501  0.00000000000E+00  0.00000000000E+00  0.53655134941E+03  0.53655134941E+03  0.25500000920E-02 0.  1.
        2   -1    0    0  501    0  0.00000000000E+00  0.00000000000E+00 -0.20654894786E+04  0.20654894786E+04  0.25500000920E-02 0. -1.
    10030    2    1    2    0    0  0.00000000000E+00  0.00000000000E+00 -0.15289381292E+04  0.26020408280E+04  0.21054606783E+04 0.  0.
        3    1    3    3  502    0 -0.71892492063E+03  0.35120423245E+03  0.81024243911E+02  0.80421538949E+03  0.10100000352E+00 0.  1.
       -3    1    3    3    0  502  0.71892492063E+03 -0.35120423245E+03 -0.16099623731E+04  0.17978254385E+04  0.10100000352E+00 0. -1.
</event>
<event>
 5   0  0.1371753E-05  0.2285413E+04  0.7818609E-02  0.8483695E-01
        1   -1    0    0  501    0  0.00000000000E+00  0.00000000000E+00  0.19869511852E+04  0.19869511852E+04  0.50400001928E-02 0.  1.
       -1   -1    0    0    0  501  0.00000000000E+00  0.00000000000E+00 -0.65717658128E+03  0.65717658130E+03  0.50400001928E-02 0. -1.
    10030    2    1    2    0    0  0.00000000000E+00  0.00000000000E+00  0.13297746040E+04  0.26441277665E+04  0.22854126867E+04 0.  0.
        3    1    3    3  502    0  0.74709571657E+03 -0.86342132490E+03  0.61149917490E+03  0.12952141310E+04  0.10100000352E+00 0.  1.
       -3    1    3    3    0  502 -0.74709571657E+03  0.86342132490E+03  0.71827542905E+03  0.13489136356E+04  0.10100000352E+00 0. -1.
</event>
<event>
 5   0  0.2938972E-05  0.2276536E+04  0.7818609E-02  0.8487230E-01
       -2   -1    0    0    0  501  0.00000000000E+00  0.00000000000E+00  0.71731840791E+03  0.71731840792E+03  0.25500000920E-02 0.  1.
        2   -1    0    0  501    0  0.00000000000E+00  0.00000000000E+00 -0.18062474673E+04  0.18062474673E+04  0.25500000920E-02 0. -1.
    10030    2    1    2    0    0  0.00000000000E+00  0.00000000000E+00 -0.10889290594E+04  0.25235658753E+04  0.22765364549E+04 0.  0.
        2    1    3    3  502    0 -0.59350102865E+03 -0.57865680657E+02  0.53031264765E+03  0.79801216298E+03  0.25500000920E-02 0.  1.
       -2    1    3    3    0  502  0.59350102865E+03  0.57865680657E+02 -0.16192417071E+04  0.17255537123E+04  0.25500000920E-02 0. -1.
</event>
<event>
 5   0  0.2871888E-05  0.2213023E+04  0.7818609E-02  0.8513027E-01
        2   -1    0    0  501    0  0.00000000000E+00  0.00000000000E+00  0.13176246846E+04  0.13176246846E+04  0.25500000920E-02 0.  1.
       -2   -1    0    0    0  501  0.00000000000E+00  0.00000000000E+00 -0.92922311807E+03  0.92922311807E+03  0.25500000920E-02 0. -1.
    10030    2    1    2    0    0  0.00000000000E+00  0.00000000000E+00  0.38840156649E+03  0.22468478026E+04  0.22130226550E+04 0.  0.
        3    1    3    3  502    0 -0.78265236910E+03  0.55802875015E+03 -0.36228863134E+03  0.10272263039E+04  0.10100000352E+00 0. -1.
       -3    1    3    3    0  502  0.78265236910E+03 -0.55802875015E+03  0.75069019783E+03  0.12196214987E+04  0.10100000352E+00 0.  1.
</event>
<event>
 5   0  0.2816178E-05  0.2293773E+04  0.7818609E-02  0.8480380E-01
        2   -1    0    0  501    0  0.00000000000E+00  0.00000000000E+00  0.16954388609E+04  0.16954388609E+04  0.25500000920E-02 0. -1.
       -2   -1    0    0    0  501  0.00000000000E+00  0.00000000000E+00 -0.77581590063E+03  0.77581590063E+03  0.25500000920E-02 0.  1.
    10030    2    1    2    0    0  0.00000000000E+00  0.00000000000E+00  0.91962296026E+03  0.24712547615E+04  0.22937728107E+04 0.  0.
        1    1    3    3  502    0  0.36457189038E+03  0.78781318784E+03 -0.34770729857E+03  0.93512707569E+03  0.50400001928E-02 0.  1.
       -1    1    3    3    0  502 -0.36457189038E+03 -0.78781318784E+03  0.12673302588E+04  0.15361276858E+04  0.50400001928E-02 0. -1.
</event>
<event>
 5   0  0.1327820E-05  0.2287547E+04  0.7818609E-02  0.8482847E-01
       -1   -1    0    0    0  501  0.00000000000E+00  0.00000000000E+00  0.84586444450E+03  0.84586444452E+03  0.50400001928E-02 0.  1.
        1   -1    0    0  501    0  0.00000000000E+00  0.00000000000E+00 -0.15466050662E+04  0.15466050662E+04  0.50400001928E-02 0. -1.
    10030    2    1    2    0    0  0.00000000000E+00  0.00000000000E+00 -0.70074062170E+03  0.23924695107E+04  0.22875473636E+04 0.  0.
        1    1    3    3  502    0  0.21035551009E+03 -0.11193250142E+04 -0.24027920956E+03  0.11639897021E+04  0.50400001928E-02 0.  1.
       -1    1    3    3    0  502 -0.21035551009E+03  0.11193250142E+04 -0.46046141214E+03  0.12284798086E+04  0.50400001928E-02 0. -1.
</event>
<event>
 5   0  0.2871888E-05  0.2319134E+04  0.7818609E-02  0.8470415E-01
        2   -1    0    0  501    0  0.00000000000E+00  0.00000000000E+00  0.85180516884E+03  0.85180516884E+03  0.25500000920E-02 0.  1.
       -2   -1    0    0    0  501  0.00000000000E+00  0.00000000000E+00 -0.15785253646E+04  0.15785253646E+04  0.25500000920E-02 0. -1.
    10030    2    1    2    0    0  0.00000000000E+00  0.00000000000E+00 -0.72672019571E+03  0.24303305334E+04  0.23191343770E+04 0.  0.
        3    1    3    3  502    0 -0.61112839813E+03 -0.81029814313E+02 -0.13925661257E+04  0.15229196218E+04  0.10100000352E+00 0. -1.
       -3    1    3    3    0  502  0.61112839813E+03  0.81029814313E+02  0.66584592999E+03  0.90741091160E+03  0.10100000352E+00 0.  1.
</event>
<event>
 5   0  0.1284837E-05  0.2305221E+04  0.7818609E-02  0.8475865E-01
        1   -1    0    0  501    0  0.00000000000E+00  0.00000000000E+00  0.10474602179E+04  0.10474602179E+04  0.50400001928E-02 0. -1.
       -1   -1    0    0    0  501  0.00000000000E+00  0.00000000000E+00 -0.12683161176E+04  0.12683161176E+04  0.50400001928E-02 0.  1.
    10030    2    1    2    0    0  0.00000000000E+00  0.00000000000E+00 -0.22085589969E+03  0.23157763355E+04  0.23052207503E+04 0.  0.
        4    1    3    3  502    0 -0.64773629039E+03  0.90928765785E+03 -0.39834582213E+03  0.11853469338E+04  0.12699999809E+01 0.  1.
       -4    1    3    3    0  502  0.64773629039E+03 -0.90928765785E+03  0.17748992244E+03  0.11304294016E+04  0.12699999809E+01 0. -1.
</event>
<event>
 5   0  0.2910126E-05  0.2288097E+04  0.7818609E-02  0.8482629E-01
        2   -1    0    0  501    0  0.00000000000E+00  0.00000000000E+00  0.15595011763E+04  0.15595011763E+04  0.25500000920E-02 0.  1.
       -2   -1    0    0    0  501  0.00000000000E+00  0.00000000000E+00 -0.83927261462E+03  0.83927261462E+03  0.25500000920E-02 0. -1.
    10030    2    1    2    0    0  0.00000000000E+00  0.00000000000E+00  0.72022856165E+03  0.23987737909E+04  0.22880967023E+04 0.  0.
        5    1    3    3  502    0  0.13088568059E+03  0.10830016107E+03  0.15461940309E+04  0.15555057240E+04  0.46999998093E+01 0.  1.
       -5    1    3    3    0  502 -0.13088568059E+03 -0.10830016107E+03 -0.82596546924E+03  0.84326806689E+03  0.46999998093E+01 0. -1.
</event>
<event>
 5   0  0.1284837E-05  0.2437575E+04  0.7818609E-02  0.8425569E-01
       -1   -1    0    0    0  501  0.00000000000E+00  0.00000000000E+00  0.63927198915E+03  0.63927198917E+03  0.50400001928E-02 0.  1.
        1   -1    0    0  501    0  0.00000000000E+00  0.00000000000E+00 -0.23236472994E+04  0.23236472994E+04  0.50400001928E-02 0. -1.
    10030    2    1    2    0    0  0.00000000000E+00  0.00000000000E+00 -0.16843753102E+04  0.29629192885E+04  0.24375747219E+04 0.  0.
        4    1    3    3  502    0  0.26104874775E+03  0.73172917099E+03 -0.19836548297E+04  0.21303666644E+04  0.12699999809E+01 0. -1.
       -4    1    3    3    0  502 -0.26104874775E+03 -0.73172917099E+03  0.29927951945E+03  0.83255262419E+03  0.12699999809E+01 0.  1.
</event>
<event>
 5   0  0.1308224E-05  0.2309705E+04  0.7818609E-02  0.8474105E-01
       -1   -1    0    0    0  501  0.00000000000E+00  0.00000000000E+00  0.12552583474E+04  0.12552583474E+04  0.50400001928E-02 0. -1.
        1   -1    0    0  501    0  0.00000000000E+00  0.00000000000E+00 -0.10624775925E+04  0.10624775925E+04  0.50400001928E-02 0.  1.
    10030    2    1    2    0    0  0.00000000000E+00  0.00000000000E+00  0.19278075490E+03  0.23177359399E+04  0.23097046278E+04 0.  0.
        5    1    3    3  502    0 -0.58427382201E+03 -0.97520962490E+02  0.10911878658E+04  0.12416115679E+04  0.46999998093E+01 0. -1.
       -5    1    3    3    0  502  0.58427382201E+03  0.97520962490E+02 -0.89840711086E+03  0.10761243720E+04  0.46999998093E+01 0.  1.
</event>
<event>
 5   0  0.2816178E-05  0.2292102E+04  0.7818609E-02  0.8481042E-01
       -2   -1    0    0    0  501  0.00000000000E+00  0.00000000000E+00  0.60933759051E+03  0.60933759052E+03  0.25500000920E-02 0. -1.
        2   -1    0    0  501    0  0.00000000000E+00  0.00000000000E+00 -0.21555097234E+04  0.21555097234E+04  0.25500000920E-02 0.  1.
    10030    2    1    2    0    0  0.00000000000E+00  0.00000000000E+00 -0.15461721329E+04  0.27648473139E+04  0.22921021803E+04 0.  0.
        1    1    3    3  502    0 -0.65569986080E+02 -0.88330169760E+03  0.10417489240E+03  0.89183727231E+03  0.50400001928E-02 0. -1.
       -1    1    3    3    0  502  0.65569986080E+02  0.88330169760E+03 -0.16503470253E+04  0.18730100416E+04  0.50400001928E-02 0.  1.
</event>
<event>
 5   0  0.2994157E-05  0.2318121E+04  0.7818609E-02  0.8470810E-01
        2   -1    0    0  501    0  0.00000000000E+00  0.00000000000E+00  0.14941134281E+04  0.14941134281E+04  0.25500000920E-02 0.  1.
       -2   -1    0    0    0  501  0.00000000000E+00  0.00000000000E+00 -0.89914265506E+03  0.89914265506E+03  0.25500000920E-02 0. -1.
    10030    2    1    2    0    0  0.00000000000E+00  0.00000000000E+00  0.59497077304E+03  0.23932560832E+04  0.23181208896E+04 0.  0.
        4    1    3    3  502    0  0.77956823556E+02  0.10296915286E+03 -0.89169006419E+03  0.90099539192E+03  0.12699999809E+01 0. -1.
       -4    1    3    3    0  502 -0.77956823556E+02 -0.10296915286E+03  0.14866608372E+04  0.14922606913E+04  0.12699999809E+01 0.  1.
</event>
<event>
 5   0  0.2871888E-05  0.2298072E+04  0.7818609E-02  0.8478682E-01
        2   -1    0    0  501    0  0.00000000000E+00  0.00000000000E+00  0.10379834626E+04  0.10379834626E+04  0.25500000920E-02 0. -1.
       -2   -1    0    0    0  501  0.00000000000E+00  0.00000000000E+00 -0.12719695620E+04  0.12719695620E+04  0.25500000920E-02 0.  1.
    10030    2    1    2    0    0  0.00000000000E+00  0.00000000000E+00 -0.23398609935E+03  0.23099530246E+04  0.22980716876E+04 0.  0.
        3    1    3    3  502    0  0.44546931141E+03 -0.28478836153E+03  0.90844605101E+03  0.10511049215E+04  0.10100000352E+00 0. -1.
       -3    1    3    3    0  502 -0.44546931141E+03  0.28478836153E+03 -0.11424321504E+04  0.12588481031E+04  0.10100000352E+00 0.  1.
</event>
<event>
 5   0  0.1284837E-05  0.2307227E+04  0.7818609E-02  0.8475077E-01
       -1   -1    0    0    0  501  0.00000000000E+00  0.00000000000E+00  0.60527905752E+03  0.60527905754E+03  0.50400001928E-02 0. -1.
        1   -1    0    0  501    0  0.00000000000E+00  0.00000000000E+00 -0.21986945434E+04  0.21986945434E+04  0.50400001928E-02 0.  1.
    10030    2    1    2    0    0  0.00000000000E+00  0.00000000000E+00 -0.15934154859E+04  0.28039736009E+04  0.23072266998E+04 0.  0.
        4    1    3    3  502    0  0.64877888570E+03  0.94870197916E+03 -0.67595395876E+03  0.13333659869E+04  0.12699999809E+01 0. -1.
       -4    1    3    3    0  502 -0.64877888570E+03 -0.94870197916E+03 -0.91746152712E+03  0.14706076140E+04  0.12699999809E+01 0.  1.
</event>
<event>
 5   0  0.1303224E-05  0.2305003E+04  0.7818609E-02  0.8475951E-01
       -1   -1    0    0    0  501  0.00000000000E+00  0.00000000000E+00  0.76276456034E+03  0.76276456036E+03  0.50400001928E-02 0. -1.
        1   -1    0    0  501    0  0.00000000000E+00  0.00000000000E+00 -0.17413757158E+04  0.17413757159E+04  0.50400001928E-02 0.  1.
    10030    2    1    2    0    0  0.00000000000E+00  0.00000000000E+00 -0.97861115550E+03  0.25041402762E+04  0.23050029781E+04 0.  0.
        2    1    3    3  502    0  0.34982709254E+03  0.73763315551E+03 -0.13730838707E+04  0.15974482724E+04  0.25500000920E-02 0.  1.
       -2    1    3    3    0  502 -0.34982709254E+03 -0.73763315551E+03  0.39447271523E+03  0.90669200386E+03  0.25500000920E-02 0. -1.
</event>
<event>
 5   0  0.2910126E-05  0.2293616E+04  0.7818609E-02  0.8480442E-01
       -2   -1    0    0    0  501  0.00000000000E+00  0.00000000000E+00  0.69977378515E+03  0.69977378516E+03  0.25500000920E-02 0.  1.
        2   -1    0    0  501    0  0.00000000000E+00  0.00000000000E+00 -0.18794195834E+04  0.18794195834E+04  0.25500000920E-02 0. -1.
    10030    2    1    2    0    0  0.00000000000E+00  0.00000000000E+00 -0.11796457983E+04  0.25791933686E+04  0.22936159712E+04 0.  0.
        5    1    3    3  502    0  0.40451410791E+03 -0.54521472763E+03  0.44951590669E+03  0.81423424338E+03  0.46999998093E+01 0.  1.
       -5    1    3    3    0  502 -0.40451410791E+03  0.54521472763E+03 -0.16291617050E+04  0.17649591252E+04  0.46999998093E+01 0. -1.
</event>
<event>
 5   0  0.1327820E-05  0.2279492E+04  0.7818609E-02  0.8486051E-01
       -1   -1    0    0    0  501  0.00000000000E+00  0.00000000000E+00  0.10091955944E+04  0.10091955945E+04  0.50400001928E-02 0. -1.
        1   -1    0    0  501    0  0.00000000000E+00  0.00000000000E+00 -0.12871846624E+04  0.12871846624E+04  0.50400001928E-02 0.  1.
    10030    2    1    2    0    0  0.00000000000E+00  0.00000000000E+00 -0.27798906795E+03  0.22963802569E+04  0.22794921281E+04 0.  0.
        1    1    3    3  502    0  0.10136556020E+04  0.11189970457E+02 -0.66381309431E+03  0.12117222120E+04  0.50400001928E-02 0.  1.
       -1    1    3    3    0  502 -0.10136556020E+04 -0.11189970457E+02  0.38582402636E+03  0.10846580448E+04  0.50400001928E-02 0. -1.
</event>
<event>
 5   0  0.2871888E-05  0.2298774E+04  0.7818609E-02  0.8478405E-01
       -2   -1    0    0    0  501  0.00000000000E+00  0.00000000000E+00  0.61384205485E+03  0.61384205486E+03  0.25500000920E-02 0.  1.
        2   -1    0    0  501    0  0.00000000000E+00  0.00000000000E+00 -0.21521674752E+04  0.21521674752E+04  0.25500000920E-02 0. -1.
    10030    2    1    2    0    0  0.00000000000E+00  0.00000000000E+00 -0.15383254203E+04  0.27660095301E+04  0.22987743738E+04 0.  0.
        3    1    3    3  502    0 -0.39115503841E+03 -0.10166669072E+04 -0.32791610112E+03  0.11376039926E+04  0.10100000352E+00 0.  1.
       -3    1    3    3    0  502  0.39115503841E+03  0.10166669072E+04 -0.12104093192E+04  0.16284055375E+04  0.10100000352E+00 0. -1.
</event>
<event>
 5   0  0.1303224E-05  0.2311098E+04  0.7818609E-02  0.8473558E-01
       -1   -1    0    0    0  501  0.00000000000E+00  0.00000000000E+00  0.11989977949E+04  0.11989977949E+04  0.50400001928E-02 0.  1.
        1   -1    0    0  501    0  0.00000000000E+00  0.00000000000E+00 -0.11136745457E+04  0.11136745457E+04  0.50400001928E-02 0. -1.
    10030    2    1    2    0    0  0.00000000000E+00  0.00000000000E+00  0.85323249216E+02  0.23126723407E+04  0.23110978557E+04 0.  0.
        2    1    3    3  502    0 -0.64329408282E+03 -0.16467516036E+03 -0.90368246821E+03  0.11214219495E+04  0.25500000920E-02 0. -1.
       -2    1    3    3    0  502  0.64329408282E+03  0.16467516036E+03  0.98900571742E+03  0.11912503912E+04  0.25500000920E-02 0.  1.
</event>
<event>
 5   0  0.1284837E-05  0.2356268E+04  0.7818609E-02  0.8456060E-01
        1   -1    0    0  501    0  0.00000000000E+00  0.00000000000E+00  0.83610968730E+03  0.83610968731E+03  0.50400001928E-02 0.  1.
       -1   -1    0    0    0  501  0.00000000000E+00  0.00000000000E+00 -0.16600696252E+04  0.16600696252E+04  0.50400001928E-02 0. -1.
    10030    2    1    2    0    0  0.00000000000E+00  0.00000000000E+00 -0.82395993790E+03  0.24961793125E+04  0.23562684866E+04 0.  0.
        4    1    3    3  502    0 -0.95966210443E+03 -0.32405682056E+02  0.31119378839E+03  0.10093783581E+04  0.12699999809E+01 0.  1.
       -4    1    3    3    0  502  0.95966210443E+03  0.32405682056E+02 -0.11351537263E+04  0.14868009544E+04  0.12699999809E+01 0. -1.
</event>
<event>
 5   0  0.1017200E-05  0.2294192E+04  0.7818609E-02  0.8480215E-01
        3   -1    0    0  501    0  0.00000000000E+00  0.00000000000E+00  0.20117770857E+04  0.20117770882E+04  0.10100000352E+00 0. -1.
       -3   -1    0    0    0  501  0.00000000000E+00  0.00000000000E+00 -0.65406307074E+03  0.65406307853E+03  0.10100000352E+00 0.  1.
    10030    2    1    2    0    0  0.00000000000E+00  0.00000000000E+00  0.13577140150E+04  0.26658401668E+04  0.22941918944E+04 0.  0.
        3    1    3    3  502    0  0.24084735020E+03 -0.78653017540E+03 -0.25015218412E+03  0.85977513824E+03  0.10100000352E+00 0.  1.
       -3    1    3    3    0  502 -0.24084735020E+03  0.78653017540E+03  0.16078661991E+04  0.18060650285E+04  0.10100000352E+00 0. -1.
</event>
<event>
 5   0  0.2994157E-05  0.2300310E+04  0.7818609E-02  0.8477799E-01
        2   -1    0    0  501    0  0.00000000000E+00  0.00000000000E+00  0.10447979514E+04  0.10447979514E+04  0.25500000920E-02 0. -1.
       -2   -1    0    0    0  501  0.00000000000E+00  0.00000000000E+00 -0.12661361869E+04  0.12661361869E+04  0.25500000920E-02 0.  1.
    10030    2    1    2    0    0  0.00000000000E+00  0.00000000000E+00 -0.22133823556E+03  0.23109341383E+04  0.23003099741E+04 0.  0.
        4    1    3    3  502    0 -0.58988028665E+03 -0.95640248068E+03 -0.35713959507E+03  0.11790736876E+04  0.12699999809E+01 0. -1.
       -4    1    3    3    0  502  0.58988028665E+03  0.95640248068E+03  0.13580135951E+03  0.11318604507E+04  0.12699999809E+01 0.  1.
</event>
<event>
 5   0  0.1308224E-05  0.2352803E+04  0.7818609E-02  0.8457388E-01
        1   -1    0    0  501    0  0.00000000000E+00  0.00000000000E+00  0.59970182134E+03  0.59970182136E+03  0.50400001928E-02 0. -1.
       -1   -1    0    0    0  501  0.00000000000E+00  0.00000000000E+00 -0.23076802021E+04  0.23076802021E+04  0.50400001928E-02 0.  1.
    10030    2    1    2    0    0  0.00000000000E+00  0.00000000000E+00 -0.17079783808E+04  0.29073820235E+04  0.23528026014E+04 0.  0.
        5    1    3    3  502    0  0.14762313006E+03  0.95868653383E+03 -0.31498563454E+02  0.97050847919E+03  0.46999998093E+01 0. -1.
       -5    1    3    3    0  502 -0.14762313006E+03 -0.95868653383E+03 -0.16764798173E+04  0.19368735443E+04  0.46999998093E+01 0.  1.
</event>
<event>
 5   0  0.2938972E-05  0.2314764E+04  0.7818609E-02  0.8472123E-01
       -2   -1    0    0    0  501  0.00000000000E+00  0.00000000000E+00  0.66922993362E+03  0.66922993363E+03  0.25500000920E-02 0.  1.
        2   -1    0    0  501    0  0.00000000000E+00  0.00000000000E+00 -0.20016030886E+04  0.20016030886E+04  0.25500000920E-02 0. -1.
    10030    2    1    2    0    0  0.00000000000E+00  0.00000000000E+00 -0.13323731550E+04  0.26708330222E+04  0.23147636615E+04 0.  0.
        2    1    3    3  502    0 -0.16150902826E+03 -0.11129617351E+04 -0.98167651314E+03  0.14928019850E+04  0.25500000920E-02 0. -1.
       -2    1    3    3    0  502  0.16150902826E+03  0.11129617351E+04 -0.35069664183E+03  0.11780310372E+04  0.25500000920E-02 0.  1.
</event>
<event>
 5   0  0.1284837E-05  0.2302650E+04  0.7818609E-02  0.8476877E-01
       -1   -1    0    0    0  501  0.00000000000E+00  0.00000000000E+00  0.12034602022E+04  0.12034602022E+04  0.50400001928E-02 0. -1.
        1   -1    0    0  501    0  0.00000000000E+00  0.00000000000E+00 -0.11014483953E+04  0.11014483953E+04  0.50400001928E-02 0.  1.
    10030    2    1    2    0    0  0.00000000000E+00  0.00000000000E+00  0.10201180689E+03  0.23049085974E+04  0.23026500459E+04 0.  0.
        4    1    3    3  502    0 -0.11266019476E+03  0.99141032197E+03 -0.52397979256E+03  0.11270062919E+04  0.12699999809E+01 0.  1.
       -4    1    3    3    0  502  0.11266019476E+03 -0.99141032197E+03  0.62599159945E+03  0.11779023056E+04  0.12699999809E+01 0. -1.
</event>
<event>
 5   0  0.1327820E-05  0.2288371E+04  0.7818609E-02  0.8482520E-01
        1   -1    0    0  501    0  0.00000000000E+00  0.00000000000E+00  0.13043256734E+04  0.13043256734E+04  0.50400001928E-02 0.  1.
       -1   -1    0    0    0  501  0.00000000000E+00  0.00000000000E+00 -0.10037071601E+04  0.10037071601E+04  0.50400001928E-02 0. -1.
    10030    2    1    2    0    0  0.00000000000E+00  0.00000000000E+00  0.30061851326E+03  0.23080328335E+04  0.22883714887E+04 0.  0.
        1    1    3    3  502    0  0.51301762566E+03  0.77045411139E+03 -0.52805735204E+03  0.10656599782E+04  0.50400001928E-02 0. -1.
       -1    1    3    3    0  502 -0.51301762566E+03 -0.77045411139E+03  0.82867586530E+03  0.12423728554E+04  0.50400001928E-02 0.  1.
</event>
<event>
 5   0  0.2938972E-05  0.2293469E+04  0.7818609E-02  0.8480501E-01
        2   -1    0    0  501    0  0.00000000000E+00  0.00000000000E+00  0.77847277742E+03  0.77847277742E+03  0.25500000920E-02 0. -1.
       -2   -1    0    0    0  501  0.00000000000E+00  0.00000000000E+00 -0.16892045252E+04  0.16892045252E+04  0.25500000920E-02 0.  1.
    10030    2    1    2    0    0  0.00000000000E+00  0.00000000000E+00 -0.91073174782E+03  0.24676773027E+04  0.22934687601E+04 0.  0.
        2    1    3    3  502    0 -0.45887710003E+03  0.21789267791E+03  0.65080863966E+03  0.82558906090E+03  0.25500000920E-02 0. -1.
       -2    1    3    3    0  502  0.45887710003E+03 -0.21789267791E+03 -0.15615403875E+04  0.16420882418E+04  0.25500000920E-02 0.  1.
</event>
<event>
 5   0  0.2816178E-05  0.2297676E+04  0.7818609E-02  0.8478838E-01
       -2   -1    0    0    0  501  0.00000000000E+00  0.00000000000E+00  0.13344588571E+04  0.13344588571E+04  0.25500000920E-02 0. -1.
        2   -1    0    0  501    0  0.00000000000E+00  0.00000000000E+00 -0.98903668447E+03  0.98903668447E+03  0.25500000920E-02 0.  1.
    10030    2    1    2    0    0  0.00000000000E+00  0.00000000000E+00  0.34542217265E+03  0.23234955416E+04  0.22976760116E+04 0.  0.
        1    1    3    3  502    0 -0.11348149343E+04 -0.13661680616E+03  0.55828172911E+02  0.11443713872E+04  0.50400001928E-02 0.  1.
       -1    1    3    3    0  502  0.11348149343E+04  0.13661680616E+03  0.28959399974E+03  0.11791241544E+04  0.50400001928E-02 0. -1.
</event>
<event>
 5   0  0.1303224E-05  0.2300883E+04  0.7818609E-02  0.8477573E-01
       -1   -1    0    0    0  501  0.00000000000E+00  0.00000000000E+00  0.11954442899E+04  0.11954442899E+04  0.50400001928E-02 0. -1.
        1   -1    0    0  501    0  0.00000000000E+00  0.00000000000E+00 -0.11071329389E+04  0.11071329389E+04  0.50400001928E-02 0.  1.
    10030    2    1    2    0    0  0.00000000000E+00  0.00000000000E+00  0.88311350956E+02  0.23025772288E+04  0.23008830913E+04 0.  0.
        2    1    3    3  502    0  0.47543844820E+03  0.30208171793E+03 -0.95968842162E+03  0.11127879173E+04  0.25500000920E-02 0.  1.
       -2    1    3    3    0  502 -0.47543844820E+03 -0.30208171793E+03  0.10479997726E+04  0.11897893115E+04  0.25500000920E-02 0. -1.
</event>
<event>
 5   0  0.1327820E-05  0.2359088E+04  0.7818609E-02  0.8454981E-01
        1   -1    0    0  501    0  0.00000000000E+00  0.00000000000E+00  0.15924113622E+04  0.15924113622E+04  0.50400001928E-02 0.  1.
       -1   -1    0    0    0  501  0.00000000000E+00  0.00000000000E+00 -0.87372174287E+03  0.87372174289E+03  0.50400001928E-02 0. -1.
    10030    2    1    2    0    0  0.00000000000E+00  0.00000000000E+00  0.71868961929E+03  0.24661331051E+04  0.23590883245E+04 0.  0.
        1    1    3    3  502    0 -0.68464933114E+03 -0.93397311012E+03  0.59373737493E+03  0.13013740997E+04  0.50400001928E-02 0.  1.
       -1    1    3    3    0  502  0.68464933114E+03  0.93397311012E+03  0.12495224435E+03  0.11647590053E+04  0.50400001928E-02 0. -1.
</event>
<event>
 5   0  0.1284837E-05  0.2303594E+04  0.7818609E-02  0.8476505E-01
        1   -1    0    0  501    0  0.00000000000E+00  0.00000000000E+00  0.26642458208E+04  0.26642458208E+04  0.50400001928E-02 0. -1.
       -1   -1    0    0    0  501  0.00000000000E+00  0.00000000000E+00 -0.49794074273E+03  0.49794074276E+03  0.50400001928E-02 0.  1.
    10030    2    1    2    0    0  0.00000000000E+00  0.00000000000E+00  0.21663050780E+04  0.31621865635E+04  0.23035941855E+04 0.  0.
        4    1    3    3  502    0  0.65595914731E+03 -0.41738409816E+03  0.22496750681E+04  0.23802376800E+04  0.12699999809E+01 0. -1.
       -4    1    3    3    0  502 -0.65595914731E+03  0.41738409816E+03 -0.83369990056E+02  0.78194888354E+03  0.12699999809E+01 0.  1.
</event>
<event>
 5   0  0.2994157E-05  0.2192711E+04  0.7818609E-02  0.8521468E-01
        2   -1    0    0  501    0  0.00000000000E+00  0.00000000000E+00  0.23694463659E+04  0.23694463659E+04  0.25500000920E-02 0.  1.
       -2   -1    0    0    0  501  0.00000000000E+00  0.00000000000E+00 -0.50728965596E+03  0.50728965597E+03  0.25500000920E-02 0. -1.
    10030    2    1    2    0    0  0.00000000000E+00  0.00000000000E+00  0.18621567099E+04  0.28767360219E+04  0.21927112275E+04 0.  0.
        4    1    3    3  502    0  0.70855115847E+03 -0.61969518296E+03  0.19366321586E+03  0.96102753240E+03  0.12699999809E+01 0. -1.
       -4    1    3    3    0  502 -0.70855115847E+03  0.61969518296E+03  0.16684934941E+04  0.19157084895E+04  0.12699999809E+01 0.  1.
</event>
<event>
 5   0  0.1371753E-05  0.2284113E+04  0.7818609E-02  0.8484212E-01
       -1   -1    0    0    0  501  0.00000000000E+00  0.00000000000E+00  0.12750177034E+04  0.12750177035E+04  0.50400001928E-02 0.  1.
        1   -1    0    0  501    0  0.00000000000E+00  0.00000000000E+00 -0.10229608853E+04  0.10229608853E+04  0.50400001928E-02 0. -1.
    10030    2    1    2    0    0  0.00000000000E+00  0.00000000000E+00  0.25205681813E+03  0.22979785888E+04  0.22841131660E+04 0.  0.
        3    1    3    3  502    0 -0.36792097785E+03 -0.10773948446E+04  0.35215683529E+02  0.11390283806E+04  0.10100000352E+00 0. -1.
       -3    1    3    3    0  502  0.36792097785E+03  0.10773948446E+04  0.21684113460E+03  0.11589502082E+04  0.10100000352E+00 0.  1.
</event>
<event>
 5   0  0.1327820E-05  0.2327760E+04  0.7818609E-02  0.8467055E-01
       -1   -1    0    0    0  501  0.00000000000E+00  0.00000000000E+00  0.80927776104E+03  0.80927776105E+03  0.50400001928E-02 0.  1.
        1   -1    0    0  501    0  0.00000000000E+00  0.00000000000E+00 -0.16738589792E+04  0.16738589792E+04  0.50400001928E-02 0. -1.
    10030    2    1    2    0    0  0.00000000000E+00  0.00000000000E+00 -0.86458121812E+03  0.24831367402E+04  0.23277601655E+04 0.  0.
        1    1    3    3  502    0  0.52247623007E+02  0.69777595431E+03 -0.14244224566E+04  0.15870099027E+04  0.50400001928E-02 0. -1.
       -1    1    3    3    0  502 -0.52247623007E+02 -0.69777595431E+03  0.55984123848E+03  0.89612683748E+03  0.50400001928E-02 0.  1.
</event>
<event>
 5   0  0.1327820E-05  0.2351119E+04  0.7818609E-02  0.8458034E-01
        1   -1    0    0  501    0  0.00000000000E+00  0.00000000000E+00  0.13322076714E+04  0.13322076714E+04  0.50400001928E-02 0. -1.
       -1   -1    0    0    0  501  0.00000000000E+00  0.00000000000E+00 -0.10373305787E+04  0.10373305787E+04  0.50400001928E-02 0.  1.
    10030    2    1    2    0    0  0.00000000000E+00  0.00000000000E+00  0.29487709269E+03  0.23695382501E+04  0.23511186739E+04 0.  0.
        1    1    3    3  502    0 -0.10074541462E+04  0.39279189550E+03  0.61223536003E+03  0.12426107459E+04  0.50400001928E-02 0. -1.
       -1    1    3    3    0  502  0.10074541462E+04 -0.39279189550E+03 -0.31735826734E+03  0.11269275042E+04  0.50400001928E-02 0.  1.
</event>
<event>
 5   0  0.2994157E-05  0.2149213E+04  0.7818609E-02  0.8539869E-01
       -2   -1    0    0    0  501  0.00000000000E+00  0.00000000000E+00  0.69234471159E+03  0.69234471159E+03  0.25500000920E-02 0.  1.
        2   -1    0    0  501    0  0.00000000000E+00  0.00000000000E+00 -0.16679253750E+04  0.16679253750E+04  0.25500000920E-02 0. -1.
    10030    2    1    2    0    0  0.00000000000E+00  0.00000000000E+00 -0.97558066339E+03  0.23602700866E+04  0.21492131702E+04 0.  0.
        4    1    3    3  502    0 -0.29138605142E+03  0.87468411860E+03  0.11851219486E+03  0.92952939250E+03  0.12699999809E+01 0.  1.
       -4    1    3    3    0  502  0.29138605142E+03 -0.87468411860E+03 -0.10940928582E+04  0.14307406941E+04  0.12699999809E+01 0. -1.
</event>
<event>
 5   0  0.2871888E-05  0.2280537E+04  0.7818609E-02  0.8485635E-01
        2   -1    0    0  501    0  0.00000000000E+00  0.00000000000E+00  0.15052823729E+04  0.15052823729E+04  0.25500000920E-02 0.  1.
       -2   -1    0    0    0  501  0.00000000000E+00  0.00000000000E+00 -0.86376629449E+03  0.86376629450E+03  0.25500000920E-02 0. -1.
    10030    2    1    2    0    0  0.00000000000E+00  0.00000000000E+00  0.64151607843E+03  0.23690486674E+04  0.22805369345E+04 0.  0.
        3    1    3    3  502    0  0.17813797934E+03  0.92890231106E+03 -0.34084318145E+03  0.10053689510E+04  0.10100000352E+00 0. -1.
       -3    1    3    3    0  502 -0.17813797934E+03 -0.92890231106E+03  0.98235925989E+03  0.13636797164E+04  0.10100000352E+00 0.  1.
</event>
<event>
 5   0  0.2910126E-05  0.2322670E+04  0.7818609E-02  0.8469036E-01
       -2   -1    0    0    0  501  0.00000000000E+00  0.00000000000E+00  0.34054214363E+04  0.34054214363E+04  0.25500000920E-02 0.  1.
        2   -1    0    0  501    0  0.00000000000E+00  0.00000000000E+00 -0.39604470407E+03  0.39604470408E+03  0.25500000920E-02 0. -1.
    10030    2    1    2    0    0  0.00000000000E+00  0.00000000000E+00  0.30093767323E+04  0.38014661404E+04  0.23226701229E+04 0.  0.
        5    1    3    3  502    0  0.24435047107E+03  0.56061461661E+03 -0.11113867926E+03  0.62158651618E+03  0.46999998093E+01 0. -1.
       -5    1    3    3    0  502 -0.24435047107E+03 -0.56061461661E+03  0.31205154115E+04  0.31798796242E+04  0.46999998093E+01 0.  1.
</event>
<event>
 5   0  0.2871888E-05  0.2307128E+04  0.7818609E-02  0.8475116E-01
        2   -1    0    0  501    0  0.00000000000E+00  0.00000000000E+00  0.12422959204E+04  0.12422959204E+04  0.25500000920E-02 0. -1.
       -2   -1    0    0    0  501  0.00000000000E+00  0.00000000000E+00 -0.10711699501E+04  0.10711699501E+04  0.25500000920E-02 0.  1.
    10030    2    1    2    0    0  0.00000000000E+00  0.00000000000E+00  0.17112597035E+03  0.23134658705E+04  0.23071281361E+04 0.  0.
        3    1    3    3  502    0  0.39376882087E+03 -0.17658824624E+03  0.11583020860E+04  0.12360829364E+04  0.10100000352E+00 0. -1.
       -3    1    3    3    0  502 -0.39376882087E+03  0.17658824624E+03 -0.98717611570E+03  0.10773829341E+04  0.10100000352E+00 0.  1.
</event>
<event>
 5   0  0.1308224E-05  0.2289926E+04  0.7818609E-02  0.8481904E-01
       -1   -1    0    0    0  501  0.00000000000E+00  0.00000000000E+00  0.79600731948E+03  0.79600731950E+03  0.50400001928E-02 0. -1.
        1   -1    0    0  501    0  0.00000000000E+00  0.00000000000E+00 -0.16468942413E+04  0.16468942413E+04  0.50400001928E-02 0.  1.
    10030    2    1    2    0    0  0.00000000000E+00  0.00000000000E+00 -0.85088692178E+03  0.24429015608E+04  0.22899256499E+04 0.  0.
        5    1    3    3  502    0  0.63424876798E+02  0.54591238077E+03  0.64608376186E+03  0.84822718644E+03  0.46999998093E+01 0. -1.
       -5    1    3    3    0  502 -0.63424876798E+02 -0.54591238077E+03 -0.14969706836E+04  0.15946743743E+04  0.46999998093E+01 0.  1.
</event>
<event>
 5   0  0.2910126E-05  0.2317716E+04  0.7818609E-02  0.8470968E-01
        2   -1    0    0  501    0  0.00000000000E+00  0.00000000000E+00  0.14653413918E+04  0.14653413918E+04  0.25500000920E-02 0. -1.
       -2   -1    0    0    0  501  0.00000000000E+00  0.00000000000E+00 -0.91647748867E+03  0.91647748868E+03  0.25500000920E-02 0.  1.
    10030    2    1    2    0    0  0.00000000000E+00  0.00000000000E+00  0.54886390315E+03  0.23818188805E+04  0.23177164614E+04 0.  0.
        5    1    3    3  502    0  0.86721570177E+03 -0.67184992826E+03  0.65823819969E+03  0.12793533589E+04  0.46999998093E+01 0. -1.
       -5    1    3    3    0  502 -0.86721570177E+03  0.67184992826E+03 -0.10937429654E+03  0.11024655216E+04  0.46999998093E+01 0.  1.
</event>
<event>
 5   0  0.2938972E-05  0.2297082E+04  0.7818609E-02  0.8479072E-01
       -2   -1    0    0    0  501  0.00000000000E+00  0.00000000000E+00  0.15735513385E+04  0.15735513385E+04  0.25500000920E-02 0.  1.
        2   -1    0    0  501    0  0.00000000000E+00  0.00000000000E+00 -0.83832459382E+03  0.83832459383E+03  0.25500000920E-02 0. -1.
    10030    2    1    2    0    0  0.00000000000E+00  0.00000000000E+00  0.73522674463E+03  0.24118759323E+04  0.22970823117E+04 0.  0.
        2    1    3    3  502    0  0.27227080054E+03 -0.40138529899E+03  0.14607490374E+04  0.15391651300E+04  0.25500000920E-02 0.  1.
       -2    1    3    3    0  502 -0.27227080054E+03  0.40138529899E+03 -0.72552229279E+03  0.87271080228E+03  0.25500000920E-02 0. -1.
</event>
<event>
 5   0  0.2910126E-05  0.2283608E+04  0.7818609E-02  0.8484412E-01
        2   -1    0    0  501    0  0.00000000000E+00  0.00000000000E+00  0.11987360872E+04  0.11987360872E+04  0.25500000920E-02 0. -1.
       -2   -1    0    0    0  501  0.00000000000E+00  0.00000000000E+00 -0.10875756566E+04  0.10875756566E+04  0.25500000920E-02 0.  1.
    10030    2    1    2    0    0  0.00000000000E+00  0.00000000000E+00  0.11116043065E+03  0.22863117438E+04  0.22836078360E+04 0.  0.
        5    1    3    3  502    0  0.98649321186E+03  0.56321644938E+03 -0.59936083155E+02  0.11375394718E+04  0.46999998093E+01 0.  1.
       -5    1    3    3    0  502 -0.98649321186E+03 -0.56321644938E+03  0.17109651380E+03  0.11487722720E+04  0.46999998093E+01 0. -1.
</event>
<event>
 5   0  0.1327820E-05  0.2103184E+04  0.7818609E-02  0.8559842E-01
       -1   -1    0    0    0  501  0.00000000000E+00  0.00000000000E+00  0.18060655698E+04  0.18060655698E+04  0.50400001928E-02 0.  1.
        1   -1    0    0  501    0  0.00000000000E+00  0.00000000000E+00 -0.61229562471E+03  0.61229562473E+03  0.50400001928E-02 0. -1.
    10030    2    1    2    0    0  0.00000000000E+00  0.00000000000E+00  0.11937699451E+04  0.24183611946E+04  0.21031842966E+04 0.  0.
        1    1    3    3  502    0  0.86171552379E+03  0.37824735277E+03  0.11364869567E+04  0.14755430548E+04  0.50400001928E-02 0.  1.
       -1    1    3    3    0  502 -0.86171552379E+03 -0.37824735277E+03  0.57282988367E+02  0.94281813972E+03  0.50400001928E-02 0. -1.
</event>
<event>
 5   0  0.2938972E-05  0.2296036E+04  0.7818609E-02  0.8479486E-01
        2   -1    0    0  501    0  0.00000000000E+00  0.00000000000E+00  0.10932872405E+04  0.10932872405E+04  0.25500000920E-02 0. -1.
       -2   -1    0    0    0  501  0.00000000000E+00  0.00000000000E+00 -0.12054882017E+04  0.12054882017E+04  0.25500000920E-02 0.  1.
    10030    2    1    2    0    0  0.00000000000E+00  0.00000000000E+00 -0.11220096112E+03  0.22987754422E+04  0.22960356003E+04 0.  0.
        2    1    3    3  502    0 -0.75736434587E+03  0.22409904059E+03  0.77803458686E+03  0.11086744115E+04  0.25500000920E-02 0. -1.
       -2    1    3    3    0  502  0.75736434587E+03 -0.22409904059E+03 -0.89023554798E+03  0.11901010307E+04  0.25500000920E-02 0.  1.
</event>
<event>
 5   0  0.1308224E-05  0.2317468E+04  0.7818609E-02  0.8471065E-01
       -1   -1    0    0    0  501  0.00000000000E+00  0.00000000000E+00  0.75349495508E+03  0.75349495510E+03  0.50400001928E-02 0.  1.
        1   -1    0    0  501    0  0.00000000000E+00  0.00000000000E+00 -0.17819154902E+04  0.17819154902E+04  0.50400001928E-02 0. -1.
    10030    2    1    2    0    0  0.00000000000E+00  0.00000000000E+00 -0.10284205351E+04  0.25354104453E+04  0.23174678701E+04 0.  0.
        5    1    3    3  502    0 -0.70234999334E+03 -0.76426041293E+03  0.49251562317E+02  0.10391522017E+04  0.46999998093E+01 0.  1.
       -5    1    3    3    0  502  0.70234999334E+03  0.76426041293E+03 -0.10776720974E+04  0.14962582436E+04  0.46999998093E+01 0. -1.
</event>
<event>
 5   0  0.1371753E-05  0.2291492E+04  0.7818609E-02  0.8481283E-01
        1   -1    0    0  501    0  0.00000000000E+00  0.00000000000E+00  0.13457904335E+04  0.13457904335E+04  0.50400001928E-02 0.  1.
       -1   -1    0    0    0  501  0.00000000000E+00  0.00000000000E+00 -0.97543741172E+03  0.97543741173E+03  0.50400001928E-02 0. -1.
    10030    2    1    2    0    0  0.00000000000E+00  0.00000000000E+00  0.37035302181E+03  0.23212278453E+04  0.22914923846E+04 0.  0.
        3    1    3    3  502    0  0.13364484713E+02  0.54108004988E+03  0.12081263131E+04  0.13238260568E+04  0.10100000352E+00 0.  1.
       -3    1    3    3    0  502 -0.13364484713E+02 -0.54108004988E+03 -0.83777329134E+03  0.99740178851E+03  0.10100000352E+00 0. -1.
</event>
<event>
 5   0  0.2994157E-05  0.2258692E+04  0.7818609E-02  0.8494389E-01
        2   -1    0    0  501    0  0.00000000000E+00  0.00000000000E+00  0.18216356914E+04  0.18216356914E+04  0.25500000920E-02 0.  1.
       -2   -1    0    0    0  501  0.00000000000E+00  0.00000000000E+00 -0.70015240599E+03  0.70015240600E+03  0.25500000920E-02 0. -1.
    10030    2    1    2    0    0  0.00000000000E+00  0.00000000000E+00  0.11214832854E+04  0.25217880974E+04  0.22586921988E+04 0.  0.
        4    1    3    3  502    0  0.88322149757E+03  0.41645296003E+03  0.11941987791E+04  0.15426035195E+04  0.12699999809E+01 0.  1.
       -4    1    3    3    0  502 -0.88322149757E+03 -0.41645296003E+03 -0.72715493613E+02  0.97918457790E+03  0.12699999809E+01 0. -1.
</event>
<event>
 5   0  0.1308224E-05  0.2301392E+04  0.7818609E-02  0.8477372E-01
       -1   -1    0    0    0  501  0.00000000000E+00  0.00000000000E+00  0.95161195414E+03  0.95161195415E+03  0.50400001928E-02 0. -1.
        1   -1    0    0  501    0  0.00000000000E+00  0.00000000000E+00 -0.13914303465E+04  0.13914303465E+04  0.50400001928E-02 0.  1.
    10030    2    1    2    0    0  0.00000000000E+00  0.00000000000E+00 -0.43981839238E+03  0.23430423007E+04  0.23013924056E+04 0.  0.
        5    1    3    3  502    0  0.25788115998E+03 -0.32045630187E+03  0.87419522422E+03  0.96614404420E+03  0.46999998093E+01 0. -1.
       -5    1    3    3    0  502 -0.25788115998E+03  0.32045630187E+03 -0.13140136166E+04  0.13768982565E+04  0.46999998093E+01 0.  1.
</event>
<event>
 5   0  0.1327820E-05  0.2309230E+04  0.7818609E-02  0.8474291E-01
        1   -1    0    0  501    0  0.00000000000E+00  0.00000000000E+00  0.22690816299E+04  0.22690816299E+04  0.50400001928E-02 0.  1.
       -1   -1    0    0    0  501  0.00000000000E+00  0.00000000000E+00 -0.58752224455E+03  0.58752224457E+03  0.50400001928E-02 0. -1.
    10030    2    1    2    0    0  0.00000000000E+00  0.00000000000E+00  0.16815593854E+04  0.28566038745E+04  0.23092301161E+04 0.  0.
        1    1    3    3  502    0 -0.12037249807E+03 -0.10685854150E+04  0.13608823354E+04  0.17344639109E+04  0.50400001928E-02 0.  1.
       -1    1    3    3    0  502  0.12037249807E+03  0.10685854150E+04  0.32067704997E+03  0.11221399636E+04  0.50400001928E-02 0. -1.
</event>
<event>
 5   0  0.1308224E-05  0.2292214E+04  0.7818609E-02  0.8480997E-01
        1   -1    0    0  501    0  0.00000000000E+00  0.00000000000E+00  0.12122251604E+04  0.12122251604E+04  0.50400001928E-02 0.  1.
       -1   -1    0    0    0  501  0.00000000000E+00  0.00000000000E+00 -0.10835948230E+04  0.10835948230E+04  0.50400001928E-02 0. -1.
    10030    2    1    2    0    0  0.00000000000E+00  0.00000000000E+00  0.12863033745E+03  0.22958199834E+04  0.22922136969E+04 0.  0.
        5    1    3    3  502    0  0.35136857733E+03  0.83972251403E+03 -0.63316038371E+03  0.11088317903E+04  0.46999998093E+01 0. -1.
       -5    1    3    3    0  502 -0.35136857733E+03 -0.83972251403E+03  0.76179072116E+03  0.11869881931E+04  0.46999998093E+01 0.  1.
</event>
<event>
 5   0  0.2910126E-05  0.2301351E+04  0.7818609E-02  0.8477389E-01
        2   -1    0    0  501    0  0.00000000000E+00  0.00000000000E+00  0.10755971994E+04  0.10755971994E+04  0.25500000920E-02 0. -1.
       -2   -1    0    0    0  501  0.00000000000E+00  0.00000000000E+00 -0.12309942727E+04  0.12309942727E+04  0.25500000920E-02 0.  1.
    10030    2    1    2    0    0  0.00000000000E+00  0.00000000000E+00 -0.15539707326E+03  0.23065914721E+04  0.23013509009E+04 0.  0.
        5    1    3    3  502    0  0.14579273915E+03  0.65700732760E+03  0.85776372213E+03  0.10902728302E+04  0.46999998093E+01 0. -1.
       -5    1    3    3    0  502 -0.14579273915E+03 -0.65700732760E+03 -0.10131607954E+04  0.12163186419E+04  0.46999998093E+01 0.  1.
</event>
<event>
 5   0  0.1284837E-05  0.2295962E+04  0.7818609E-02  0.8479515E-01
        1   -1    0    0  501    0  0.00000000000E+00  0.00000000000E+00  0.16045004971E+04  0.16045004971E+04  0.50400001928E-02 0. -1.
       -1   -1    0    0    0  501  0.00000000000E+00  0.00000000000E+00 -0.82135225715E+03  0.82135225717E+03  0.50400001928E-02 0.  1.
    10030    2    1    2    0    0  0.00000000000E+00  0.00000000000E+00  0.78314823994E+03  0.24258527543E+04  0.22959617635E+04 0.  0.
        4    1    3    3  502    0  0.78009946560E+03  0.94765232869E+02  0.12757709195E+04  0.14983753460E+04  0.12699999809E+01 0. -1.
       -4    1    3    3    0  502 -0.78009946560E+03 -0.94765232869E+02 -0.49262267953E+03  0.92747740828E+03  0.12699999809E+01 0.  1.
</event>
<event>
 5   0  0.1017200E-05  0.2117881E+04  0.7818609E-02  0.8553407E-01
        3   -1    0    0  501    0  0.00000000000E+00  0.00000000000E+00  0.80340833773E+03  0.80340834408E+03  0.10100000352E+00 0. -1.
       -3   -1    0    0    0  501  0.00000000000E+00  0.00000000000E+00 -0.13957469531E+04  0.13957469568E+04  0.10100000352E+00 0.  1.
    10030    2    1    2    0    0  0.00000000000E+00  0.00000000000E+00 -0.59233861538E+03  0.21991553009E+04  0.21178807809E+04 0.  0.
        4    1    3    3  502    0  0.55081942208E+03 -0.21417541454E+03  0.61623124540E+03  0.85382416495E+03  0.12699999809E+01 0. -1.
       -4    1    3    3    0  502 -0.55081942208E+03  0.21417541454E+03 -0.12085698608E+04  0.13453311359E+04  0.12699999809E+01 0.  1.
</event>
<event>
 5   0  0.2910126E-05  0.2311613E+04  0.7818609E-02  0.8473357E-01
        2   -1    0    0  501    0  0.00000000000E+00  0.00000000000E+00  0.15782949908E+04  0.15782949908E+04  0.25500000920E-02 0. -1.
       -2   -1    0    0    0  501  0.00000000000E+00  0.00000000000E+00 -0.84641218204E+03  0.84641218205E+03  0.25500000920E-02 0.  1.
    10030    2    1    2    0    0  0.00000000000E+00  0.00000000000E+00  0.73188280878E+03  0.24247071729E+04  0.23116125169E+04 0.  0.
        5    1    3    3  502    0 -0.69274199197E+02  0.71917922313E+03  0.13122134331E+04  0.14979799243E+04  0.46999998093E+01 0. -1.
       -5    1    3    3    0  502  0.69274199197E+02 -0.71917922313E+03 -0.58033062433E+03  0.92672724854E+03  0.46999998093E+01 0.  1.
</event>
<event>
 5   0  0.1308224E-05  0.2254921E+04  0.7818609E-02  0.8495910E-01
       -1   -1    0    0    0  501  0.00000000000E+00  0.00000000000E+00  0.16175457487E+04  0.16175457487E+04  0.50400001928E-02 0.  1.
        1   -1    0    0  501    0  0.00000000000E+00  0.00000000000E+00 -0.78586154482E+03  0.78586154484E+03  0.50400001928E-02 0. -1.
    10030    2    1    2    0    0  0.00000000000E+00  0.00000000000E+00  0.83168420390E+03  0.24034072936E+04  0.22549208420E+04 0.  0.
        5    1    3    3  502    0 -0.67795897219E+03  0.36819376927E+03 -0.46045893432E+03  0.89846510221E+03  0.46999998093E+01 0. -1.
       -5    1    3    3    0  502  0.67795897219E+03 -0.36819376927E+03  0.12921431382E+04  0.15049421914E+04  0.46999998093E+01 0.  1.
</event>
<event>
 5   0  0.2994157E-05  0.2304280E+04  0.7818609E-02  0.8476235E-01
        2   -1    0    0  501    0  0.00000000000E+00  0.00000000000E+00  0.16860137890E+04  0.16860137890E+04  0.25500000920E-02 0. -1.
       -2   -1    0    0    0  501  0.00000000000E+00  0.00000000000E+00 -0.78731688469E+03  0.78731688469E+03  0.25500000920E-02 0.  1.
    10030    2    1    2    0    0  0.00000000000E+00  0.00000000000E+00  0.89869690430E+03  0.24733306737E+04  0.23042804724E+04 0.  0.
        4    1    3    3  502    0  0.10688171160E+04 -0.34317239480E+03  0.72777860794E+03  0.13378343078E+04  0.12699999809E+01 0. -1.
       -4    1    3    3    0  502 -0.10688171160E+04  0.34317239480E+03  0.17091829636E+03  0.11354963659E+04  0.12699999809E+01 0.  1.
</event>
<event>
 5   0  0.1284837E-05  0.2283309E+04  0.7818609E-02  0.8484532E-01
        1   -1    0    0  501    0  0.00000000000E+00  0.00000000000E+00  0.78318158546E+03  0.78318158548E+03  0.50400001928E-02 0.  1.
       -1   -1    0    0    0  501  0.00000000000E+00  0.00000000000E+00 -0.16642047017E+04  0.16642047017E+04  0.50400001928E-02 0. -1.
    10030    2    1    2    0    0  0.00000000000E+00  0.00000000000E+00 -0.88102311626E+03  0.24473862872E+04  0.22833085441E+04 0.  0.
        4    1    3    3  502    0  0.57623611672E+03  0.31415988768E+02 -0.14963547012E+04  0.16037811669E+04  0.12699999809E+01 0. -1.
       -4    1    3    3    0  502 -0.57623611672E+03 -0.31415988768E+02  0.61533158499E+03  0.84360512028E+03  0.12699999809E+01 0.  1.
</event>
<event>
 5   0  0.1303224E-05  0.2298320E+04  0.7818609E-02  0.8478584E-01
        1   -1    0    0  501    0  0.00000000000E+00  0.00000000000E+00  0.10940978250E+04  0.10940978250E+04  0.50400001928E-02 0.  1.
       -1   -1    0    0    0  501  0.00000000000E+00  0.00000000000E+00 -0.12069931126E+04  0.12069931126E+04  0.50400001928E-02 0. -1.
    10030    2    1    2    0    0  0.00000000000E+00  0.00000000000E+00 -0.11289528765E+03  0.23010909376E+04  0.22983198552E+04 0.  0.
        2    1    3    3  502    0  0.88202042262E+03  0.30450125716E+02  0.68042975440E+03  0.11143930576E+04  0.25500000920E-02 0.  1.
       -2    1    3    3    0  502 -0.88202042262E+03 -0.30450125716E+02 -0.79332504205E+03  0.11866978800E+04  0.25500000920E-02 0. -1.
</event>
<event>
 5   0  0.1371753E-05  0.2324775E+04  0.7818609E-02  0.8468216E-01
       -1   -1    0    0    0  501  0.00000000000E+00  0.00000000000E+00  0.17319256529E+04  0.17319256529E+04  0.50400001928E-02 0.  1.
        1   -1    0    0  501    0  0.00000000000E+00  0.00000000000E+00 -0.78014029593E+03  0.78014029595E+03  0.50400001928E-02 0. -1.
    10030    2    1    2    0    0  0.00000000000E+00  0.00000000000E+00  0.95178535698E+03  0.25120659489E+04  0.23247752506E+04 0.  0.
        3    1    3    3  502    0  0.77339033288E+03  0.83069384113E+03  0.74702595654E+03  0.13587614414E+04  0.10100000352E+00 0. -1.
       -3    1    3    3    0  502 -0.77339033288E+03 -0.83069384113E+03  0.20475940044E+03  0.11533045075E+04  0.10100000352E+00 0.  1.
</event>
<event>
 5   0  0.2871888E-05  0.2288065E+04  0.7818609E-02  0.8482642E-01
       -2   -1    0    0    0  501  0.00000000000E+00  0.00000000000E+00  0.58719768752E+03  0.58719768753E+03  0.25500000920E-02 0.  1.
        2   -1    0    0  501    0  0.00000000000E+00  0.00000000000E+00 -0.22289092900E+04  0.22289092900E+04  0.25500000920E-02 0. -1.
    10030    2    1    2    0    0  0.00000000000E+00  0.00000000000E+00 -0.16417116024E+04  0.28161069775E+04  0.22880650172E+04 0.  0.
        3    1    3    3  502    0  0.49704889233E+03 -0.40223828641E+03 -0.19884493818E+04  0.20887278891E+04  0.10100000352E+00 0. -1.
       -3    1    3    3    0  502 -0.49704889233E+03  0.40223828641E+03  0.34673777936E+03  0.72737908841E+03  0.10100000352E+00 0.  1.
</event>
<event>
 5   0  0.1303224E-05  0.2430170E+04  0.7818609E-02  0.8428294E-01
       -1   -1    0    0    0  501  0.00000000000E+00  0.00000000000E+00  0.96864992779E+03  0.96864992780E+03  0.50400001928E-02 0. -1.
        1   -1    0    0  501    0  0.00000000000E+00  0.00000000000E+00 -0.15242162003E+04  0.15242162003E+04  0.50400001928E-02 0.  1.
    10030    2    1    2    0    0  0.00000000000E+00  0.00000000000E+00 -0.55556627255E+03  0.24928661282E+04  0.24301702923E+04 0.  0.
        2    1    3    3  502    0 -0.10423320232E+04  0.46809288227E+03 -0.70180544089E+03  0.13409317171E+04  0.25500000920E-02 0. -1.
       -2    1    3    3    0  502  0.10423320232E+04 -0.46809288227E+03  0.14623916834E+03  0.11519344111E+04  0.25500000920E-02 0.  1.
</event>
<event>
 5   0  0.1303224E-05  0.2295539E+04  0.7818609E-02  0.8479682E-01
       -1   -1    0    0    0  501  0.00000000000E+00  0.00000000000E+00  0.45016767924E+03  0.45016767927E+03  0.50400001928E-02 0. -1.
        1   -1    0    0  501    0  0.00000000000E+00  0.00000000000E+00 -0.29264103170E+04  0.29264103170E+04  0.50400001928E-02 0.  1.
    10030    2    1    2    0    0  0.00000000000E+00  0.00000000000E+00 -0.24762426377E+04  0.33765779962E+04  0.22955394494E+04 0.  0.
        2    1    3    3  502    0  0.62716474047E+03 -0.37888952961E+03 -0.25376132804E+04  0.26412826521E+04  0.25500000920E-02 0.  1.
       -2    1    3    3    0  502 -0.62716474047E+03  0.37888952961E+03  0.61370642669E+02  0.73529534415E+03  0.25500000920E-02 0. -1.
</event>
<event>
 5   0  0.2910126E-05  0.2316310E+04  0.7818609E-02  0.8471518E-01
        2   -1    0    0  501    0  0.00000000000E+00  0.00000000000E+00  0.22545002837E+04  0.22545002837E+04  0.25500000920E-02 0.  1.
       -2   -1    0    0    0  501  0.00000000000E+00  0.00000000000E+00 -0.59495376558E+03  0.59495376558E+03  0.25500000920E-02 0. -1.
    10030    2    1    2    0    0  0.00000000000E+00  0.00000000000E+00  0.16595465181E+04  0.28494540493E+04  0.23163103707E+04 0.  0.
        5    1    3    3  502    0  0.98472370132E+03 -0.42059570872E+02  0.15779059602E+04  0.18604459370E+04  0.46999998093E+01 0.  1.
       -5    1    3    3    0  502 -0.98472370132E+03  0.42059570872E+02  0.81640557965E+02  0.98900811228E+03  0.46999998093E+01 0. -1.
</event>
<event>
 5   0  0.2994157E-05  0.2314363E+04  0.7818609E-02  0.8472279E-01
        2   -1    0    0  501    0  0.00000000000E+00  0.00000000000E+00  0.12019321264E+04  0.12019321264E+04  0.25500000920E-02 0. -1.
       -2   -1    0    0    0  501  0.00000000000E+00  0.00000000000E+00 -0.11140970507E+04  0.11140970507E+04  0.25500000920E-02 0.  1.
    10030    2    1    2    0    0  0.00000000000E+00  0.00000000000E+00  0.87835075638E+02  0.23160291771E+04  0.23143630114E+04 0.  0.
        4    1    3    3  502    0  0.90014545451E+03 -0.67483039827E+03 -0.22721942969E+03  0.11477317578E+04  0.12699999809E+01 0. -1.
       -4    1    3    3    0  502 -0.90014545451E+03  0.67483039827E+03  0.31505450532E+03  0.11682974193E+04  0.12699999809E+01 0.  1.
</event>
<event>
 5   0  0.1303224E-05  0.2299269E+04  0.7818609E-02  0.8478210E-01
        1   -1    0    0  501    0  0.00000000000E+00  0.00000000000E+00  0.13312609557E+04  0.13312609557E+04  0.50400001928E-02 0. -1.
       -1   -1    0    0    0  501  0.00000000000E+00  0.00000000000E+00 -0.99278743557E+03  0.99278743559E+03  0.50400001928E-02 0.  1.
    10030    2    1    2    0    0  0.00000000000E+00  0.00000000000E+00  0.33847352011E+03  0.23240483913E+04  0.22992687101E+04 0.  0.
        2    1    3    3  502    0 -0.10415380589E+04 -0.46955953682E+03  0.29856673419E+03  0.11808597637E+04  0.25500000920E-02 0. -1.
       -2    1    3    3    0  502  0.10415380589E+04  0.46955953682E+03  0.39906785922E+02  0.11431886276E+04  0.25500000920E-02 0.  1.
</event>
<event>
 5   0  0.1371753E-05  0.2353380E+04  0.7818609E-02  0.8457167E-01
        1   -1    0    0  501    0  0.00000000000E+00  0.00000000000E+00  0.13876601095E+04  0.13876601096E+04  0.50400001928E-02 0.  1.
       -1   -1    0    0    0  501  0.00000000000E+00  0.00000000000E+00 -0.99779429529E+03  0.99779429531E+03  0.50400001928E-02 0. -1.
    10030    2    1    2    0    0  0.00000000000E+00  0.00000000000E+00  0.38986581425E+03  0.23854544049E+04  0.23533799873E+04 0.  0.
        3    1    3    3  502    0  0.64781030313E+03  0.58219813044E+03  0.99690921850E+03  0.13237978894E+04  0.10100000352E+00 0.  1.
       -3    1    3    3    0  502 -0.64781030313E+03 -0.58219813044E+03 -0.60704340424E+03  0.10616565154E+04  0.10100000352E+00 0. -1.
</event>
<event>
 5   0  0.1371753E-05  0.2302183E+04  0.7818609E-02  0.8477061E-01
       -1   -1    0    0    0  501  0.00000000000E+00  0.00000000000E+00  0.10038222455E+04  0.10038222455E+04  0.50400001928E-02 0. -1.
        1   -1    0    0  501    0  0.00000000000E+00  0.00000000000E+00 -0.13199659920E+04  0.13199659920E+04  0.50400001928E-02 0.  1.
    10030    2    1    2    0    0  0.00000000000E+00  0.00000000000E+00 -0.31614374652E+03  0.23237882376E+04  0.23021826393E+04 0.  0.
        3    1    3    3  502    0  0.86062844175E+03  0.72287961822E+03  0.92806373855E+02  0.11277629584E+04  0.10100000352E+00 0.  1.
       -3    1    3    3    0  502 -0.86062844175E+03 -0.72287961822E+03 -0.40895012038E+03  0.11960252791E+04  0.10100000352E+00 0. -1.
</event>
<event>
 5   0  0.2938972E-05  0.2304385E+04  0.7818609E-02  0.8476194E-01
       -2   -1    0    0    0  501  0.00000000000E+00  0.00000000000E+00  0.78102043186E+03  0.78102043186E+03  0.25500000920E-02 0.  1.
        2   -1    0    0  501    0  0.00000000000E+00  0.00000000000E+00 -0.16997609061E+04  0.16997609061E+04  0.25500000920E-02 0. -1.
    10030    2    1    2    0    0  0.00000000000E+00  0.00000000000E+00 -0.91874047420E+03  0.24807813379E+04  0.23043853818E+04 0.  0.
        2    1    3    3  502    0 -0.69878917058E+03 -0.55263898109E+03  0.32719656904E+03  0.94909100888E+03  0.25500000920E-02 0.  1.
       -2    1    3    3    0  502  0.69878917058E+03  0.55263898109E+03 -0.12459370432E+04  0.15316903290E+04  0.25500000920E-02 0. -1.
</event>
<event>
 5   0  0.1327820E-05  0.2287651E+04  0.7818609E-02  0.8482806E-01
        1   -1    0    0  501    0  0.00000000000E+00  0.00000000000E+00  0.14090912498E+04  0.14090912498E+04  0.50400001928E-02 0.  1.
       -1   -1    0    0    0  501  0.00000000000E+00  0.00000000000E+00 -0.92849698167E+03  0.92849698168E+03  0.50400001928E-02 0. -1.
    10030    2    1    2    0    0  0.00000000000E+00  0.00000000000E+00  0.48059426811E+03  0.23375882315E+04  0.22876511730E+04 0.  0.
        1    1    3    3  502    0 -0.35562800780E+03  0.43949596333E+03 -0.77574671487E+03  0.95990153005E+03  0.50400001928E-02 0. -1.
       -1    1    3    3    0  502  0.35562800780E+03 -0.43949596333E+03  0.12563409830E+04  0.13776867014E+04  0.50400001928E-02 0.  1.
</event>
<event>
 5   0  0.2910126E-05  0.2333514E+04  0.7818609E-02  0.8464823E-01
       -2   -1    0    0    0  501  0.00000000000E+00  0.00000000000E+00  0.95895696086E+03  0.95895696087E+03  0.25500000920E-02 0.  1.
        2   -1    0    0  501    0  0.00000000000E+00  0.00000000000E+00 -0.14195859906E+04  0.14195859906E+04  0.25500000920E-02 0. -1.
    10030    2    1    2    0    0  0.00000000000E+00  0.00000000000E+00 -0.46062902978E+03  0.23785429515E+04  0.23335139745E+04 0.  0.
        5    1    3    3  502    0  0.17846881766E+03  0.94165543786E+03 -0.90853652564E+03  0.13206160649E+04  0.46999998093E+01 0. -1.
       -5    1    3    3    0  502 -0.17846881766E+03 -0.94165543786E+03  0.44790749586E+03  0.10579268866E+04  0.46999998093E+01 0.  1.
</event>
<event>
 5   0  0.1371753E-05  0.2338061E+04  0.7818609E-02  0.8463064E-01
        1   -1    0    0  501    0  0.00000000000E+00  0.00000000000E+00  0.14524615877E+04  0.14524615877E+04  0.50400001928E-02 0. -1.
       -1   -1    0    0    0  501  0.00000000000E+00  0.00000000000E+00 -0.94090738440E+03  0.94090738441E+03  0.50400001928E-02 0.  1.
    10030    2    1    2    0    0  0.00000000000E+00  0.00000000000E+00  0.51155420334E+03  0.23933689722E+04  0.23380605924E+04 0.  0.
        3    1    3    3  502    0  0.74946616827E+03  0.15166188888E+03  0.11609636643E+04  0.13901573673E+04  0.10100000352E+00 0. -1.
       -3    1    3    3    0  502 -0.74946616827E+03 -0.15166188888E+03 -0.64940946094E+03  0.10032116048E+04  0.10100000352E+00 0.  1.
</event>
<event>
 5   0  0.2938972E-05  0.2400062E+04  0.7818609E-02  0.8439480E-01
        2   -1    0    0  501    0  0.00000000000E+00  0.00000000000E+00  0.19398503656E+04  0.19398503656E+04  0.25500000920E-02 0. -1.
       -2   -1    0    0    0  501  0.00000000000E+00  0.00000000000E+00 -0.74236370945E+03  0.74236370946E+03  0.25500000920E-02 0.  1.
    10030    2    1    2    0    0  0.00000000000E+00  0.00000000000E+00  0.11974866561E+04  0.26822140750E+04  0.24000620935E+04 0.  0.
        2    1    3    3  502    0 -0.89737106560E+02  0.10539339855E+04  0.12321594211E+04  0.16238985292E+04  0.25500000920E-02 0. -1.
       -2    1    3    3    0  502  0.89737106560E+02 -0.10539339855E+04 -0.34672764951E+02  0.10583155459E+04  0.25500000920E-02 0.  1.
</event>
<event>
 5   0  0.2910126E-05  0.2309007E+04  0.7818609E-02  0.8474378E-01
       -2   -1    0    0    0  501  0.00000000000E+00  0.00000000000E+00  0.44782126295E+03  0.44782126296E+03  0.25500000920E-02 0.  1.
        2   -1    0    0  501    0  0.00000000000E+00  0.00000000000E+00 -0.29763624108E+04  0.29763624108E+04  0.25500000920E-02 0. -1.
    10030    2    1    2    0    0  0.00000000000E+00  0.00000000000E+00 -0.25285411479E+04  0.34241836738E+04  0.23090070367E+04 0.  0.
        5    1    3    3  502    0 -0.91615682600E+03  0.42779446715E+03 -0.43791685030E+03  0.11018823411E+04  0.46999998093E+01 0.  1.
       -5    1    3    3    0  502  0.91615682600E+03 -0.42779446715E+03 -0.20906242976E+04  0.23223013326E+04  0.46999998093E+01 0. -1.
</event>
<event>
 5   0  0.1327820E-05  0.2292081E+04  0.7818609E-02  0.8481050E-01
       -1   -1    0    0    0  501  0.00000000000E+00  0.00000000000E+00  0.10687567027E+04  0.10687567027E+04  0.50400001928E-02 0.  1.
        1   -1    0    0  501    0  0.00000000000E+00  0.00000000000E+00 -0.12289131585E+04  0.12289131585E+04  0.50400001928E-02 0. -1.
    10030    2    1    2    0    0  0.00000000000E+00  0.00000000000E+00 -0.16015645581E+03  0.22976698612E+04  0.22920813032E+04 0.  0.
        1    1    3    3  502    0 -0.84145102142E+03  0.74651983685E+03  0.13972217690E+03  0.11335139942E+04  0.50400001928E-02 0.  1.
       -1    1    3    3    0  502  0.84145102142E+03 -0.74651983685E+03 -0.29987863271E+03  0.11641558670E+04  0.50400001928E-02 0. -1.
</event>
<event>
 5   0  0.1284837E-05  0.2311252E+04  0.7818609E-02  0.8473498E-01
       -1   -1    0    0    0  501  0.00000000000E+00  0.00000000000E+00  0.12022192510E+04  0.12022192510E+04  0.50400001928E-02 0. -1.
        1   -1    0    0  501    0  0.00000000000E+00  0.00000000000E+00 -0.11108386792E+04  0.11108386792E+04  0.50400001928E-02 0.  1.
    10030    2    1    2    0    0  0.00000000000E+00  0.00000000000E+00  0.91380571819E+02  0.23130579302E+04  0.23112521670E+04 0.  0.
        4    1    3    3  502    0  0.74439070560E+03  0.87436384145E+03  0.17556217270E+03  0.11616597347E+04  0.12699999809E+01 0. -1.
       -4    1    3    3    0  502 -0.74439070560E+03 -0.87436384145E+03 -0.84181600880E+02  0.11513981955E+04  0.12699999809E+01 0.  1.
</event>
<event>
 5   0  0.2871888E-05  0.2299243E+04  0.7818609E-02  0.8478220E-01
       -2   -1    0    0    0  501  0.00000000000E+00  0.00000000000E+00  0.19542096575E+04  0.19542096575E+04  0.25500000920E-02 0. -1.
        2   -1    0    0  501    0  0.00000000000E+00  0.00000000000E+00 -0.67629898135E+03  0.67629898136E+03  0.25500000920E-02 0.  1.
    10030    2    1    2    0    0  0.00000000000E+00  0.00000000000E+00  0.12779106761E+04  0.26305086388E+04  0.22992433544E+04 0.  0.
        3    1    3    3  502    0 -0.61559865431E+03 -0.11550571849E+03  0.17418626189E+04  0.18510506928E+04  0.10100000352E+00 0. -1.
       -3    1    3    3    0  502  0.61559865431E+03  0.11550571849E+03 -0.46395194275E+03  0.77945794600E+03  0.10100000352E+00 0.  1.
</event>
<event>
 5   0  0.1308224E-05  0.2326606E+04  0.7818609E-02  0.8467504E-01
       -1   -1    0    0    0  501  0.00000000000E+00  0.00000000000E+00  0.20545833282E+04  0.20545833282E+04  0.50400001928E-02 0.  1.
        1   -1    0    0  501    0  0.00000000000E+00  0.00000000000E+00 -0.65866115151E+03  0.65866115153E+03  0.50400001928E-02 0. -1.
    10030    2    1    2    0    0  0.00000000000E+00  0.00000000000E+00  0.13959221767E+04  0.27132444797E+04  0.23266063018E+04 0.  0.
        5    1    3    3  502    0  0.64209438336E+03 -0.26342756027E+03 -0.39076310972E+03  0.79649053639E+03  0.46999998093E+01 0. -1.
       -5    1    3    3    0  502 -0.64209438336E+03  0.26342756027E+03  0.17866852864E+04  0.19167539434E+04  0.46999998093E+01 0.  1.
</event>
<event>
 5   0  0.2816178E-05  0.2293801E+04  0.7818609E-02  0.8480369E-01
       -2   -1    0    0    0  501  0.00000000000E+00  0.00000000000E+00  0.92380274380E+03  0.92380274380E+03  0.25500000920E-02 0.  1.
        2   -1    0    0  501    0  0.00000000000E+00  0.00000000000E+00 -0.14238765418E+04  0.14238765418E+04  0.25500000920E-02 0. -1.
    10030    2    1    2    0    0  0.00000000000E+00  0.00000000000E+00 -0.50007379798E+03  0.23476792856E+04  0.22938012609E+04 0.  0.
        1    1    3    3  502    0 -0.50903920934E+03 -0.54709314243E+03  0.64042708293E+03  0.98416394554E+03  0.50400001928E-02 0.  1.
       -1    1    3    3    0  502  0.50903920934E+03  0.54709314243E+03 -0.11405008809E+04  0.13635153400E+04  0.50400001928E-02 0. -1.
</event>
<event>
 5   0  0.1327820E-05  0.2287895E+04  0.7818609E-02  0.8482709E-01
       -1   -1    0    0    0  501  0.00000000000E+00  0.00000000000E+00  0.52518054108E+03  0.52518054111E+03  0.50400001928E-02 0. -1.
        1   -1    0    0  501    0  0.00000000000E+00  0.00000000000E+00 -0.24917438481E+04  0.24917438481E+04  0.50400001928E-02 0.  1.
    10030    2    1    2    0    0  0.00000000000E+00  0.00000000000E+00 -0.19665633070E+04  0.30169243892E+04  0.22878945626E+04 0.  0.
        1    1    3    3  502    0 -0.10346373502E+04 -0.35456286194E+03 -0.14254239039E+04  0.17966698571E+04  0.50400001928E-02 0.  1.
       -1    1    3    3    0  502  0.10346373502E+04  0.35456286194E+03 -0.54113940314E+03  0.12202545321E+04  0.50400001928E-02 0. -1.
</event>
<event>
 5   0  0.2938972E-05  0.2310762E+04  0.7818609E-02  0.8473690E-01
        2   -1    0    0  501    0  0.00000000000E+00  0.00000000000E+00  0.19295188203E+04  0.19295188203E+04  0.25500000920E-02 0.  1.
       -2   -1    0    0    0  501  0.00000000000E+00  0.00000000000E+00 -0.69183312782E+03  0.69183312782E+03  0.25500000920E-02 0. -1.
    10030    2    1    2    0    0  0.00000000000E+00  0.00000000000E+00  0.12376856925E+04  0.26213519482E+04  0.23107618144E+04 0.  0.
        2    1    3    3  502    0 -0.61686172995E+03  0.29312206876E+03 -0.43833143035E+03  0.81152534397E+03  0.25500000920E-02 0. -1.
       -2    1    3    3    0  502  0.61686172995E+03 -0.29312206876E+03  0.16760171229E+04  0.18098266042E+04  0.25500000920E-02 0.  1.
</event>
<event>
 5   0  0.1371753E-05  0.2306168E+04  0.7818609E-02  0.8475493E-01
       -1   -1    0    0    0  501  0.00000000000E+00  0.00000000000E+00  0.13902501908E+04  0.13902501908E+04  0.50400001928E-02 0.  1.
        1   -1    0    0  501    0  0.00000000000E+00  0.00000000000E+00 -0.95637661153E+03  0.95637661154E+03  0.50400001928E-02 0. -1.
    10030    2    1    2    0    0  0.00000000000E+00  0.00000000000E+00  0.43387357925E+03  0.23466268023E+04  0.23061680482E+04 0.  0.
        3    1    3    3  502    0 -0.73741521770E+02 -0.45996638606E+03 -0.85636486127E+03  0.97486802910E+03  0.10100000352E+00 0. -1.
       -3    1    3    3    0  502  0.73741521770E+02  0.45996638606E+03  0.12902384405E+04  0.13717587732E+04  0.10100000352E+00 0.  1.
</event>
<event>
 5   0  0.2994157E-05  0.2298725E+04  0.7818609E-02  0.8478424E-01
        2   -1    0    0  501    0  0.00000000000E+00  0.00000000000E+00  0.17993609867E+04  0.17993609867E+04  0.25500000920E-02 0.  1.
       -2   -1    0    0    0  501  0.00000000000E+00  0.00000000000E+00 -0.73416871237E+03  0.73416871237E+03  0.25500000920E-02 0. -1.
    10030    2    1    2    0    0  0.00000000000E+00  0.00000000000E+00  0.10651922743E+04  0.25335296991E+04  0.22987253326E+04 0.  0.
        4    1    3    3  502    0  0.65726322060E+03  0.94084385241E+03  0.60098983611E+03  0.12955201626E+04  0.12699999809E+01 0. -1.
       -4    1    3    3    0  502 -0.65726322060E+03 -0.94084385241E+03  0.46420243821E+03  0.12380095364E+04  0.12699999809E+01 0.  1.
</event>
<event>
 5   0  0.2816178E-05  0.2325669E+04  0.7818609E-02  0.8467869E-01
        2   -1    0    0  501    0  0.00000000000E+00  0.00000000000E+00  0.10881564486E+04  0.10881564486E+04  0.25500000920E-02 0. -1.
       -2   -1    0    0    0  501  0.00000000000E+00  0.00000000000E+00 -0.12426370732E+04  0.12426370732E+04  0.25500000920E-02 0.  1.
    10030    2    1    2    0    0  0.00000000000E+00  0.00000000000E+00 -0.15448062456E+03  0.23307935218E+04  0.23256685443E+04 0.  0.
        1    1    3    3  502    0  0.32517513204E+03 -0.10868694526E+04  0.17858573347E+03  0.11484410903E+04  0.50400001928E-02 0. -1.
       -1    1    3    3    0  502 -0.32517513204E+03  0.10868694526E+04 -0.33306635803E+03  0.11823524316E+04  0.50400001928E-02 0.  1.
</event>
<event>
 5   0  0.1371753E-05  0.2296703E+04  0.7818609E-02  0.8479222E-01
       -1   -1    0    0    0  501  0.00000000000E+00  0.00000000000E+00  0.10994939541E+04  0.10994939541E+04  0.50400001928E-02 0. -1.
        1   -1    0    0  501    0  0.00000000000E+00  0.00000000000E+00 -0.11993799246E+04  0.11993799246E+04  0.50400001928E-02 0.  1.
    10030    2    1    2    0    0  0.00000000000E+00  0.00000000000E+00 -0.99885970529E+02  0.22988738787E+04  0.22967028330E+04 0.  0.
        3    1    3    3  502    0 -0.17843530816E+03  0.50425623640E+03  0.96718561092E+03  0.11052427459E+04  0.10100000352E+00 0. -1.
       -3    1    3    3    0  502  0.17843530816E+03 -0.50425623640E+03 -0.10670715814E+04  0.11936311328E+04  0.10100000352E+00 0.  1.
</event>
<event>
 5   0  0.1308224E-05  0.2295444E+04  0.7818609E-02  0.8479720E-01
        1   -1    0    0  501    0  0.00000000000E+00  0.00000000000E+00  0.13530661653E+04  0.13530661654E+04  0.50400001928E-02 0.  1.
       -1   -1    0    0    0  501  0.00000000000E+00  0.00000000000E+00 -0.97354122608E+03  0.97354122609E+03  0.50400001928E-02 0. -1.
    10030    2    1    2    0    0  0.00000000000E+00  0.00000000000E+00  0.37952493927E+03  0.23266073914E+04  0.22954439166E+04 0.  0.
        5    1    3    3  502    0 -0.45105235679E+03  0.73171827418E+03 -0.58107790818E+03  0.10375613171E+04  0.46999998093E+01 0. -1.
       -5    1    3    3    0  502  0.45105235679E+03 -0.73171827418E+03  0.96060284745E+03  0.12890460744E+04  0.46999998093E+01 0.  1.
</event>
<event>
 5   0  0.1371753E-05  0.2341793E+04  0.7818609E-02  0.8461623E-01
       -1   -1    0    0    0  501  0.00000000000E+00  0.00000000000E+00  0.85172234783E+03  0.85172234784E+03  0.50400001928E-02 0.  1.
        1   -1    0    0  501    0  0.00000000000E+00  0.00000000000E+00 -0.16096781718E+04  0.16096781718E+04  0.50400001928E-02 0. -1.
    10030    2    1    2    0    0  0.00000000000E+00  0.00000000000E+00 -0.75795582393E+03  0.24614005196E+04  0.23417932204E+04 0.  0.
        3    1    3    3  502    0  0.54179015339E+03 -0.50161588978E+01 -0.14699903767E+04  0.15666631578E+04  0.10100000352E+00 0. -1.
       -3    1    3    3    0  502 -0.54179015339E+03  0.50161588978E+01  0.71203455275E+03  0.89473736184E+03  0.10100000352E+00 0.  1.
</event>
<event>
 5   0  0.1017200E-05  0.2295738E+04  0.7818609E-02  0.8479604E-01
        3   -1    0    0  501    0  0.00000000000E+00  0.00000000000E+00  0.72130751524E+03  0.72130752232E+03  0.10100000352E+00 0. -1.
       -3   -1    0    0    0  501  0.00000000000E+00  0.00000000000E+00 -0.18266864988E+04  0.18266865016E+04  0.10100000352E+00 0.  1.
    10030    2    1    2    0    0  0.00000000000E+00  0.00000000000E+00 -0.11053789836E+04  0.25479940239E+04  0.22957375392E+04 0.  0.
        4    1    3    3  502    0  0.11338019596E+03  0.19482651332E+03  0.69649980037E+03  0.73206968517E+03  0.12699999809E+01 0. -1.
       -4    1    3    3    0  502 -0.11338019596E+03 -0.19482651332E+03 -0.18018787840E+04  0.18159243388E+04  0.12699999809E+01 0.  1.
</event>
<event>
 5   0  0.2938972E-05  0.2303506E+04  0.7818609E-02  0.8476540E-01
        2   -1    0    0  501    0  0.00000000000E+00  0.00000000000E+00  0.13132846980E+04  0.13132846980E+04  0.25500000920E-02 0. -1.
       -2   -1    0    0    0  501  0.00000000000E+00  0.00000000000E+00 -0.10100895611E+04  0.10100895611E+04  0.25500000920E-02 0.  1.
    10030    2    1    2    0    0  0.00000000000E+00  0.00000000000E+00  0.30319513691E+03  0.23233742591E+04  0.23035061660E+04 0.  0.
        2    1    3    3  502    0 -0.10265712041E+04  0.34265472765E+03 -0.24584997278E+03  0.11098211156E+04  0.25500000920E-02 0.  1.
       -2    1    3    3    0  502  0.10265712041E+04 -0.34265472765E+03  0.54904510969E+03  0.12135531435E+04  0.25500000920E-02 0. -1.
</event>
<event>
 5   0  0.1371753E-05  0.2296783E+04  0.7818609E-02  0.8479191E-01
       -1   -1    0    0    0  501  0.00000000000E+00  0.00000000000E+00  0.13018342996E+04  0.13018342996E+04  0.50400001928E-02 0.  1.
        1   -1    0    0  501    0  0.00000000000E+00  0.00000000000E+00 -0.10130341425E+04  0.10130341425E+04  0.50400001928E-02 0. -1.
    10030    2    1    2    0    0  0.00000000000E+00  0.00000000000E+00  0.28880015711E+03  0.23148684422E+04  0.22967826135E+04 0.  0.
        3    1    3    3  502    0  0.24842778099E+03  0.67293619377E+03  0.10482578453E+04  0.12701984112E+04  0.10100000352E+00 0.  1.
       -3    1    3    3    0  502 -0.24842778099E+03 -0.67293619377E+03 -0.75945768821E+03  0.10446700310E+04  0.10100000352E+00 0. -1.
</event>
<event>
 5   0  0.2816178E-05  0.2309141E+04  0.7818609E-02  0.8474326E-01
        2   -1    0    0  501    0  0.00000000000E+00  0.00000000000E+00  0.19863498654E+04  0.19863498654E+04  0.25500000920E-02 0.  1.
       -2   -1    0    0    0  501  0.00000000000E+00  0.00000000000E+00 -0.67109688658E+03  0.67109688658E+03  0.25500000920E-02 0. -1.
    10030    2    1    2    0    0  0.00000000000E+00  0.00000000000E+00  0.13152529788E+04  0.26574467520E+04  0.23091411480E+04 0.  0.
        1    1    3    3  502    0  0.55018435049E+03  0.40249569396E+03 -0.41477126369E+03  0.79796040277E+03  0.50400001928E-02 0. -1.
       -1    1    3    3    0  502 -0.55018435049E+03 -0.40249569396E+03  0.17300242425E+04  0.18594863492E+04  0.50400001928E-02 0.  1.
</event>
<event>
 5   0  0.2994157E-05  0.2296241E+04  0.7818609E-02  0.8479405E-01
        2   -1    0    0  501    0  0.00000000000E+00  0.00000000000E+00  0.24501464879E+04  0.24501464879E+04  0.25500000920E-02 0. -1.
       -2   -1    0    0    0  501  0.00000000000E+00  0.00000000000E+00 -0.53800068279E+03  0.53800068280E+03  0.25500000920E-02 0.  1.
    10030    2    1    2    0    0  0.00000000000E+00  0.00000000000E+00  0.19121458051E+04  0.29881471707E+04  0.22962408266E+04 0.  0.
        4    1    3    3  502    0  0.51026028940E+03  0.84032149291E+03  0.17277828911E+04  0.19878986659E+04  0.12699999809E+01 0. -1.
       -4    1    3    3    0  502 -0.51026028940E+03 -0.84032149291E+03  0.18436291407E+03  0.10002485048E+04  0.12699999809E+01 0.  1.
</event>
<event>
 5   0  0.1308224E-05  0.2243617E+04  0.7818609E-02  0.8500490E-01
       -1   -1    0    0    0  501  0.00000000000E+00  0.00000000000E+00  0.15736128462E+04  0.15736128462E+04  0.50400001928E-02 0. -1.
        1   -1    0    0  501    0  0.00000000000E+00  0.00000000000E+00 -0.79972262819E+03  0.79972262821E+03  0.50400001928E-02 0.  1.
    10030    2    1    2    0    0  0.00000000000E+00  0.00000000000E+00  0.77389021800E+03  0.23733354744E+04  0.22436165458E+04 0.  0.
        5    1    3    3  502    0  0.52396465629E+03 -0.24621520958E+03 -0.62947921999E+03  0.85523509566E+03  0.46999998093E+01 0.  1.
       -5    1    3    3    0  502 -0.52396465629E+03  0.24621520958E+03  0.14033694380E+04  0.15181003787E+04  0.46999998093E+01 0. -1.
</event>
<event>
 5   0  0.2871888E-05  0.2301623E+04  0.7818609E-02  0.8477282E-01
       -2   -1    0    0    0  501  0.00000000000E+00  0.00000000000E+00  0.79561949126E+03  0.79561949126E+03  0.25500000920E-02 0.  1.
        2   -1    0    0  501    0  0.00000000000E+00  0.00000000000E+00 -0.16645731486E+04  0.16645731486E+04  0.25500000920E-02 0. -1.
    10030    2    1    2    0    0  0.00000000000E+00  0.00000000000E+00 -0.86895365732E+03  0.24601926398E+04  0.23016227681E+04 0.  0.
        3    1    3    3  502    0  0.60861665455E+03 -0.21641447007E+03 -0.14525212138E+04  0.15896752315E+04  0.10100000352E+00 0. -1.
       -3    1    3    3    0  502 -0.60861665455E+03  0.21641447007E+03  0.58356755645E+03  0.87051740832E+03  0.10100000352E+00 0.  1.
</event>
<event>
 5   0  0.2871888E-05  0.2256543E+04  0.7818609E-02  0.8495255E-01
       -2   -1    0    0    0  501  0.00000000000E+00  0.00000000000E+00  0.52518749237E+03  0.52518749238E+03  0.25500000920E-02 0.  1.
        2   -1    0    0  501    0  0.00000000000E+00  0.00000000000E+00 -0.24238907814E+04  0.24238907814E+04  0.25500000920E-02 0. -1.
    10030    2    1    2    0    0  0.00000000000E+00  0.00000000000E+00 -0.18987032890E+04  0.29490782737E+04  0.22565434817E+04 0.  0.
        3    1    3    3  502    0 -0.12972007762E+03  0.10764517080E+04 -0.13572670174E+04  0.17371670458E+04  0.10100000352E+00 0. -1.
       -3    1    3    3    0  502  0.12972007762E+03 -0.10764517080E+04 -0.54143627159E+03  0.12119112280E+04  0.10100000352E+00 0.  1.
</event>
<event>
 5   0  0.1303224E-05  0.2274074E+04  0.7818609E-02  0.8488214E-01
       -1   -1    0    0    0  501  0.00000000000E+00  0.00000000000E+00  0.61951079531E+03  0.61951079533E+03  0.50400001928E-02 0.  1.
        1   -1    0    0  501    0  0.00000000000E+00  0.00000000000E+00 -0.20868931881E+04  0.20868931881E+04  0.50400001928E-02 0. -1.
    10030    2    1    2    0    0  0.00000000000E+00  0.00000000000E+00 -0.14673823928E+04  0.27064039834E+04  0.22740737531E+04 0.  0.
        2    1    3    3  502    0  0.74576289610E+03  0.69412788052E+03 -0.13345237314E+04  0.16789667660E+04  0.25500000920E-02 0. -1.
       -2    1    3    3    0  502 -0.74576289610E+03 -0.69412788052E+03 -0.13285866134E+03  0.10274372174E+04  0.25500000920E-02 0.  1.
</event>
<event>
 5   0  0.1308224E-05  0.2302957E+04  0.7818609E-02  0.8476756E-01
       -1   -1    0    0    0  501  0.00000000000E+00  0.00000000000E+00  0.14812278299E+04  0.14812278300E+04  0.50400001928E-02 0.  1.
        1   -1    0    0  501    0  0.00000000000E+00  0.00000000000E+00 -0.89513722097E+03  0.89513722099E+03  0.50400001928E-02 0. -1.
    10030    2    1    2    0    0  0.00000000000E+00  0.00000000000E+00  0.58609060898E+03  0.23763650509E+04  0.23029565027E+04 0.  0.
        5    1    3    3  502    0  0.68448071027E+03  0.41137131267E+02 -0.66146710939E+03  0.95276803741E+03  0.46999998093E+01 0. -1.
       -5    1    3    3    0  502 -0.68448071027E+03 -0.41137131267E+02  0.12475577184E+04  0.14235970135E+04  0.46999998093E+01 0.  1.
</event>
<event>
 5   0  0.1327820E-05  0.2313451E+04  0.7818609E-02  0.8472636E-01
       -1   -1    0    0    0  501  0.00000000000E+00  0.00000000000E+00  0.11424482375E+04  0.11424482375E+04  0.50400001928E-02 0. -1.
        1   -1    0    0  501    0  0.00000000000E+00  0.00000000000E+00 -0.11711809774E+04  0.11711809774E+04  0.50400001928E-02 0.  1.
    10030    2    1    2    0    0  0.00000000000E+00  0.00000000000E+00 -0.28732739920E+02  0.23136292149E+04  0.23134507935E+04 0.  0.
        1    1    3    3  502    0  0.46575729769E+03 -0.16372924147E+02  0.10444011208E+04  0.11436658753E+04  0.50400001928E-02 0. -1.
       -1    1    3    3    0  502 -0.46575729769E+03  0.16372924147E+02 -0.10731338608E+04  0.11699633397E+04  0.50400001928E-02 0.  1.
</event>
<event>
 5   0  0.2910126E-05  0.2298426E+04  0.7818609E-02  0.8478542E-01
       -2   -1    0    0    0  501  0.00000000000E+00  0.00000000000E+00  0.55866865402E+03  0.55866865402E+03  0.25500000920E-02 0. -1.
        2   -1    0    0  501    0  0.00000000000E+00  0.00000000000E+00 -0.23639953836E+04  0.23639953836E+04  0.25500000920E-02 0.  1.
    10030    2    1    2    0    0  0.00000000000E+00  0.00000000000E+00 -0.18053267296E+04  0.29226640376E+04  0.22984256517E+04 0.  0.
        5    1    3    3  502    0  0.19882268866E+03 -0.94572701520E+03 -0.11188123194E+03  0.97286666552E+03  0.46999998093E+01 0. -1.
       -5    1    3    3    0  502 -0.19882268866E+03  0.94572701520E+03 -0.16934454976E+04  0.19497973721E+04  0.46999998093E+01 0.  1.
</event>
<event>
 5   0  0.2871888E-05  0.2318255E+04  0.7818609E-02  0.8470758E-01
       -2   -1    0    0    0  501  0.00000000000E+00  0.00000000000E+00  0.59288864765E+03  0.59288864766E+03  0.25500000920E-02 0.  1.
        2   -1    0    0  501    0  0.00000000000E+00  0.00000000000E+00 -0.22661542504E+04  0.22661542504E+04  0.25500000920E-02 0. -1.
    10030    2    1    2    0    0  0.00000000000E+00  0.00000000000E+00 -0.16732656028E+04  0.28590428981E+04  0.23182554897E+04 0.  0.
        3    1    3    3  502    0  0.11264822962E+04 -0.24238042834E+03 -0.99197867068E+03  0.15204382030E+04  0.10100000352E+00 0. -1.
       -3    1    3    3    0  502 -0.11264822962E+04  0.24238042834E+03 -0.68128693211E+03  0.13386046951E+04  0.10100000352E+00 0.  1.
</event>
<event>
 5   0  0.2994157E-05  0.2312515E+04  0.7818609E-02  0.8473003E-01
       -2   -1    0    0    0  501  0.00000000000E+00  0.00000000000E+00  0.81498403567E+03  0.81498403567E+03  0.25500000920E-02 0.  1.
        2   -1    0    0  501    0  0.00000000000E+00  0.00000000000E+00 -0.16404386835E+04  0.16404386835E+04  0.25500000920E-02 0. -1.
    10030    2    1    2    0    0  0.00000000000E+00  0.00000000000E+00 -0.82545464785E+03  0.24554227192E+04  0.23125149414E+04 0.  0.
        4    1    3    3  502    0  0.29305915400E+02  0.66679643414E+03 -0.14152427094E+04  0.15647331595E+04  0.12699999809E+01 0. -1.
       -4    1    3    3    0  502 -0.29305915400E+02 -0.66679643414E+03  0.58978806152E+03  0.89068955965E+03  0.12699999809E+01 0.  1.
</event>
<event>
 5   0  0.2871888E-05  0.2256511E+04  0.7818609E-02  0.8495268E-01
       -2   -1    0    0    0  501  0.00000000000E+00  0.00000000000E+00  0.97479112533E+03  0.97479112533E+03  0.25500000920E-02 0. -1.
        2   -1    0    0  501    0  0.00000000000E+00  0.00000000000E+00 -0.13058806125E+04  0.13058806125E+04  0.25500000920E-02 0.  1.
    10030    2    1    2    0    0  0.00000000000E+00  0.00000000000E+00 -0.33108948716E+03  0.22806717378E+04  0.22565113178E+04 0.  0.
        3    1    3    3  502    0 -0.39560263678E+02  0.16275159068E+03  0.96215594586E+03  0.97662539855E+03  0.10100000352E+00 0. -1.
       -3    1    3    3    0  502  0.39560263678E+02 -0.16275159068E+03 -0.12932454330E+04  0.13040463393E+04  0.10100000352E+00 0.  1.
</event>
<event>
 5   0  0.1308224E-05  0.2288612E+04  0.7818609E-02  0.8482425E-01
        1   -1    0    0  501    0  0.00000000000E+00  0.00000000000E+00  0.11713312396E+04  0.11713312397E+04  0.50400001928E-02 0. -1.
       -1   -1    0    0    0  501  0.00000000000E+00  0.00000000000E+00 -0.11179038692E+04  0.11179038692E+04  0.50400001928E-02 0.  1.
    10030    2    1    2    0    0  0.00000000000E+00  0.00000000000E+00  0.53427370404E+02  0.22892351089E+04  0.22886115660E+04 0.  0.
        5    1    3    3  502    0 -0.94311113441E+01 -0.54598166920E+03  0.10325863457E+04  0.11680931385E+04  0.46999998093E+01 0. -1.
       -5    1    3    3    0  502  0.94311113441E+01  0.54598166920E+03 -0.97915897526E+03  0.11211419704E+04  0.46999998093E+01 0.  1.
</event>
<event>
 5   0  0.1284837E-05  0.2273672E+04  0.7818609E-02  0.8488375E-01
        1   -1    0    0  501    0  0.00000000000E+00  0.00000000000E+00  0.12680874175E+04  0.12680874175E+04  0.50400001928E-02 0.  1.
       -1   -1    0    0    0  501  0.00000000000E+00  0.00000000000E+00 -0.10191691890E+04  0.10191691890E+04  0.50400001928E-02 0. -1.
    10030    2    1    2    0    0  0.00000000000E+00  0.00000000000E+00  0.24891822856E+03  0.22872566065E+04  0.22736715901E+04 0.  0.
        4    1    3    3  502    0 -0.96637775626E+02 -0.15412773129E+03  0.12533493632E+04  0.12664835003E+04  0.12699999809E+01 0.  1.
       -4    1    3    3    0  502  0.96637775626E+02  0.15412773129E+03 -0.10044311347E+04  0.10207731062E+04  0.12699999809E+01 0. -1.
</event>
<event>
 5   0  0.1308224E-05  0.2304983E+04  0.7818609E-02  0.8475959E-01
        1   -1    0    0  501    0  0.00000000000E+00  0.00000000000E+00  0.69606056618E+03  0.69606056620E+03  0.50400001928E-02 0. -1.
       -1   -1    0    0    0  501  0.00000000000E+00  0.00000000000E+00 -0.19082202188E+04  0.19082202188E+04  0.50400001928E-02 0.  1.
    10030    2    1    2    0    0  0.00000000000E+00  0.00000000000E+00 -0.12121596526E+04  0.26042807850E+04  0.23049831634E+04 0.  0.
        5    1    3    3  502    0  0.31776237883E+03  0.20893428790E+03  0.62311402460E+03  0.73001345447E+03  0.46999998093E+01 0. -1.
       -5    1    3    3    0  502 -0.31776237883E+03 -0.20893428790E+03 -0.18352736772E+04  0.18742673305E+04  0.46999998093E+01 0.  1.
</event>
<event>
 5   0  0.1284837E-05  0.2311662E+04  0.7818609E-02  0.8473337E-01
        1   -1    0    0  501    0  0.00000000000E+00  0.00000000000E+00  0.18430409860E+04  0.18430409860E+04  0.50400001928E-02 0.  1.
       -1   -1    0    0    0  501  0.00000000000E+00  0.00000000000E+00 -0.72485932479E+03  0.72485932480E+03  0.50400001928E-02 0. -1.
    10030    2    1    2    0    0  0.00000000000E+00  0.00000000000E+00  0.11181816612E+04  0.25679003108E+04  0.23116621247E+04 0.  0.
        4    1    3    3  502    0  0.14637152263E+03  0.59884859262E+03 -0.52698446743E+03  0.81102312010E+03  0.12699999809E+01 0. -1.
       -4    1    3    3    0  502 -0.14637152263E+03 -0.59884859262E+03  0.16451661286E+04  0.17568771907E+04  0.12699999809E+01 0.  1.
</event>
<event>
 5   0  0.2871888E-05  0.2298131E+04  0.7818609E-02  0.8478658E-01
        2   -1    0    0  501    0  0.00000000000E+00  0.00000000000E+00  0.11555902116E+04  0.11555902116E+04  0.25500000920E-02 0. -1.
       -2   -1    0    0    0  501  0.00000000000E+00  0.00000000000E+00 -0.11425775393E+04  0.11425775393E+04  0.25500000920E-02 0.  1.
    10030    2    1    2    0    0  0.00000000000E+00  0.00000000000E+00  0.13012672363E+02  0.22981677509E+04  0.22981309104E+04 0.  0.
        3    1    3    3  502    0  0.67439095412E+03  0.93028875064E+03  0.17046506032E+02  0.11491435559E+04  0.10100000352E+00 0.  1.
       -3    1    3    3    0  502 -0.67439095412E+03 -0.93028875064E+03 -0.40338336690E+01  0.11490241950E+04  0.10100000352E+00 0. -1.
</event>
<event>
 5   0  0.1371753E-05  0.2295100E+04  0.7818609E-02  0.8479856E-01
       -1   -1    0    0    0  501  0.00000000000E+00  0.00000000000E+00  0.61993256941E+03  0.61993256943E+03  0.50400001928E-02 0.  1.
        1   -1    0    0  501    0  0.00000000000E+00  0.00000000000E+00 -0.21242159140E+04  0.21242159140E+04  0.50400001928E-02 0. -1.
    10030    2    1    2    0    0  0.00000000000E+00  0.00000000000E+00 -0.15042833446E+04  0.27441484834E+04  0.22950996750E+04 0.  0.
        3    1    3    3  502    0 -0.58124227937E+03 -0.35097350181E+03 -0.18582655692E+04  0.19784276388E+04  0.10100000352E+00 0. -1.
       -3    1    3    3    0  502  0.58124227937E+03  0.35097350181E+03  0.35398222460E+03  0.76572084459E+03  0.10100000352E+00 0.  1.
</event>
<event>
 5   0  0.2910126E-05  0.2297262E+04  0.7818609E-02  0.8479001E-01
        2   -1    0    0  501    0  0.00000000000E+00  0.00000000000E+00  0.97973767561E+03  0.97973767561E+03  0.25500000920E-02 0. -1.
       -2   -1    0    0    0  501  0.00000000000E+00  0.00000000000E+00 -0.13466393279E+04  0.13466393279E+04  0.25500000920E-02 0.  1.
    10030    2    1    2    0    0  0.00000000000E+00  0.00000000000E+00 -0.36690165228E+03  0.23263770035E+04  0.22972620965E+04 0.  0.
        5    1    3    3  502    0 -0.60381734301E+02 -0.36367547254E+03  0.91818992025E+03  0.98944460321E+03  0.46999998093E+01 0. -1.
       -5    1    3    3    0  502  0.60381734301E+02  0.36367547254E+03 -0.12850915725E+04  0.13369324003E+04  0.46999998093E+01 0.  1.
</event>
<event>
 5   0  0.2871888E-05  0.2300309E+04  0.7818609E-02  0.8477799E-01
       -2   -1    0    0    0  501  0.00000000000E+00  0.00000000000E+00  0.86702685084E+03  0.86702685085E+03  0.25500000920E-02 0.  1.
        2   -1    0    0  501    0  0.00000000000E+00  0.00000000000E+00 -0.15257374285E+04  0.15257374285E+04  0.25500000920E-02 0. -1.
    10030    2    1    2    0    0  0.00000000000E+00  0.00000000000E+00 -0.65871057766E+03  0.23927642793E+04  0.23003089513E+04 0.  0.
        3    1    3    3  502    0  0.97606520805E+03 -0.31959731443E+03 -0.86785924889E+03  0.13446283575E+04  0.10100000352E+00 0. -1.
       -3    1    3    3    0  502 -0.97606520805E+03  0.31959731443E+03  0.20914867124E+03  0.10481359218E+04  0.10100000352E+00 0.  1.
</event>
<event>
 5   0  0.1371753E-05  0.2300117E+04  0.7818609E-02  0.8477875E-01
        1   -1    0    0  501    0  0.00000000000E+00  0.00000000000E+00  0.13537329974E+04  0.13537329974E+04  0.50400001928E-02 0.  1.
       -1   -1    0    0    0  501  0.00000000000E+00  0.00000000000E+00 -0.97702737462E+03  0.97702737463E+03  0.50400001928E-02 0. -1.
    10030    2    1    2    0    0  0.00000000000E+00  0.00000000000E+00  0.37670562274E+03  0.23307603720E+04  0.23001166895E+04 0.  0.
        3    1    3    3  502    0 -0.93838833362E+03 -0.66486418872E+03  0.18415857832E+03  0.11647022994E+04  0.10100000352E+00 0.  1.
       -3    1    3    3    0  502  0.93838833362E+03  0.66486418872E+03  0.19254704442E+03  0.11660580726E+04  0.10100000352E+00 0. -1.
</event>
<event>
 5   0  0.2994157E-05  0.2300452E+04  0.7818609E-02  0.8477743E-01
        2   -1    0    0  501    0  0.00000000000E+00  0.00000000000E+00  0.16962063738E+04  0.16962063738E+04  0.25500000920E-02 0. -1.
       -2   -1    0    0    0  501  0.00000000000E+00  0.00000000000E+00 -0.77998734996E+03  0.77998734997E+03  0.25500000920E-02 0.  1.
    10030    2    1    2    0    0  0.00000000000E+00  0.00000000000E+00  0.91621902380E+03  0.24761937237E+04  0.23004517074E+04 0.  0.
        4    1    3    3  502    0 -0.85312635896E+02  0.38732494452E+03 -0.70405723111E+03  0.80808233248E+03  0.12699999809E+01 0.  1.
       -4    1    3    3    0  502  0.85312635896E+02 -0.38732494452E+03  0.16202762549E+04  0.16681113912E+04  0.12699999809E+01 0. -1.
</event>
<event>
 5   0  0.2910126E-05  0.2291546E+04  0.7818609E-02  0.8481262E-01
       -2   -1    0    0    0  501  0.00000000000E+00  0.00000000000E+00  0.13959747756E+04  0.13959747756E+04  0.25500000920E-02 0. -1.
        2   -1    0    0  501    0  0.00000000000E+00  0.00000000000E+00 -0.94041522344E+03  0.94041522344E+03  0.25500000920E-02 0.  1.
    10030    2    1    2    0    0  0.00000000000E+00  0.00000000000E+00  0.45555955219E+03  0.23363899991E+04  0.22915461423E+04 0.  0.
        5    1    3    3  502    0  0.81308409311E+03 -0.55351866521E+03  0.82688858408E+03  0.12850118582E+04  0.46999998093E+01 0. -1.
       -5    1    3    3    0  502 -0.81308409311E+03  0.55351866521E+03 -0.37132903189E+03  0.10513781409E+04  0.46999998093E+01 0.  1.
</event>
<event>
 5   0  0.1303224E-05  0.2312040E+04  0.7818609E-02  0.8473189E-01
        1   -1    0    0  501    0  0.00000000000E+00  0.00000000000E+00  0.11289625396E+04  0.11289625396E+04  0.50400001928E-02 0.  1.
       -1   -1    0    0    0  501  0.00000000000E+00  0.00000000000E+00 -0.11837255094E+04  0.11837255094E+04  0.50400001928E-02 0. -1.
    10030    2    1    2    0    0  0.00000000000E+00  0.00000000000E+00 -0.54762969797E+02  0.23126880489E+04  0.23120395820E+04 0.  0.
        2    1    3    3  502    0 -0.74330373609E+03 -0.66840176606E+03 -0.60816502957E+03  0.11700966063E+04  0.25500000920E-02 0. -1.
       -2    1    3    3    0  502  0.74330373609E+03  0.66840176606E+03  0.55340205978E+03  0.11425914426E+04  0.25500000920E-02 0.  1.
</event>
<event>
 5   0  0.1284837E-05  0.2298852E+04  0.7818609E-02  0.8478374E-01
       -1   -1    0    0    0  501  0.00000000000E+00  0.00000000000E+00  0.10988033160E+04  0.10988033160E+04  0.50400001928E-02 0.  1.
        1   -1    0    0  501    0  0.00000000000E+00  0.00000000000E+00 -0.12023812196E+04  0.12023812197E+04  0.50400001928E-02 0. -1.
    10030    2    1    2    0    0  0.00000000000E+00  0.00000000000E+00 -0.10357790368E+03  0.23011845356E+04  0.22988522973E+04 0.  0.
        4    1    3    3  502    0  0.33111555603E+03  0.76188102754E+03 -0.84699947980E+03  0.11863852423E+04  0.12699999809E+01 0. -1.
       -4    1    3    3    0  502 -0.33111555603E+03 -0.76188102754E+03  0.74342157612E+03  0.11147992933E+04  0.12699999809E+01 0.  1.
</event>
<event>
 5   0  0.1371753E-05  0.2188220E+04  0.7818609E-02  0.8523347E-01
        1   -1    0    0  501    0  0.00000000000E+00  0.00000000000E+00  0.14759499881E+04  0.14759499881E+04  0.50400001928E-02 0. -1.
       -1   -1    0    0    0  501  0.00000000000E+00  0.00000000000E+00 -0.81105501422E+03  0.81105501423E+03  0.50400001928E-02 0.  1.
    10030    2    1    2    0    0  0.00000000000E+00  0.00000000000E+00  0.66489497385E+03  0.22870050023E+04  0.21882199511E+04 0.  0.
        3    1    3    3  502    0  0.99485740203E+03 -0.40162478784E+03  0.10820890116E+03  0.10783102045E+04  0.10100000352E+00 0.  1.
       -3    1    3    3    0  502 -0.99485740203E+03  0.40162478784E+03  0.55668607269E+03  0.12086947978E+04  0.10100000352E+00 0. -1.
</event>
<event>
 5   0  0.1308224E-05  0.2298961E+04  0.7818609E-02  0.8478331E-01
       -1   -1    0    0    0  501  0.00000000000E+00  0.00000000000E+00  0.85278011711E+03  0.85278011713E+03  0.50400001928E-02 0.  1.
        1   -1    0    0  501    0  0.00000000000E+00  0.00000000000E+00 -0.15494091079E+04  0.15494091079E+04  0.50400001928E-02 0. -1.
    10030    2    1    2    0    0  0.00000000000E+00  0.00000000000E+00 -0.69662899082E+03  0.24021892251E+04  0.22989608788E+04 0.  0.
        5    1    3    3  502    0 -0.95219224585E+03 -0.21341414589E+03 -0.98310225941E+03  0.13851815091E+04  0.46999998093E+01 0. -1.
       -5    1    3    3    0  502  0.95219224585E+03  0.21341414589E+03  0.28647326858E+03  0.10170077160E+04  0.46999998093E+01 0.  1.
</event>
<event>
 5   0  0.2871888E-05  0.2267174E+04  0.7818609E-02  0.8490977E-01
        2   -1    0    0  501    0  0.00000000000E+00  0.00000000000E+00  0.21275691312E+04  0.21275691312E+04  0.25500000920E-02 0.  1.
       -2   -1    0    0    0  501  0.00000000000E+00  0.00000000000E+00 -0.60398508472E+03  0.60398508472E+03  0.25500000920E-02 0. -1.
    10030    2    1    2    0    0  0.00000000000E+00  0.00000000000E+00  0.15235840465E+04  0.27315542160E+04  0.22671744723E+04 0.  0.
        3    1    3    3  502    0  0.43765760232E+03  0.53883553009E+03  0.18415299978E+04  0.19680245548E+04  0.10100000352E+00 0.  1.
       -3    1    3    3    0  502 -0.43765760232E+03 -0.53883553009E+03 -0.31794595126E+03  0.76352966117E+03  0.10100000352E+00 0. -1.
</event>
<event>
 5   0  0.1327820E-05  0.2288254E+04  0.7818609E-02  0.8482567E-01
        1   -1    0    0  501    0  0.00000000000E+00  0.00000000000E+00  0.14945384121E+04  0.14945384121E+04  0.50400001928E-02 0. -1.
       -1   -1    0    0    0  501  0.00000000000E+00  0.00000000000E+00 -0.87587341508E+03  0.87587341510E+03  0.50400001928E-02 0.  1.
    10030    2    1    2    0    0  0.00000000000E+00  0.00000000000E+00  0.61866499698E+03  0.23704118272E+04  0.22882538871E+04 0.  0.
        1    1    3    3  502    0  0.55778215976E+03  0.46501941222E+03  0.12251927845E+04  0.14242406225E+04  0.50400001928E-02 0. -1.
       -1    1    3    3    0  502 -0.55778215976E+03 -0.46501941222E+03 -0.60652778753E+03  0.94617120468E+03  0.50400001928E-02 0.  1.
</event>
<event>
 5   0  0.2816178E-05  0.2295255E+04  0.7818609E-02  0.8479794E-01
       -2   -1    0    0    0  501  0.00000000000E+00  0.00000000000E+00  0.66157908985E+03  0.66157908986E+03  0.25500000920E-02 0. -1.
        2   -1    0    0  501    0  0.00000000000E+00  0.00000000000E+00 -0.19907662433E+04  0.19907662433E+04  0.25500000920E-02 0.  1.
    10030    2    1    2    0    0  0.00000000000E+00  0.00000000000E+00 -0.13291871534E+04  0.26523453331E+04  0.22952553839E+04 0.  0.
        1    1    3    3  502    0  0.13655516454E+03 -0.10862485461E+04 -0.26685647599E+03  0.11268520735E+04  0.50400001928E-02 0. -1.
       -1    1    3    3    0  502 -0.13655516454E+03  0.10862485461E+04 -0.10623306774E+04  0.15254932596E+04  0.50400001928E-02 0.  1.
</event>
<event>
 5   0  0.1371753E-05  0.2309384E+04  0.7818609E-02  0.8474230E-01
        1   -1    0    0  501    0  0.00000000000E+00  0.00000000000E+00  0.99046425688E+03  0.99046425689E+03  0.50400001928E-02 0.  1.
       -1   -1    0    0    0  501  0.00000000000E+00  0.00000000000E+00 -0.13461502693E+04  0.13461502693E+04  0.50400001928E-02 0. -1.
    10030    2    1    2    0    0  0.00000000000E+00  0.00000000000E+00 -0.35568601242E+03  0.23366145262E+04  0.23093840964E+04 0.  0.
        3    1    3    3  502    0  0.20337809393E+02 -0.67401218678E+03  0.77055011335E+03  0.10239402042E+04  0.10100000352E+00 0.  1.
       -3    1    3    3    0  502 -0.20337809393E+02  0.67401218678E+03 -0.11262361258E+04  0.13126743220E+04  0.10100000352E+00 0. -1.
</event>
<event>
 5   0  0.1303224E-05  0.2298713E+04  0.7818609E-02  0.8478429E-01
        1   -1    0    0  501    0  0.00000000000E+00  0.00000000000E+00  0.95380447836E+03  0.95380447837E+03  0.50400001928E-02 0. -1.
       -1   -1    0    0    0  501  0.00000000000E+00  0.00000000000E+00 -0.13850010893E+04  0.13850010893E+04  0.50400001928E-02 0.  1.
    10030    2    1    2    0    0  0.00000000000E+00  0.00000000000E+00 -0.43119661094E+03  0.23388055677E+04  0.22987128934E+04 0.  0.
        2    1    3    3  502    0  0.52060463977E+03 -0.42186656538E+03 -0.11657053176E+04  0.13445703691E+04  0.25500000920E-02 0.  1.
       -2    1    3    3    0  502 -0.52060463977E+03  0.42186656538E+03  0.73450870667E+03  0.99423519859E+03  0.25500000920E-02 0. -1.
</event>
<event>
 5   0  0.1308224E-05  0.2263999E+04  0.7818609E-02  0.8492253E-01
       -1   -1    0    0    0  501  0.00000000000E+00  0.00000000000E+00  0.68655331376E+03  0.68655331378E+03  0.50400001928E-02 0. -1.
        1   -1    0    0  501    0  0.00000000000E+00  0.00000000000E+00 -0.18664577759E+04  0.18664577759E+04  0.50400001928E-02 0.  1.
    10030    2    1    2    0    0  0.00000000000E+00  0.00000000000E+00 -0.11799044621E+04  0.25530110897E+04  0.22639989144E+04 0.  0.
        5    1    3    3  502    0  0.90491985547E+03 -0.43949310732E+03 -0.46929427883E+01  0.10060209987E+04  0.46999998093E+01 0. -1.
       -5    1    3    3    0  502 -0.90491985547E+03  0.43949310732E+03 -0.11752115193E+04  0.15469900909E+04  0.46999998093E+01 0.  1.
</event>
<event>
 5   0  0.2910126E-05  0.2301756E+04  0.7818609E-02  0.8477229E-01
       -2   -1    0    0    0  501  0.00000000000E+00  0.00000000000E+00  0.12216093327E+04  0.12216093327E+04  0.25500000920E-02 0. -1.
        2   -1    0    0  501    0  0.00000000000E+00  0.00000000000E+00 -0.10842417080E+04  0.10842417080E+04  0.25500000920E-02 0.  1.
    10030    2    1    2    0    0  0.00000000000E+00  0.00000000000E+00  0.13736762466E+03  0.23058510407E+04  0.23017556685E+04 0.  0.
        5    1    3    3  502    0  0.73260142759E+03  0.88721144001E+03  0.94198883516E+02  0.11544455425E+04  0.46999998093E+01 0.  1.
       -5    1    3    3    0  502 -0.73260142759E+03 -0.88721144001E+03  0.43168741140E+02  0.11514054982E+04  0.46999998093E+01 0. -1.
</event>
<event>
 5   0  0.2910126E-05  0.2313811E+04  0.7818609E-02  0.8472496E-01
        2   -1    0    0  501    0  0.00000000000E+00  0.00000000000E+00  0.13882405739E+04  0.13882405739E+04  0.25500000920E-02 0.  1.
       -2   -1    0    0    0  501  0.00000000000E+00  0.00000000000E+00 -0.96411973086E+03  0.96411973087E+03  0.25500000920E-02 0. -1.
    10030    2    1    2    0    0  0.00000000000E+00  0.00000000000E+00  0.42412084307E+03  0.23523603048E+04  0.23138108207E+04 0.  0.
        5    1    3    3  502    0 -0.25468860412E+03  0.92116309446E+03  0.87484228580E+03  0.12956769839E+04  0.46999998093E+01 0.  1.
       -5    1    3    3    0  502  0.25468860412E+03 -0.92116309446E+03 -0.45072144274E+03  0.10566833209E+04  0.46999998093E+01 0. -1.
</event>
<event>
 5   0  0.2910126E-05  0.2157996E+04  0.7818609E-02  0.8536118E-01
        2   -1    0    0  501    0  0.00000000000E+00  0.00000000000E+00  0.11882823036E+04  0.11882823036E+04  0.25500000920E-02 0. -1.
       -2   -1    0    0    0  501  0.00000000000E+00  0.00000000000E+00 -0.97976400340E+03  0.97976400340E+03  0.25500000920E-02 0.  1.
    10030    2    1    2    0    0  0.00000000000E+00  0.00000000000E+00  0.20851830016E+03  0.21680463070E+04  0.21579955764E+04 0.  0.
        5    1    3    3  502    0 -0.36855156801E+03 -0.68592679708E+03  0.85465709093E+03  0.11561949067E+04  0.46999998093E+01 0. -1.
       -5    1    3    3    0  502  0.36855156801E+03  0.68592679708E+03 -0.64613879077E+03  0.10118514002E+04  0.46999998093E+01 0.  1.
</event>
<event>
 5   0  0.1284837E-05  0.2257994E+04  0.7818609E-02  0.8494670E-01
       -1   -1    0    0    0  501  0.00000000000E+00  0.00000000000E+00  0.91774711230E+03  0.91774711231E+03  0.50400001928E-02 0. -1.
        1   -1    0    0  501    0  0.00000000000E+00  0.00000000000E+00 -0.13888734037E+04  0.13888734037E+04  0.50400001928E-02 0.  1.
    10030    2    1    2    0    0  0.00000000000E+00  0.00000000000E+00 -0.47112629141E+03  0.23066205160E+04  0.22579942920E+04 0.  0.
        4    1    3    3  502    0 -0.11162661266E+04  0.25576803763E+02 -0.64845384805E+02  0.11184412256E+04  0.12699999809E+01 0. -1.
       -4    1    3    3    0  502  0.11162661266E+04 -0.25576803763E+02 -0.40628090661E+03  0.11881792904E+04  0.12699999809E+01 0.  1.
</event>
<event>
 5   0  0.2938972E-05  0.2292880E+04  0.7818609E-02  0.8480734E-01
       -2   -1    0    0    0  501  0.00000000000E+00  0.00000000000E+00  0.72615093362E+03  0.72615093362E+03  0.25500000920E-02 0. -1.
        2   -1    0    0  501    0  0.00000000000E+00  0.00000000000E+00 -0.18099884109E+04  0.18099884109E+04  0.25500000920E-02 0.  1.
    10030    2    1    2    0    0  0.00000000000E+00  0.00000000000E+00 -0.10838374773E+04  0.25361393446E+04  0.22928800880E+04 0.  0.
        2    1    3    3  502    0  0.62876249291E+03  0.72922498410E+03  0.14636414823E+03  0.97392700641E+03  0.25500000920E-02 0. -1.
       -2    1    3    3    0  502 -0.62876249291E+03 -0.72922498410E+03 -0.12302016256E+04  0.15622123381E+04  0.25500000920E-02 0.  1.
</event>
<event>
 5   0  0.2871888E-05  0.2283415E+04  0.7818609E-02  0.8484489E-01
       -2   -1    0    0    0  501  0.00000000000E+00  0.00000000000E+00  0.19344087342E+04  0.19344087342E+04  0.25500000920E-02 0. -1.
        2   -1    0    0  501    0  0.00000000000E+00  0.00000000000E+00 -0.67384740708E+03  0.67384740708E+03  0.25500000920E-02 0.  1.
    10030    2    1    2    0    0  0.00000000000E+00  0.00000000000E+00  0.12605613271E+04  0.26082561413E+04  0.22834152577E+04 0.  0.
        3    1    3    3  502    0  0.10920981661E+04 -0.25045220037E+03  0.88077615281E+03  0.14251916891E+04  0.10100000352E+00 0. -1.
       -3    1    3    3    0  502 -0.10920981661E+04  0.25045220037E+03  0.37978517429E+03  0.11830644522E+04  0.10100000352E+00 0.  1.
</event>
<event>
 5   0  0.1327820E-05  0.2300113E+04  0.7818609E-02  0.8477876E-01
       -1   -1    0    0    0  501  0.00000000000E+00  0.00000000000E+00  0.75966198574E+03  0.75966198576E+03  0.50400001928E-02 0. -1.
        1   -1    0    0  501    0  0.00000000000E+00  0.00000000000E+00 -0.17410773507E+04  0.17410773507E+04  0.50400001928E-02 0.  1.
    10030    2    1    2    0    0  0.00000000000E+00  0.00000000000E+00 -0.98141536491E+03  0.25007393364E+04  0.23001132821E+04 0.  0.
        1    1    3    3  502    0  0.77157996462E+03  0.53855245833E+03  0.22822302121E+03  0.96822525252E+03  0.50400001928E-02 0. -1.
       -1    1    3    3    0  502 -0.77157996462E+03 -0.53855245833E+03 -0.12096383861E+04  0.15325140839E+04  0.50400001928E-02 0.  1.
</event>
<event>
 5   0  0.2871888E-05  0.2287915E+04  0.7818609E-02  0.8482701E-01
       -2   -1    0    0    0  501  0.00000000000E+00  0.00000000000E+00  0.75726182935E+03  0.75726182935E+03  0.25500000920E-02 0. -1.
        2   -1    0    0  501    0  0.00000000000E+00  0.00000000000E+00 -0.17281187146E+04  0.17281187146E+04  0.25500000920E-02 0.  1.
    10030    2    1    2    0    0  0.00000000000E+00  0.00000000000E+00 -0.97085688522E+03  0.24853805439E+04  0.22879146305E+04 0.  0.
        3    1    3    3  502    0 -0.79792557430E+03  0.44207490909E+02 -0.13746092758E+04  0.15900283632E+04  0.10100000352E+00 0.  1.
       -3    1    3    3    0  502  0.79792557430E+03 -0.44207490909E+02  0.40375239063E+03  0.89535218071E+03  0.10100000352E+00 0. -1.
</event>
<event>
 5   0  0.1284837E-05  0.2300256E+04  0.7818609E-02  0.8477820E-01
       -1   -1    0    0    0  501  0.00000000000E+00  0.00000000000E+00  0.12812248747E+04  0.12812248748E+04  0.50400001928E-02 0. -1.
        1   -1    0    0  501    0  0.00000000000E+00  0.00000000000E+00 -0.10324450286E+04  0.10324450286E+04  0.50400001928E-02 0.  1.
    10030    2    1    2    0    0  0.00000000000E+00  0.00000000000E+00  0.24877984612E+03  0.23136699034E+04  0.23002558575E+04 0.  0.
        4    1    3    3  502    0 -0.55192197293E+03  0.47229906966E+03 -0.77249848918E+03  0.10603960600E+04  0.12699999809E+01 0.  1.
       -4    1    3    3    0  502  0.55192197293E+03 -0.47229906966E+03  0.10212783353E+04  0.12532738434E+04  0.12699999809E+01 0. -1.
</event>
<event>
 5   0  0.2910126E-05  0.2289941E+04  0.7818609E-02  0.8481898E-01
       -2   -1    0    0    0  501  0.00000000000E+00  0.00000000000E+00  0.85637967457E+03  0.85637967457E+03  0.25500000920E-02 0.  1.
        2   -1    0    0  501    0  0.00000000000E+00  0.00000000000E+00 -0.15308139479E+04  0.15308139479E+04  0.25500000920E-02 0. -1.
    10030    2    1    2    0    0  0.00000000000E+00  0.00000000000E+00 -0.67443427329E+03  0.23871936224E+04  0.22899414407E+04 0.  0.
        5    1    3    3  502    0  0.22307830996E+03 -0.11113038121E+04 -0.50587747312E+03  0.12412470355E+04  0.46999998093E+01 0. -1.
       -5    1    3    3    0  502 -0.22307830996E+03  0.11113038121E+04 -0.16855680017E+03  0.11459465870E+04  0.46999998093E+01 0.  1.
</event>
<event>
 5   0  0.1371753E-05  0.2294408E+04  0.7818609E-02  0.8480129E-01
        1   -1    0    0  501    0  0.00000000000E+00  0.00000000000E+00  0.15191884002E+04  0.15191884002E+04  0.50400001928E-02 0. -1.
       -1   -1    0    0    0  501  0.00000000000E+00  0.00000000000E+00 -0.86630240817E+03  0.86630240818E+03  0.50400001928E-02 0.  1.
    10030    2    1    2    0    0  0.00000000000E+00  0.00000000000E+00  0.65288599205E+03  0.23854908084E+04  0.22944076095E+04 0.  0.
        3    1    3    3  502    0  0.43205115069E+03 -0.91390820086E+03  0.89035827963E+03  0.13470836176E+04  0.10100000352E+00 0.  1.
       -3    1    3    3    0  502 -0.43205115069E+03  0.91390820086E+03 -0.23747228758E+03  0.10384071908E+04  0.10100000352E+00 0. -1.
</event>
<event>
 5   0  0.2938972E-05  0.2316250E+04  0.7818609E-02  0.8471541E-01
       -2   -1    0    0    0  501  0.00000000000E+00  0.00000000000E+00  0.15794345292E+04  0.15794345292E+04  0.25500000920E-02 0. -1.
        2   -1    0    0  501    0  0.00000000000E+00  0.00000000000E+00 -0.84919866732E+03  0.84919866732E+03  0.25500000920E-02 0.  1.
    10030    2    1    2    0    0  0.00000000000E+00  0.00000000000E+00  0.73023586190E+03  0.24286331965E+04  0.23162501569E+04 0.  0.
        2    1    3    3  502    0 -0.27920344773E+03  0.73106719413E+03 -0.53002530054E+03  0.94516698354E+03  0.25500000920E-02 0.  1.
       -2    1    3    3    0  502  0.27920344773E+03 -0.73106719413E+03  0.12602611624E+04  0.14834662130E+04  0.25500000920E-02 0. -1.
</event>
<event>
 5   0  0.1308224E-05  0.2291951E+04  0.7818609E-02  0.8481101E-01
        1   -1    0    0  501    0  0.00000000000E+00  0.00000000000E+00  0.86210416006E+03  0.86210416008E+03  0.50400001928E-02 0. -1.
       -1   -1    0    0    0  501  0.00000000000E+00  0.00000000000E+00 -0.15233196679E+04  0.15233196679E+04  0.50400001928E-02 0.  1.
    10030    2    1    2    0    0  0.00000000000E+00  0.00000000000E+00 -0.66121550783E+03  0.23854238280E+04  0.22919513283E+04 0.  0.
        5    1    3    3  502    0  0.23228794152E+03 -0.12219174558E+03 -0.14916054890E+04  0.15145288163E+04  0.46999998093E+01 0.  1.
       -5    1    3    3    0  502 -0.23228794152E+03  0.12219174558E+03  0.83038998121E+03  0.87089501168E+03  0.46999998093E+01 0. -1.
</event>
<event>
 5   0  0.1303224E-05  0.2291505E+04  0.7818609E-02  0.8481278E-01
        1   -1    0    0  501    0  0.00000000000E+00  0.00000000000E+00  0.17735899613E+04  0.17735899613E+04  0.50400001928E-02 0. -1.
       -1   -1    0    0    0  501  0.00000000000E+00  0.00000000000E+00 -0.74016483560E+03  0.74016483562E+03  0.50400001928E-02 0.  1.
    10030    2    1    2    0    0  0.00000000000E+00  0.00000000000E+00  0.10334251257E+04  0.25137547969E+04  0.22915051143E+04 0.  0.
        2    1    3    3  502    0 -0.10073571232E+04  0.53791586091E+03  0.41482202090E+03  0.12149893646E+04  0.25500000920E-02 0. -1.
       -2    1    3    3    0  502  0.10073571232E+04 -0.53791586091E+03  0.61860310480E+03  0.12987654324E+04  0.25500000920E-02 0.  1.
</event>
<event>
 5   0  0.1308224E-05  0.2306287E+04  0.7818609E-02  0.8475446E-01
       -1   -1    0    0    0  501  0.00000000000E+00  0.00000000000E+00  0.15219350676E+04  0.15219350676E+04  0.50400001928E-02 0.  1.
        1   -1    0    0  501    0  0.00000000000E+00  0.00000000000E+00 -0.87371663859E+03  0.87371663860E+03  0.50400001928E-02 0. -1.
    10030    2    1    2    0    0  0.00000000000E+00  0.00000000000E+00  0.64821842901E+03  0.23956517062E+04  0.23062870519E+04 0.  0.
        5    1    3    3  502    0 -0.13163182439E+03  0.33401181961E+03  0.14623930061E+04  0.15058241023E+04  0.46999998093E+01 0.  1.
       -5    1    3    3    0  502  0.13163182439E+03 -0.33401181961E+03 -0.81417457704E+03  0.88982760394E+03  0.46999998093E+01 0. -1.
</event>
<event>
 5   0  0.2910126E-05  0.2299549E+04  0.7818609E-02  0.8478099E-01
       -2   -1    0    0    0  501  0.00000000000E+00  0.00000000000E+00  0.86036670145E+03  0.86036670145E+03  0.25500000920E-02 0.  1.
        2   -1    0    0  501    0  0.00000000000E+00  0.00000000000E+00 -0.15365320656E+04  0.15365320656E+04  0.25500000920E-02 0. -1.
    10030    2    1    2    0    0  0.00000000000E+00  0.00000000000E+00 -0.67616536412E+03  0.23968987670E+04  0.22995486731E+04 0.  0.
        5    1    3    3  502    0 -0.97707489841E+03 -0.50004496014E+03  0.18813930921E+02  0.10977688159E+04  0.46999998093E+01 0.  1.
       -5    1    3    3    0  502  0.97707489841E+03  0.50004496014E+03 -0.69497929504E+03  0.12991299511E+04  0.46999998093E+01 0. -1.
</event>
<event>
 5   0  0.1308224E-05  0.2299656E+04  0.7818609E-02  0.8478057E-01
       -1   -1    0    0    0  501  0.00000000000E+00  0.00000000000E+00  0.94179832371E+03  0.94179832372E+03  0.50400001928E-02 0.  1.
        1   -1    0    0  501    0  0.00000000000E+00  0.00000000000E+00 -0.14038088393E+04  0.14038088393E+04  0.50400001928E-02 0. -1.
    10030    2    1    2    0    0  0.00000000000E+00  0.00000000000E+00 -0.46201051558E+03  0.23456071630E+04  0.22996563323E+04 0.  0.
        5    1    3    3  502    0 -0.15769648409E+03 -0.21920081427E+03 -0.13709986626E+04  0.13973462709E+04  0.46999998093E+01 0. -1.
       -5    1    3    3    0  502  0.15769648409E+03  0.21920081427E+03  0.90898814701E+03  0.94826089209E+03  0.46999998093E+01 0.  1.
</event>
<event>
 5   0  0.2816178E-05  0.2305047E+04  0.7818609E-02  0.8475934E-01
        2   -1    0    0  501    0  0.00000000000E+00  0.00000000000E+00  0.22794327868E+04  0.22794327868E+04  0.25500000920E-02 0. -1.
       -2   -1    0    0    0  501  0.00000000000E+00  0.00000000000E+00 -0.58273738023E+03  0.58273738024E+03  0.25500000920E-02 0.  1.
    10030    2    1    2    0    0  0.00000000000E+00  0.00000000000E+00  0.16966954065E+04  0.28621701670E+04  0.23050472365E+04 0.  0.
        1    1    3    3  502    0 -0.10651835734E+03 -0.92780052576E+03  0.97188492262E+01  0.93394562588E+03  0.50400001928E-02 0.  1.
       -1    1    3    3    0  502  0.10651835734E+03  0.92780052576E+03  0.16869765573E+04  0.19282245411E+04  0.50400001928E-02 0. -1.
</event>
<event>
 5   0  0.2910126E-05  0.2304506E+04  0.7818609E-02  0.8476147E-01
        2   -1    0    0  501    0  0.00000000000E+00  0.00000000000E+00  0.14128628546E+04  0.14128628546E+04  0.25500000920E-02 0.  1.
       -2   -1    0    0    0  501  0.00000000000E+00  0.00000000000E+00 -0.93971366064E+03  0.93971366064E+03  0.25500000920E-02 0. -1.
    10030    2    1    2    0    0  0.00000000000E+00  0.00000000000E+00  0.47314919398E+03  0.23525765153E+04  0.23045056087E+04 0.  0.
        5    1    3    3  502    0  0.10657049931E+04  0.34702859052E+02  0.68241448819E+03  0.12659553880E+04  0.46999998093E+01 0.  1.
       -5    1    3    3    0  502 -0.10657049931E+04 -0.34702859052E+02 -0.20926529421E+03  0.10866211272E+04  0.46999998093E+01 0. -1.
</event>
<event>
 5   0  0.2910126E-05  0.2388309E+04  0.7818609E-02  0.8443893E-01
       -2   -1    0    0    0  501  0.00000000000E+00  0.00000000000E+00  0.51364115200E+03  0.51364115201E+03  0.25500000920E-02 0.  1.
        2   -1    0    0  501    0  0.00000000000E+00  0.00000000000E+00 -0.27762679924E+04  0.27762679924E+04  0.25500000920E-02 0. -1.
    10030    2    1    2    0    0  0.00000000000E+00  0.00000000000E+00 -0.22626268404E+04  0.32899091444E+04  0.23883094355E+04 0.  0.
        5    1    3    3  502    0  0.47497295589E+03  0.38111965179E+03  0.28365480426E+03  0.67181369128E+03  0.46999998093E+01 0.  1.
       -5    1    3    3    0  502 -0.47497295589E+03 -0.38111965179E+03 -0.25462816447E+04  0.26180954532E+04  0.46999998093E+01 0. -1.
</event>
<event>
 5   0  0.1308224E-05  0.2293195E+04  0.7818609E-02  0.8480609E-01
        1   -1    0    0  501    0  0.00000000000E+00  0.00000000000E+00  0.12598996442E+04  0.12598996442E+04  0.50400001928E-02 0.  1.
       -1   -1    0    0    0  501  0.00000000000E+00  0.00000000000E+00 -0.10434847368E+04  0.10434847368E+04  0.50400001928E-02 0. -1.
    10030    2    1    2    0    0  0.00000000000E+00  0.00000000000E+00  0.21641490740E+03  0.23033843810E+04  0.22931951933E+04 0.  0.
        5    1    3    3  502    0 -0.57323278727E+03  0.13873811134E+03  0.10958463325E+04  0.12444859848E+04  0.46999998093E+01 0.  1.
       -5    1    3    3    0  502  0.57323278727E+03 -0.13873811134E+03 -0.87943142510E+03  0.10588983962E+04  0.46999998093E+01 0. -1.
</event>
<event>
 5   0  0.1308224E-05  0.2316725E+04  0.7818609E-02  0.8471356E-01
       -1   -1    0    0    0  501  0.00000000000E+00  0.00000000000E+00  0.75720810668E+03  0.75720810669E+03  0.50400001928E-02 0. -1.
        1   -1    0    0  501    0  0.00000000000E+00  0.00000000000E+00 -0.17720414061E+04  0.17720414061E+04  0.50400001928E-02 0.  1.
    10030    2    1    2    0    0  0.00000000000E+00  0.00000000000E+00 -0.10148332995E+04  0.25292495128E+04  0.23167253770E+04 0.  0.
        5    1    3    3  502    0 -0.73979273284E+03  0.45364534753E+02 -0.14792634131E+04  0.16545674855E+04  0.46999998093E+01 0.  1.
       -5    1    3    3    0  502  0.73979273284E+03 -0.45364534753E+02  0.46443011364E+03  0.87468202739E+03  0.46999998093E+01 0. -1.
</event>
<event>
 5   0  0.2910126E-05  0.2305150E+04  0.7818609E-02  0.8475893E-01
        2   -1    0    0  501    0  0.00000000000E+00  0.00000000000E+00  0.17062773572E+04  0.17062773572E+04  0.25500000920E-02 0. -1.
       -2   -1    0    0    0  501  0.00000000000E+00  0.00000000000E+00 -0.77855414644E+03  0.77855414644E+03  0.25500000920E-02 0.  1.
    10030    2    1    2    0    0  0.00000000000E+00  0.00000000000E+00  0.92772321072E+03  0.24848315036E+04  0.23051501568E+04 0.  0.
        5    1    3    3  502    0 -0.91395432569E+03 -0.24376152538E+03  0.11737334202E+04  0.15074496417E+04  0.46999998093E+01 0. -1.
       -5    1    3    3    0  502  0.91395432569E+03  0.24376152538E+03 -0.24601020948E+03  0.97738186185E+03  0.46999998093E+01 0.  1.
</event>
<event>
 5   0  0.1284837E-05  0.2296217E+04  0.7818609E-02  0.8479414E-01
        1   -1    0    0  501    0  0.00000000000E+00  0.00000000000E+00  0.51632690691E+03  0.51632690693E+03  0.50400001928E-02 0. -1.
       -1   -1    0    0    0  501  0.00000000000E+00  0.00000000000E+00 -0.25529422557E+04  0.25529422557E+04  0.50400001928E-02 0.  1.
    10030    2    1    2    0    0  0.00000000000E+00  0.00000000000E+00 -0.20366153488E+04  0.30692691626E+04  0.22962166957E+04 0.  0.
        4    1    3    3  502    0  0.89373901845E+03 -0.71837869205E+03 -0.94136196335E+03  0.14835772097E+04  0.12699999809E+01 0. -1.
       -4    1    3    3    0  502 -0.89373901845E+03  0.71837869205E+03 -0.10952533854E+04  0.15856919529E+04  0.12699999809E+01 0.  1.
</event>
<event>
 5   0  0.2816178E-05  0.2312223E+04  0.7818609E-02  0.8473117E-01
       -2   -1    0    0    0  501  0.00000000000E+00  0.00000000000E+00  0.11729499568E+04  0.11729499568E+04  0.25500000920E-02 0. -1.
        2   -1    0    0  501    0  0.00000000000E+00  0.00000000000E+00 -0.11395150546E+04  0.11395150546E+04  0.25500000920E-02 0.  1.
    10030    2    1    2    0    0  0.00000000000E+00  0.00000000000E+00  0.33434902273E+02  0.23124650114E+04  0.23122232886E+04 0.  0.
        1    1    3    3  502    0 -0.75933842618E+03  0.11966164749E+03 -0.84690069113E+03  0.11437458354E+04  0.50400001928E-02 0.  1.
       -1    1    3    3    0  502  0.75933842618E+03 -0.11966164749E+03  0.88033559340E+03  0.11687191760E+04  0.50400001928E-02 0. -1.
</event>
<event>
 5   0  0.1308224E-05  0.2302684E+04  0.7818609E-02  0.8476864E-01
       -1   -1    0    0    0  501  0.00000000000E+00  0.00000000000E+00  0.10779820450E+04  0.10779820450E+04  0.50400001928E-02 0. -1.
        1   -1    0    0  501    0  0.00000000000E+00  0.00000000000E+00 -0.12296941193E+04  0.12296941193E+04  0.50400001928E-02 0.  1.
    10030    2    1    2    0    0  0.00000000000E+00  0.00000000000E+00 -0.15171207431E+03  0.23076761643E+04  0.23026838093E+04 0.  0.
        5    1    3    3  502    0  0.19252888376E+03  0.10269478413E+03 -0.12087725664E+04  0.12283186871E+04  0.46999998093E+01 0.  1.
       -5    1    3    3    0  502 -0.19252888376E+03 -0.10269478413E+03  0.10570604921E+04  0.10793574772E+04  0.46999998093E+01 0. -1.
</event>
<event>
 5   0  0.1327820E-05  0.2298286E+04  0.7818609E-02  0.8478597E-01
       -1   -1    0    0    0  501  0.00000000000E+00  0.00000000000E+00  0.82624312183E+03  0.82624312184E+03  0.50400001928E-02 0. -1.
        1   -1    0    0  501    0  0.00000000000E+00  0.00000000000E+00 -0.15982340650E+04  0.15982340650E+04  0.50400001928E-02 0.  1.
    10030    2    1    2    0    0  0.00000000000E+00  0.00000000000E+00 -0.77199094317E+03  0.24244771868E+04  0.22982862340E+04 0.  0.
        1    1    3    3  502    0 -0.68962122486E+03  0.78415934796E+03 -0.89196211108E+03  0.13733461779E+04  0.50400001928E-02 0. -1.
       -1    1    3    3    0  502  0.68962122486E+03 -0.78415934796E+03  0.11997116791E+03  0.10511310089E+04  0.50400001928E-02 0.  1.
</event>
<event>
 5   0  0.1327820E-05  0.2285168E+04  0.7818609E-02  0.8483792E-01
       -1   -1    0    0    0  501  0.00000000000E+00  0.00000000000E+00  0.92395002147E+03  0.92395002149E+03  0.50400001928E-02 0.  1.
        1   -1    0    0  501    0  0.00000000000E+00  0.00000000000E+00 -0.14129533656E+04  0.14129533656E+04  0.50400001928E-02 0. -1.
    10030    2    1    2    0    0  0.00000000000E+00  0.00000000000E+00 -0.48900334416E+03  0.23369033871E+04  0.22851680836E+04 0.  0.
        1    1    3    3  502    0 -0.51050872424E+03 -0.81196278411E+03 -0.87952346150E+03  0.13013317178E+04  0.50400001928E-02 0. -1.
       -1    1    3    3    0  502  0.51050872424E+03  0.81196278411E+03  0.39052011735E+03  0.10355716694E+04  0.50400001928E-02 0.  1.
</event>
<event>
 5   0  0.1284837E-05  0.2267023E+04  0.7818609E-02  0.8491038E-01
        1   -1    0    0  501    0  0.00000000000E+00  0.00000000000E+00  0.17335310835E+04  0.17335310835E+04  0.50400001928E-02 0. -1.
       -1   -1    0    0    0  501  0.00000000000E+00  0.00000000000E+00 -0.74117432696E+03  0.74117432698E+03  0.50400001928E-02 0.  1.
    10030    2    1    2    0    0  0.00000000000E+00  0.00000000000E+00  0.99235675654E+03  0.24747054105E+04  0.22670233648E+04 0.  0.
        4    1    3    3  502    0  0.19348309284E+03  0.60834852900E+03 -0.52628412076E+03  0.82734528984E+03  0.12699999809E+01 0.  1.
       -4    1    3    3    0  502 -0.19348309284E+03 -0.60834852900E+03  0.15186408773E+04  0.16473601206E+04  0.12699999809E+01 0. -1.
</event>
<event>
 5   0  0.2994157E-05  0.2293476E+04  0.7818609E-02  0.8480498E-01
       -2   -1    0    0    0  501  0.00000000000E+00  0.00000000000E+00  0.19178293193E+04  0.19178293193E+04  0.25500000920E-02 0. -1.
        2   -1    0    0  501    0  0.00000000000E+00  0.00000000000E+00 -0.68567495680E+03  0.68567495681E+03  0.25500000920E-02 0.  1.
    10030    2    1    2    0    0  0.00000000000E+00  0.00000000000E+00  0.12321543625E+04  0.26035042761E+04  0.22934755597E+04 0.  0.
        4    1    3    3  502    0 -0.34448754894E+03  0.10932815304E+04  0.65320544484E+03  0.13193237443E+04  0.12699999809E+01 0.  1.
       -4    1    3    3    0  502  0.34448754894E+03 -0.10932815304E+04  0.57894891770E+03  0.12841805319E+04  0.12699999809E+01 0. -1.
</event>
<event>
 5   0  0.2871888E-05  0.2286964E+04  0.7818609E-02  0.8483079E-01
       -2   -1    0    0    0  501  0.00000000000E+00  0.00000000000E+00  0.71129705687E+03  0.71129705687E+03  0.25500000920E-02 0.  1.
        2   -1    0    0  501    0  0.00000000000E+00  0.00000000000E+00 -0.18382631327E+04  0.18382631327E+04  0.25500000920E-02 0. -1.
    10030    2    1    2    0    0  0.00000000000E+00  0.00000000000E+00 -0.11269660759E+04  0.25495601896E+04  0.22869640627E+04 0.  0.
        3    1    3    3  502    0  0.23097135046E+03 -0.64334391530E+03  0.45845886875E+03  0.82305753299E+03  0.10100000352E+00 0.  1.
       -3    1    3    3    0  502 -0.23097135046E+03  0.64334391530E+03 -0.15854249446E+04  0.17265026566E+04  0.10100000352E+00 0. -1.
</event>
<event>
 5   0  0.1284837E-05  0.2307097E+04  0.7818609E-02  0.8475128E-01
       -1   -1    0    0    0  501  0.00000000000E+00  0.00000000000E+00  0.92005392427E+03  0.92005392428E+03  0.50400001928E-02 0. -1.
        1   -1    0    0  501    0  0.00000000000E+00  0.00000000000E+00 -0.14463005729E+04  0.14463005729E+04  0.50400001928E-02 0.  1.
    10030    2    1    2    0    0  0.00000000000E+00  0.00000000000E+00 -0.52624664866E+03  0.23663544972E+04  0.23070973259E+04 0.  0.
        4    1    3    3  502    0 -0.11211434263E+04 -0.26531270742E+03 -0.32221816466E+03  0.11963191771E+04  0.12699999809E+01 0.  1.
       -4    1    3    3    0  502  0.11211434263E+04  0.26531270742E+03 -0.20402848401E+03  0.11700353201E+04  0.12699999809E+01 0. -1.
</event>
<event>
 5   0  0.2910126E-05  0.2305079E+04  0.7818609E-02  0.8475921E-01
        2   -1    0    0  501    0  0.00000000000E+00  0.00000000000E+00  0.14593922119E+04  0.14593922119E+04  0.25500000920E-02 0. -1.
       -2   -1    0    0    0  501  0.00000000000E+00  0.00000000000E+00 -0.91020545007E+03  0.91020545007E+03  0.25500000920E-02 0.  1.
    10030    2    1    2    0    0  0.00000000000E+00  0.00000000000E+00  0.54918676181E+03  0.23695976619E+04  0.23050785193E+04 0.  0.
        5    1    3    3  502    0  0.11283481163E+03 -0.21529922975E+03  0.14327322239E+04  0.14532133940E+04  0.46999998093E+01 0. -1.
       -5    1    3    3    0  502 -0.11283481163E+03  0.21529922975E+03 -0.88354546208E+03  0.91638426798E+03  0.46999998093E+01 0.  1.
</event>
<event>
 5   0  0.2871888E-05  0.2303654E+04  0.7818609E-02  0.8476482E-01
        2   -1    0    0  501    0  0.00000000000E+00  0.00000000000E+00  0.14942305467E+04  0.14942305467E+04  0.25500000920E-02 0.  1.
       -2   -1    0    0    0  501  0.00000000000E+00  0.00000000000E+00 -0.88788546681E+03  0.88788546681E+03  0.25500000920E-02 0. -1.
    10030    2    1    2    0    0  0.00000000000E+00  0.00000000000E+00  0.60634507989E+03  0.23821160135E+04  0.23036541290E+04 0.  0.
        3    1    3    3  502    0 -0.22981386106E+03 -0.12480791467E+03  0.14631249570E+04  0.14863129133E+04  0.10100000352E+00 0.  1.
       -3    1    3    3    0  502  0.22981386106E+03  0.12480791467E+03 -0.85677987711E+03  0.89580310019E+03  0.10100000352E+00 0. -1.
</event>
<event>
 5   0  0.2994157E-05  0.2290013E+04  0.7818609E-02  0.8481869E-01
        2   -1    0    0  501    0  0.00000000000E+00  0.00000000000E+00  0.16155515367E+04  0.16155515367E+04  0.25500000920E-02 0. -1.
       -2   -1    0    0    0  501  0.00000000000E+00  0.00000000000E+00 -0.81151219158E+03  0.81151219158E+03  0.25500000920E-02 0.  1.
    10030    2    1    2    0    0  0.00000000000E+00  0.00000000000E+00  0.80403934512E+03  0.24270637283E+04  0.22900128979E+04 0.  0.
        4    1    3    3  502    0  0.13514785947E+03  0.60689468620E+03 -0.61700675386E+03  0.87594808708E+03  0.12699999809E+01 0.  1.
       -4    1    3    3    0  502 -0.13514785947E+03 -0.60689468620E+03  0.14210460990E+04  0.15511156412E+04  0.12699999809E+01 0. -1.
</event>
<event>
 5   0  0.2938972E-05  0.2290364E+04  0.7818609E-02  0.8481730E-01
        2   -1    0    0  501    0  0.00000000000E+00  0.00000000000E+00  0.10828906248E+04  0.10828906248E+04  0.25500000920E-02 0. -1.
       -2   -1    0    0    0  501  0.00000000000E+00  0.00000000000E+00 -0.12110562129E+04  0.12110562129E+04  0.25500000920E-02 0.  1.
    10030    2    1    2    0    0  0.00000000000E+00  0.00000000000E+00 -0.12816558811E+03  0.22939468377E+04  0.22903636559E+04 0.  0.
        2    1    3    3  502    0  0.49667883703E+03  0.34426416240E+03  0.91018449146E+03  0.10925399257E+04  0.25500000920E-02 0. -1.
       -2    1    3    3    0  502 -0.49667883703E+03 -0.34426416240E+03 -0.10383500796E+04  0.12014069121E+04  0.25500000920E-02 0.  1.
</event>
<event>
 5   0  0.2938972E-05  0.2288200E+04  0.7818609E-02  0.8482588E-01
       -2   -1    0    0    0  501  0.00000000000E+00  0.00000000000E+00  0.16909945502E+04  0.16909945502E+04  0.25500000920E-02 0.  1.
        2   -1    0    0  501    0  0.00000000000E+00  0.00000000000E+00 -0.77408009575E+03  0.77408009575E+03  0.25500000920E-02 0. -1.
    10030    2    1    2    0    0  0.00000000000E+00  0.00000000000E+00  0.91691445448E+03  0.24650746460E+04  0.22882003613E+04 0.  0.
        2    1    3    3  502    0  0.64185355037E+03 -0.92598578371E+03  0.24424117830E+03  0.11528570618E+04  0.25500000920E-02 0. -1.
       -2    1    3    3    0  502 -0.64185355037E+03  0.92598578371E+03  0.67267327618E+03  0.13122175842E+04  0.25500000920E-02 0.  1.
</event>
<event>
 5   0  0.2938972E-05  0.2296770E+04  0.7818609E-02  0.8479196E-01
        2   -1    0    0  501    0  0.00000000000E+00  0.00000000000E+00  0.23807246435E+04  0.23807246435E+04  0.25500000920E-02 0. -1.
       -2   -1    0    0    0  501  0.00000000000E+00  0.00000000000E+00 -0.55394416943E+03  0.55394416943E+03  0.25500000920E-02 0.  1.
    10030    2    1    2    0    0  0.00000000000E+00  0.00000000000E+00  0.18267804741E+04  0.29346688129E+04  0.22967703719E+04 0.  0.
        2    1    3    3  502    0 -0.72252169022E+03  0.91723954769E+02  0.20478723586E+04  0.21735298650E+04  0.25500000920E-02 0. -1.
       -2    1    3    3    0  502  0.72252169022E+03 -0.91723954769E+02 -0.22109188453E+03  0.76113894798E+03  0.25500000920E-02 0.  1.
</event>
<event>
 5   0  0.2871888E-05  0.2264247E+04  0.7818609E-02  0.8492153E-01
        2   -1    0    0  501    0  0.00000000000E+00  0.00000000000E+00  0.18622104237E+04  0.18622104237E+04  0.25500000920E-02 0.  1.
       -2   -1    0    0    0  501  0.00000000000E+00  0.00000000000E+00 -0.68827026943E+03  0.68827026943E+03  0.25500000920E-02 0. -1.
    10030    2    1    2    0    0  0.00000000000E+00  0.00000000000E+00  0.11739401543E+04  0.25504806932E+04  0.22642473982E+04 0.  0.
        3    1    3    3  502    0  0.14455053070E+03  0.99310557733E+03  0.11771837896E+04  0.15469050483E+04  0.10100000352E+00 0. -1.
       -3    1    3    3    0  502 -0.14455053070E+03 -0.99310557733E+03 -0.32436353103E+01  0.10035756449E+04  0.10100000352E+00 0.  1.
</event>
<event>
 5   0  0.2994157E-05  0.2287848E+04  0.7818609E-02  0.8482728E-01
       -2   -1    0    0    0  501  0.00000000000E+00  0.00000000000E+00  0.59698769106E+03  0.59698769107E+03  0.25500000920E-02 0.  1.
        2   -1    0    0  501    0  0.00000000000E+00  0.00000000000E+00 -0.21919406998E+04  0.21919406998E+04  0.25500000920E-02 0. -1.
    10030    2    1    2    0    0  0.00000000000E+00  0.00000000000E+00 -0.15949530087E+04  0.27889283908E+04  0.22878475625E+04 0.  0.
        4    1    3    3  502    0  0.48727379741E+03 -0.57873848811E+03  0.24845696392E+03  0.79630802275E+03  0.12699999809E+01 0.  1.
       -4    1    3    3    0  502 -0.48727379741E+03  0.57873848811E+03 -0.18434099726E+04  0.19926203681E+04  0.12699999809E+01 0. -1.
</event>
<event>
 5   0  0.2816178E-05  0.2314151E+04  0.7818609E-02  0.8472363E-01
        2   -1    0    0  501    0  0.00000000000E+00  0.00000000000E+00  0.13641798224E+04  0.13641798224E+04  0.25500000920E-02 0.  1.
       -2   -1    0    0    0  501  0.00000000000E+00  0.00000000000E+00 -0.98141264287E+03  0.98141264287E+03  0.25500000920E-02 0. -1.
    10030    2    1    2    0    0  0.00000000000E+00  0.00000000000E+00  0.38276717957E+03  0.23455924653E+04  0.23141506648E+04 0.  0.
        1    1    3    3  502    0 -0.85267666142E+02 -0.73618436568E+03 -0.70927555417E+03  0.10258215278E+04  0.50400001928E-02 0. -1.
       -1    1    3    3    0  502  0.85267666142E+02  0.73618436568E+03  0.10920427337E+04  0.13197709375E+04  0.50400001928E-02 0.  1.
</event>
<event>
 5   0  0.1327820E-05  0.2296199E+04  0.7818609E-02  0.8479421E-01
       -1   -1    0    0    0  501  0.00000000000E+00  0.00000000000E+00  0.60984454062E+03  0.60984454064E+03  0.50400001928E-02 0. -1.
        1   -1    0    0  501    0  0.00000000000E+00  0.00000000000E+00 -0.21614242895E+04  0.21614242895E+04  0.50400001928E-02 0.  1.
    10030    2    1    2    0    0  0.00000000000E+00  0.00000000000E+00 -0.15515797488E+04  0.27712688301E+04  0.22961992970E+04 0.  0.
        1    1    3    3  502    0 -0.44440992614E+03  0.64395755572E+01 -0.20533833109E+04  0.21009342379E+04  0.50400001928E-02 0.  1.
       -1    1    3    3    0  502  0.44440992614E+03 -0.64395755572E+01  0.50180356204E+03  0.67033459219E+03  0.50400001928E-02 0. -1.
</event>
<event>
 5   0  0.1371753E-05  0.2308855E+04  0.7818609E-02  0.8474438E-01
       -1   -1    0    0    0  501  0.00000000000E+00  0.00000000000E+00  0.12293999019E+04  0.12293999019E+04  0.50400001928E-02 0. -1.
        1   -1    0    0  501    0  0.00000000000E+00  0.00000000000E+00 -0.10840272777E+04  0.10840272777E+04  0.50400001928E-02 0.  1.
    10030    2    1    2    0    0  0.00000000000E+00  0.00000000000E+00  0.14537262419E+03  0.23134271797E+04  0.23088551526E+04 0.  0.
        3    1    3    3  502    0 -0.10849479631E+04 -0.32490325789E+03  0.29680043635E+03  0.11707966172E+04  0.10100000352E+00 0.  1.
       -3    1    3    3    0  502  0.10849479631E+04  0.32490325789E+03 -0.15142781216E+03  0.11426305624E+04  0.10100000352E+00 0. -1.
</event>
<event>
 5   0  0.1327820E-05  0.2298937E+04  0.7818609E-02  0.8478340E-01
        1   -1    0    0  501    0  0.00000000000E+00  0.00000000000E+00  0.12683027525E+04  0.12683027525E+04  0.50400001928E-02 0. -1.
       -1   -1    0    0    0  501  0.00000000000E+00  0.00000000000E+00 -0.10417689105E+04  0.10417689105E+04  0.50400001928E-02 0.  1.
    10030    2    1    2    0    0  0.00000000000E+00  0.00000000000E+00  0.22653384202E+03  0.23100716631E+04  0.22989374735E+04 0.  0.
        1    1    3    3  502    0  0.76520287424E+02  0.52761719839E+02 -0.10379866279E+04  0.10421398146E+04  0.50400001928E-02 0.  1.
       -1    1    3    3    0  502 -0.76520287424E+02 -0.52761719839E+02  0.12645204699E+04  0.12679318485E+04  0.50400001928E-02 0. -1.
</event>
<event>
 5   0  0.2994157E-05  0.2304050E+04  0.7818609E-02  0.8476326E-01
       -2   -1    0    0    0  501  0.00000000000E+00  0.00000000000E+00  0.87091188001E+03  0.87091188002E+03  0.25500000920E-02 0.  1.
        2   -1    0    0  501    0  0.00000000000E+00  0.00000000000E+00 -0.15238755564E+04  0.15238755564E+04  0.25500000920E-02 0. -1.
    10030    2    1    2    0    0  0.00000000000E+00  0.00000000000E+00 -0.65296367639E+03  0.23947874364E+04  0.23040497614E+04 0.  0.
        4    1    3    3  502    0  0.10898055398E+04  0.18313064255E+03 -0.66479505838E+03  0.12896383328E+04  0.12699999809E+01 0.  1.
       -4    1    3    3    0  502 -0.10898055398E+04 -0.18313064255E+03  0.11831381995E+02  0.11051491036E+04  0.12699999809E+01 0. -1.
</event>
<event>
 5   0  0.2938972E-05  0.2315800E+04  0.7818609E-02  0.8471717E-01
       -2   -1    0    0    0  501  0.00000000000E+00  0.00000000000E+00  0.11240564361E+04  0.11240564361E+04  0.25500000920E-02 0. -1.
        2   -1    0    0  501    0  0.00000000000E+00  0.00000000000E+00 -0.11927627338E+04  0.11927627338E+04  0.25500000920E-02 0.  1.
    10030    2    1    2    0    0  0.00000000000E+00  0.00000000000E+00 -0.68706297707E+02  0.23168191699E+04  0.23158001880E+04 0.  0.
        2    1    3    3  502    0  0.46961285718E+03 -0.94805113062E+03 -0.50508696144E+03  0.11723694045E+04  0.25500000920E-02 0.  1.
       -2    1    3    3    0  502 -0.46961285718E+03  0.94805113062E+03  0.43638066373E+03  0.11444497654E+04  0.25500000920E-02 0. -1.
</event>
<event>
 5   0  0.2938972E-05  0.2309899E+04  0.7818609E-02  0.8474028E-01
        2   -1    0    0  501    0  0.00000000000E+00  0.00000000000E+00  0.13530173228E+04  0.13530173228E+04  0.25500000920E-02 0.  1.
       -2   -1    0    0    0  501  0.00000000000E+00  0.00000000000E+00 -0.98587681757E+03  0.98587681757E+03  0.25500000920E-02 0. -1.
    10030    2    1    2    0    0  0.00000000000E+00  0.00000000000E+00  0.36714050518E+03  0.23388941403E+04  0.23098990560E+04 0.  0.
        2    1    3    3  502    0  0.65293009911E+03 -0.91506354425E+03 -0.84802795377E+02  0.11273200603E+04  0.25500000920E-02 0. -1.
       -2    1    3    3    0  502 -0.65293009911E+03  0.91506354425E+03  0.45194330056E+03  0.12115740800E+04  0.25500000920E-02 0.  1.
</event>
<event>
 5   0  0.2816178E-05  0.2312800E+04  0.7818609E-02  0.8472891E-01
       -2   -1    0    0    0  501  0.00000000000E+00  0.00000000000E+00  0.86415260791E+03  0.86415260791E+03  0.25500000920E-02 0. -1.
        2   -1    0    0  501    0  0.00000000000E+00  0.00000000000E+00 -0.15474828423E+04  0.15474828423E+04  0.25500000920E-02 0.  1.
    10030    2    1    2    0    0  0.00000000000E+00  0.00000000000E+00 -0.68333023438E+03  0.24116354502E+04  0.23128003233E+04 0.  0.
        1    1    3    3  502    0 -0.25854446178E+03  0.92289137391E+03  0.33304709820E+03  0.10146398851E+04  0.50400001928E-02 0. -1.
       -1    1    3    3    0  502  0.25854446178E+03 -0.92289137391E+03 -0.10163773326E+04  0.13969955651E+04  0.50400001928E-02 0.  1.
</event>
<event>
 5   0  0.2910126E-05  0.2263537E+04  0.7818609E-02  0.8492438E-01
        2   -1    0    0  501    0  0.00000000000E+00  0.00000000000E+00  0.15497542400E+04  0.15497542400E+04  0.25500000920E-02 0.  1.
       -2   -1    0    0    0  501  0.00000000000E+00  0.00000000000E+00 -0.82651793358E+03  0.82651793359E+03  0.25500000920E-02 0. -1.
    10030    2    1    2    0    0  0.00000000000E+00  0.00000000000E+00  0.72323630643E+03  0.23762721736E+04  0.22635367653E+04 0.  0.
        5    1    3    3  502    0 -0.64499117965E+02 -0.84868889520E+03  0.11447224331E+04  0.14264797636E+04  0.46999998093E+01 0.  1.
       -5    1    3    3    0  502  0.64499117965E+02  0.84868889520E+03 -0.42148612671E+03  0.94979240999E+03  0.46999998093E+01 0. -1.
</event>
<event>
 5   0  0.1303224E-05  0.2234317E+04  0.7818609E-02  0.8504279E-01
        1   -1    0    0  501    0  0.00000000000E+00  0.00000000000E+00  0.12539914232E+04  0.12539914232E+04  0.50400001928E-02 0.  1.
       -1   -1    0    0    0  501  0.00000000000E+00  0.00000000000E+00 -0.99525622281E+03  0.99525622283E+03  0.50400001928E-02 0. -1.
    10030    2    1    2    0    0  0.00000000000E+00  0.00000000000E+00  0.25873520035E+03  0.22492476460E+04  0.22343166895E+04 0.  0.
        2    1    3    3  502    0 -0.17907622234E+03  0.11020725813E+04  0.16717519208E+03  0.11289729016E+04  0.25500000920E-02 0.  1.
       -2    1    3    3    0  502  0.17907622234E+03 -0.11020725813E+04  0.91560008275E+02  0.11202747444E+04  0.25500000920E-02 0. -1.
</event>
<event>
 5   0  0.1371753E-05  0.2284159E+04  0.7818609E-02  0.8484193E-01
       -1   -1    0    0    0  501  0.00000000000E+00  0.00000000000E+00  0.18713837839E+04  0.18713837839E+04  0.50400001928E-02 0. -1.
        1   -1    0    0  501    0  0.00000000000E+00  0.00000000000E+00 -0.69699523603E+03  0.69699523605E+03  0.50400001928E-02 0.  1.
    10030    2    1    2    0    0  0.00000000000E+00  0.00000000000E+00  0.11743885479E+04  0.25683790200E+04  0.22841589981E+04 0.  0.
        3    1    3    3  502    0  0.20697790425E+03 -0.99280600770E+03  0.11777527941E+04  0.15542217589E+04  0.10100000352E+00 0. -1.
       -3    1    3    3    0  502 -0.20697790425E+03  0.99280600770E+03 -0.33642461802E+01  0.10141572610E+04  0.10100000352E+00 0.  1.
</event>
<event>
 5   0  0.1327820E-05  0.2250582E+04  0.7818609E-02  0.8497665E-01
        1   -1    0    0  501    0  0.00000000000E+00  0.00000000000E+00  0.91950695763E+03  0.91950695765E+03  0.50400001928E-02 0. -1.
       -1   -1    0    0    0  501  0.00000000000E+00  0.00000000000E+00 -0.13771296702E+04  0.13771296702E+04  0.50400001928E-02 0.  1.
    10030    2    1    2    0    0  0.00000000000E+00  0.00000000000E+00 -0.45762271255E+03  0.22966366278E+04  0.22505824253E+04 0.  0.
        1    1    3    3  502    0  0.73886441876E+03  0.33589948543E+03  0.56658145922E+03  0.98983010845E+03  0.50400001928E-02 0. -1.
       -1    1    3    3    0  502 -0.73886441876E+03 -0.33589948543E+03 -0.10242041718E+04  0.13068065194E+04  0.50400001928E-02 0.  1.
</event>
<event>
 5   0  0.1303224E-05  0.2288850E+04  0.7818609E-02  0.8482330E-01
        1   -1    0    0  501    0  0.00000000000E+00  0.00000000000E+00  0.20812350947E+04  0.20812350947E+04  0.50400001928E-02 0. -1.
       -1   -1    0    0    0  501  0.00000000000E+00  0.00000000000E+00 -0.62929409526E+03  0.62929409528E+03  0.50400001928E-02 0.  1.
    10030    2    1    2    0    0  0.00000000000E+00  0.00000000000E+00  0.14519409994E+04  0.27105291900E+04  0.22888503280E+04 0.  0.
        2    1    3    3  502    0  0.55415540884E+03  0.58175981003E+03  0.16910839522E+04  0.18722440085E+04  0.25500000920E-02 0. -1.
       -2    1    3    3    0  502 -0.55415540884E+03 -0.58175981003E+03 -0.23914295278E+03  0.83828518154E+03  0.25500000920E-02 0.  1.
</event>
<event>
 5   0  0.2871888E-05  0.2289131E+04  0.7818609E-02  0.8482219E-01
        2   -1    0    0  501    0  0.00000000000E+00  0.00000000000E+00  0.82044130058E+03  0.82044130058E+03  0.25500000920E-02 0.  1.
       -2   -1    0    0    0  501  0.00000000000E+00  0.00000000000E+00 -0.15967381727E+04  0.15967381727E+04  0.25500000920E-02 0. -1.
    10030    2    1    2    0    0  0.00000000000E+00  0.00000000000E+00 -0.77629687211E+03  0.24171794733E+04  0.22891307897E+04 0.  0.
        3    1    3    3  502    0  0.49691573915E+03  0.75571504654E+03  0.35251447736E+03  0.97071981042E+03  0.10100000352E+00 0.  1.
       -3    1    3    3    0  502 -0.49691573915E+03 -0.75571504654E+03 -0.11288113495E+04  0.14464596629E+04  0.10100000352E+00 0. -1.
</event>
<event>
 5   0  0.1303224E-05  0.2304465E+04  0.7818609E-02  0.8476163E-01
        1   -1    0    0  501    0  0.00000000000E+00  0.00000000000E+00  0.92732934051E+03  0.92732934052E+03  0.50400001928E-02 0.  1.
       -1   -1    0    0    0  501  0.00000000000E+00  0.00000000000E+00 -0.14316807758E+04  0.14316807758E+04  0.50400001928E-02 0. -1.
    10030    2    1    2    0    0  0.00000000000E+00  0.00000000000E+00 -0.50435143530E+03  0.23590101163E+04  0.23044648747E+04 0.  0.
        2    1    3    3  502    0  0.81589442975E+03  0.31254536794E+03 -0.10211355895E+04  0.13439070725E+04  0.25500000920E-02 0. -1.
       -2    1    3    3    0  502 -0.81589442975E+03 -0.31254536794E+03  0.51678415418E+03  0.10151030438E+04  0.25500000920E-02 0.  1.
</event>
<event>
 5   0  0.2910126E-05  0.2296146E+04  0.7818609E-02  0.8479442E-01
        2   -1    0    0  501    0  0.00000000000E+00  0.00000000000E+00  0.11061330748E+04  0.11061330748E+04  0.25500000920E-02 0. -1.
       -2   -1    0    0    0  501  0.00000000000E+00  0.00000000000E+00 -0.11916033184E+04  0.11916033184E+04  0.25500000920E-02 0.  1.
    10030    2    1    2    0    0  0.00000000000E+00  0.00000000000E+00 -0.85470243525E+02  0.22977363932E+04  0.22961461997E+04 0.  0.
        5    1    3    3  502    0 -0.32922154999E+03 -0.48789584750E+03  0.94365568371E+03  0.11121768413E+04  0.46999998093E+01 0. -1.
       -5    1    3    3    0  502  0.32922154999E+03  0.48789584750E+03 -0.10291259272E+04  0.11855595519E+04  0.46999998093E+01 0.  1.
</event>
<event>
 5   0  0.2816178E-05  0.2312676E+04  0.7818609E-02  0.8472940E-01
       -2   -1    0    0    0  501  0.00000000000E+00  0.00000000000E+00  0.58561139364E+03  0.58561139364E+03  0.25500000920E-02 0. -1.
        2   -1    0    0  501    0  0.00000000000E+00  0.00000000000E+00 -0.22832838568E+04  0.22832838568E+04  0.25500000920E-02 0.  1.
    10030    2    1    2    0    0  0.00000000000E+00  0.00000000000E+00 -0.16976724631E+04  0.28688952504E+04  0.23126755427E+04 0.  0.
        1    1    3    3  502    0 -0.12806006080E+03 -0.92079799046E+03  0.41874617193E+01  0.92966975495E+03  0.50400001928E-02 0. -1.
       -1    1    3    3    0  502  0.12806006080E+03  0.92079799046E+03 -0.17018599249E+04  0.19392254955E+04  0.50400001928E-02 0.  1.
</event>
<event>
 5   0  0.1308224E-05  0.2308534E+04  0.7818609E-02  0.8474564E-01
       -1   -1    0    0    0  501  0.00000000000E+00  0.00000000000E+00  0.10791260291E+04  0.10791260291E+04  0.50400001928E-02 0.  1.
        1   -1    0    0  501    0  0.00000000000E+00  0.00000000000E+00 -0.12346404815E+04  0.12346404815E+04  0.50400001928E-02 0. -1.
    10030    2    1    2    0    0  0.00000000000E+00  0.00000000000E+00 -0.15551445235E+03  0.23137665106E+04  0.23085343231E+04 0.  0.
        5    1    3    3  502    0  0.30743960654E+03 -0.10699420000E+04  0.22791858943E+03  0.11363379640E+04  0.46999998093E+01 0.  1.
       -5    1    3    3    0  502 -0.30743960654E+03  0.10699420000E+04 -0.38343304178E+03  0.11774285466E+04  0.46999998093E+01 0. -1.
</event>
<event>
 5   0  0.1371753E-05  0.2310921E+04  0.7818609E-02  0.8473628E-01
       -1   -1    0    0    0  501  0.00000000000E+00  0.00000000000E+00  0.80559516011E+03  0.80559516013E+03  0.50400001928E-02 0. -1.
        1   -1    0    0  501    0  0.00000000000E+00  0.00000000000E+00 -0.16572704220E+04  0.16572704220E+04  0.50400001928E-02 0.  1.
    10030    2    1    2    0    0  0.00000000000E+00  0.00000000000E+00 -0.85167526188E+03  0.24628655821E+04  0.23109210553E+04 0.  0.
        3    1    3    3  502    0  0.11199154502E+04 -0.10233812595E+03 -0.14305136216E+03  0.11336434227E+04  0.10100000352E+00 0. -1.
       -3    1    3    3    0  502 -0.11199154502E+04  0.10233812595E+03 -0.70862389973E+03  0.13292221594E+04  0.10100000352E+00 0.  1.
</event>
<event>
 5   0  0.1327820E-05  0.2302968E+04  0.7818609E-02  0.8476752E-01
        1   -1    0    0  501    0  0.00000000000E+00  0.00000000000E+00  0.93288829396E+03  0.93288829397E+03  0.50400001928E-02 0.  1.
       -1   -1    0    0    0  501  0.00000000000E+00  0.00000000000E+00 -0.14213010700E+04  0.14213010700E+04  0.50400001928E-02 0. -1.
    10030    2    1    2    0    0  0.00000000000E+00  0.00000000000E+00 -0.48841277604E+03  0.23541893640E+04  0.23029677639E+04 0.  0.
        1    1    3    3  502    0  0.35762750649E+02 -0.96151091767E+03  0.40242334656E+03  0.10429414025E+04  0.50400001928E-02 0.  1.
       -1    1    3    3    0  502 -0.35762750649E+02  0.96151091767E+03 -0.89083612260E+03  0.13112479615E+04  0.50400001928E-02 0. -1.
</event>
<event>
 5   0  0.1308224E-05  0.2317822E+04  0.7818609E-02  0.8470927E-01
       -1   -1    0    0    0  501  0.00000000000E+00  0.00000000000E+00  0.89600697371E+03  0.89600697372E+03  0.50400001928E-02 0.  1.
        1   -1    0    0  501    0  0.00000000000E+00  0.00000000000E+00 -0.14989552275E+04  0.14989552275E+04  0.50400001928E-02 0. -1.
    10030    2    1    2    0    0  0.00000000000E+00  0.00000000000E+00 -0.60294825377E+03  0.23949622012E+04  0.23178216818E+04 0.  0.
        5    1    3    3  502    0 -0.66607204827E+03  0.83070028120E+03  0.17128722806E+03  0.10784601686E+04  0.46999998093E+01 0.  1.
       -5    1    3    3    0  502  0.66607204827E+03 -0.83070028120E+03 -0.77423548183E+03  0.13165020327E+04  0.46999998093E+01 0. -1.
</event>
<event>
 5   0  0.2938972E-05  0.2299281E+04  0.7818609E-02  0.8478205E-01
       -2   -1    0    0    0  501  0.00000000000E+00  0.00000000000E+00  0.68666300845E+03  0.68666300845E+03  0.25500000920E-02 0. -1.
        2   -1    0    0  501    0  0.00000000000E+00  0.00000000000E+00 -0.19247764443E+04  0.19247764443E+04  0.25500000920E-02 0.  1.
    10030    2    1    2    0    0  0.00000000000E+00  0.00000000000E+00 -0.12381134358E+04  0.26114394527E+04  0.22992805691E+04 0.  0.
        2    1    3    3  502    0  0.32598729884E+03  0.66392427576E+03  0.38055061924E+03  0.83179440775E+03  0.25500000920E-02 0. -1.
       -2    1    3    3    0  502 -0.32598729884E+03 -0.66392427576E+03 -0.16186640551E+04  0.17796450450E+04  0.25500000920E-02 0.  1.
</event>
<event>
 5   0  0.1303224E-05  0.2288849E+04  0.7818609E-02  0.8482331E-01
        1   -1    0    0  501    0  0.00000000000E+00  0.00000000000E+00  0.13266716391E+04  0.13266716392E+04  0.50400001928E-02 0.  1.
       -1   -1    0    0    0  501  0.00000000000E+00  0.00000000000E+00 -0.98721304216E+03  0.98721304217E+03  0.50400001928E-02 0. -1.
    10030    2    1    2    0    0  0.00000000000E+00  0.00000000000E+00  0.33945859699E+03  0.23138846813E+04  0.22888490949E+04 0.  0.
        2    1    3    3  502    0  0.98495708475E+03 -0.10409179093E+03  0.74935219354E+03  0.12419759538E+04  0.25500000920E-02 0.  1.
       -2    1    3    3    0  502 -0.98495708475E+03  0.10409179093E+03 -0.40989359655E+03  0.10719087276E+04  0.25500000920E-02 0. -1.
</event>
<event>
 5   0  0.2910126E-05  0.2274045E+04  0.7818609E-02  0.8488226E-01
       -2   -1    0    0    0  501  0.00000000000E+00  0.00000000000E+00  0.14607202350E+04  0.14607202350E+04  0.25500000920E-02 0.  1.
        2   -1    0    0  501    0  0.00000000000E+00  0.00000000000E+00 -0.88505656092E+03  0.88505656092E+03  0.25500000920E-02 0. -1.
    10030    2    1    2    0    0  0.00000000000E+00  0.00000000000E+00  0.57566367413E+03  0.23457767960E+04  0.22740448788E+04 0.  0.
        5    1    3    3  502    0 -0.33378113334E+03 -0.35446716738E+03  0.13477354517E+04  0.14329932852E+04  0.46999998093E+01 0.  1.
       -5    1    3    3    0  502  0.33378113334E+03  0.35446716738E+03 -0.77207177759E+03  0.91278351073E+03  0.46999998093E+01 0. -1.
</event>
<event>
 5   0  0.1327820E-05  0.2305623E+04  0.7818609E-02  0.8475707E-01
       -1   -1    0    0    0  501  0.00000000000E+00  0.00000000000E+00  0.98027040903E+03  0.98027040905E+03  0.50400001928E-02 0.  1.
        1   -1    0    0  501    0  0.00000000000E+00  0.00000000000E+00 -0.13557225276E+04  0.13557225276E+04  0.50400001928E-02 0. -1.
    10030    2    1    2    0    0  0.00000000000E+00  0.00000000000E+00 -0.37545211855E+03  0.23359929366E+04  0.23056232794E+04 0.  0.
        1    1    3    3  502    0 -0.11034474633E+04  0.12317340625E+03 -0.50198366715E+03  0.12185054758E+04  0.50400001928E-02 0. -1.
       -1    1    3    3    0  502  0.11034474633E+04 -0.12317340625E+03  0.12653154860E+03  0.11174874609E+04  0.50400001928E-02 0.  1.
</event>
<event>
 5   0  0.2871888E-05  0.2276032E+04  0.7818609E-02  0.8487432E-01
       -2   -1    0    0    0  501  0.00000000000E+00  0.00000000000E+00  0.81986926375E+03  0.81986926376E+03  0.25500000920E-02 0.  1.
        2   -1    0    0  501    0  0.00000000000E+00  0.00000000000E+00 -0.15796183254E+04  0.15796183254E+04  0.25500000920E-02 0. -1.
    10030    2    1    2    0    0  0.00000000000E+00  0.00000000000E+00 -0.75974906161E+03  0.23994875891E+04  0.22760320854E+04 0.  0.
        3    1    3    3  502    0  0.37611579970E+02 -0.10718891425E+04  0.21180263541E+02  0.10727579310E+04  0.10100000352E+00 0.  1.
       -3    1    3    3    0  502 -0.37611579970E+02  0.10718891425E+04 -0.78092932515E+03  0.13267296581E+04  0.10100000352E+00 0. -1.
</event>
<event>
 5   0  0.2910126E-05  0.2305928E+04  0.7818609E-02  0.8475587E-01
       -2   -1    0    0    0  501  0.00000000000E+00  0.00000000000E+00  0.13667729007E+04  0.13667729007E+04  0.25500000920E-02 0.  1.
        2   -1    0    0  501    0  0.00000000000E+00  0.00000000000E+00 -0.97260199556E+03  0.97260199556E+03  0.25500000920E-02 0. -1.
    10030    2    1    2    0    0  0.00000000000E+00  0.00000000000E+00  0.39417090519E+03  0.23393748963E+04  0.23059280568E+04 0.  0.
        5    1    3    3  502    0 -0.95947891779E+03  0.47977835637E+03  0.62572647771E+03  0.12419109388E+04  0.46999998093E+01 0.  1.
       -5    1    3    3    0  502  0.95947891779E+03 -0.47977835637E+03 -0.23155557253E+03  0.10974639575E+04  0.46999998093E+01 0. -1.
</event>
<event>
 5   0  0.2910126E-05  0.2319724E+04  0.7818609E-02  0.8470185E-01
       -2   -1    0    0    0  501  0.00000000000E+00  0.00000000000E+00  0.12109859033E+04  0.12109859033E+04  0.25500000920E-02 0. -1.
        2   -1    0    0  501    0  0.00000000000E+00  0.00000000000E+00 -0.11108964631E+04  0.11108964631E+04  0.25500000920E-02 0.  1.
    10030    2    1    2    0    0  0.00000000000E+00  0.00000000000E+00  0.10008944019E+03  0.23218823664E+04  0.23197240843E+04 0.  0.
        5    1    3    3  502    0 -0.72314894837E+03  0.60305278753E+03 -0.62781562015E+03  0.11317206409E+04  0.46999998093E+01 0.  1.
       -5    1    3    3    0  502  0.72314894837E+03 -0.60305278753E+03  0.72790506034E+03  0.11901617255E+04  0.46999998093E+01 0. -1.
</event>
<event>
 5   0  0.2871888E-05  0.2305834E+04  0.7818609E-02  0.8475625E-01
       -2   -1    0    0    0  501  0.00000000000E+00  0.00000000000E+00  0.93573497894E+03  0.93573497894E+03  0.25500000920E-02 0. -1.
        2   -1    0    0  501    0  0.00000000000E+00  0.00000000000E+00 -0.14205060722E+04  0.14205060722E+04  0.25500000920E-02 0.  1.
    10030    2    1    2    0    0  0.00000000000E+00  0.00000000000E+00 -0.48477109323E+03  0.23562410511E+04  0.23058336623E+04 0.  0.
        3    1    3    3  502    0  0.17030360418E+03  0.87457200804E+03 -0.99004814408E+03  0.13319440126E+04  0.10100000352E+00 0.  1.
       -3    1    3    3    0  502 -0.17030360418E+03 -0.87457200804E+03  0.50527705085E+03  0.10242970385E+04  0.10100000352E+00 0. -1.
</event>
<event>
 5   0  0.1327820E-05  0.2284711E+04  0.7818609E-02  0.8483974E-01
        1   -1    0    0  501    0  0.00000000000E+00  0.00000000000E+00  0.96955605622E+03  0.96955605623E+03  0.50400001928E-02 0.  1.
       -1   -1    0    0    0  501  0.00000000000E+00  0.00000000000E+00 -0.13459524452E+04  0.13459524452E+04  0.50400001928E-02 0. -1.
    10030    2    1    2    0    0  0.00000000000E+00  0.00000000000E+00 -0.37639638901E+03  0.23155085015E+04  0.22847112244E+04 0.  0.
        1    1    3    3  502    0 -0.36349196638E+03 -0.17198286850E+03 -0.12718501412E+04  0.13339067803E+04  0.50400001928E-02 0. -1.
       -1    1    3    3    0  502  0.36349196638E+03  0.17198286850E+03  0.89545375221E+03  0.98160172120E+03  0.50400001928E-02 0.  1.
</event>
<event>
 5   0  0.1284837E-05  0.2306674E+04  0.7818609E-02  0.8475294E-01
       -1   -1    0    0    0  501  0.00000000000E+00  0.00000000000E+00  0.10798663795E+04  0.10798663795E+04  0.50400001928E-02 0. -1.
        1   -1    0    0  501    0  0.00000000000E+00  0.00000000000E+00 -0.12318058301E+04  0.12318058301E+04  0.50400001928E-02 0.  1.
    10030    2    1    2    0    0  0.00000000000E+00  0.00000000000E+00 -0.15193945058E+03  0.23116722096E+04  0.23066735374E+04 0.  0.
        4    1    3    3  502    0 -0.28351340003E+03  0.86397604027E+03  0.63503911601E+03  0.11091035740E+04  0.12699999809E+01 0. -1.
       -4    1    3    3    0  502  0.28351340003E+03 -0.86397604027E+03 -0.78697856659E+03  0.12025686356E+04  0.12699999809E+01 0.  1.
</event>
<event>
 5   0  0.1308224E-05  0.2264806E+04  0.7818609E-02  0.8491928E-01
        1   -1    0    0  501    0  0.00000000000E+00  0.00000000000E+00  0.16307532476E+04  0.16307532476E+04  0.50400001928E-02 0.  1.
       -1   -1    0    0    0  501  0.00000000000E+00  0.00000000000E+00 -0.78634648412E+03  0.78634648414E+03  0.50400001928E-02 0. -1.
    10030    2    1    2    0    0  0.00000000000E+00  0.00000000000E+00  0.84440676345E+03  0.24170997317E+04  0.22648064666E+04 0.  0.
        5    1    3    3  502    0 -0.19027151261E+03  0.79807226981E+03 -0.41078838875E+03  0.91754661281E+03  0.46999998093E+01 0. -1.
       -5    1    3    3    0  502  0.19027151261E+03 -0.79807226981E+03  0.12551951522E+04  0.14995531189E+04  0.46999998093E+01 0.  1.
</event>
<event>
 5   0  0.2938972E-05  0.2295210E+04  0.7818609E-02  0.8479812E-01
        2   -1    0    0  501    0  0.00000000000E+00  0.00000000000E+00  0.64467197693E+03  0.64467197693E+03  0.25500000920E-02 0.  1.
       -2   -1    0    0    0  501  0.00000000000E+00  0.00000000000E+00 -0.20428948213E+04  0.20428948213E+04  0.25500000920E-02 0. -1.
    10030    2    1    2    0    0  0.00000000000E+00  0.00000000000E+00 -0.13982228443E+04  0.26875667982E+04  0.22952098319E+04 0.  0.
        2    1    3    3  502    0  0.56235939153E+03 -0.47443406634E+03 -0.17303827097E+04  0.18803085094E+04  0.25500000920E-02 0. -1.
       -2    1    3    3    0  502 -0.56235939153E+03  0.47443406634E+03  0.33215986541E+03  0.80725828874E+03  0.25500000920E-02 0.  1.
</event>
<event>
 5   0  0.1371753E-05  0.2191324E+04  0.7818609E-02  0.8522048E-01
       -1   -1    0    0    0  501  0.00000000000E+00  0.00000000000E+00  0.71768321445E+03  0.71768321447E+03  0.50400001928E-02 0.  1.
        1   -1    0    0  501    0  0.00000000000E+00  0.00000000000E+00 -0.16727092104E+04  0.16727092104E+04  0.50400001928E-02 0. -1.
    10030    2    1    2    0    0  0.00000000000E+00  0.00000000000E+00 -0.95502599595E+03  0.23903924249E+04  0.21913240956E+04 0.  0.
        3    1    3    3  502    0  0.15628270296E+03  0.85015224779E+03 -0.12119451912E+04  0.14886216055E+04  0.10100000352E+00 0. -1.
       -3    1    3    3    0  502 -0.15628270296E+03 -0.85015224779E+03  0.25691919522E+03  0.90177081941E+03  0.10100000352E+00 0.  1.
</event>
<event>
 5   0  0.1284837E-05  0.2283328E+04  0.7818609E-02  0.8484524E-01
       -1   -1    0    0    0  501  0.00000000000E+00  0.00000000000E+00  0.80465652383E+03  0.80465652385E+03  0.50400001928E-02 0. -1.
        1   -1    0    0  501    0  0.00000000000E+00  0.00000000000E+00 -0.16198180753E+04  0.16198180753E+04  0.50400001928E-02 0.  1.
    10030    2    1    2    0    0  0.00000000000E+00  0.00000000000E+00 -0.81516155150E+03  0.24244745992E+04  0.22833284317E+04 0.  0.
        4    1    3    3  502    0  0.82611698648E+03 -0.50643215947E+03 -0.10485982617E+04  0.14277614418E+04  0.12699999809E+01 0.  1.
       -4    1    3    3    0  502 -0.82611698648E+03  0.50643215947E+03  0.23343671017E+03  0.99671315736E+03  0.12699999809E+01 0. -1.
</event>
<event>
 5   0  0.2994157E-05  0.2342032E+04  0.7818609E-02  0.8461530E-01
       -2   -1    0    0    0  501  0.00000000000E+00  0.00000000000E+00  0.81911596120E+03  0.81911596120E+03  0.25500000920E-02 0.  1.
        2   -1    0    0  501    0  0.00000000000E+00  0.00000000000E+00 -0.16740958399E+04  0.16740958399E+04  0.25500000920E-02 0. -1.
    10030    2    1    2    0    0  0.00000000000E+00  0.00000000000E+00 -0.85497987870E+03  0.24932118011E+04  0.23420321288E+04 0.  0.
        4    1    3    3  502    0 -0.10104352978E+04  0.18389068131E+03  0.17139122159E+03  0.10412357262E+04  0.12699999809E+01 0.  1.
       -4    1    3    3    0  502  0.10104352978E+04 -0.18389068131E+03 -0.10263711003E+04  0.14519760749E+04  0.12699999809E+01 0. -1.
</event>
<event>
 5   0  0.1284837E-05  0.2315791E+04  0.7818609E-02  0.8471721E-01
       -1   -1    0    0    0  501  0.00000000000E+00  0.00000000000E+00  0.67943127776E+03  0.67943127778E+03  0.50400001928E-02 0. -1.
        1   -1    0    0  501    0  0.00000000000E+00  0.00000000000E+00 -0.19733004129E+04  0.19733004129E+04  0.50400001928E-02 0.  1.
    10030    2    1    2    0    0  0.00000000000E+00  0.00000000000E+00 -0.12938691352E+04  0.26527316907E+04  0.23157910277E+04 0.  0.
        4    1    3    3  502    0  0.68498359268E+03  0.40926959917E+02 -0.17152865560E+04  0.18474542269E+04  0.12699999809E+01 0.  1.
       -4    1    3    3    0  502 -0.68498359268E+03 -0.40926959917E+02  0.42141742084E+03  0.80527746385E+03  0.12699999809E+01 0. -1.
</event>
<event>
 5   0  0.1284837E-05  0.2304990E+04  0.7818609E-02  0.8475956E-01
       -1   -1    0    0    0  501  0.00000000000E+00  0.00000000000E+00  0.65321949889E+03  0.65321949891E+03  0.50400001928E-02 0. -1.
        1   -1    0    0  501    0  0.00000000000E+00  0.00000000000E+00 -0.20333820208E+04  0.20333820208E+04  0.50400001928E-02 0.  1.
    10030    2    1    2    0    0  0.00000000000E+00  0.00000000000E+00 -0.13801625219E+04  0.26866015197E+04  0.23049900518E+04 0.  0.
        4    1    3    3  502    0 -0.89348336342E+03 -0.60207522518E+03 -0.11670157369E+04  0.15883118210E+04  0.12699999809E+01 0.  1.
       -4    1    3    3    0  502  0.89348336342E+03  0.60207522518E+03 -0.21314678496E+03  0.10982896987E+04  0.12699999809E+01 0. -1.
</event>
<event>
 5   0  0.1327820E-05  0.2080207E+04  0.7818609E-02  0.8570013E-01
        1   -1    0    0  501    0  0.00000000000E+00  0.00000000000E+00  0.97346133375E+03  0.97346133376E+03  0.50400001928E-02 0.  1.
       -1   -1    0    0    0  501  0.00000000000E+00  0.00000000000E+00 -0.11113075756E+04  0.11113075757E+04  0.50400001928E-02 0. -1.
    10030    2    1    2    0    0  0.00000000000E+00  0.00000000000E+00 -0.13784624190E+03  0.20847689094E+04  0.20802066771E+04 0.  0.
        1    1    3    3  502    0 -0.60513869884E+03  0.42049597342E+03 -0.80456652193E+03  0.10910256627E+04  0.50400001928E-02 0. -1.
       -1    1    3    3    0  502  0.60513869884E+03 -0.42049597342E+03  0.66672028003E+03  0.99374324668E+03  0.50400001928E-02 0.  1.
</event>
<event>
 5   0  0.2816178E-05  0.2294918E+04  0.7818609E-02  0.8479928E-01
       -2   -1    0    0    0  501  0.00000000000E+00  0.00000000000E+00  0.11875457519E+04  0.11875457519E+04  0.25500000920E-02 0.  1.
        2   -1    0    0  501    0  0.00000000000E+00  0.00000000000E+00 -0.11087251654E+04  0.11087251654E+04  0.25500000920E-02 0. -1.
    10030    2    1    2    0    0  0.00000000000E+00  0.00000000000E+00  0.78820586537E+02  0.22962709173E+04  0.22949177416E+04 0.  0.
        1    1    3    3  502    0  0.24492283112E+03 -0.93172797609E+03 -0.58430117767E+03  0.11267262671E+04  0.50400001928E-02 0. -1.
       -1    1    3    3    0  502 -0.24492283112E+03  0.93172797609E+03  0.66312176421E+03  0.11695446502E+04  0.50400001928E-02 0.  1.
</event>
<event>
 5   0  0.1371753E-05  0.2307626E+04  0.7818609E-02  0.8474920E-01
       -1   -1    0    0    0  501  0.00000000000E+00  0.00000000000E+00  0.96894281342E+03  0.96894281344E+03  0.50400001928E-02 0.  1.
        1   -1    0    0  501    0  0.00000000000E+00  0.00000000000E+00 -0.13739556323E+04  0.13739556323E+04  0.50400001928E-02 0. -1.
    10030    2    1    2    0    0  0.00000000000E+00  0.00000000000E+00 -0.40501281885E+03  0.23428984457E+04  0.23076259973E+04 0.  0.
        3    1    3    3  502    0 -0.38991511314E+03  0.60382626871E+03 -0.11188790144E+04  0.13298609767E+04  0.10100000352E+00 0. -1.
       -3    1    3    3    0  502  0.38991511314E+03 -0.60382626871E+03  0.71386619558E+03  0.10130374690E+04  0.10100000352E+00 0.  1.
</event>
<event>
 5   0  0.2938972E-05  0.2292081E+04  0.7818609E-02  0.8481050E-01
       -2   -1    0    0    0  501  0.00000000000E+00  0.00000000000E+00  0.16083271768E+04  0.16083271768E+04  0.25500000920E-02 0.  1.
        2   -1    0    0  501    0  0.00000000000E+00  0.00000000000E+00 -0.81663025542E+03  0.81663025542E+03  0.25500000920E-02 0. -1.
    10030    2    1    2    0    0  0.00000000000E+00  0.00000000000E+00  0.79169692141E+03  0.24249574323E+04  0.22920808304E+04 0.  0.
        2    1    3    3  502    0  0.47942483298E+03  0.28206066971E+03 -0.66423859506E+03  0.86638288479E+03  0.25500000920E-02 0. -1.
       -2    1    3    3    0  502 -0.47942483298E+03 -0.28206066971E+03  0.14559355165E+04  0.15585745475E+04  0.25500000920E-02 0.  1.
</event>
<event>
 5   0  0.2871888E-05  0.2310355E+04  0.7818609E-02  0.8473850E-01
       -2   -1    0    0    0  501  0.00000000000E+00  0.00000000000E+00  0.14444154747E+04  0.14444154747E+04  0.25500000920E-02 0. -1.
        2   -1    0    0  501    0  0.00000000000E+00  0.00000000000E+00 -0.92385799832E+03  0.92385799832E+03  0.25500000920E-02 0.  1.
    10030    2    1    2    0    0  0.00000000000E+00  0.00000000000E+00  0.52055747639E+03  0.23682734730E+04  0.23103547686E+04 0.  0.
        3    1    3    3  502    0 -0.29539450768E+02  0.85218402478E+01 -0.92343854827E+03  0.92395019539E+03  0.10100000352E+00 0.  1.
       -3    1    3    3    0  502  0.29539450768E+02 -0.85218402478E+01  0.14439960247E+04  0.14443232776E+04  0.10100000352E+00 0. -1.
</event>
<event>
 5   0  0.1308224E-05  0.2282882E+04  0.7818609E-02  0.8484701E-01
        1   -1    0    0  501    0  0.00000000000E+00  0.00000000000E+00  0.10136136651E+04  0.10136136651E+04  0.50400001928E-02 0. -1.
       -1   -1    0    0    0  501  0.00000000000E+00  0.00000000000E+00 -0.12853885439E+04  0.12853885439E+04  0.50400001928E-02 0.  1.
    10030    2    1    2    0    0  0.00000000000E+00  0.00000000000E+00 -0.27177487879E+03  0.22990022090E+04  0.22828818568E+04 0.  0.
        5    1    3    3  502    0  0.70965693294E+03 -0.47140796827E+03 -0.90087428947E+03  0.12399334702E+04  0.46999998093E+01 0.  1.
       -5    1    3    3    0  502 -0.70965693294E+03  0.47140796827E+03  0.62909941068E+03  0.10590687388E+04  0.46999998093E+01 0. -1.
</event>
<event>
 5   0  0.2994157E-05  0.2299357E+04  0.7818609E-02  0.8478175E-01
        2   -1    0    0  501    0  0.00000000000E+00  0.00000000000E+00  0.92741473801E+03  0.92741473802E+03  0.25500000920E-02 0.  1.
       -2   -1    0    0    0  501  0.00000000000E+00  0.00000000000E+00 -0.14252099572E+04  0.14252099572E+04  0.25500000920E-02 0. -1.
    10030    2    1    2    0    0  0.00000000000E+00  0.00000000000E+00 -0.49779521919E+03  0.23526246952E+04  0.22993570572E+04 0.  0.
        4    1    3    3  502    0 -0.10495513973E+04 -0.41917666017E+03 -0.33080087020E+02  0.11306472098E+04  0.12699999809E+01 0. -1.
       -4    1    3    3    0  502  0.10495513973E+04  0.41917666017E+03 -0.46471513217E+03  0.12219774854E+04  0.12699999809E+01 0.  1.
</event>
<event>
 5   0  0.2994157E-05  0.2295768E+04  0.7818609E-02  0.8479592E-01
       -2   -1    0    0    0  501  0.00000000000E+00  0.00000000000E+00  0.12213650469E+04  0.12213650469E+04  0.25500000920E-02 0. -1.
        2   -1    0    0  501    0  0.00000000000E+00  0.00000000000E+00 -0.10788235888E+04  0.10788235888E+04  0.25500000920E-02 0.  1.
    10030    2    1    2    0    0  0.00000000000E+00  0.00000000000E+00  0.14254145810E+03  0.23001886357E+04  0.22957677785E+04 0.  0.
        4    1    3    3  502    0 -0.31884947851E+03 -0.99258148080E+03  0.55256313572E+03  0.11799197506E+04  0.12699999809E+01 0. -1.
       -4    1    3    3    0  502  0.31884947851E+03  0.99258148080E+03 -0.41002167762E+03  0.11202688851E+04  0.12699999809E+01 0.  1.
</event>
<event>
 5   0  0.2938972E-05  0.2307749E+04  0.7818609E-02  0.8474872E-01
        2   -1    0    0  501    0  0.00000000000E+00  0.00000000000E+00  0.10990427680E+04  0.10990427680E+04  0.25500000920E-02 0. -1.
       -2   -1    0    0    0  501  0.00000000000E+00  0.00000000000E+00 -0.12114415803E+04  0.12114415803E+04  0.25500000920E-02 0.  1.
    10030    2    1    2    0    0  0.00000000000E+00  0.00000000000E+00 -0.11239881226E+03  0.23104843483E+04  0.23077487798E+04 0.  0.
        2    1    3    3  502    0 -0.87901095211E+03  0.34941480406E+03  0.60539791664E+03  0.11230572544E+04  0.25500000920E-02 0. -1.
       -2    1    3    3    0  502  0.87901095211E+03 -0.34941480406E+03 -0.71779672891E+03  0.11874270939E+04  0.25500000920E-02 0.  1.
</event>
<event>
 5   0  0.1308224E-05  0.2284926E+04  0.7818609E-02  0.8483889E-01
        1   -1    0    0  501    0  0.00000000000E+00  0.00000000000E+00  0.12213936634E+04  0.12213936634E+04  0.50400001928E-02 0.  1.
       -1   -1    0    0    0  501  0.00000000000E+00  0.00000000000E+00 -0.10686326871E+04  0.10686326871E+04  0.50400001928E-02 0. -1.
    10030    2    1    2    0    0  0.00000000000E+00  0.00000000000E+00  0.15276097633E+03  0.22900263505E+04  0.22849255502E+04 0.  0.
        5    1    3    3  502    0 -0.10033031384E+04 -0.34956850457E+03  0.49729872553E+03  0.11730914028E+04  0.46999998093E+01 0. -1.
       -5    1    3    3    0  502  0.10033031384E+04  0.34956850457E+03 -0.34453774920E+03  0.11169349477E+04  0.46999998093E+01 0.  1.
</event>
<event>
 5   0  0.2871888E-05  0.2236932E+04  0.7818609E-02  0.8503212E-01
       -2   -1    0    0    0  501  0.00000000000E+00  0.00000000000E+00  0.10438986154E+04  0.10438986154E+04  0.25500000920E-02 0.  1.
        2   -1    0    0  501    0  0.00000000000E+00  0.00000000000E+00 -0.11983594566E+04  0.11983594566E+04  0.25500000920E-02 0. -1.
    10030    2    1    2    0    0  0.00000000000E+00  0.00000000000E+00 -0.15446084119E+03  0.22422580720E+04  0.22369316284E+04 0.  0.
        3    1    3    3  502    0 -0.11806681715E+03 -0.38196812259E+03 -0.11242876202E+04  0.11932569225E+04  0.10100000352E+00 0. -1.
       -3    1    3    3    0  502  0.11806681715E+03  0.38196812259E+03  0.96982677904E+03  0.10490011494E+04  0.10100000352E+00 0.  1.
</event>
<event>
 5   0  0.1017200E-05  0.2300440E+04  0.7818609E-02  0.8477748E-01
       -3   -1    0    0    0  501  0.00000000000E+00  0.00000000000E+00  0.12142284946E+04  0.12142284988E+04  0.10100000352E+00 0.  1.
        3   -1    0    0  501    0  0.00000000000E+00  0.00000000000E+00 -0.10895860102E+04  0.10895860148E+04  0.10100000352E+00 0. -1.
    10030    2    1    2    0    0  0.00000000000E+00  0.00000000000E+00  0.12464248441E+03  0.23038145136E+04  0.23004402979E+04 0.  0.
        3    1    3    3  502    0  0.42759085966E+02 -0.50518820976E+03  0.10962904155E+04  0.12078477354E+04  0.10100000352E+00 0.  1.
       -3    1    3    3    0  502 -0.42759085966E+02  0.50518820976E+03 -0.97164793107E+03  0.10959667782E+04  0.10100000352E+00 0. -1.
</event>
<event>
 5   0  0.1371753E-05  0.2300017E+04  0.7818609E-02  0.8477914E-01
       -1   -1    0    0    0  501  0.00000000000E+00  0.00000000000E+00  0.85036898855E+03  0.85036898857E+03  0.50400001928E-02 0. -1.
        1   -1    0    0  501    0  0.00000000000E+00  0.00000000000E+00 -0.15552308893E+04  0.15552308893E+04  0.50400001928E-02 0.  1.
    10030    2    1    2    0    0  0.00000000000E+00  0.00000000000E+00 -0.70486190074E+03  0.24055998779E+04  0.23000174941E+04 0.  0.
        3    1    3    3  502    0 -0.82209083105E+03  0.71629657615E+03 -0.73473175864E+03  0.13148174348E+04  0.10100000352E+00 0.  1.
       -3    1    3    3    0  502  0.82209083105E+03 -0.71629657615E+03  0.29869857899E+02  0.10907824431E+04  0.10100000352E+00 0. -1.
</event>
<event>
 5   0  0.1017200E-05  0.2302214E+04  0.7818609E-02  0.8477049E-01
       -3   -1    0    0    0  501  0.00000000000E+00  0.00000000000E+00  0.80999810344E+03  0.80999810974E+03  0.10100000352E+00 0.  1.
        3   -1    0    0  501    0  0.00000000000E+00  0.00000000000E+00 -0.16358646199E+04  0.16358646230E+04  0.10100000352E+00 0. -1.
    10030    2    1    2    0    0  0.00000000000E+00  0.00000000000E+00 -0.82586651648E+03  0.24458627328E+04  0.23022139354E+04 0.  0.
        5    1    3    3  502    0 -0.10538360089E+04 -0.27452517217E+03 -0.16714039563E+02  0.10891445510E+04  0.46999998093E+01 0.  1.
       -5    1    3    3    0  502  0.10538360089E+04  0.27452517217E+03 -0.80915247692E+03  0.13567181818E+04  0.46999998093E+01 0. -1.
</event>
<event>
 5   0  0.2994157E-05  0.2295808E+04  0.7818609E-02  0.8479576E-01
       -2   -1    0    0    0  501  0.00000000000E+00  0.00000000000E+00  0.20970262247E+04  0.20970262247E+04  0.25500000920E-02 0.  1.
        2   -1    0    0  501    0  0.00000000000E+00  0.00000000000E+00 -0.62835832798E+03  0.62835832798E+03  0.25500000920E-02 0. -1.
    10030    2    1    2    0    0  0.00000000000E+00  0.00000000000E+00  0.14686678967E+04  0.27253845527E+04  0.22958082605E+04 0.  0.
        4    1    3    3  502    0 -0.38714716262E+03 -0.47537916266E+03  0.18863930201E+04  0.19835192243E+04  0.12699999809E+01 0.  1.
       -4    1    3    3    0  502  0.38714716262E+03  0.47537916266E+03 -0.41772512342E+03  0.74186532838E+03  0.12699999809E+01 0. -1.
</event>
<event>
 5   0  0.1284837E-05  0.2293967E+04  0.7818609E-02  0.8480304E-01
        1   -1    0    0  501    0  0.00000000000E+00  0.00000000000E+00  0.25107396770E+04  0.25107396770E+04  0.50400001928E-02 0.  1.
       -1   -1    0    0    0  501  0.00000000000E+00  0.00000000000E+00 -0.52397761691E+03  0.52397761693E+03  0.50400001928E-02 0. -1.
    10030    2    1    2    0    0  0.00000000000E+00  0.00000000000E+00  0.19867620601E+04  0.30347172940E+04  0.22939672122E+04 0.  0.
        4    1    3    3  502    0  0.52430532952E+03  0.69285589734E+03  0.28523977965E+01  0.86888153514E+03  0.12699999809E+01 0. -1.
       -4    1    3    3    0  502 -0.52430532952E+03 -0.69285589734E+03  0.19839096623E+04  0.21658357588E+04  0.12699999809E+01 0.  1.
</event>
<event>
 5   0  0.1371753E-05  0.2301380E+04  0.7818609E-02  0.8477377E-01
       -1   -1    0    0    0  501  0.00000000000E+00  0.00000000000E+00  0.61962522076E+03  0.61962522078E+03  0.50400001928E-02 0. -1.
        1   -1    0    0  501    0  0.00000000000E+00  0.00000000000E+00 -0.21369165518E+04  0.21369165518E+04  0.50400001928E-02 0.  1.
    10030    2    1    2    0    0  0.00000000000E+00  0.00000000000E+00 -0.15172913310E+04  0.27565417726E+04  0.23013799253E+04 0.  0.
        3    1    3    3  502    0 -0.55450310907E+03 -0.99675401478E+03 -0.57661844736E+03  0.12780771135E+04  0.10100000352E+00 0. -1.
       -3    1    3    3    0  502  0.55450310907E+03  0.99675401478E+03 -0.94067288366E+03  0.14784646591E+04  0.10100000352E+00 0.  1.
</event>
<event>
 5   0  0.2938972E-05  0.2316654E+04  0.7818609E-02  0.8471384E-01
       -2   -1    0    0    0  501  0.00000000000E+00  0.00000000000E+00  0.84115802983E+03  0.84115802983E+03  0.25500000920E-02 0. -1.
        2   -1    0    0  501    0  0.00000000000E+00  0.00000000000E+00 -0.15950880079E+04  0.15950880079E+04  0.25500000920E-02 0.  1.
    10030    2    1    2    0    0  0.00000000000E+00  0.00000000000E+00 -0.75392997805E+03  0.24362460377E+04  0.23166536954E+04 0.  0.
        2    1    3    3  502    0 -0.10473661690E+04  0.16119467838E+03  0.11489947146E+03  0.10659087695E+04  0.25500000920E-02 0. -1.
       -2    1    3    3    0  502  0.10473661690E+04 -0.16119467838E+03 -0.86882944950E+03  0.13703372682E+04  0.25500000920E-02 0.  1.
</event>
<event>
 5   0  0.1371753E-05  0.2305868E+04  0.7818609E-02  0.8475611E-01
        1   -1    0    0  501    0  0.00000000000E+00  0.00000000000E+00  0.20758513497E+04  0.20758513497E+04  0.50400001928E-02 0. -1.
       -1   -1    0    0    0  501  0.00000000000E+00  0.00000000000E+00 -0.64034300836E+03  0.64034300838E+03  0.50400001928E-02 0.  1.
    10030    2    1    2    0    0  0.00000000000E+00  0.00000000000E+00  0.14355083414E+04  0.27161943581E+04  0.23058680780E+04 0.  0.
        3    1    3    3  502    0  0.89049641425E+03  0.59806424197E+03  0.21995105188E+03  0.10950082998E+04  0.10100000352E+00 0.  1.
       -3    1    3    3    0  502 -0.89049641425E+03 -0.59806424197E+03  0.12155572895E+04  0.16211860583E+04  0.10100000352E+00 0. -1.
</event>
<event>
 5   0  0.2994157E-05  0.2289261E+04  0.7818609E-02  0.8482168E-01
        2   -1    0    0  501    0  0.00000000000E+00  0.00000000000E+00  0.16098774923E+04  0.16098774923E+04  0.25500000920E-02 0.  1.
       -2   -1    0    0    0  501  0.00000000000E+00  0.00000000000E+00 -0.81383740340E+03  0.81383740340E+03  0.25500000920E-02 0. -1.
    10030    2    1    2    0    0  0.00000000000E+00  0.00000000000E+00  0.79604008890E+03  0.24237148957E+04  0.22892605951E+04 0.  0.
        4    1    3    3  502    0  0.13588886208E+03  0.69216860623E+03 -0.55637545018E+03  0.89839769409E+03  0.12699999809E+01 0. -1.
       -4    1    3    3    0  502 -0.13588886208E+03 -0.69216860623E+03  0.13524155391E+04  0.15253172016E+04  0.12699999809E+01 0.  1.
</event>
<event>
 5   0  0.2816178E-05  0.2296908E+04  0.7818609E-02  0.8479141E-01
       -2   -1    0    0    0  501  0.00000000000E+00  0.00000000000E+00  0.30367852692E+04  0.30367852692E+04  0.25500000920E-02 0.  1.
        2   -1    0    0  501    0  0.00000000000E+00  0.00000000000E+00 -0.43432320468E+03  0.43432320469E+03  0.25500000920E-02 0. -1.
    10030    2    1    2    0    0  0.00000000000E+00  0.00000000000E+00  0.26024620646E+04  0.34711084739E+04  0.22969077562E+04 0.  0.
        1    1    3    3  502    0  0.28890885416E+03 -0.11025161799E+04  0.10878556727E+04  0.15755761542E+04  0.50400001928E-02 0. -1.
       -1    1    3    3    0  502 -0.28890885416E+03  0.11025161799E+04  0.15146063919E+04  0.18955323198E+04  0.50400001928E-02 0.  1.
</event>
<event>
 5   0  0.2816178E-05  0.2311701E+04  0.7818609E-02  0.8473322E-01
       -2   -1    0    0    0  501  0.00000000000E+00  0.00000000000E+00  0.92609670392E+03  0.92609670392E+03  0.25500000920E-02 0.  1.
        2   -1    0    0  501    0  0.00000000000E+00  0.00000000000E+00 -0.14426036542E+04  0.14426036542E+04  0.25500000920E-02 0. -1.
    10030    2    1    2    0    0  0.00000000000E+00  0.00000000000E+00 -0.51650695024E+03  0.23687003581E+04  0.23117010959E+04 0.  0.
        1    1    3    3  502    0 -0.77824093010E+03  0.64256608084E+03  0.31905712138E+03  0.10584647185E+04  0.50400001928E-02 0.  1.
       -1    1    3    3    0  502  0.77824093010E+03 -0.64256608084E+03 -0.83556407162E+03  0.13102356396E+04  0.50400001928E-02 0. -1.
</event>
<event>
 5   0  0.2871888E-05  0.2310186E+04  0.7818609E-02  0.8473916E-01
        2   -1    0    0  501    0  0.00000000000E+00  0.00000000000E+00  0.10160589777E+04  0.10160589777E+04  0.25500000920E-02 0. -1.
       -2   -1    0    0    0  501  0.00000000000E+00  0.00000000000E+00 -0.13131514555E+04  0.13131514555E+04  0.25500000920E-02 0.  1.
    10030    2    1    2    0    0  0.00000000000E+00  0.00000000000E+00 -0.29709247785E+03  0.23292104332E+04  0.23101855557E+04 0.  0.
        3    1    3    3  502    0  0.62796293636E+03 -0.94651100925E+03  0.62988081536E+02  0.11376238608E+04  0.10100000352E+00 0. -1.
       -3    1    3    3    0  502 -0.62796293636E+03  0.94651100925E+03 -0.36008055939E+03  0.11915865724E+04  0.10100000352E+00 0.  1.
</event>
<event>
 5   0  0.2910126E-05  0.2059528E+04  0.7818609E-02  0.8579284E-01
       -2   -1    0    0    0  501  0.00000000000E+00  0.00000000000E+00  0.63649805185E+03  0.63649805186E+03  0.25500000920E-02 0.  1.
        2   -1    0    0  501    0  0.00000000000E+00  0.00000000000E+00 -0.16660131645E+04  0.16660131645E+04  0.25500000920E-02 0. -1.
    10030    2    1    2    0    0  0.00000000000E+00  0.00000000000E+00 -0.10295151126E+04  0.23025112163E+04  0.20595282310E+04 0.  0.
        5    1    3    3  502    0  0.45277636656E+03 -0.92300538243E+03 -0.44912280817E+03  0.11219085350E+04  0.46999998093E+01 0.  1.
       -5    1    3    3    0  502 -0.45277636656E+03  0.92300538243E+03 -0.58039230445E+03  0.11806026813E+04  0.46999998093E+01 0. -1.
</event>
<event>
 5   0  0.1371753E-05  0.2319663E+04  0.7818609E-02  0.8470209E-01
        1   -1    0    0  501    0  0.00000000000E+00  0.00000000000E+00  0.14940891652E+04  0.14940891652E+04  0.50400001928E-02 0. -1.
       -1   -1    0    0    0  501  0.00000000000E+00  0.00000000000E+00 -0.90035364603E+03  0.90035364605E+03  0.50400001928E-02 0.  1.
    10030    2    1    2    0    0  0.00000000000E+00  0.00000000000E+00  0.59373551914E+03  0.23944428112E+04  0.23196625853E+04 0.  0.
        3    1    3    3  502    0 -0.22702562074E+03  0.39680191816E+03  0.13971653047E+04  0.14700555410E+04  0.10100000352E+00 0. -1.
       -3    1    3    3    0  502  0.22702562074E+03 -0.39680191816E+03 -0.80342978560E+03  0.92438727021E+03  0.10100000352E+00 0.  1.
</event>
<event>
 5   0  0.1284837E-05  0.2303794E+04  0.7818609E-02  0.8476427E-01
        1   -1    0    0  501    0  0.00000000000E+00  0.00000000000E+00  0.11693070878E+04  0.11693070878E+04  0.50400001928E-02 0.  1.
       -1   -1    0    0    0  501  0.00000000000E+00  0.00000000000E+00 -0.11347458568E+04  0.11347458568E+04  0.50400001928E-02 0. -1.
    10030    2    1    2    0    0  0.00000000000E+00  0.00000000000E+00  0.34561230999E+02  0.23040529446E+04  0.23037937175E+04 0.  0.
        4    1    3    3  502    0  0.39369263832E+03 -0.10825251163E+04  0.20480870179E+02  0.11520744767E+04  0.12699999809E+01 0.  1.
       -4    1    3    3    0  502 -0.39369263832E+03  0.10825251163E+04  0.14080360820E+02  0.11519784678E+04  0.12699999809E+01 0. -1.
</event>
<event>
 5   0  0.2994157E-05  0.2291099E+04  0.7818609E-02  0.8481439E-01
       -2   -1    0    0    0  501  0.00000000000E+00  0.00000000000E+00  0.16308034472E+04  0.16308034472E+04  0.25500000920E-02 0.  1.
        2   -1    0    0  501    0  0.00000000000E+00  0.00000000000E+00 -0.80468543543E+03  0.80468543543E+03  0.25500000920E-02 0. -1.
    10030    2    1    2    0    0  0.00000000000E+00  0.00000000000E+00  0.82611801176E+03  0.24354888826E+04  0.22910991092E+04 0.  0.
        4    1    3    3  502    0 -0.62121659042E+03 -0.80175951298E+03 -0.15299779306E+03  0.10257379326E+04  0.12699999809E+01 0. -1.
       -4    1    3    3    0  502  0.62121659042E+03  0.80175951298E+03  0.97911580482E+03  0.14097509500E+04  0.12699999809E+01 0.  1.
</event>
<event>
 5   0  0.1371753E-05  0.2337706E+04  0.7818609E-02  0.8463201E-01
        1   -1    0    0  501    0  0.00000000000E+00  0.00000000000E+00  0.12569272988E+04  0.12569272988E+04  0.50400001928E-02 0. -1.
       -1   -1    0    0    0  501  0.00000000000E+00  0.00000000000E+00 -0.10869500596E+04  0.10869500597E+04  0.50400001928E-02 0.  1.
    10030    2    1    2    0    0  0.00000000000E+00  0.00000000000E+00  0.16997723916E+03  0.23438773585E+04  0.23377058861E+04 0.  0.
        3    1    3    3  502    0  0.71180763931E+03  0.34799180844E+03  0.94658765004E+03  0.12344215664E+04  0.10100000352E+00 0. -1.
       -3    1    3    3    0  502 -0.71180763931E+03 -0.34799180844E+03 -0.77661041088E+03  0.11094557921E+04  0.10100000352E+00 0.  1.
</event>
<event>
 5   0  0.1303224E-05  0.2303751E+04  0.7818609E-02  0.8476443E-01
        1   -1    0    0  501    0  0.00000000000E+00  0.00000000000E+00  0.19962765428E+04  0.19962765428E+04  0.50400001928E-02 0.  1.
       -1   -1    0    0    0  501  0.00000000000E+00  0.00000000000E+00 -0.66464619547E+03  0.66464619549E+03  0.50400001928E-02 0. -1.
    10030    2    1    2    0    0  0.00000000000E+00  0.00000000000E+00  0.13316303473E+04  0.26609227383E+04  0.23037513835E+04 0.  0.
        2    1    3    3  502    0 -0.83687600206E+03  0.48820463271E+03 -0.53758749756E+02  0.97035828919E+03  0.25500000920E-02 0. -1.
       -2    1    3    3    0  502  0.83687600206E+03 -0.48820463271E+03  0.13853890971E+04  0.16905644491E+04  0.25500000920E-02 0.  1.
</event>
<event>
 5   0  0.1308224E-05  0.2317530E+04  0.7818609E-02  0.8471041E-01
       -1   -1    0    0    0  501  0.00000000000E+00  0.00000000000E+00  0.71280974571E+03  0.71280974573E+03  0.50400001928E-02 0.  1.
        1   -1    0    0  501    0  0.00000000000E+00  0.00000000000E+00 -0.18837226082E+04  0.18837226082E+04  0.50400001928E-02 0. -1.
    10030    2    1    2    0    0  0.00000000000E+00  0.00000000000E+00 -0.11709128624E+04  0.25965323539E+04  0.23175295755E+04 0.  0.
        5    1    3    3  502    0 -0.27503811618E+03 -0.91842900992E+03 -0.13146181121E+04  0.16270834896E+04  0.46999998093E+01 0. -1.
       -5    1    3    3    0  502  0.27503811618E+03  0.91842900992E+03  0.14370524966E+03  0.96944886425E+03  0.46999998093E+01 0.  1.
</event>
<event>
 5   0  0.1371753E-05  0.2317315E+04  0.7818609E-02  0.8471125E-01
       -1   -1    0    0    0  501  0.00000000000E+00  0.00000000000E+00  0.12161516245E+04  0.12161516246E+04  0.50400001928E-02 0.  1.
        1   -1    0    0  501    0  0.00000000000E+00  0.00000000000E+00 -0.11038813886E+04  0.11038813886E+04  0.50400001928E-02 0. -1.
    10030    2    1    2    0    0  0.00000000000E+00  0.00000000000E+00  0.11227023591E+03  0.23200330132E+04  0.23173149498E+04 0.  0.
        3    1    3    3  502    0 -0.90569220275E+03  0.60223961541E+03 -0.34372815579E+03  0.11406664612E+04  0.10100000352E+00 0. -1.
       -3    1    3    3    0  502  0.90569220275E+03 -0.60223961541E+03  0.45599839169E+03  0.11793665520E+04  0.10100000352E+00 0.  1.
</event>
<event>
 5   0  0.1308224E-05  0.2288050E+04  0.7818609E-02  0.8482648E-01
        1   -1    0    0  501    0  0.00000000000E+00  0.00000000000E+00  0.15579196524E+04  0.15579196525E+04  0.50400001928E-02 0. -1.
       -1   -1    0    0    0  501  0.00000000000E+00  0.00000000000E+00 -0.84009021772E+03  0.84009021773E+03  0.50400001928E-02 0.  1.
    10030    2    1    2    0    0  0.00000000000E+00  0.00000000000E+00  0.71782943473E+03  0.23980098702E+04  0.22880498771E+04 0.  0.
        5    1    3    3  502    0 -0.23565335719E+03 -0.94418339980E+03 -0.27145226026E+03  0.10103084761E+04  0.46999998093E+01 0.  1.
       -5    1    3    3    0  502  0.23565335719E+03  0.94418339980E+03  0.98928169500E+03  0.13877013941E+04  0.46999998093E+01 0. -1.
</event>
<event>
 5   0  0.1303224E-05  0.2294957E+04  0.7818609E-02  0.8479912E-01
       -1   -1    0    0    0  501  0.00000000000E+00  0.00000000000E+00  0.14791565246E+04  0.14791565246E+04  0.50400001928E-02 0.  1.
        1   -1    0    0  501    0  0.00000000000E+00  0.00000000000E+00 -0.89017448775E+03  0.89017448776E+03  0.50400001928E-02 0. -1.
    10030    2    1    2    0    0  0.00000000000E+00  0.00000000000E+00  0.58898203683E+03  0.23693310123E+04  0.22949574302E+04 0.  0.
        2    1    3    3  502    0  0.60551824402E+02  0.48129505957E+03  0.13680934168E+04  0.14515478135E+04  0.25500000920E-02 0.  1.
       -2    1    3    3    0  502 -0.60551824402E+02 -0.48129505957E+03 -0.77911137993E+03  0.91778319888E+03  0.25500000920E-02 0. -1.
</event>
<event>
 5   0  0.1303224E-05  0.2290239E+04  0.7818609E-02  0.8481780E-01
        1   -1    0    0  501    0  0.00000000000E+00  0.00000000000E+00  0.12129474326E+04  0.12129474326E+04  0.50400001928E-02 0.  1.
       -1   -1    0    0    0  501  0.00000000000E+00  0.00000000000E+00 -0.10810842054E+04  0.10810842054E+04  0.50400001928E-02 0. -1.
    10030    2    1    2    0    0  0.00000000000E+00  0.00000000000E+00  0.13186322722E+03  0.22940316380E+04  0.22902386874E+04 0.  0.
        2    1    3    3  502    0 -0.38210726307E+03  0.69621168878E+03 -0.76040837435E+03  0.10995169721E+04  0.25500000920E-02 0. -1.
       -2    1    3    3    0  502  0.38210726307E+03 -0.69621168878E+03  0.89227160157E+03  0.11945146659E+04  0.25500000920E-02 0.  1.
</event>
<event>
 5   0  0.2910126E-05  0.2332542E+04  0.7818609E-02  0.8465200E-01
        2   -1    0    0  501    0  0.00000000000E+00  0.00000000000E+00  0.13088613867E+04  0.13088613867E+04  0.25500000920E-02 0. -1.
       -2   -1    0    0    0  501  0.00000000000E+00  0.00000000000E+00 -0.10392148565E+04  0.10392148565E+04  0.25500000920E-02 0.  1.
    10030    2    1    2    0    0  0.00000000000E+00  0.00000000000E+00  0.26964653021E+03  0.23480762431E+04  0.23325421309E+04 0.  0.
        5    1    3    3  502    0  0.46036374911E+03 -0.52255963810E+03 -0.80690826264E+03  0.10658922981E+04  0.46999998093E+01 0.  1.
       -5    1    3    3    0  502 -0.46036374911E+03  0.52255963810E+03  0.10765547929E+04  0.12821839450E+04  0.46999998093E+01 0. -1.
</event>
<event>
 5   0  0.1371753E-05  0.2293199E+04  0.7818609E-02  0.8480608E-01
       -1   -1    0    0    0  501  0.00000000000E+00  0.00000000000E+00  0.51946480878E+03  0.51946480881E+03  0.50400001928E-02 0. -1.
        1   -1    0    0  501    0  0.00000000000E+00  0.00000000000E+00 -0.25308553142E+04  0.25308553142E+04  0.50400001928E-02 0.  1.
    10030    2    1    2    0    0  0.00000000000E+00  0.00000000000E+00 -0.20113905054E+04  0.30503201230E+04  0.22931988766E+04 0.  0.
        3    1    3    3  502    0  0.10859931060E+04 -0.16374508007E+03 -0.56755603121E+03  0.12362497063E+04  0.10100000352E+00 0.  1.
       -3    1    3    3    0  502 -0.10859931060E+04  0.16374508007E+03 -0.14438344742E+04  0.18140704167E+04  0.10100000352E+00 0. -1.
</event>
<event>
 5   0  0.2910126E-05  0.2363319E+04  0.7818609E-02  0.8453365E-01
        2   -1    0    0  501    0  0.00000000000E+00  0.00000000000E+00  0.11431278695E+04  0.11431278695E+04  0.25500000920E-02 0.  1.
       -2   -1    0    0    0  501  0.00000000000E+00  0.00000000000E+00 -0.12214900592E+04  0.12214900592E+04  0.25500000920E-02 0. -1.
    10030    2    1    2    0    0  0.00000000000E+00  0.00000000000E+00 -0.78362189733E+02  0.23646179287E+04  0.23633191312E+04 0.  0.
        5    1    3    3  502    0  0.15581239417E+03  0.43210397077E+03 -0.11284969621E+04  0.12184083171E+04  0.46999998093E+01 0. -1.
       -5    1    3    3    0  502 -0.15581239417E+03 -0.43210397077E+03  0.10501347723E+04  0.11462096116E+04  0.46999998093E+01 0.  1.
</event>
<event>
 5   0  0.1371753E-05  0.2300795E+04  0.7818609E-02  0.8477608E-01
       -1   -1    0    0    0  501  0.00000000000E+00  0.00000000000E+00  0.18939402679E+04  0.18939402679E+04  0.50400001928E-02 0.  1.
        1   -1    0    0  501    0  0.00000000000E+00  0.00000000000E+00 -0.69876260829E+03  0.69876260830E+03  0.50400001928E-02 0. -1.
    10030    2    1    2    0    0  0.00000000000E+00  0.00000000000E+00  0.11951776596E+04  0.25927028762E+04  0.23007952030E+04 0.  0.
        3    1    3    3  502    0  0.42278354518E+03 -0.60850777453E+03 -0.39405065551E+03  0.83922795893E+03  0.10100000352E+00 0. -1.
       -3    1    3    3    0  502 -0.42278354518E+03  0.60850777453E+03  0.15892283151E+04  0.17534749173E+04  0.10100000352E+00 0.  1.
</event>
<event>
 5   0  0.2994157E-05  0.2268832E+04  0.7818609E-02  0.8490313E-01
       -2   -1    0    0    0  501  0.00000000000E+00  0.00000000000E+00  0.38654231660E+03  0.38654231661E+03  0.25500000920E-02 0. -1.
        2   -1    0    0  501    0  0.00000000000E+00  0.00000000000E+00 -0.33292583019E+04  0.33292583019E+04  0.25500000920E-02 0.  1.
    10030    2    1    2    0    0  0.00000000000E+00  0.00000000000E+00 -0.29427159853E+04  0.37158006185E+04  0.22688316082E+04 0.  0.
        4    1    3    3  502    0 -0.91764026894E+03 -0.22064502017E+03 -0.25021708171E+04  0.26742491093E+04  0.12699999809E+01 0.  1.
       -4    1    3    3    0  502  0.91764026894E+03  0.22064502017E+03 -0.44054516824E+03  0.10415515092E+04  0.12699999809E+01 0. -1.
</event>
<event>
 5   0  0.1284837E-05  0.2290379E+04  0.7818609E-02  0.8481724E-01
        1   -1    0    0  501    0  0.00000000000E+00  0.00000000000E+00  0.13363711597E+04  0.13363711597E+04  0.50400001928E-02 0. -1.
       -1   -1    0    0    0  501  0.00000000000E+00  0.00000000000E+00 -0.98135847820E+03  0.98135847821E+03  0.50400001928E-02 0.  1.
    10030    2    1    2    0    0  0.00000000000E+00  0.00000000000E+00  0.35501268150E+03  0.23177296379E+04  0.22903791543E+04 0.  0.
        4    1    3    3  502    0  0.71071318247E+03 -0.68562977746E+03 -0.40929419346E+03  0.10689830537E+04  0.12699999809E+01 0.  1.
       -4    1    3    3    0  502 -0.71071318247E+03  0.68562977746E+03  0.76430687496E+03  0.12487465842E+04  0.12699999809E+01 0. -1.
</event>
<event>
 5   0  0.2994157E-05  0.2309569E+04  0.7818609E-02  0.8474158E-01
        2   -1    0    0  501    0  0.00000000000E+00  0.00000000000E+00  0.23145025554E+04  0.23145025554E+04  0.25500000920E-02 0.  1.
       -2   -1    0    0    0  501  0.00000000000E+00  0.00000000000E+00 -0.57616129388E+03  0.57616129388E+03  0.25500000920E-02 0. -1.
    10030    2    1    2    0    0  0.00000000000E+00  0.00000000000E+00  0.17383412615E+04  0.28906638493E+04  0.23095686065E+04 0.  0.
        4    1    3    3  502    0 -0.78968980554E+03  0.11346240958E+03  0.19141218836E+04  0.20737280211E+04  0.12699999809E+01 0.  1.
       -4    1    3    3    0  502  0.78968980554E+03 -0.11346240958E+03 -0.17578062207E+03  0.81693582818E+03  0.12699999809E+01 0. -1.
</event>
<event>
 5   0  0.2938972E-05  0.2274964E+04  0.7818609E-02  0.8487859E-01
        2   -1    0    0  501    0  0.00000000000E+00  0.00000000000E+00  0.11315879152E+04  0.11315879152E+04  0.25500000920E-02 0.  1.
       -2   -1    0    0    0  501  0.00000000000E+00  0.00000000000E+00 -0.11434063271E+04  0.11434063271E+04  0.25500000920E-02 0. -1.
    10030    2    1    2    0    0  0.00000000000E+00  0.00000000000E+00 -0.11818411975E+02  0.22749942423E+04  0.22749635442E+04 0.  0.
        2    1    3    3  502    0  0.61512443692E+03 -0.42030697302E+03  0.85365387888E+03  0.11330317601E+04  0.25500000920E-02 0.  1.
       -2    1    3    3    0  502 -0.61512443692E+03  0.42030697302E+03 -0.86547229086E+03  0.11419624822E+04  0.25500000920E-02 0. -1.
</event>
<event>
 5   0  0.1327820E-05  0.2297228E+04  0.7818609E-02  0.8479015E-01
        1   -1    0    0  501    0  0.00000000000E+00  0.00000000000E+00  0.16269338987E+04  0.16269338987E+04  0.50400001928E-02 0.  1.
       -1   -1    0    0    0  501  0.00000000000E+00  0.00000000000E+00 -0.81092067884E+03  0.81092067885E+03  0.50400001928E-02 0. -1.
    10030    2    1    2    0    0  0.00000000000E+00  0.00000000000E+00  0.81601321982E+03  0.24378545775E+04  0.22972281920E+04 0.  0.
        1    1    3    3  502    0 -0.10408609442E+04  0.34380070502E+03  0.77211945491E+03  0.13408053112E+04  0.50400001928E-02 0.  1.
       -1    1    3    3    0  502  0.10408609442E+04 -0.34380070502E+03  0.43893764912E+02  0.10970492663E+04  0.50400001928E-02 0. -1.
</event>
<event>
 5   0  0.1327820E-05  0.2302184E+04  0.7818609E-02  0.8477060E-01
        1   -1    0    0  501    0  0.00000000000E+00  0.00000000000E+00  0.19414295146E+04  0.19414295146E+04  0.50400001928E-02 0. -1.
       -1   -1    0    0    0  501  0.00000000000E+00  0.00000000000E+00 -0.68249355411E+03  0.68249355412E+03  0.50400001928E-02 0.  1.
    10030    2    1    2    0    0  0.00000000000E+00  0.00000000000E+00  0.12589359605E+04  0.26239230687E+04  0.23021842928E+04 0.  0.
        1    1    3    3  502    0 -0.98237745346E+03  0.13385323192E+03  0.12960348651E+04  0.16317746537E+04  0.50400001928E-02 0. -1.
       -1    1    3    3    0  502  0.98237745346E+03 -0.13385323192E+03 -0.37098904607E+02  0.99214841506E+03  0.50400001928E-02 0.  1.
</event>
<event>
 5   0  0.2910126E-05  0.2303615E+04  0.7818609E-02  0.8476497E-01
       -2   -1    0    0    0  501  0.00000000000E+00  0.00000000000E+00  0.10879375197E+04  0.10879375197E+04  0.25500000920E-02 0. -1.
        2   -1    0    0  501    0  0.00000000000E+00  0.00000000000E+00 -0.12194271067E+04  0.12194271067E+04  0.25500000920E-02 0.  1.
    10030    2    1    2    0    0  0.00000000000E+00  0.00000000000E+00 -0.13148958708E+03  0.23073646264E+04  0.23036149869E+04 0.  0.
        5    1    3    3  502    0  0.44195327807E+03  0.10364464091E+04  0.17358880672E+03  0.11400434302E+04  0.46999998093E+01 0. -1.
       -5    1    3    3    0  502 -0.44195327807E+03 -0.10364464091E+04 -0.30507839380E+03  0.11673211962E+04  0.46999998093E+01 0.  1.
</event>
<event>
 5   0  0.2871888E-05  0.2216048E+04  0.7818609E-02  0.8511778E-01
       -2   -1    0    0    0  501  0.00000000000E+00  0.00000000000E+00  0.13714402383E+04  0.13714402383E+04  0.25500000920E-02 0.  1.
        2   -1    0    0  501    0  0.00000000000E+00  0.00000000000E+00 -0.89520281971E+03  0.89520281971E+03  0.25500000920E-02 0. -1.
    10030    2    1    2    0    0  0.00000000000E+00  0.00000000000E+00  0.47623741860E+03  0.22666430580E+04  0.22160479854E+04 0.  0.
        3    1    3    3  502    0 -0.34135735851E+03  0.42741487827E+03  0.12237103113E+04  0.13404011566E+04  0.10100000352E+00 0.  1.
       -3    1    3    3    0  502  0.34135735851E+03 -0.42741487827E+03 -0.74747289273E+03  0.92624190142E+03  0.10100000352E+00 0. -1.
</event>
<event>
 5   0  0.2910126E-05  0.2297950E+04  0.7818609E-02  0.8478730E-01
        2   -1    0    0  501    0  0.00000000000E+00  0.00000000000E+00  0.12373771488E+04  0.12373771488E+04  0.25500000920E-02 0. -1.
       -2   -1    0    0    0  501  0.00000000000E+00  0.00000000000E+00 -0.10668883072E+04  0.10668883072E+04  0.25500000920E-02 0.  1.
    10030    2    1    2    0    0  0.00000000000E+00  0.00000000000E+00  0.17048884154E+03  0.23042654560E+04  0.22979497050E+04 0.  0.
        5    1    3    3  502    0 -0.60426220561E+03 -0.55524286009E+03 -0.72113845532E+03  0.10924697747E+04  0.46999998093E+01 0.  1.
       -5    1    3    3    0  502  0.60426220561E+03  0.55524286009E+03  0.89162729685E+03  0.12117956813E+04  0.46999998093E+01 0. -1.
</event>
<event>
 5   0  0.1303224E-05  0.2304589E+04  0.7818609E-02  0.8476114E-01
       -1   -1    0    0    0  501  0.00000000000E+00  0.00000000000E+00  0.99961343630E+03  0.99961343631E+03  0.50400001928E-02 0.  1.
        1   -1    0    0  501    0  0.00000000000E+00  0.00000000000E+00 -0.13282955431E+04  0.13282955431E+04  0.50400001928E-02 0. -1.
    10030    2    1    2    0    0  0.00000000000E+00  0.00000000000E+00 -0.32868210677E+03  0.23279089794E+04  0.23045885292E+04 0.  0.
        2    1    3    3  502    0  0.11044821268E+04  0.19891815345E+03 -0.42839182245E+03  0.12012363439E+04  0.25500000920E-02 0. -1.
       -2    1    3    3    0  502 -0.11044821268E+04 -0.19891815345E+03  0.99709715679E+02  0.11266726355E+04  0.25500000920E-02 0.  1.
</event>
<event>
 5   0  0.2994157E-05  0.2296205E+04  0.7818609E-02  0.8479419E-01
        2   -1    0    0  501    0  0.00000000000E+00  0.00000000000E+00  0.20124097916E+04  0.20124097916E+04  0.25500000920E-02 0.  1.
       -2   -1    0    0    0  501  0.00000000000E+00  0.00000000000E+00 -0.65500550248E+03  0.65500550248E+03  0.25500000920E-02 0. -1.
    10030    2    1    2    0    0  0.00000000000E+00  0.00000000000E+00  0.13574042892E+04  0.26674152941E+04  0.22962051187E+04 0.  0.
        4    1    3    3  502    0 -0.46191268003E+03  0.10205232864E+04  0.38641814589E+03  0.11849690707E+04  0.12699999809E+01 0.  1.
       -4    1    3    3    0  502  0.46191268003E+03 -0.10205232864E+04  0.97098614328E+03  0.14824462235E+04  0.12699999809E+01 0. -1.
</event>
<event>
 5   0  0.1327820E-05  0.2285275E+04  0.7818609E-02  0.8483750E-01
        1   -1    0    0  501    0  0.00000000000E+00  0.00000000000E+00  0.17268739169E+04  0.17268739169E+04  0.50400001928E-02 0. -1.
       -1   -1    0    0    0  501  0.00000000000E+00  0.00000000000E+00 -0.75606003461E+03  0.75606003463E+03  0.50400001928E-02 0.  1.
    10030    2    1    2    0    0  0.00000000000E+00  0.00000000000E+00  0.97081388232E+03  0.24829339516E+04  0.22852749099E+04 0.  0.
        1    1    3    3  502    0  0.78352388952E+03  0.39537225638E+03  0.12803983400E+04  0.15523043566E+04  0.50400001928E-02 0. -1.
       -1    1    3    3    0  502 -0.78352388952E+03 -0.39537225638E+03 -0.30958445765E+03  0.93062959495E+03  0.50400001928E-02 0.  1.
</event>
<event>
 5   0  0.2871888E-05  0.2301619E+04  0.7818609E-02  0.8477283E-01
       -2   -1    0    0    0  501  0.00000000000E+00  0.00000000000E+00  0.14735865271E+04  0.14735865271E+04  0.25500000920E-02 0.  1.
        2   -1    0    0  501    0  0.00000000000E+00  0.00000000000E+00 -0.89873404914E+03  0.89873404915E+03  0.25500000920E-02 0. -1.
    10030    2    1    2    0    0  0.00000000000E+00  0.00000000000E+00  0.57485247799E+03  0.23723205763E+04  0.23016188966E+04 0.  0.
        3    1    3    3  502    0  0.38324402300E+03  0.96358887574E+02  0.14014611864E+04  0.14561093652E+04  0.10100000352E+00 0.  1.
       -3    1    3    3    0  502 -0.38324402300E+03 -0.96358887574E+02 -0.82660870836E+03  0.91621121108E+03  0.10100000352E+00 0. -1.
</event>
<event>
 5   0  0.1327820E-05  0.2299728E+04  0.7818609E-02  0.8478028E-01
        1   -1    0    0  501    0  0.00000000000E+00  0.00000000000E+00  0.16748345809E+04  0.16748345809E+04  0.50400001928E-02 0.  1.
       -1   -1    0    0    0  501  0.00000000000E+00  0.00000000000E+00 -0.78944373917E+03  0.78944373919E+03  0.50400001928E-02 0. -1.
    10030    2    1    2    0    0  0.00000000000E+00  0.00000000000E+00  0.88539084175E+03  0.24642783201E+04  0.22997283962E+04 0.  0.
        1    1    3    3  502    0  0.14779907570E+02 -0.79406881411E+03 -0.44832040311E+03  0.91200598193E+03  0.50400001928E-02 0. -1.
       -1    1    3    3    0  502 -0.14779907570E+02  0.79406881411E+03  0.13337112449E+04  0.15522723382E+04  0.50400001928E-02 0.  1.
</event>
<event>
 5   0  0.2910126E-05  0.2336898E+04  0.7818609E-02  0.8463513E-01
       -2   -1    0    0    0  501  0.00000000000E+00  0.00000000000E+00  0.75730753805E+03  0.75730753805E+03  0.25500000920E-02 0.  1.
        2   -1    0    0  501    0  0.00000000000E+00  0.00000000000E+00 -0.18027994725E+04  0.18027994725E+04  0.25500000920E-02 0. -1.
    10030    2    1    2    0    0  0.00000000000E+00  0.00000000000E+00 -0.10454919344E+04  0.25601070105E+04  0.23368984831E+04 0.  0.
        5    1    3    3  502    0  0.76075333798E+03 -0.72316879796E+03  0.39641457316E+02  0.10503867320E+04  0.46999998093E+01 0.  1.
       -5    1    3    3    0  502 -0.76075333798E+03  0.72316879796E+03 -0.10851333917E+04  0.15097202785E+04  0.46999998093E+01 0. -1.
</event>
<event>
 5   0  0.1284837E-05  0.2309220E+04  0.7818609E-02  0.8474295E-01
       -1   -1    0    0    0  501  0.00000000000E+00  0.00000000000E+00  0.91907033451E+03  0.91907033453E+03  0.50400001928E-02 0.  1.
        1   -1    0    0  501    0  0.00000000000E+00  0.00000000000E+00 -0.14505135585E+04  0.14505135585E+04  0.50400001928E-02 0. -1.
    10030    2    1    2    0    0  0.00000000000E+00  0.00000000000E+00 -0.53144322402E+03  0.23695838931E+04  0.23092197656E+04 0.  0.
        4    1    3    3  502    0  0.79249564655E+01 -0.30793399937E+03  0.87612712006E+03  0.92870151087E+03  0.12699999809E+01 0.  1.
       -4    1    3    3    0  502 -0.79249564655E+01  0.30793399937E+03 -0.14075703441E+04  0.14408823822E+04  0.12699999809E+01 0. -1.
</event>
<event>
 5   0  0.2938972E-05  0.2285859E+04  0.7818609E-02  0.8483517E-01
        2   -1    0    0  501    0  0.00000000000E+00  0.00000000000E+00  0.17217294067E+04  0.17217294067E+04  0.25500000920E-02 0. -1.
       -2   -1    0    0    0  501  0.00000000000E+00  0.00000000000E+00 -0.75870708311E+03  0.75870708311E+03  0.25500000920E-02 0.  1.
    10030    2    1    2    0    0  0.00000000000E+00  0.00000000000E+00  0.96302232361E+03  0.24804364898E+04  0.22858593973E+04 0.  0.
        2    1    3    3  502    0  0.28320174569E+03  0.60886937883E+03  0.14850954778E+04  0.16298569653E+04  0.25500000920E-02 0. -1.
       -2    1    3    3    0  502 -0.28320174569E+03 -0.60886937883E+03 -0.52207315417E+03  0.85057952453E+03  0.25500000920E-02 0.  1.
</event>
<event>
 5   0  0.2871888E-05  0.2321694E+04  0.7818609E-02  0.8469416E-01
        2   -1    0    0  501    0  0.00000000000E+00  0.00000000000E+00  0.22812702820E+04  0.22812702820E+04  0.25500000920E-02 0. -1.
       -2   -1    0    0    0  501  0.00000000000E+00  0.00000000000E+00 -0.59070828642E+03  0.59070828643E+03  0.25500000920E-02 0.  1.
    10030    2    1    2    0    0  0.00000000000E+00  0.00000000000E+00  0.16905619956E+04  0.28719785684E+04  0.23216935708E+04 0.  0.
        3    1    3    3  502    0 -0.86733991745E+03 -0.76538666304E+03  0.96565997723E+03  0.15068491889E+04  0.10100000352E+00 0. -1.
       -3    1    3    3    0  502  0.86733991745E+03  0.76538666304E+03  0.72490201835E+03  0.13651293795E+04  0.10100000352E+00 0.  1.
</event>
<event>
 5   0  0.1308224E-05  0.2290405E+04  0.7818609E-02  0.8481714E-01
       -1   -1    0    0    0  501  0.00000000000E+00  0.00000000000E+00  0.14286503062E+04  0.14286503062E+04  0.50400001928E-02 0. -1.
        1   -1    0    0  501    0  0.00000000000E+00  0.00000000000E+00 -0.91799114008E+03  0.91799114009E+03  0.50400001928E-02 0.  1.
    10030    2    1    2    0    0  0.00000000000E+00  0.00000000000E+00  0.51065916608E+03  0.23466414463E+04  0.22904046135E+04 0.  0.
        5    1    3    3  502    0 -0.90138259791E+03  0.65518113923E+03  0.52584524299E+03  0.12321883876E+04  0.46999998093E+01 0.  1.
       -5    1    3    3    0  502  0.90138259791E+03 -0.65518113923E+03 -0.15186076903E+02  0.11144530587E+04  0.46999998093E+01 0. -1.
</event>
<event>
 5   0  0.1017200E-05  0.2302261E+04  0.7818609E-02  0.8477030E-01
        4   -1    0    0  501    0  0.00000000000E+00  0.00000000000E+00  0.17365412506E+04  0.17365417150E+04  0.12699999809E+01 0. -1.
       -4   -1    0    0    0  501  0.00000000000E+00  0.00000000000E+00 -0.76306822815E+03  0.76306928501E+03  0.12699999809E+01 0.  1.
    10030    2    1    2    0    0  0.00000000000E+00  0.00000000000E+00  0.97347302245E+03  0.24996110000E+04  0.23022609378E+04 0.  0.
        4    1    3    3  502    0  0.44492026390E+03  0.87730988042E+03  0.11358782747E+04  0.15026136347E+04  0.12699999809E+01 0. -1.
       -4    1    3    3    0  502 -0.44492026390E+03 -0.87730988042E+03 -0.16240525222E+03  0.99699736528E+03  0.12699999809E+01 0.  1.
</event>
<event>
 5   0  0.2816178E-05  0.2299195E+04  0.7818609E-02  0.8478239E-01
       -2   -1    0    0    0  501  0.00000000000E+00  0.00000000000E+00  0.52577374124E+03  0.52577374124E+03  0.25500000920E-02 0. -1.
        2   -1    0    0  501    0  0.00000000000E+00  0.00000000000E+00 -0.25135805100E+04  0.25135805100E+04  0.25500000920E-02 0.  1.
    10030    2    1    2    0    0  0.00000000000E+00  0.00000000000E+00 -0.19878067687E+04  0.30393542512E+04  0.22991951884E+04 0.  0.
        1    1    3    3  502    0 -0.16552586399E+02 -0.88272471300E+03 -0.19671978887E+04  0.21562338557E+04  0.50400001928E-02 0.  1.
       -1    1    3    3    0  502  0.16552586399E+02  0.88272471300E+03 -0.20608880049E+02  0.88312039554E+03  0.50400001928E-02 0. -1.
</event>
<event>
 5   0  0.2938972E-05  0.2297990E+04  0.7818609E-02  0.8478714E-01
       -2   -1    0    0    0  501  0.00000000000E+00  0.00000000000E+00  0.84957284519E+03  0.84957284519E+03  0.25500000920E-02 0. -1.
        2   -1    0    0  501    0  0.00000000000E+00  0.00000000000E+00 -0.15539445491E+04  0.15539445491E+04  0.25500000920E-02 0.  1.
    10030    2    1    2    0    0  0.00000000000E+00  0.00000000000E+00 -0.70437170394E+03  0.24035173943E+04  0.22979896361E+04 0.  0.
        2    1    3    3  502    0  0.98422096003E+03 -0.58781421364E+03 -0.43301770171E+03  0.12254471747E+04  0.25500000920E-02 0. -1.
       -2    1    3    3    0  502 -0.98422096003E+03  0.58781421364E+03 -0.27135400223E+03  0.11780702197E+04  0.25500000920E-02 0.  1.
</event>
<event>
 5   0  0.1303224E-05  0.2300063E+04  0.7818609E-02  0.8477896E-01
        1   -1    0    0  501    0  0.00000000000E+00  0.00000000000E+00  0.16626610869E+04  0.16626610869E+04  0.50400001928E-02 0. -1.
       -1   -1    0    0    0  501  0.00000000000E+00  0.00000000000E+00 -0.79545546515E+03  0.79545546517E+03  0.50400001928E-02 0.  1.
    10030    2    1    2    0    0  0.00000000000E+00  0.00000000000E+00  0.86720562175E+03  0.24581165521E+04  0.23000633455E+04 0.  0.
        2    1    3    3  502    0  0.29420253920E+02  0.79250695091E+03 -0.45647863546E+03  0.91504402256E+03  0.25500000920E-02 0.  1.
       -2    1    3    3    0  502 -0.29420253920E+02 -0.79250695091E+03  0.13236842572E+04  0.15430725295E+04  0.25500000920E-02 0. -1.
</event>
<event>
 5   0  0.2938972E-05  0.2295912E+04  0.7818609E-02  0.8479535E-01
        2   -1    0    0  501    0  0.00000000000E+00  0.00000000000E+00  0.12917401776E+04  0.12917401776E+04  0.25500000920E-02 0.  1.
       -2   -1    0    0    0  501  0.00000000000E+00  0.00000000000E+00 -0.10201768859E+04  0.10201768859E+04  0.25500000920E-02 0. -1.
    10030    2    1    2    0    0  0.00000000000E+00  0.00000000000E+00  0.27156329172E+03  0.23119170636E+04  0.22959124303E+04 0.  0.
        2    1    3    3  502    0  0.70622958986E+03 -0.30281193073E+03 -0.72301058546E+03  0.10550827483E+04  0.25500000920E-02 0. -1.
       -2    1    3    3    0  502 -0.70622958986E+03  0.30281193073E+03  0.99457387718E+03  0.12568343153E+04  0.25500000920E-02 0.  1.
</event>
<event>
 5   0  0.2910126E-05  0.2267199E+04  0.7818609E-02  0.8490967E-01
       -2   -1    0    0    0  501  0.00000000000E+00  0.00000000000E+00  0.55977390708E+03  0.55977390709E+03  0.25500000920E-02 0.  1.
        2   -1    0    0  501    0  0.00000000000E+00  0.00000000000E+00 -0.22956552724E+04  0.22956552724E+04  0.25500000920E-02 0. -1.
    10030    2    1    2    0    0  0.00000000000E+00  0.00000000000E+00 -0.17358813653E+04  0.28554291795E+04  0.22671990836E+04 0.  0.
        5    1    3    3  502    0  0.87217420038E+03  0.10048939700E+03 -0.17711005087E+04  0.19767663131E+04  0.46999998093E+01 0. -1.
       -5    1    3    3    0  502 -0.87217420038E+03 -0.10048939700E+03  0.35219143378E+02  0.87866286639E+03  0.46999998093E+01 0.  1.
</event>
<event>
 5   0  0.2994157E-05  0.2310071E+04  0.7818609E-02  0.8473961E-01
       -2   -1    0    0    0  501  0.00000000000E+00  0.00000000000E+00  0.11018067374E+04  0.11018067374E+04  0.25500000920E-02 0.  1.
        2   -1    0    0  501    0  0.00000000000E+00  0.00000000000E+00 -0.12108355245E+04  0.12108355245E+04  0.25500000920E-02 0. -1.
    10030    2    1    2    0    0  0.00000000000E+00  0.00000000000E+00 -0.10902878713E+03  0.23126422620E+04  0.23100707685E+04 0.  0.
        4    1    3    3  502    0  0.14227553341E+03  0.54429287861E+03  0.95537414300E+03  0.11087102557E+04  0.12699999809E+01 0.  1.
       -4    1    3    3    0  502 -0.14227553341E+03 -0.54429287861E+03 -0.10644029301E+04  0.12039320063E+04  0.12699999809E+01 0. -1.
</event>
<event>
 5   0  0.2938972E-05  0.2293016E+04  0.7818609E-02  0.8480680E-01
        2   -1    0    0  501    0  0.00000000000E+00  0.00000000000E+00  0.16501815176E+04  0.16501815176E+04  0.25500000920E-02 0.  1.
       -2   -1    0    0    0  501  0.00000000000E+00  0.00000000000E+00 -0.79656750152E+03  0.79656750153E+03  0.25500000920E-02 0. -1.
    10030    2    1    2    0    0  0.00000000000E+00  0.00000000000E+00  0.85361401603E+03  0.24467490191E+04  0.22930163266E+04 0.  0.
        2    1    3    3  502    0  0.68285122676E+03  0.91907284858E+03  0.36367740988E+03  0.12013500561E+04  0.25500000920E-02 0. -1.
       -2    1    3    3    0  502 -0.68285122676E+03 -0.91907284858E+03  0.48993660615E+03  0.12453989630E+04  0.25500000920E-02 0.  1.
</event>
<event>
 5   0  0.2910126E-05  0.2311435E+04  0.7818609E-02  0.8473426E-01
        2   -1    0    0  501    0  0.00000000000E+00  0.00000000000E+00  0.78596245700E+03  0.78596245700E+03  0.25500000920E-02 0.  1.
       -2   -1    0    0    0  501  0.00000000000E+00  0.00000000000E+00 -0.16994237958E+04  0.16994237958E+04  0.25500000920E-02 0. -1.
    10030    2    1    2    0    0  0.00000000000E+00  0.00000000000E+00 -0.91346133877E+03  0.24853862528E+04  0.23114353134E+04 0.  0.
        5    1    3    3  502    0  0.47382335128E+03  0.72502320802E+03  0.36602970884E+03  0.94030157829E+03  0.46999998093E+01 0.  1.
       -5    1    3    3    0  502 -0.47382335128E+03 -0.72502320802E+03 -0.12794910476E+04  0.15450846745E+04  0.46999998093E+01 0. -1.
</event>
<event>
 5   0  0.1327820E-05  0.2290085E+04  0.7818609E-02  0.8481841E-01
        1   -1    0    0  501    0  0.00000000000E+00  0.00000000000E+00  0.18492234078E+04  0.18492234078E+04  0.50400001928E-02 0.  1.
       -1   -1    0    0    0  501  0.00000000000E+00  0.00000000000E+00 -0.70901215701E+03  0.70901215703E+03  0.50400001928E-02 0. -1.
    10030    2    1    2    0    0  0.00000000000E+00  0.00000000000E+00  0.11402112508E+04  0.25582355649E+04  0.22900846074E+04 0.  0.
        1    1    3    3  502    0 -0.47422869159E+03 -0.81478803212E+03 -0.15587493306E+03  0.95554664145E+03  0.50400001928E-02 0.  1.
       -1    1    3    3    0  502  0.47422869159E+03  0.81478803212E+03  0.12960861839E+04  0.16026889234E+04  0.50400001928E-02 0. -1.
</event>
<event>
 5   0  0.2871888E-05  0.2290202E+04  0.7818609E-02  0.8481795E-01
       -2   -1    0    0    0  501  0.00000000000E+00  0.00000000000E+00  0.57208212391E+03  0.57208212392E+03  0.25500000920E-02 0.  1.
        2   -1    0    0  501    0  0.00000000000E+00  0.00000000000E+00 -0.22920762355E+04  0.22920762355E+04  0.25500000920E-02 0. -1.
    10030    2    1    2    0    0  0.00000000000E+00  0.00000000000E+00 -0.17199941116E+04  0.28641583594E+04  0.22902015990E+04 0.  0.
        3    1    3    3  502    0 -0.61514429818E+03 -0.80207442727E+03 -0.18706680751E+03  0.10279688201E+04  0.10100000352E+00 0.  1.
       -3    1    3    3    0  502  0.61514429818E+03  0.80207442727E+03 -0.15329273041E+04  0.18361895393E+04  0.10100000352E+00 0. -1.
</event>
<event>
 5   0  0.1327820E-05  0.2300491E+04  0.7818609E-02  0.8477728E-01
       -1   -1    0    0    0  501  0.00000000000E+00  0.00000000000E+00  0.74626475987E+03  0.74626475989E+03  0.50400001928E-02 0. -1.
        1   -1    0    0  501    0  0.00000000000E+00  0.00000000000E+00 -0.17729158843E+04  0.17729158843E+04  0.50400001928E-02 0.  1.
    10030    2    1    2    0    0  0.00000000000E+00  0.00000000000E+00 -0.10266511245E+04  0.25191806442E+04  0.23004909447E+04 0.  0.
        1    1    3    3  502    0 -0.15544249470E+03  0.71773768573E+03 -0.14827833751E+04  0.16546770961E+04  0.50400001928E-02 0.  1.
       -1    1    3    3    0  502  0.15544249470E+03 -0.71773768573E+03  0.45613225066E+03  0.86450354817E+03  0.50400001928E-02 0. -1.
</event>
<event>
 5   0  0.2938972E-05  0.2153108E+04  0.7818609E-02  0.8538203E-01
        2   -1    0    0  501    0  0.00000000000E+00  0.00000000000E+00  0.12391329896E+04  0.12391329896E+04  0.25500000920E-02 0. -1.
       -2   -1    0    0    0  501  0.00000000000E+00  0.00000000000E+00 -0.93530582655E+03  0.93530582656E+03  0.25500000920E-02 0.  1.
    10030    2    1    2    0    0  0.00000000000E+00  0.00000000000E+00  0.30382716308E+03  0.21744388162E+04  0.21531078051E+04 0.  0.
        2    1    3    3  502    0  0.34205197165E+03  0.53273910377E+03  0.10312624738E+04  0.12100879281E+04  0.25500000920E-02 0. -1.
       -2    1    3    3    0  502 -0.34205197165E+03 -0.53273910377E+03 -0.72743531071E+03  0.96435088805E+03  0.25500000920E-02 0.  1.
</event>
<event>
 5   0  0.2910126E-05  0.2310672E+04  0.7818609E-02  0.8473725E-01
        2   -1    0    0  501    0  0.00000000000E+00  0.00000000000E+00  0.22979583832E+04  0.22979583832E+04  0.25500000920E-02 0.  1.
       -2   -1    0    0    0  501  0.00000000000E+00  0.00000000000E+00 -0.58086399195E+03  0.58086399195E+03  0.25500000920E-02 0. -1.
    10030    2    1    2    0    0  0.00000000000E+00  0.00000000000E+00  0.17170943913E+04  0.28788223752E+04  0.23106720060E+04 0.  0.
        5    1    3    3  502    0 -0.13921538745E+03 -0.11214910892E+04  0.55939042865E+03  0.12609769740E+04  0.46999998093E+01 0. -1.
       -5    1    3    3    0  502  0.13921538745E+03  0.11214910892E+04  0.11577039626E+04  0.16178454012E+04  0.46999998093E+01 0.  1.
</event>
<event>
 5   0  0.1371753E-05  0.2286766E+04  0.7818609E-02  0.8483157E-01
        1   -1    0    0  501    0  0.00000000000E+00  0.00000000000E+00  0.15143670438E+04  0.15143670438E+04  0.50400001928E-02 0.  1.
       -1   -1    0    0    0  501  0.00000000000E+00  0.00000000000E+00 -0.86328122257E+03  0.86328122258E+03  0.50400001928E-02 0. -1.
    10030    2    1    2    0    0  0.00000000000E+00  0.00000000000E+00  0.65108582124E+03  0.23776482664E+04  0.22867659548E+04 0.  0.
        3    1    3    3  502    0  0.96884879536E+03 -0.23658591889E+03 -0.25586178875E+03  0.10296145640E+04  0.10100000352E+00 0. -1.
       -3    1    3    3    0  502 -0.96884879536E+03  0.23658591889E+03  0.90694760998E+03  0.13480337024E+04  0.10100000352E+00 0.  1.
</event>
<event>
 5   0  0.1284837E-05  0.2299087E+04  0.7818609E-02  0.8478281E-01
        1   -1    0    0  501    0  0.00000000000E+00  0.00000000000E+00  0.80614438686E+03  0.80614438687E+03  0.50400001928E-02 0. -1.
       -1   -1    0    0    0  501  0.00000000000E+00  0.00000000000E+00 -0.16392229622E+04  0.16392229622E+04  0.50400001928E-02 0.  1.
    10030    2    1    2    0    0  0.00000000000E+00  0.00000000000E+00 -0.83307857530E+03  0.24453673490E+04  0.22990871143E+04 0.  0.
        4    1    3    3  502    0  0.59016419249E+03  0.83853517037E+03  0.13615075299E+03  0.10343953047E+04  0.12699999809E+01 0. -1.
       -4    1    3    3    0  502 -0.59016419249E+03 -0.83853517037E+03 -0.96922932829E+03  0.14109720443E+04  0.12699999809E+01 0.  1.
</event>
<event>
 5   0  0.1308224E-05  0.2302842E+04  0.7818609E-02  0.8476801E-01
        1   -1    0    0  501    0  0.00000000000E+00  0.00000000000E+00  0.16428769962E+04  0.16428769962E+04  0.50400001928E-02 0.  1.
       -1   -1    0    0    0  501  0.00000000000E+00  0.00000000000E+00 -0.80698083501E+03  0.80698083502E+03  0.50400001928E-02 0. -1.
    10030    2    1    2    0    0  0.00000000000E+00  0.00000000000E+00  0.83589616115E+03  0.24498578312E+04  0.23028419400E+04 0.  0.
        5    1    3    3  502    0 -0.82276593921E+03 -0.42156672874E+03  0.11481227919E+04  0.14740659187E+04  0.46999998093E+01 0.  1.
       -5    1    3    3    0  502  0.82276593921E+03  0.42156672874E+03 -0.31222663074E+03  0.97579191247E+03  0.46999998093E+01 0. -1.
</event>
<event>
 5   0  0.1017200E-05  0.2301134E+04  0.7818609E-02  0.8477474E-01
        3   -1    0    0  501    0  0.00000000000E+00  0.00000000000E+00  0.68536141758E+03  0.68536142502E+03  0.10100000352E+00 0. -1.
       -3   -1    0    0    0  501  0.00000000000E+00  0.00000000000E+00 -0.19315420052E+04  0.19315420079E+04  0.10100000352E+00 0.  1.
    10030    2    1    2    0    0  0.00000000000E+00  0.00000000000E+00 -0.12461805877E+04  0.26169034329E+04  0.23011339639E+04 0.  0.
        3    1    3    3  502    0 -0.10744541226E+04  0.12053330926E+03 -0.10705619575E+04  0.15215396332E+04  0.10100000352E+00 0.  1.
       -3    1    3    3    0  502  0.10744541226E+04 -0.12053330926E+03 -0.17561863015E+03  0.10953637997E+04  0.10100000352E+00 0. -1.
</event>
<event>
 5   0  0.1371753E-05  0.2303314E+04  0.7818609E-02  0.8476616E-01
        1   -1    0    0  501    0  0.00000000000E+00  0.00000000000E+00  0.16536228082E+04  0.16536228082E+04  0.50400001928E-02 0. -1.
       -1   -1    0    0    0  501  0.00000000000E+00  0.00000000000E+00 -0.80206529336E+03  0.80206529338E+03  0.50400001928E-02 0.  1.
    10030    2    1    2    0    0  0.00000000000E+00  0.00000000000E+00  0.85155751479E+03  0.24556881015E+04  0.23033136675E+04 0.  0.
        3    1    3    3  502    0  0.14319470047E+03  0.89866145107E+03  0.11783179082E+04  0.14888016083E+04  0.10100000352E+00 0. -1.
       -3    1    3    3    0  502 -0.14319470047E+03 -0.89866145107E+03 -0.32676039342E+03  0.96688649323E+03  0.10100000352E+00 0.  1.
</event>
<event>
 5   0  0.2910126E-05  0.2296388E+04  0.7818609E-02  0.8479347E-01
        2   -1    0    0  501    0  0.00000000000E+00  0.00000000000E+00  0.21294331606E+04  0.21294331606E+04  0.25500000920E-02 0. -1.
       -2   -1    0    0    0  501  0.00000000000E+00  0.00000000000E+00 -0.61910794875E+03  0.61910794875E+03  0.25500000920E-02 0.  1.
    10030    2    1    2    0    0  0.00000000000E+00  0.00000000000E+00  0.15103252118E+04  0.27485411093E+04  0.22963875945E+04 0.  0.
        5    1    3    3  502    0  0.45467502470E+03  0.66640982675E+02 -0.50423120130E+03  0.68223279973E+03  0.46999998093E+01 0.  1.
       -5    1    3    3    0  502 -0.45467502470E+03 -0.66640982675E+02  0.20145564131E+04  0.20663083096E+04  0.46999998093E+01 0. -1.
</event>
<event>
 5   0  0.1017200E-05  0.2299726E+04  0.7818609E-02  0.8478029E-01
       -3   -1    0    0    0  501  0.00000000000E+00  0.00000000000E+00  0.91232269239E+03  0.91232269798E+03  0.10100000352E+00 0.  1.
        3   -1    0    0  501    0  0.00000000000E+00  0.00000000000E+00 -0.14492512366E+04  0.14492512401E+04  0.10100000352E+00 0. -1.
    10030    2    1    2    0    0  0.00000000000E+00  0.00000000000E+00 -0.53692854421E+03  0.23615739381E+04  0.22997258975E+04 0.  0.
        3    1    3    3  502    0  0.61399357097E+03 -0.87213206891E+03 -0.70964907574E+03  0.12810949503E+04  0.10100000352E+00 0. -1.
       -3    1    3    3    0  502 -0.61399357097E+03  0.87213206891E+03  0.17272053154E+03  0.10804789878E+04  0.10100000352E+00 0.  1.
</event>
<event>
 5   0  0.2910126E-05  0.2294651E+04  0.7818609E-02  0.8480033E-01
        2   -1    0    0  501    0  0.00000000000E+00  0.00000000000E+00  0.15714798358E+04  0.15714798358E+04  0.25500000920E-02 0. -1.
       -2   -1    0    0    0  501  0.00000000000E+00  0.00000000000E+00 -0.83765356633E+03  0.83765356634E+03  0.25500000920E-02 0.  1.
    10030    2    1    2    0    0  0.00000000000E+00  0.00000000000E+00  0.73382626948E+03  0.24091334022E+04  0.22946509006E+04 0.  0.
        5    1    3    3  502    0  0.10550162332E+04  0.19261758597E+03  0.79489386045E+03  0.13349303825E+04  0.46999998093E+01 0.  1.
       -5    1    3    3    0  502 -0.10550162332E+04 -0.19261758597E+03 -0.61067590975E+02  0.10742030196E+04  0.46999998093E+01 0. -1.
</event>
<event>
 5   0  0.1327820E-05  0.2287792E+04  0.7818609E-02  0.8482750E-01
        1   -1    0    0  501    0  0.00000000000E+00  0.00000000000E+00  0.11767042501E+04  0.11767042501E+04  0.50400001928E-02 0. -1.
       -1   -1    0    0    0  501  0.00000000000E+00  0.00000000000E+00 -0.11120028464E+04  0.11120028464E+04  0.50400001928E-02 0.  1.
    10030    2    1    2    0    0  0.00000000000E+00  0.00000000000E+00  0.64701403667E+02  0.22887070965E+04  0.22877923643E+04 0.  0.
        1    1    3    3  502    0  0.48795443640E+01 -0.17615200704E+03 -0.10983423894E+04  0.11123890255E+04  0.50400001928E-02 0.  1.
       -1    1    3    3    0  502 -0.48795443640E+01  0.17615200704E+03  0.11630437931E+04  0.11763180710E+04  0.50400001928E-02 0. -1.
</event>
<event>
 5   0  0.1308224E-05  0.2318212E+04  0.7818609E-02  0.8470775E-01
        1   -1    0    0  501    0  0.00000000000E+00  0.00000000000E+00  0.22430493107E+04  0.22430493107E+04  0.50400001928E-02 0. -1.
       -1   -1    0    0    0  501  0.00000000000E+00  0.00000000000E+00 -0.59897333624E+03  0.59897333626E+03  0.50400001928E-02 0.  1.
    10030    2    1    2    0    0  0.00000000000E+00  0.00000000000E+00  0.16440759744E+04  0.28420226469E+04  0.23182120084E+04 0.  0.
        5    1    3    3  502    0 -0.99838784365E+03 -0.15581509034E+03  0.12588573285E+03  0.10182956037E+04  0.46999998093E+01 0.  1.
       -5    1    3    3    0  502  0.99838784365E+03  0.15581509034E+03  0.15181902416E+04  0.18237270433E+04  0.46999998093E+01 0. -1.
</event>
<event>
 5   0  0.2871888E-05  0.2276618E+04  0.7818609E-02  0.8487198E-01
        2   -1    0    0  501    0  0.00000000000E+00  0.00000000000E+00  0.10815582878E+04  0.10815582878E+04  0.25500000920E-02 0. -1.
       -2   -1    0    0    0  501  0.00000000000E+00  0.00000000000E+00 -0.11980374912E+04  0.11980374912E+04  0.25500000920E-02 0.  1.
    10030    2    1    2    0    0  0.00000000000E+00  0.00000000000E+00 -0.11647920337E+03  0.22795957789E+04  0.22766179984E+04 0.  0.
        3    1    3    3  502    0 -0.32514627729E+03  0.86220418925E+03 -0.72741845606E+03  0.11739905391E+04  0.10100000352E+00 0.  1.
       -3    1    3    3    0  502  0.32514627729E+03 -0.86220418925E+03  0.61093925268E+03  0.11056052398E+04  0.10100000352E+00 0. -1.
</event>
<event>
 5   0  0.2910126E-05  0.2270728E+04  0.7818609E-02  0.8489553E-01
        2   -1    0    0  501    0  0.00000000000E+00  0.00000000000E+00  0.16135853705E+04  0.16135853705E+04  0.25500000920E-02 0. -1.
       -2   -1    0    0    0  501  0.00000000000E+00  0.00000000000E+00 -0.79887412533E+03  0.79887412534E+03  0.25500000920E-02 0.  1.
    10030    2    1    2    0    0  0.00000000000E+00  0.00000000000E+00  0.81471124518E+03  0.24124594958E+04  0.22707281665E+04 0.  0.
        5    1    3    3  502    0 -0.75996142878E+03 -0.83214753775E+03  0.26083987271E+03  0.11567499414E+04  0.46999998093E+01 0.  1.
       -5    1    3    3    0  502  0.75996142878E+03  0.83214753775E+03  0.55387137247E+03  0.12557095544E+04  0.46999998093E+01 0. -1.
</event>
<event>
 5   0  0.2994157E-05  0.2293795E+04  0.7818609E-02  0.8480372E-01
        2   -1    0    0  501    0  0.00000000000E+00  0.00000000000E+00  0.19730874568E+04  0.19730874568E+04  0.25500000920E-02 0.  1.
       -2   -1    0    0    0  501  0.00000000000E+00  0.00000000000E+00 -0.66665749032E+03  0.66665749032E+03  0.25500000920E-02 0. -1.
    10030    2    1    2    0    0  0.00000000000E+00  0.00000000000E+00  0.13064299665E+04  0.26397449471E+04  0.22937947006E+04 0.  0.
        4    1    3    3  502    0 -0.99542157784E+03 -0.10240546425E+02 -0.22504719428E+01  0.99547760595E+03  0.12699999809E+01 0. -1.
       -4    1    3    3    0  502  0.99542157784E+03  0.10240546425E+02  0.13086804384E+04  0.16442673412E+04  0.12699999809E+01 0.  1.
</event>
<event>
 5   0  0.1371753E-05  0.2291119E+04  0.7818609E-02  0.8481431E-01
        1   -1    0    0  501    0  0.00000000000E+00  0.00000000000E+00  0.22479446019E+04  0.22479446019E+04  0.50400001928E-02 0.  1.
       -1   -1    0    0    0  501  0.00000000000E+00  0.00000000000E+00 -0.58378050326E+03  0.58378050328E+03  0.50400001928E-02 0. -1.
    10030    2    1    2    0    0  0.00000000000E+00  0.00000000000E+00  0.16641640986E+04  0.28317251052E+04  0.22911187058E+04 0.  0.
        3    1    3    3  502    0  0.98345441010E+03 -0.58792890641E+02  0.15545274702E+04  0.18404333312E+04  0.10100000352E+00 0.  1.
       -3    1    3    3    0  502 -0.98345441010E+03  0.58792890641E+02  0.10963662846E+03  0.99129177402E+03  0.10100000352E+00 0. -1.
</event>
<event>
 5   0  0.1284837E-05  0.2295283E+04  0.7818609E-02  0.8479783E-01
        1   -1    0    0  501    0  0.00000000000E+00  0.00000000000E+00  0.80044110612E+03  0.80044110614E+03  0.50400001928E-02 0. -1.
       -1   -1    0    0    0  501  0.00000000000E+00  0.00000000000E+00 -0.16454436986E+04  0.16454436986E+04  0.50400001928E-02 0.  1.
    10030    2    1    2    0    0  0.00000000000E+00  0.00000000000E+00 -0.84500259247E+03  0.24458848047E+04  0.22952827923E+04 0.  0.
        4    1    3    3  502    0 -0.11442059514E+04 -0.51792498711E+02 -0.34573686880E+03  0.11964218810E+04  0.12699999809E+01 0.  1.
       -4    1    3    3    0  502  0.11442059514E+04  0.51792498711E+02 -0.49926572367E+03  0.12494629237E+04  0.12699999809E+01 0. -1.
</event>
<event>
 5   0  0.1284837E-05  0.2287028E+04  0.7818609E-02  0.8483053E-01
        1   -1    0    0  501    0  0.00000000000E+00  0.00000000000E+00  0.10835332586E+04  0.10835332586E+04  0.50400001928E-02 0. -1.
       -1   -1    0    0    0  501  0.00000000000E+00  0.00000000000E+00 -0.12068148799E+04  0.12068148799E+04  0.50400001928E-02 0.  1.
    10030    2    1    2    0    0  0.00000000000E+00  0.00000000000E+00 -0.12328162131E+03  0.22903481385E+04  0.22870278174E+04 0.  0.
        4    1    3    3  502    0 -0.82717395380E+02 -0.89773173851E+02  0.10769887787E+04  0.10838855256E+04  0.12699999809E+01 0. -1.
       -4    1    3    3    0  502  0.82717395380E+02  0.89773173851E+02 -0.12002704000E+04  0.12064626129E+04  0.12699999809E+01 0.  1.
</event>
<event>
 5   0  0.1284837E-05  0.2292574E+04  0.7818609E-02  0.8480855E-01
       -1   -1    0    0    0  501  0.00000000000E+00  0.00000000000E+00  0.84276194744E+03  0.84276194746E+03  0.50400001928E-02 0.  1.
        1   -1    0    0  501    0  0.00000000000E+00  0.00000000000E+00 -0.15591280498E+04  0.15591280498E+04  0.50400001928E-02 0. -1.
    10030    2    1    2    0    0  0.00000000000E+00  0.00000000000E+00 -0.71636610240E+03  0.24018899973E+04  0.22925739173E+04 0.  0.
        4    1    3    3  502    0  0.61892775497E+03  0.89064162820E+03 -0.74689747549E+03  0.13168794658E+04  0.12699999809E+01 0. -1.
       -4    1    3    3    0  502 -0.61892775497E+03 -0.89064162820E+03  0.30531373093E+02  0.10850105315E+04  0.12699999809E+01 0.  1.
</event>
<event>
 5   0  0.1327820E-05  0.2324041E+04  0.7818609E-02  0.8468502E-01
        1   -1    0    0  501    0  0.00000000000E+00  0.00000000000E+00  0.14701792996E+04  0.14701792996E+04  0.50400001928E-02 0.  1.
       -1   -1    0    0    0  501  0.00000000000E+00  0.00000000000E+00 -0.91845367568E+03  0.91845367569E+03  0.50400001928E-02 0. -1.
    10030    2    1    2    0    0  0.00000000000E+00  0.00000000000E+00  0.55172562395E+03  0.23886329753E+04  0.23240409477E+04 0.  0.
        1    1    3    3  502    0 -0.35514471133E+03 -0.20191956365E+03 -0.84220982347E+03  0.93606445448E+03  0.50400001928E-02 0. -1.
       -1    1    3    3    0  502  0.35514471133E+03  0.20191956365E+03  0.13939354474E+04  0.14525685208E+04  0.50400001928E-02 0.  1.
</event>
<event>
 5   0  0.1308224E-05  0.2262651E+04  0.7818609E-02  0.8492795E-01
        1   -1    0    0  501    0  0.00000000000E+00  0.00000000000E+00  0.11799256245E+04  0.11799256245E+04  0.50400001928E-02 0. -1.
       -1   -1    0    0    0  501  0.00000000000E+00  0.00000000000E+00 -0.10847272316E+04  0.10847272316E+04  0.50400001928E-02 0.  1.
    10030    2    1    2    0    0  0.00000000000E+00  0.00000000000E+00  0.95198392896E+02  0.22646528560E+04  0.22626510611E+04 0.  0.
        5    1    3    3  502    0 -0.49109515125E+03  0.10180409914E+04  0.95531631309E+02  0.11343413464E+04  0.46999998093E+01 0.  1.
       -5    1    3    3    0  502  0.49109515125E+03 -0.10180409914E+04 -0.33323841208E+00  0.11303115096E+04  0.46999998093E+01 0. -1.
</event>
<event>
 5   0  0.2994157E-05  0.2297607E+04  0.7818609E-02  0.8478865E-01
        2   -1    0    0  501    0  0.00000000000E+00  0.00000000000E+00  0.16781658737E+04  0.16781658737E+04  0.25500000920E-02 0.  1.
       -2   -1    0    0    0  501  0.00000000000E+00  0.00000000000E+00 -0.78642349471E+03  0.78642349471E+03  0.25500000920E-02 0. -1.
    10030    2    1    2    0    0  0.00000000000E+00  0.00000000000E+00  0.89174237901E+03  0.24645893684E+04  0.22976066427E+04 0.  0.
        4    1    3    3  502    0 -0.49513359786E+03  0.56721976458E+03 -0.48485872531E+03  0.89553622901E+03  0.12699999809E+01 0. -1.
       -4    1    3    3    0  502  0.49513359786E+03 -0.56721976458E+03  0.13766011043E+04  0.15690531394E+04  0.12699999809E+01 0.  1.
</event>
<event>
 5   0  0.1308224E-05  0.2277586E+04  0.7818609E-02  0.8486811E-01
       -1   -1    0    0    0  501  0.00000000000E+00  0.00000000000E+00  0.11873058730E+04  0.11873058731E+04  0.50400001928E-02 0. -1.
        1   -1    0    0  501    0  0.00000000000E+00  0.00000000000E+00 -0.10922621462E+04  0.10922621462E+04  0.50400001928E-02 0.  1.
    10030    2    1    2    0    0  0.00000000000E+00  0.00000000000E+00  0.95043726868E+02  0.22795680192E+04  0.22775857930E+04 0.  0.
        5    1    3    3  502    0 -0.17386195972E+03 -0.82908824409E+03  0.80924393251E+03  0.11715430550E+04  0.46999998093E+01 0. -1.
       -5    1    3    3    0  502  0.17386195972E+03  0.82908824409E+03 -0.71420020564E+03  0.11080249642E+04  0.46999998093E+01 0.  1.
</event>
<event>
 5   0  0.2994157E-05  0.2273640E+04  0.7818609E-02  0.8488387E-01
       -2   -1    0    0    0  501  0.00000000000E+00  0.00000000000E+00  0.11132278814E+04  0.11132278814E+04  0.25500000920E-02 0. -1.
        2   -1    0    0  501    0  0.00000000000E+00  0.00000000000E+00 -0.11609123703E+04  0.11609123703E+04  0.25500000920E-02 0.  1.
    10030    2    1    2    0    0  0.00000000000E+00  0.00000000000E+00 -0.47684488933E+02  0.22741402518E+04  0.22736402693E+04 0.  0.
        4    1    3    3  502    0  0.74274183888E+02 -0.84258912443E+03 -0.78353893739E+03  0.11529995517E+04  0.12699999809E+01 0.  1.
       -4    1    3    3    0  502 -0.74274183888E+02  0.84258912443E+03  0.73585444846E+03  0.11211407000E+04  0.12699999809E+01 0. -1.
</event>
<event>
 5   0  0.1327820E-05  0.2300915E+04  0.7818609E-02  0.8477560E-01
       -1   -1    0    0    0  501  0.00000000000E+00  0.00000000000E+00  0.12106506803E+04  0.12106506803E+04  0.50400001928E-02 0.  1.
        1   -1    0    0  501    0  0.00000000000E+00  0.00000000000E+00 -0.10932574649E+04  0.10932574649E+04  0.50400001928E-02 0. -1.
    10030    2    1    2    0    0  0.00000000000E+00  0.00000000000E+00  0.11739321541E+03  0.23039081453E+04  0.23009153776E+04 0.  0.
        1    1    3    3  502    0  0.19111177315E+03  0.86887314499E+03 -0.67169623322E+03  0.11147376739E+04  0.50400001928E-02 0. -1.
       -1    1    3    3    0  502 -0.19111177315E+03 -0.86887314499E+03  0.78908944863E+03  0.11891704713E+04  0.50400001928E-02 0.  1.
</event>
<event>
 5   0  0.2816178E-05  0.2038691E+04  0.7818609E-02  0.8588742E-01
       -2   -1    0    0    0  501  0.00000000000E+00  0.00000000000E+00  0.57905060562E+03  0.57905060562E+03  0.25500000920E-02 0.  1.
        2   -1    0    0  501    0  0.00000000000E+00  0.00000000000E+00 -0.17944293133E+04  0.17944293133E+04  0.25500000920E-02 0. -1.
    10030    2    1    2    0    0  0.00000000000E+00  0.00000000000E+00 -0.12153787076E+04  0.23734799189E+04  0.20386911297E+04 0.  0.
        1    1    3    3  502    0 -0.84590369699E+03 -0.51058334073E+03 -0.89948083869E+03  0.13361564997E+04  0.50400001928E-02 0. -1.
       -1    1    3    3    0  502  0.84590369699E+03  0.51058334073E+03 -0.31589786896E+03  0.10373234192E+04  0.50400001928E-02 0.  1.
</event>
<event>
 5   0  0.1371753E-05  0.2263123E+04  0.7818609E-02  0.8492605E-01
        1   -1    0    0  501    0  0.00000000000E+00  0.00000000000E+00  0.33464142155E+04  0.33464142155E+04  0.50400001928E-02 0. -1.
       -1   -1    0    0    0  501  0.00000000000E+00  0.00000000000E+00 -0.38262773780E+03  0.38262773783E+03  0.50400001928E-02 0.  1.
    10030    2    1    2    0    0  0.00000000000E+00  0.00000000000E+00  0.29637864777E+04  0.37290419534E+04  0.22631225341E+04 0.  0.
        3    1    3    3  502    0  0.11103929267E+04  0.15850039199E+03  0.12356339998E+04  0.16687978360E+04  0.10100000352E+00 0. -1.
       -3    1    3    3    0  502 -0.11103929267E+04 -0.15850039199E+03  0.17281524780E+04  0.20602441174E+04  0.10100000352E+00 0.  1.
</event>
<event>
 5   0  0.2938972E-05  0.2333133E+04  0.7818609E-02  0.8464970E-01
        2   -1    0    0  501    0  0.00000000000E+00  0.00000000000E+00  0.12792490888E+04  0.12792490888E+04  0.25500000920E-02 0. -1.
       -2   -1    0    0    0  501  0.00000000000E+00  0.00000000000E+00 -0.10638099768E+04  0.10638099768E+04  0.25500000920E-02 0.  1.
    10030    2    1    2    0    0  0.00000000000E+00  0.00000000000E+00  0.21543911204E+03  0.23430590656E+04  0.23331334668E+04 0.  0.
        2    1    3    3  502    0 -0.92634763547E+03 -0.42594954815E+02  0.81850430493E+03  0.12368846224E+04  0.25500000920E-02 0. -1.
       -2    1    3    3    0  502  0.92634763547E+03  0.42594954815E+02 -0.60306519290E+03  0.11061744432E+04  0.25500000920E-02 0.  1.
</event>
<event>
 5   0  0.1327820E-05  0.2279015E+04  0.7818609E-02  0.8486241E-01
       -1   -1    0    0    0  501  0.00000000000E+00  0.00000000000E+00  0.10246208707E+04  0.10246208707E+04  0.50400001928E-02 0.  1.
        1   -1    0    0  501    0  0.00000000000E+00  0.00000000000E+00 -0.12672762447E+04  0.12672762447E+04  0.50400001928E-02 0. -1.
    10030    2    1    2    0    0  0.00000000000E+00  0.00000000000E+00 -0.24265537405E+03  0.22918971154E+04  0.22790153042E+04 0.  0.
        1    1    3    3  502    0 -0.21247709025E+03 -0.76340362448E+03 -0.94482500839E+03  0.12331366122E+04  0.50400001928E-02 0. -1.
       -1    1    3    3    0  502  0.21247709025E+03  0.76340362448E+03  0.70216963434E+03  0.10587605032E+04  0.50400001928E-02 0.  1.
</event>
<event>
 5   0  0.1371753E-05  0.2256273E+04  0.7818609E-02  0.8495364E-01
        1   -1    0    0  501    0  0.00000000000E+00  0.00000000000E+00  0.13196919779E+04  0.13196919779E+04  0.50400001928E-02 0.  1.
       -1   -1    0    0    0  501  0.00000000000E+00  0.00000000000E+00 -0.96438598097E+03  0.96438598099E+03  0.50400001928E-02 0. -1.
    10030    2    1    2    0    0  0.00000000000E+00  0.00000000000E+00  0.35530599688E+03  0.22840779588E+04  0.22562734255E+04 0.  0.
        3    1    3    3  502    0  0.53579423606E+03  0.41918492390E+03  0.10886881912E+04  0.12837575517E+04  0.10100000352E+00 0.  1.
       -3    1    3    3    0  502 -0.53579423606E+03 -0.41918492390E+03 -0.73338219428E+03  0.10003204071E+04  0.10100000352E+00 0. -1.
</event>
<event>
 5   0  0.1327820E-05  0.2297715E+04  0.7818609E-02  0.8478823E-01
       -1   -1    0    0    0  501  0.00000000000E+00  0.00000000000E+00  0.76459831847E+03  0.76459831848E+03  0.50400001928E-02 0. -1.
        1   -1    0    0  501    0  0.00000000000E+00  0.00000000000E+00 -0.17262308939E+04  0.17262308940E+04  0.50400001928E-02 0.  1.
    10030    2    1    2    0    0  0.00000000000E+00  0.00000000000E+00 -0.96163257548E+03  0.24908292124E+04  0.22977147245E+04 0.  0.
        1    1    3    3  502    0  0.38922480755E+03  0.34911489232E+03 -0.15897782400E+04  0.16735507197E+04  0.50400001928E-02 0.  1.
       -1    1    3    3    0  502 -0.38922480755E+03 -0.34911489232E+03  0.62814566453E+03  0.81727849277E+03  0.50400001928E-02 0. -1.
</event>
<event>
 5   0  0.2910126E-05  0.2297859E+04  0.7818609E-02  0.8478766E-01
        2   -1    0    0  501    0  0.00000000000E+00  0.00000000000E+00  0.24070669537E+04  0.24070669537E+04  0.25500000920E-02 0.  1.
       -2   -1    0    0    0  501  0.00000000000E+00  0.00000000000E+00 -0.54840142648E+03  0.54840142649E+03  0.25500000920E-02 0. -1.
    10030    2    1    2    0    0  0.00000000000E+00  0.00000000000E+00  0.18586655272E+04  0.29554683802E+04  0.22978589609E+04 0.  0.
        5    1    3    3  502    0  0.17349473763E+03  0.89514537929E+03  0.30262694763E+02  0.91231770494E+03  0.46999998093E+01 0. -1.
       -5    1    3    3    0  502 -0.17349473763E+03 -0.89514537929E+03  0.18284028325E+04  0.20431506753E+04  0.46999998093E+01 0.  1.
</event>
<event>
 5   0  0.2871888E-05  0.2296604E+04  0.7818609E-02  0.8479261E-01
       -2   -1    0    0    0  501  0.00000000000E+00  0.00000000000E+00  0.86199432030E+03  0.86199432030E+03  0.25500000920E-02 0.  1.
        2   -1    0    0  501    0  0.00000000000E+00  0.00000000000E+00 -0.15297055265E+04  0.15297055265E+04  0.25500000920E-02 0. -1.
    10030    2    1    2    0    0  0.00000000000E+00  0.00000000000E+00 -0.66771120616E+03  0.23916998468E+04  0.22966039933E+04 0.  0.
        3    1    3    3  502    0 -0.37120622094E+03  0.27453096425E+03 -0.14287882190E+04  0.15015315826E+04  0.10100000352E+00 0. -1.
       -3    1    3    3    0  502  0.37120622094E+03 -0.27453096425E+03  0.76107701281E+03  0.89016826411E+03  0.10100000352E+00 0.  1.
</event>
<event>
 5   0  0.2816178E-05  0.2288052E+04  0.7818609E-02  0.8482647E-01
       -2   -1    0    0    0  501  0.00000000000E+00  0.00000000000E+00  0.14361972143E+04  0.14361972143E+04  0.25500000920E-02 0. -1.
        2   -1    0    0  501    0  0.00000000000E+00  0.00000000000E+00 -0.91129199973E+03  0.91129199973E+03  0.25500000920E-02 0.  1.
    10030    2    1    2    0    0  0.00000000000E+00  0.00000000000E+00  0.52490521455E+03  0.23474892140E+04  0.22880516003E+04 0.  0.
        1    1    3    3  502    0  0.72123150007E+03 -0.36351380893E+03  0.10937335700E+04  0.13596213767E+04  0.50400001928E-02 0. -1.
       -1    1    3    3    0  502 -0.72123150007E+03  0.36351380893E+03 -0.56882835541E+03  0.98786783728E+03  0.50400001928E-02 0.  1.
</event>
<event>
 5   0  0.1303224E-05  0.2301028E+04  0.7818609E-02  0.8477516E-01
       -1   -1    0    0    0  501  0.00000000000E+00  0.00000000000E+00  0.78956920784E+03  0.78956920786E+03  0.50400001928E-02 0.  1.
        1   -1    0    0  501    0  0.00000000000E+00  0.00000000000E+00 -0.16764619960E+04  0.16764619960E+04  0.50400001928E-02 0. -1.
    10030    2    1    2    0    0  0.00000000000E+00  0.00000000000E+00 -0.88689278819E+03  0.24660312039E+04  0.23010282660E+04 0.  0.
        2    1    3    3  502    0  0.10087409215E+03  0.83584357938E+03 -0.12838138374E+04  0.15352485273E+04  0.25500000920E-02 0.  1.
       -2    1    3    3    0  502 -0.10087409215E+03 -0.83584357938E+03  0.39692104920E+03  0.93078267654E+03  0.25500000920E-02 0. -1.
</event>
<event>
 5   0  0.1327820E-05  0.2295862E+04  0.7818609E-02  0.8479554E-01
        1   -1    0    0  501    0  0.00000000000E+00  0.00000000000E+00  0.14229093761E+04  0.14229093762E+04  0.50400001928E-02 0.  1.
       -1   -1    0    0    0  501  0.00000000000E+00  0.00000000000E+00 -0.92609280209E+03  0.92609280210E+03  0.50400001928E-02 0. -1.
    10030    2    1    2    0    0  0.00000000000E+00  0.00000000000E+00  0.49681657406E+03  0.23490021783E+04  0.22958624796E+04 0.  0.
        1    1    3    3  502    0  0.12790854913E+03 -0.10136167313E+04  0.78394149182E+03  0.12877669577E+04  0.50400001928E-02 0.  1.
       -1    1    3    3    0  502 -0.12790854913E+03  0.10136167313E+04 -0.28712491777E+03  0.10612352205E+04  0.50400001928E-02 0. -1.
</event>
<event>
 5   0  0.2910126E-05  0.2296779E+04  0.7818609E-02  0.8479192E-01
       -2   -1    0    0    0  501  0.00000000000E+00  0.00000000000E+00  0.64329698050E+03  0.64329698050E+03  0.25500000920E-02 0.  1.
        2   -1    0    0  501    0  0.00000000000E+00  0.00000000000E+00 -0.20500620641E+04  0.20500620641E+04  0.25500000920E-02 0. -1.
    10030    2    1    2    0    0  0.00000000000E+00  0.00000000000E+00 -0.14067650836E+04  0.26933590446E+04  0.22967792542E+04 0.  0.
        5    1    3    3  502    0  0.83954374912E+03 -0.41020020126E+03  0.79480788614E+02  0.93778312928E+03  0.46999998093E+01 0.  1.
       -5    1    3    3    0  502 -0.83954374912E+03  0.41020020126E+03 -0.14862458722E+04  0.17555759153E+04  0.46999998093E+01 0. -1.
</event>
<event>
 5   0  0.1308224E-05  0.2306702E+04  0.7818609E-02  0.8475283E-01
       -1   -1    0    0    0  501  0.00000000000E+00  0.00000000000E+00  0.89364244782E+03  0.89364244784E+03  0.50400001928E-02 0. -1.
        1   -1    0    0  501    0  0.00000000000E+00  0.00000000000E+00 -0.14885351598E+04  0.14885351598E+04  0.50400001928E-02 0.  1.
    10030    2    1    2    0    0  0.00000000000E+00  0.00000000000E+00 -0.59489271200E+03  0.23821776077E+04  0.23067017180E+04 0.  0.
        5    1    3    3  502    0  0.38666129187E+03 -0.47951787562E+02  0.82360932425E+03  0.91113156984E+03  0.46999998093E+01 0. -1.
       -5    1    3    3    0  502 -0.38666129187E+03  0.47951787562E+02 -0.14185020363E+04  0.14710460378E+04  0.46999998093E+01 0.  1.
</event>
<event>
 5   0  0.1284837E-05  0.2285814E+04  0.7818609E-02  0.8483536E-01
       -1   -1    0    0    0  501  0.00000000000E+00  0.00000000000E+00  0.13401034046E+04  0.13401034046E+04  0.50400001928E-02 0.  1.
        1   -1    0    0  501    0  0.00000000000E+00  0.00000000000E+00 -0.97472798574E+03  0.97472798576E+03  0.50400001928E-02 0. -1.
    10030    2    1    2    0    0  0.00000000000E+00  0.00000000000E+00  0.36537541889E+03  0.23148313904E+04  0.22858138965E+04 0.  0.
        4    1    3    3  502    0 -0.59822233415E+03 -0.45620939576E+03 -0.68860503166E+03  0.10198899335E+04  0.12699999809E+01 0. -1.
       -4    1    3    3    0  502  0.59822233415E+03  0.45620939576E+03  0.10539804505E+04  0.12949414569E+04  0.12699999809E+01 0.  1.
</event>
<event>
 5   0  0.2910126E-05  0.2291922E+04  0.7818609E-02  0.8481113E-01
       -2   -1    0    0    0  501  0.00000000000E+00  0.00000000000E+00  0.68059703957E+03  0.68059703957E+03  0.25500000920E-02 0.  1.
        2   -1    0    0  501    0  0.00000000000E+00  0.00000000000E+00 -0.19295213703E+04  0.19295213703E+04  0.25500000920E-02 0. -1.
    10030    2    1    2    0    0  0.00000000000E+00  0.00000000000E+00 -0.12489243308E+04  0.26101184099E+04  0.22919219292E+04 0.  0.
        5    1    3    3  502    0 -0.63046125634E+03  0.89057629725E+03 -0.22571267236E+03  0.11142602198E+04  0.46999998093E+01 0. -1.
       -5    1    3    3    0  502  0.63046125634E+03 -0.89057629725E+03 -0.10232116584E+04  0.14958581901E+04  0.46999998093E+01 0.  1.
</event>
<event>
 5   0  0.1017200E-05  0.2297274E+04  0.7818609E-02  0.8478997E-01
       -3   -1    0    0    0  501  0.00000000000E+00  0.00000000000E+00  0.10249275335E+04  0.10249275384E+04  0.10100000352E+00 0. -1.
        3   -1    0    0  501    0  0.00000000000E+00  0.00000000000E+00 -0.12872783682E+04  0.12872783722E+04  0.10100000352E+00 0.  1.
    10030    2    1    2    0    0  0.00000000000E+00  0.00000000000E+00 -0.26235083477E+03  0.23122059106E+04  0.22972740830E+04 0.  0.
        4    1    3    3  502    0  0.32341578283E+03 -0.37270997197E+03 -0.11751515137E+04  0.12745560737E+04  0.12699999809E+01 0.  1.
       -4    1    3    3    0  502 -0.32341578283E+03  0.37270997197E+03  0.91280067895E+03  0.10376498370E+04  0.12699999809E+01 0. -1.
</event>
<event>
 5   0  0.2910126E-05  0.2295933E+04  0.7818609E-02  0.8479527E-01
       -2   -1    0    0    0  501  0.00000000000E+00  0.00000000000E+00  0.11293598752E+04  0.11293598752E+04  0.25500000920E-02 0.  1.
        2   -1    0    0  501    0  0.00000000000E+00  0.00000000000E+00 -0.11668792386E+04  0.11668792386E+04  0.25500000920E-02 0. -1.
    10030    2    1    2    0    0  0.00000000000E+00  0.00000000000E+00 -0.37519363378E+02  0.22962391138E+04  0.22959325698E+04 0.  0.
        5    1    3    3  502    0 -0.31636686040E+03  0.47247735458E+03  0.97861047864E+03  0.11318230426E+04  0.46999998093E+01 0.  1.
       -5    1    3    3    0  502  0.31636686040E+03 -0.47247735458E+03 -0.10161298420E+04  0.11644160712E+04  0.46999998093E+01 0. -1.
</event>
<event>
 5   0  0.2994157E-05  0.2295148E+04  0.7818609E-02  0.8479837E-01
       -2   -1    0    0    0  501  0.00000000000E+00  0.00000000000E+00  0.61497645197E+03  0.61497645198E+03  0.25500000920E-02 0. -1.
        2   -1    0    0  501    0  0.00000000000E+00  0.00000000000E+00 -0.21414244241E+04  0.21414244241E+04  0.25500000920E-02 0.  1.
    10030    2    1    2    0    0  0.00000000000E+00  0.00000000000E+00 -0.15264479721E+04  0.27564008760E+04  0.22951475721E+04 0.  0.
        4    1    3    3  502    0 -0.37897722572E+03  0.86965239277E+03  0.12312750217E+02  0.94872137036E+03  0.12699999809E+01 0. -1.
       -4    1    3    3    0  502  0.37897722572E+03 -0.86965239277E+03 -0.15387607223E+04  0.18076795057E+04  0.12699999809E+01 0.  1.
</event>
<event>
 5   0  0.2816178E-05  0.2300256E+04  0.7818609E-02  0.8477820E-01
        2   -1    0    0  501    0  0.00000000000E+00  0.00000000000E+00  0.81913797780E+03  0.81913797780E+03  0.25500000920E-02 0. -1.
       -2   -1    0    0    0  501  0.00000000000E+00  0.00000000000E+00 -0.16148622009E+04  0.16148622009E+04  0.25500000920E-02 0.  1.
    10030    2    1    2    0    0  0.00000000000E+00  0.00000000000E+00 -0.79572422309E+03  0.24340001787E+04  0.23002564706E+04 0.  0.
        1    1    3    3  502    0 -0.44569411216E+03 -0.22890478833E+03  0.69758638806E+03  0.85887566770E+03  0.50400001928E-02 0. -1.
       -1    1    3    3    0  502  0.44569411216E+03  0.22890478833E+03 -0.14933106112E+04  0.15751245110E+04  0.50400001928E-02 0.  1.
</event>
<event>
 5   0  0.2816178E-05  0.2307051E+04  0.7818609E-02  0.8475146E-01
       -2   -1    0    0    0  501  0.00000000000E+00  0.00000000000E+00  0.75922900919E+03  0.75922900919E+03  0.25500000920E-02 0. -1.
        2   -1    0    0  501    0  0.00000000000E+00  0.00000000000E+00 -0.17525957209E+04  0.17525957209E+04  0.25500000920E-02 0.  1.
    10030    2    1    2    0    0  0.00000000000E+00  0.00000000000E+00 -0.99336671168E+03  0.25118247301E+04  0.23070513758E+04 0.  0.
        1    1    3    3  502    0  0.18632145681E+03 -0.81423759729E+03  0.36949532866E+03  0.91335937507E+03  0.50400001928E-02 0. -1.
       -1    1    3    3    0  502 -0.18632145681E+03  0.81423759729E+03 -0.13628620403E+04  0.15984653550E+04  0.50400001928E-02 0.  1.
</event>
<event>
 5   0  0.1303224E-05  0.2248323E+04  0.7818609E-02  0.8498580E-01
        1   -1    0    0  501    0  0.00000000000E+00  0.00000000000E+00  0.18262968175E+04  0.18262968175E+04  0.50400001928E-02 0.  1.
       -1   -1    0    0    0  501  0.00000000000E+00  0.00000000000E+00 -0.69196810929E+03  0.69196810931E+03  0.50400001928E-02 0. -1.
    10030    2    1    2    0    0  0.00000000000E+00  0.00000000000E+00  0.11343287082E+04  0.25182649268E+04  0.22483230692E+04 0.  0.
        2    1    3    3  502    0  0.85991224057E+03  0.68349926364E+03  0.83485452889E+03  0.13797109803E+04  0.25500000920E-02 0. -1.
       -2    1    3    3    0  502 -0.85991224057E+03 -0.68349926364E+03  0.29947417928E+03  0.11385539464E+04  0.25500000920E-02 0.  1.
</event>
<event>
 5   0  0.2816178E-05  0.2281746E+04  0.7818609E-02  0.8485154E-01
       -2   -1    0    0    0  501  0.00000000000E+00  0.00000000000E+00  0.12370165892E+04  0.12370165892E+04  0.25500000920E-02 0. -1.
        2   -1    0    0  501    0  0.00000000000E+00  0.00000000000E+00 -0.10522015401E+04  0.10522015401E+04  0.25500000920E-02 0.  1.
    10030    2    1    2    0    0  0.00000000000E+00  0.00000000000E+00  0.18481504915E+03  0.22892181293E+04  0.22817456127E+04 0.  0.
        1    1    3    3  502    0  0.57119080854E+03 -0.73203138333E+03  0.75749773327E+03  0.11983036768E+04  0.50400001928E-02 0. -1.
       -1    1    3    3    0  502 -0.57119080854E+03  0.73203138333E+03 -0.57268268412E+03  0.10909144525E+04  0.50400001928E-02 0.  1.
</event>
<event>
 5   0  0.1308224E-05  0.2301035E+04  0.7818609E-02  0.8477513E-01
        1   -1    0    0  501    0  0.00000000000E+00  0.00000000000E+00  0.21113407424E+04  0.21113407424E+04  0.50400001928E-02 0.  1.
       -1   -1    0    0    0  501  0.00000000000E+00  0.00000000000E+00 -0.62694284557E+03  0.62694284559E+03  0.50400001928E-02 0. -1.
    10030    2    1    2    0    0  0.00000000000E+00  0.00000000000E+00  0.14843978968E+04  0.27382835880E+04  0.23010345265E+04 0.  0.
        5    1    3    3  502    0  0.11069559789E+04 -0.26422171737E+03  0.54128859812E+03  0.12602301740E+04  0.46999998093E+01 0. -1.
       -5    1    3    3    0  502 -0.11069559789E+04  0.26422171737E+03  0.94310929869E+03  0.14780534139E+04  0.46999998093E+01 0.  1.
</event>
<event>
 5   0  0.1371753E-05  0.2318308E+04  0.7818609E-02  0.8470737E-01
        1   -1    0    0  501    0  0.00000000000E+00  0.00000000000E+00  0.84548266289E+03  0.84548266290E+03  0.50400001928E-02 0. -1.
       -1   -1    0    0    0  501  0.00000000000E+00  0.00000000000E+00 -0.15891964750E+04  0.15891964750E+04  0.50400001928E-02 0.  1.
    10030    2    1    2    0    0  0.00000000000E+00  0.00000000000E+00 -0.74371381207E+03  0.24346791379E+04  0.23183080620E+04 0.  0.
        3    1    3    3  502    0  0.42114187962E+03  0.46067340745E+03 -0.13976455421E+04  0.15306840113E+04  0.10100000352E+00 0.  1.
       -3    1    3    3    0  502 -0.42114187962E+03 -0.46067340745E+03  0.65393173000E+03  0.90399512653E+03  0.10100000352E+00 0. -1.
</event>
<event>
 5   0  0.2994157E-05  0.2312516E+04  0.7818609E-02  0.8473002E-01
        2   -1    0    0  501    0  0.00000000000E+00  0.00000000000E+00  0.12158964723E+04  0.12158964723E+04  0.25500000920E-02 0. -1.
       -2   -1    0    0    0  501  0.00000000000E+00  0.00000000000E+00 -0.10995450982E+04  0.10995450982E+04  0.25500000920E-02 0.  1.
    10030    2    1    2    0    0  0.00000000000E+00  0.00000000000E+00  0.11635137418E+03  0.23154415705E+04  0.23125163835E+04 0.  0.
        4    1    3    3  502    0 -0.51703143501E+03  0.10206139993E+04  0.22559051607E+03  0.11661334119E+04  0.12699999809E+01 0.  1.
       -4    1    3    3    0  502  0.51703143501E+03 -0.10206139993E+04 -0.10923914189E+03  0.11493081586E+04  0.12699999809E+01 0. -1.
</event>
<event>
 5   0  0.1284837E-05  0.2295659E+04  0.7818609E-02  0.8479635E-01
        1   -1    0    0  501    0  0.00000000000E+00  0.00000000000E+00  0.10732370777E+04  0.10732370777E+04  0.50400001928E-02 0.  1.
       -1   -1    0    0    0  501  0.00000000000E+00  0.00000000000E+00 -0.12276060924E+04  0.12276060924E+04  0.50400001928E-02 0. -1.
    10030    2    1    2    0    0  0.00000000000E+00  0.00000000000E+00 -0.15436901463E+03  0.23008431701E+04  0.22956588380E+04 0.  0.
        4    1    3    3  502    0  0.79998189314E+03 -0.62637725693E+03  0.45805452865E+03  0.11145111312E+04  0.12699999809E+01 0.  1.
       -4    1    3    3    0  502 -0.79998189314E+03  0.62637725693E+03 -0.61242354328E+03  0.11863320389E+04  0.12699999809E+01 0. -1.
</event>
<event>
 5   0  0.2871888E-05  0.2303345E+04  0.7818609E-02  0.8476603E-01
       -2   -1    0    0    0  501  0.00000000000E+00  0.00000000000E+00  0.63392560033E+03  0.63392560034E+03  0.25500000920E-02 0. -1.
        2   -1    0    0  501    0  0.00000000000E+00  0.00000000000E+00 -0.20922794998E+04  0.20922794998E+04  0.25500000920E-02 0.  1.
    10030    2    1    2    0    0  0.00000000000E+00  0.00000000000E+00 -0.14583538995E+04  0.27262051002E+04  0.23033449920E+04 0.  0.
        3    1    3    3  502    0 -0.60176975481E+03  0.86164617230E+03 -0.12865797027E+04  0.16612791173E+04  0.10100000352E+00 0.  1.
       -3    1    3    3    0  502  0.60176975481E+03 -0.86164617230E+03 -0.17177419678E+03  0.10649259828E+04  0.10100000352E+00 0. -1.
</event>
<event>
 5   0  0.2871888E-05  0.2216334E+04  0.7818609E-02  0.8511660E-01
        2   -1    0    0  501    0  0.00000000000E+00  0.00000000000E+00  0.19254445706E+04  0.19254445706E+04  0.25500000920E-02 0. -1.
       -2   -1    0    0    0  501  0.00000000000E+00  0.00000000000E+00 -0.63779271576E+03  0.63779271576E+03  0.25500000920E-02 0.  1.
    10030    2    1    2    0    0  0.00000000000E+00  0.00000000000E+00  0.12876518549E+04  0.25632372864E+04  0.22163343807E+04 0.  0.
        3    1    3    3  502    0  0.36272343559E+03  0.47575649618E+03 -0.43498067942E+03  0.73967610212E+03  0.10100000352E+00 0.  1.
       -3    1    3    3    0  502 -0.36272343559E+03 -0.47575649618E+03  0.17226325343E+04  0.18235611843E+04  0.10100000352E+00 0. -1.
</event>
<event>
 5   0  0.2871888E-05  0.2454601E+04  0.7818609E-02  0.8419340E-01
       -2   -1    0    0    0  501  0.00000000000E+00  0.00000000000E+00  0.65573689511E+03  0.65573689512E+03  0.25500000920E-02 0. -1.
        2   -1    0    0  501    0  0.00000000000E+00  0.00000000000E+00 -0.22970587495E+04  0.22970587495E+04  0.25500000920E-02 0.  1.
    10030    2    1    2    0    0  0.00000000000E+00  0.00000000000E+00 -0.16413218543E+04  0.29527956446E+04  0.24546007189E+04 0.  0.
        3    1    3    3  502    0  0.11023450567E+03  0.35206006497E+03 -0.22287803231E+04  0.22591059458E+04  0.10100000352E+00 0.  1.
       -3    1    3    3    0  502 -0.11023450567E+03 -0.35206006497E+03  0.58745846870E+03  0.69368969881E+03  0.10100000352E+00 0. -1.
</event>
<event>
 5   0  0.1303224E-05  0.2300516E+04  0.7818609E-02  0.8477718E-01
       -1   -1    0    0    0  501  0.00000000000E+00  0.00000000000E+00  0.17428635620E+04  0.17428635620E+04  0.50400001928E-02 0.  1.
        1   -1    0    0  501    0  0.00000000000E+00  0.00000000000E+00 -0.75914930121E+03  0.75914930123E+03  0.50400001928E-02 0. -1.
    10030    2    1    2    0    0  0.00000000000E+00  0.00000000000E+00  0.98371426076E+03  0.25020128632E+04  0.23005161640E+04 0.  0.
        2    1    3    3  502    0 -0.24900206802E+03 -0.11228907726E+04  0.47617405518E+03  0.12448403303E+04  0.25500000920E-02 0. -1.
       -2    1    3    3    0  502  0.24900206802E+03  0.11228907726E+04  0.50754020558E+03  0.12571725329E+04  0.25500000920E-02 0.  1.
</event>
<event>
 5   0  0.2910126E-05  0.2285858E+04  0.7818609E-02  0.8483518E-01
        2   -1    0    0  501    0  0.00000000000E+00  0.00000000000E+00  0.11287397916E+04  0.11287397916E+04  0.25500000920E-02 0. -1.
       -2   -1    0    0    0  501  0.00000000000E+00  0.00000000000E+00 -0.11572961228E+04  0.11572961228E+04  0.25500000920E-02 0.  1.
    10030    2    1    2    0    0  0.00000000000E+00  0.00000000000E+00 -0.28556331280E+02  0.22860359144E+04  0.22858575498E+04 0.  0.
        5    1    3    3  502    0  0.58199401906E+03 -0.88232594970E+03 -0.44910856771E+03  0.11484497008E+04  0.46999998093E+01 0.  1.
       -5    1    3    3    0  502 -0.58199401906E+03  0.88232594970E+03  0.42055223643E+03  0.11375862136E+04  0.46999998093E+01 0. -1.
</event>
<event>
 5   0  0.2910126E-05  0.2308872E+04  0.7818609E-02  0.8474431E-01
        2   -1    0    0  501    0  0.00000000000E+00  0.00000000000E+00  0.15574672195E+04  0.15574672195E+04  0.25500000920E-02 0. -1.
       -2   -1    0    0    0  501  0.00000000000E+00  0.00000000000E+00 -0.85569825191E+03  0.85569825191E+03  0.25500000920E-02 0.  1.
    10030    2    1    2    0    0  0.00000000000E+00  0.00000000000E+00  0.70176896759E+03  0.24131654714E+04  0.23088715661E+04 0.  0.
        5    1    3    3  502    0 -0.22907044683E+03  0.53834016370E+02  0.15321258063E+04  0.15500977218E+04  0.46999998093E+01 0. -1.
       -5    1    3    3    0  502  0.22907044683E+03 -0.53834016370E+02 -0.83035683866E+03  0.86306774962E+03  0.46999998093E+01 0.  1.
</event>
<event>
 5   0  0.2994157E-05  0.2272881E+04  0.7818609E-02  0.8488691E-01
       -2   -1    0    0    0  501  0.00000000000E+00  0.00000000000E+00  0.13805294389E+04  0.13805294389E+04  0.25500000920E-02 0. -1.
        2   -1    0    0  501    0  0.00000000000E+00  0.00000000000E+00 -0.93550844503E+03  0.93550844503E+03  0.25500000920E-02 0.  1.
    10030    2    1    2    0    0  0.00000000000E+00  0.00000000000E+00  0.44502099389E+03  0.23160378840E+04  0.22728809460E+04 0.  0.
        4    1    3    3  502    0  0.72191041504E+03 -0.56484676843E+03 -0.46202544635E+03  0.10264870409E+04  0.12699999809E+01 0.  1.
       -4    1    3    3    0  502 -0.72191041504E+03  0.56484676843E+03  0.90704644025E+03  0.12895508431E+04  0.12699999809E+01 0. -1.
</event>
<event>
 5   0  0.2994157E-05  0.2302596E+04  0.7818609E-02  0.8476898E-01
        2   -1    0    0  501    0  0.00000000000E+00  0.00000000000E+00  0.21945255837E+04  0.21945255837E+04  0.25500000920E-02 0. -1.
       -2   -1    0    0    0  501  0.00000000000E+00  0.00000000000E+00 -0.60399726053E+03  0.60399726053E+03  0.25500000920E-02 0.  1.
    10030    2    1    2    0    0  0.00000000000E+00  0.00000000000E+00  0.15905283232E+04  0.27985228443E+04  0.23025963092E+04 0.  0.
        4    1    3    3  502    0 -0.11162328186E+04  0.26826165954E+03  0.90083982667E+03  0.14592648936E+04  0.12699999809E+01 0. -1.
       -4    1    3    3    0  502  0.11162328186E+04 -0.26826165954E+03  0.68968849653E+03  0.13392579507E+04  0.12699999809E+01 0.  1.
</event>
<event>
 5   0  0.1303224E-05  0.2293703E+04  0.7818609E-02  0.8480408E-01
        1   -1    0    0  501    0  0.00000000000E+00  0.00000000000E+00  0.80201428989E+03  0.80201428991E+03  0.50400001928E-02 0. -1.
       -1   -1    0    0    0  501  0.00000000000E+00  0.00000000000E+00 -0.16399567860E+04  0.16399567860E+04  0.50400001928E-02 0.  1.
    10030    2    1    2    0    0  0.00000000000E+00  0.00000000000E+00 -0.83794249609E+03  0.24419710759E+04  0.22937033611E+04 0.  0.
        2    1    3    3  502    0  0.10930163649E+04 -0.18537931192E+03 -0.73158172663E+03  0.13282552789E+04  0.25500000920E-02 0.  1.
       -2    1    3    3    0  502 -0.10930163649E+04  0.18537931192E+03 -0.10636076946E+03  0.11137157970E+04  0.25500000920E-02 0. -1.
</event>
<event>
 5   0  0.2871888E-05  0.2334380E+04  0.7818609E-02  0.8464488E-01
        2   -1    0    0  501    0  0.00000000000E+00  0.00000000000E+00  0.13303663783E+04  0.13303663783E+04  0.25500000920E-02 0.  1.
       -2   -1    0    0    0  501  0.00000000000E+00  0.00000000000E+00 -0.10240276699E+04  0.10240276700E+04  0.25500000920E-02 0. -1.
    10030    2    1    2    0    0  0.00000000000E+00  0.00000000000E+00  0.30633870839E+03  0.23543940483E+04  0.23343795600E+04 0.  0.
        3    1    3    3  502    0  0.18518402627E+03 -0.80088471444E+03  0.98890072011E+03  0.12859370489E+04  0.10100000352E+00 0.  1.
       -3    1    3    3    0  502 -0.18518402627E+03  0.80088471444E+03 -0.68256201172E+03  0.10684569993E+04  0.10100000352E+00 0. -1.
</event>
<event>
 5   0  0.1284837E-05  0.2299361E+04  0.7818609E-02  0.8478173E-01
        1   -1    0    0  501    0  0.00000000000E+00  0.00000000000E+00  0.11085145223E+04  0.11085145224E+04  0.50400001928E-02 0.  1.
       -1   -1    0    0    0  501  0.00000000000E+00  0.00000000000E+00 -0.11923752096E+04  0.11923752097E+04  0.50400001928E-02 0. -1.
    10030    2    1    2    0    0  0.00000000000E+00  0.00000000000E+00 -0.83860687299E+02  0.23008897320E+04  0.22993609860E+04 0.  0.
        4    1    3    3  502    0  0.20756488810E+03  0.82640334984E+03 -0.81428412787E+03  0.11785948978E+04  0.12699999809E+01 0. -1.
       -4    1    3    3    0  502 -0.20756488810E+03 -0.82640334984E+03  0.73042344058E+03  0.11222948342E+04  0.12699999809E+01 0.  1.
</event>
<event>
 5   0  0.2816178E-05  0.2293890E+04  0.7818609E-02  0.8480334E-01
       -2   -1    0    0    0  501  0.00000000000E+00  0.00000000000E+00  0.10789509297E+04  0.10789509297E+04  0.25500000920E-02 0. -1.
        2   -1    0    0  501    0  0.00000000000E+00  0.00000000000E+00 -0.12192241053E+04  0.12192241053E+04  0.25500000920E-02 0.  1.
    10030    2    1    2    0    0  0.00000000000E+00  0.00000000000E+00 -0.14027317563E+03  0.22981750351E+04  0.22938901299E+04 0.  0.
        1    1    3    3  502    0  0.55025106657E+03 -0.45624110592E+03 -0.96877964868E+03  0.12039377852E+04  0.50400001928E-02 0.  1.
       -1    1    3    3    0  502 -0.55025106657E+03  0.45624110592E+03  0.82850647306E+03  0.10942372498E+04  0.50400001928E-02 0. -1.
</event>
<event>
 5   0  0.2938972E-05  0.2302409E+04  0.7818609E-02  0.8476972E-01
        2   -1    0    0  501    0  0.00000000000E+00  0.00000000000E+00  0.16847047446E+04  0.16847047446E+04  0.25500000920E-02 0.  1.
       -2   -1    0    0    0  501  0.00000000000E+00  0.00000000000E+00 -0.78664947910E+03  0.78664947910E+03  0.25500000920E-02 0. -1.
    10030    2    1    2    0    0  0.00000000000E+00  0.00000000000E+00  0.89805526553E+03  0.24713542237E+04  0.23024092684E+04 0.  0.
        2    1    3    3  502    0 -0.71021514519E+03  0.35604918379E+03  0.13432841191E+04  0.15606373052E+04  0.25500000920E-02 0.  1.
       -2    1    3    3    0  502  0.71021514519E+03 -0.35604918379E+03 -0.44522885353E+03  0.91071691856E+03  0.25500000920E-02 0. -1.
</event>
<event>
 5   0  0.1284837E-05  0.2267240E+04  0.7818609E-02  0.8490951E-01
        1   -1    0    0  501    0  0.00000000000E+00  0.00000000000E+00  0.73918153447E+03  0.73918153448E+03  0.50400001928E-02 0.  1.
       -1   -1    0    0    0  501  0.00000000000E+00  0.00000000000E+00 -0.17385371386E+04  0.17385371386E+04  0.50400001928E-02 0. -1.
    10030    2    1    2    0    0  0.00000000000E+00  0.00000000000E+00 -0.99935560415E+03  0.24777186731E+04  0.22672402165E+04 0.  0.
        4    1    3    3  502    0 -0.54627497924E+03 -0.98229919332E+03 -0.66090287583E+03  0.13038873733E+04  0.12699999809E+01 0.  1.
       -4    1    3    3    0  502  0.54627497924E+03  0.98229919332E+03 -0.33845272832E+03  0.11738312998E+04  0.12699999809E+01 0. -1.
</event>
<event>
 5   0  0.1303224E-05  0.2279361E+04  0.7818609E-02  0.8486104E-01
        1   -1    0    0  501    0  0.00000000000E+00  0.00000000000E+00  0.11709650031E+04  0.11709650031E+04  0.50400001928E-02 0. -1.
       -1   -1    0    0    0  501  0.00000000000E+00  0.00000000000E+00 -0.11092317688E+04  0.11092317688E+04  0.50400001928E-02 0.  1.
    10030    2    1    2    0    0  0.00000000000E+00  0.00000000000E+00  0.61733234271E+02  0.22801967719E+04  0.22793609469E+04 0.  0.
        2    1    3    3  502    0 -0.71223594954E+03  0.27857665573E+03  0.87615373045E+03  0.11629833878E+04  0.25500000920E-02 0. -1.
       -2    1    3    3    0  502  0.71223594954E+03 -0.27857665573E+03 -0.81442049618E+03  0.11172133841E+04  0.25500000920E-02 0.  1.
</event>
<event>
 5   0  0.2994157E-05  0.2333392E+04  0.7818609E-02  0.8464870E-01
        2   -1    0    0  501    0  0.00000000000E+00  0.00000000000E+00  0.20919627341E+04  0.20919627341E+04  0.25500000920E-02 0. -1.
       -2   -1    0    0    0  501  0.00000000000E+00  0.00000000000E+00 -0.65067125628E+03  0.65067125628E+03  0.25500000920E-02 0.  1.
    10030    2    1    2    0    0  0.00000000000E+00  0.00000000000E+00  0.14412914778E+04  0.27426339904E+04  0.23333923976E+04 0.  0.
        4    1    3    3  502    0 -0.91360480058E+03  0.13842808870E+03 -0.11655697853E+03  0.93135557632E+03  0.12699999809E+01 0.  1.
       -4    1    3    3    0  502  0.91360480058E+03 -0.13842808870E+03  0.15578484564E+04  0.18112784141E+04  0.12699999809E+01 0. -1.
</event>
<event>
 5   0  0.2994157E-05  0.2303344E+04  0.7818609E-02  0.8476604E-01
        2   -1    0    0  501    0  0.00000000000E+00  0.00000000000E+00  0.18169979341E+04  0.18169979341E+04  0.25500000920E-02 0. -1.
       -2   -1    0    0    0  501  0.00000000000E+00  0.00000000000E+00 -0.72996693696E+03  0.72996693696E+03  0.25500000920E-02 0.  1.
    10030    2    1    2    0    0  0.00000000000E+00  0.00000000000E+00  0.10870309972E+04  0.25469648711E+04  0.23033440181E+04 0.  0.
        4    1    3    3  502    0  0.10648874601E+03  0.90666083870E+03 -0.23286701859E+03  0.94212652585E+03  0.12699999809E+01 0. -1.
       -4    1    3    3    0  502 -0.10648874601E+03 -0.90666083870E+03  0.13198980158E+04  0.16048383452E+04  0.12699999809E+01 0.  1.
</event>
<event>
 5   0  0.1284837E-05  0.2269034E+04  0.7818609E-02  0.8490231E-01
        1   -1    0    0  501    0  0.00000000000E+00  0.00000000000E+00  0.91230284056E+03  0.91230284058E+03  0.50400001928E-02 0. -1.
       -1   -1    0    0    0  501  0.00000000000E+00  0.00000000000E+00 -0.14108574621E+04  0.14108574622E+04  0.50400001928E-02 0.  1.
    10030    2    1    2    0    0  0.00000000000E+00  0.00000000000E+00 -0.49855462158E+03  0.23231603027E+04  0.22690343941E+04 0.  0.
        4    1    3    3  502    0 -0.49129883492E+03  0.40987839167E+03 -0.12085105398E+04  0.13674334276E+04  0.12699999809E+01 0.  1.
       -4    1    3    3    0  502  0.49129883492E+03 -0.40987839167E+03  0.70995591823E+03  0.95572687515E+03  0.12699999809E+01 0. -1.
</event>
<event>
 5   0  0.1303224E-05  0.2300453E+04  0.7818609E-02  0.8477742E-01
        1   -1    0    0  501    0  0.00000000000E+00  0.00000000000E+00  0.11294014276E+04  0.11294014276E+04  0.50400001928E-02 0.  1.
       -1   -1    0    0    0  501  0.00000000000E+00  0.00000000000E+00 -0.11714360187E+04  0.11714360187E+04  0.50400001928E-02 0. -1.
    10030    2    1    2    0    0  0.00000000000E+00  0.00000000000E+00 -0.42034591105E+02  0.23008374462E+04  0.23004534438E+04 0.  0.
        2    1    3    3  502    0 -0.50453110370E+03  0.94600574604E+03  0.39563717482E+03  0.11428067554E+04  0.25500000920E-02 0.  1.
       -2    1    3    3    0  502  0.50453110370E+03 -0.94600574604E+03 -0.43767176593E+03  0.11580306908E+04  0.25500000920E-02 0. -1.
</event>
<event>
 5   0  0.2910126E-05  0.2227240E+04  0.7818609E-02  0.8507175E-01
       -2   -1    0    0    0  501  0.00000000000E+00  0.00000000000E+00  0.48071088050E+03  0.48071088050E+03  0.25500000920E-02 0.  1.
        2   -1    0    0  501    0  0.00000000000E+00  0.00000000000E+00 -0.25798245124E+04  0.25798245124E+04  0.25500000920E-02 0. -1.
    10030    2    1    2    0    0  0.00000000000E+00  0.00000000000E+00 -0.20991136319E+04  0.30605353929E+04  0.22272401872E+04 0.  0.
        5    1    3    3  502    0  0.96670584546E+03 -0.49443152598E+03 -0.13893467133E+04  0.17633176416E+04  0.46999998093E+01 0. -1.
       -5    1    3    3    0  502 -0.96670584546E+03  0.49443152598E+03 -0.70976691864E+03  0.12972177513E+04  0.46999998093E+01 0.  1.
</event>
<event>
 5   0  0.2910126E-05  0.2298301E+04  0.7818609E-02  0.8478591E-01
       -2   -1    0    0    0  501  0.00000000000E+00  0.00000000000E+00  0.70080304053E+03  0.70080304053E+03  0.25500000920E-02 0.  1.
        2   -1    0    0  501    0  0.00000000000E+00  0.00000000000E+00 -0.18843344664E+04  0.18843344664E+04  0.25500000920E-02 0. -1.
    10030    2    1    2    0    0  0.00000000000E+00  0.00000000000E+00 -0.11835314259E+04  0.25851375070E+04  0.22983013932E+04 0.  0.
        5    1    3    3  502    0 -0.11933011581E+03 -0.11403159875E+04 -0.67863816773E+03  0.13323408275E+04  0.46999998093E+01 0. -1.
       -5    1    3    3    0  502  0.11933011581E+03  0.11403159875E+04 -0.50489325819E+03  0.12527966795E+04  0.46999998093E+01 0.  1.
</event>
<event>
 5   0  0.1308224E-05  0.2288433E+04  0.7818609E-02  0.8482496E-01
       -1   -1    0    0    0  501  0.00000000000E+00  0.00000000000E+00  0.63520854476E+03  0.63520854478E+03  0.50400001928E-02 0. -1.
        1   -1    0    0  501    0  0.00000000000E+00  0.00000000000E+00 -0.20611048821E+04  0.20611048821E+04  0.50400001928E-02 0.  1.
    10030    2    1    2    0    0  0.00000000000E+00  0.00000000000E+00 -0.14258963373E+04  0.26963134269E+04  0.22884330296E+04 0.  0.
        5    1    3    3  502    0 -0.53256338263E+03  0.99331074612E+03 -0.94539035118E+03  0.14710795359E+04  0.46999998093E+01 0.  1.
       -5    1    3    3    0  502  0.53256338263E+03 -0.99331074612E+03 -0.48050598616E+03  0.12252338910E+04  0.46999998093E+01 0. -1.
</event>
<event>
 5   0  0.2938972E-05  0.2289811E+04  0.7818609E-02  0.8481949E-01
        2   -1    0    0  501    0  0.00000000000E+00  0.00000000000E+00  0.31955198122E+04  0.31955198122E+04  0.25500000920E-02 0. -1.
       -2   -1    0    0    0  501  0.00000000000E+00  0.00000000000E+00 -0.41020210889E+03  0.41020210890E+03  0.25500000920E-02 0.  1.
    10030    2    1    2    0    0  0.00000000000E+00  0.00000000000E+00  0.27853177034E+04  0.36057219211E+04  0.22898113163E+04 0.  0.
        2    1    3    3  502    0 -0.78241985410E+03 -0.60426367289E+03  0.23020197024E+04  0.25053163722E+04  0.25500000920E-02 0. -1.
       -2    1    3    3    0  502  0.78241985410E+03  0.60426367289E+03  0.48329800094E+03  0.11004055490E+04  0.25500000920E-02 0.  1.
</event>
<event>
 5   0  0.1284837E-05  0.2298482E+04  0.7818609E-02  0.8478520E-01
        1   -1    0    0  501    0  0.00000000000E+00  0.00000000000E+00  0.98488618016E+03  0.98488618017E+03  0.50400001928E-02 0. -1.
       -1   -1    0    0    0  501  0.00000000000E+00  0.00000000000E+00 -0.13410230064E+04  0.13410230064E+04  0.50400001928E-02 0.  1.
    10030    2    1    2    0    0  0.00000000000E+00  0.00000000000E+00 -0.35613682626E+03  0.23259091866E+04  0.22984821307E+04 0.  0.
        4    1    3    3  502    0 -0.35908935720E+03 -0.85994327662E+03  0.50249360010E+03  0.10587488071E+04  0.12699999809E+01 0. -1.
       -4    1    3    3    0  502  0.35908935720E+03  0.85994327662E+03 -0.85863042637E+03  0.12671603795E+04  0.12699999809E+01 0.  1.
</event>
<event>
 5   0  0.2871888E-05  0.2291753E+04  0.7818609E-02  0.8481180E-01
       -2   -1    0    0    0  501  0.00000000000E+00  0.00000000000E+00  0.42462350511E+03  0.42462350512E+03  0.25500000920E-02 0. -1.
        2   -1    0    0  501    0  0.00000000000E+00  0.00000000000E+00 -0.30922291884E+04  0.30922291884E+04  0.25500000920E-02 0.  1.
    10030    2    1    2    0    0  0.00000000000E+00  0.00000000000E+00 -0.26676056833E+04  0.35168526935E+04  0.22917532124E+04 0.  0.
        3    1    3    3  502    0  0.55895728792E+03 -0.19034942808E+03  0.17317722103E+03  0.61535072485E+03  0.10100000352E+00 0. -1.
       -3    1    3    3    0  502 -0.55895728792E+03  0.19034942808E+03 -0.28407829043E+04  0.29015019687E+04  0.10100000352E+00 0.  1.
</event>
<event>
 5   0  0.2910126E-05  0.2262465E+04  0.7818609E-02  0.8492869E-01
       -2   -1    0    0    0  501  0.00000000000E+00  0.00000000000E+00  0.65349688773E+03  0.65349688774E+03  0.25500000920E-02 0. -1.
        2   -1    0    0  501    0  0.00000000000E+00  0.00000000000E+00 -0.19582148903E+04  0.19582148903E+04  0.25500000920E-02 0.  1.
    10030    2    1    2    0    0  0.00000000000E+00  0.00000000000E+00 -0.13047180026E+04  0.26117117780E+04  0.22624653247E+04 0.  0.
        5    1    3    3  502    0  0.66082094065E+03 -0.87461238948E+03 -0.97482618569E+03  0.14669489868E+04  0.46999998093E+01 0.  1.
       -5    1    3    3    0  502 -0.66082094065E+03  0.87461238948E+03 -0.32989181686E+03  0.11447627913E+04  0.46999998093E+01 0. -1.
</event>
<event>
 5   0  0.2938972E-05  0.2327312E+04  0.7818609E-02  0.8467229E-01
        2   -1    0    0  501    0  0.00000000000E+00  0.00000000000E+00  0.17669441854E+04  0.17669441854E+04  0.25500000920E-02 0. -1.
       -2   -1    0    0    0  501  0.00000000000E+00  0.00000000000E+00 -0.76634883826E+03  0.76634883826E+03  0.25500000920E-02 0.  1.
    10030    2    1    2    0    0  0.00000000000E+00  0.00000000000E+00  0.10005953472E+04  0.25332930237E+04  0.23273122900E+04 0.  0.
        2    1    3    3  502    0 -0.58734336230E+03  0.82120099676E+03 -0.12948768952E+03  0.10178950653E+04  0.25500000920E-02 0.  1.
       -2    1    3    3    0  502  0.58734336230E+03 -0.82120099676E+03  0.11300830367E+04  0.15153979583E+04  0.25500000920E-02 0. -1.
</event>
<event>
 5   0  0.1371753E-05  0.2451550E+04  0.7818609E-02  0.8420452E-01
       -1   -1    0    0    0  501  0.00000000000E+00  0.00000000000E+00  0.10905164871E+04  0.10905164871E+04  0.50400001928E-02 0. -1.
        1   -1    0    0  501    0  0.00000000000E+00  0.00000000000E+00 -0.13778097409E+04  0.13778097409E+04  0.50400001928E-02 0.  1.
    10030    2    1    2    0    0  0.00000000000E+00  0.00000000000E+00 -0.28729325383E+03  0.24683262280E+04  0.24515499086E+04 0.  0.
        3    1    3    3  502    0  0.63254776039E+03  0.92466638535E+03  0.35714994372E+03  0.11758744346E+04  0.10100000352E+00 0. -1.
       -3    1    3    3    0  502 -0.63254776039E+03 -0.92466638535E+03 -0.64444319755E+03  0.12924517935E+04  0.10100000352E+00 0.  1.
</event>
<event>
 5   0  0.2938972E-05  0.2303596E+04  0.7818609E-02  0.8476504E-01
        2   -1    0    0  501    0  0.00000000000E+00  0.00000000000E+00  0.12378336070E+04  0.12378336070E+04  0.25500000920E-02 0.  1.
       -2   -1    0    0    0  501  0.00000000000E+00  0.00000000000E+00 -0.10717426593E+04  0.10717426593E+04  0.25500000920E-02 0. -1.
    10030    2    1    2    0    0  0.00000000000E+00  0.00000000000E+00  0.16609094773E+03  0.23095762663E+04  0.23035963897E+04 0.  0.
        2    1    3    3  502    0 -0.10044802581E+04  0.55330163662E+03 -0.24544751561E+02  0.11470508859E+04  0.25500000920E-02 0. -1.
       -2    1    3    3    0  502  0.10044802581E+04 -0.55330163662E+03  0.19063569929E+03  0.11625253803E+04  0.25500000920E-02 0.  1.
</event>
<event>
 5   0  0.1308224E-05  0.2295617E+04  0.7818609E-02  0.8479651E-01
       -1   -1    0    0    0  501  0.00000000000E+00  0.00000000000E+00  0.17915865547E+04  0.17915865547E+04  0.50400001928E-02 0.  1.
        1   -1    0    0  501    0  0.00000000000E+00  0.00000000000E+00 -0.73536151287E+03  0.73536151289E+03  0.50400001928E-02 0. -1.
    10030    2    1    2    0    0  0.00000000000E+00  0.00000000000E+00  0.10562250418E+04  0.25269480675E+04  0.22956165179E+04 0.  0.
        5    1    3    3  502    0  0.92435080302E+03 -0.35183113617E+03  0.11692416078E+04  0.15314560336E+04  0.46999998093E+01 0. -1.
       -5    1    3    3    0  502 -0.92435080302E+03  0.35183113617E+03 -0.11301656605E+03  0.99549203393E+03  0.46999998093E+01 0.  1.
</event>
<event>
 5   0  0.1284837E-05  0.2297377E+04  0.7818609E-02  0.8478956E-01
       -1   -1    0    0    0  501  0.00000000000E+00  0.00000000000E+00  0.74919816945E+03  0.74919816946E+03  0.50400001928E-02 0.  1.
        1   -1    0    0  501    0  0.00000000000E+00  0.00000000000E+00 -0.17611963752E+04  0.17611963752E+04  0.50400001928E-02 0. -1.
    10030    2    1    2    0    0  0.00000000000E+00  0.00000000000E+00 -0.10119982057E+04  0.25103945446E+04  0.22973768523E+04 0.  0.
        4    1    3    3  502    0 -0.24756306640E+03 -0.32017596079E+03  0.66870686057E+03  0.78164608102E+03  0.12699999809E+01 0.  1.
       -4    1    3    3    0  502  0.24756306640E+03  0.32017596079E+03 -0.16807050663E+04  0.17287484636E+04  0.12699999809E+01 0. -1.
</event>
<event>
 5   0  0.2871888E-05  0.2303672E+04  0.7818609E-02  0.8476475E-01
       -2   -1    0    0    0  501  0.00000000000E+00  0.00000000000E+00  0.10532209762E+04  0.10532209762E+04  0.25500000920E-02 0. -1.
        2   -1    0    0  501    0  0.00000000000E+00  0.00000000000E+00 -0.12596841056E+04  0.12596841056E+04  0.25500000920E-02 0.  1.
    10030    2    1    2    0    0  0.00000000000E+00  0.00000000000E+00 -0.20646312941E+03  0.23129050819E+04  0.23036716116E+04 0.  0.
        3    1    3    3  502    0  0.11308918007E+04  0.18812823410E+03 -0.21511076545E+03  0.11664395179E+04  0.10100000352E+00 0. -1.
       -3    1    3    3    0  502 -0.11308918007E+04 -0.18812823410E+03  0.86476360418E+01  0.11464655639E+04  0.10100000352E+00 0.  1.
</event>
<event>
 5   0  0.1371753E-05  0.2309446E+04  0.7818609E-02  0.8474206E-01
        1   -1    0    0  501    0  0.00000000000E+00  0.00000000000E+00  0.11164424785E+04  0.11164424785E+04  0.50400001928E-02 0. -1.
       -1   -1    0    0    0  501  0.00000000000E+00  0.00000000000E+00 -0.11943162357E+04  0.11943162357E+04  0.50400001928E-02 0.  1.
    10030    2    1    2    0    0  0.00000000000E+00  0.00000000000E+00 -0.77873757174E+02  0.23107587142E+04  0.23094461485E+04 0.  0.
        3    1    3    3  502    0  0.25541472254E+03 -0.58871005349E+03  0.92159266254E+03  0.11230090175E+04  0.10100000352E+00 0. -1.
       -3    1    3    3    0  502 -0.25541472254E+03  0.58871005349E+03 -0.99946641971E+03  0.11877496967E+04  0.10100000352E+00 0.  1.
</event>
<event>
 5   0  0.1303224E-05  0.2327398E+04  0.7818609E-02  0.8467196E-01
       -1   -1    0    0    0  501  0.00000000000E+00  0.00000000000E+00  0.72390947818E+03  0.72390947820E+03  0.50400001928E-02 0. -1.
        1   -1    0    0  501    0  0.00000000000E+00  0.00000000000E+00 -0.18706686937E+04  0.18706686937E+04  0.50400001928E-02 0.  1.
    10030    2    1    2    0    0  0.00000000000E+00  0.00000000000E+00 -0.11467592155E+04  0.25945781719E+04  0.23273975148E+04 0.  0.
        2    1    3    3  502    0 -0.73003849019E+03  0.82500415423E+03 -0.99140173700E+03  0.14820477239E+04  0.25500000920E-02 0.  1.
       -2    1    3    3    0  502  0.73003849019E+03 -0.82500415423E+03 -0.15535747849E+03  0.11125304480E+04  0.25500000920E-02 0. -1.
</event>
<event>
 5   0  0.1303224E-05  0.2283876E+04  0.7818609E-02  0.8484306E-01
        1   -1    0    0  501    0  0.00000000000E+00  0.00000000000E+00  0.17728360645E+04  0.17728360645E+04  0.50400001928E-02 0.  1.
       -1   -1    0    0    0  501  0.00000000000E+00  0.00000000000E+00 -0.73555693572E+03  0.73555693574E+03  0.50400001928E-02 0. -1.
    10030    2    1    2    0    0  0.00000000000E+00  0.00000000000E+00  0.10372791288E+04  0.25083930003E+04  0.22838755335E+04 0.  0.
        2    1    3    3  502    0 -0.10421051552E+04  0.36641623536E+03  0.83653753566E+03  0.13856547408E+04  0.25500000920E-02 0.  1.
       -2    1    3    3    0  502  0.10421051552E+04 -0.36641623536E+03  0.20074159312E+03  0.11227382595E+04  0.25500000920E-02 0. -1.
</event>
<event>
 5   0  0.2994157E-05  0.2300395E+04  0.7818609E-02  0.8477765E-01
        2   -1    0    0  501    0  0.00000000000E+00  0.00000000000E+00  0.61868757841E+03  0.61868757842E+03  0.25500000920E-02 0.  1.
       -2   -1    0    0    0  501  0.00000000000E+00  0.00000000000E+00 -0.21383245645E+04  0.21383245645E+04  0.25500000920E-02 0. -1.
    10030    2    1    2    0    0  0.00000000000E+00  0.00000000000E+00 -0.15196369861E+04  0.27570121430E+04  0.23003954849E+04 0.  0.
        4    1    3    3  502    0 -0.60853467720E+03 -0.24438541774E+03  0.37268909832E+03  0.75427943274E+03  0.12699999809E+01 0.  1.
       -4    1    3    3    0  502  0.60853467720E+03  0.24438541774E+03 -0.18923260844E+04  0.20027327102E+04  0.12699999809E+01 0. -1.
</event>
<event>
 5   0  0.1327820E-05  0.2282817E+04  0.7818609E-02  0.8484727E-01
        1   -1    0    0  501    0  0.00000000000E+00  0.00000000000E+00  0.92060008758E+03  0.92060008759E+03  0.50400001928E-02 0.  1.
       -1   -1    0    0    0  501  0.00000000000E+00  0.00000000000E+00 -0.14151779419E+04  0.14151779420E+04  0.50400001928E-02 0. -1.
    10030    2    1    2    0    0  0.00000000000E+00  0.00000000000E+00 -0.49457785437E+03  0.23357780295E+04  0.22828166263E+04 0.  0.
        1    1    3    3  502    0 -0.39264035060E+03  0.99194720219E+03  0.16794278903E+03  0.10799678131E+04  0.50400001928E-02 0. -1.
       -1    1    3    3    0  502  0.39264035060E+03 -0.99194720219E+03 -0.66252064340E+03  0.12558102165E+04  0.50400001928E-02 0.  1.
</event>
<event>
 5   0  0.1327820E-05  0.2294298E+04  0.7818609E-02  0.8480173E-01
       -1   -1    0    0    0  501  0.00000000000E+00  0.00000000000E+00  0.55020309877E+03  0.55020309879E+03  0.50400001928E-02 0. -1.
        1   -1    0    0  501    0  0.00000000000E+00  0.00000000000E+00 -0.23917554357E+04  0.23917554357E+04  0.50400001928E-02 0.  1.
    10030    2    1    2    0    0  0.00000000000E+00  0.00000000000E+00 -0.18415523370E+04  0.29419585345E+04  0.22942983697E+04 0.  0.
        1    1    3    3  502    0  0.11345092043E+04 -0.12258585728E+02 -0.70358070502E+03  0.13350233017E+04  0.50400001928E-02 0. -1.
       -1    1    3    3    0  502 -0.11345092043E+04  0.12258585728E+02 -0.11379716319E+04  0.16069352329E+04  0.50400001928E-02 0.  1.
</event>
<event>
 5   0  0.2910126E-05  0.2291271E+04  0.7818609E-02  0.8481371E-01
        2   -1    0    0  501    0  0.00000000000E+00  0.00000000000E+00  0.14466155590E+04  0.14466155590E+04  0.25500000920E-02 0.  1.
       -2   -1    0    0    0  501  0.00000000000E+00  0.00000000000E+00 -0.90727671080E+03  0.90727671081E+03  0.25500000920E-02 0. -1.
    10030    2    1    2    0    0  0.00000000000E+00  0.00000000000E+00  0.53933884816E+03  0.23538922698E+04  0.22912709191E+04 0.  0.
        5    1    3    3  502    0 -0.80021511018E+03  0.63050821855E+03  0.80798827934E+03  0.13002891931E+04  0.46999998093E+01 0.  1.
       -5    1    3    3    0  502  0.80021511018E+03 -0.63050821855E+03 -0.26864943118E+03  0.10536030766E+04  0.46999998093E+01 0. -1.
</event>
<event>
 5   0  0.2816178E-05  0.2325381E+04  0.7818609E-02  0.8467980E-01
        2   -1    0    0  501    0  0.00000000000E+00  0.00000000000E+00  0.96099171660E+03  0.96099171661E+03  0.25500000920E-02 0. -1.
       -2   -1    0    0    0  501  0.00000000000E+00  0.00000000000E+00 -0.14067232097E+04  0.14067232097E+04  0.25500000920E-02 0.  1.
    10030    2    1    2    0    0  0.00000000000E+00  0.00000000000E+00 -0.44573149306E+03  0.23677149263E+04  0.23253811318E+04 0.  0.
        1    1    3    3  502    0 -0.36491843862E+03 -0.32571384995E+03 -0.12968643022E+04  0.13860418454E+04  0.50400001928E-02 0.  1.
       -1    1    3    3    0  502  0.36491843862E+03  0.32571384995E+03  0.85113280913E+03  0.98167308086E+03  0.50400001928E-02 0. -1.
</event>
<event>
 5   0  0.2816178E-05  0.2312992E+04  0.7818609E-02  0.8472816E-01
        2   -1    0    0  501    0  0.00000000000E+00  0.00000000000E+00  0.17865672934E+04  0.17865672934E+04  0.25500000920E-02 0. -1.
       -2   -1    0    0    0  501  0.00000000000E+00  0.00000000000E+00 -0.74863300355E+03  0.74863300356E+03  0.25500000920E-02 0.  1.
    10030    2    1    2    0    0  0.00000000000E+00  0.00000000000E+00  0.10379342899E+04  0.25352002970E+04  0.23129922083E+04 0.  0.
        1    1    3    3  502    0  0.88945259493E+03 -0.82208379258E+02 -0.28617714387E+03  0.93796668062E+03  0.50400001928E-02 0.  1.
       -1    1    3    3    0  502 -0.88945259493E+03  0.82208379258E+02  0.13241114338E+04  0.15972336164E+04  0.50400001928E-02 0. -1.
</event>
<event>
 5   0  0.1371753E-05  0.2288464E+04  0.7818609E-02  0.8482483E-01
        1   -1    0    0  501    0  0.00000000000E+00  0.00000000000E+00  0.91574116700E+03  0.91574116702E+03  0.50400001928E-02 0. -1.
       -1   -1    0    0    0  501  0.00000000000E+00  0.00000000000E+00 -0.14297349954E+04  0.14297349954E+04  0.50400001928E-02 0.  1.
    10030    2    1    2    0    0  0.00000000000E+00  0.00000000000E+00 -0.51399382841E+03  0.23454761624E+04  0.22884642826E+04 0.  0.
        3    1    3    3  502    0  0.39946909501E+03 -0.61384000294E+03  0.64404773569E+03  0.97528078168E+03  0.10100000352E+00 0. -1.
       -3    1    3    3    0  502 -0.39946909501E+03  0.61384000294E+03 -0.11580415641E+04  0.13701953808E+04  0.10100000352E+00 0.  1.
</event>
<event>
 5   0  0.2910126E-05  0.2330223E+04  0.7818609E-02  0.8466099E-01
        2   -1    0    0  501    0  0.00000000000E+00  0.00000000000E+00  0.29841834029E+04  0.29841834029E+04  0.25500000920E-02 0. -1.
       -2   -1    0    0    0  501  0.00000000000E+00  0.00000000000E+00 -0.45489327020E+03  0.45489327020E+03  0.25500000920E-02 0.  1.
    10030    2    1    2    0    0  0.00000000000E+00  0.00000000000E+00  0.25292901327E+04  0.34390766731E+04  0.23302231198E+04 0.  0.
        5    1    3    3  502    0 -0.53619845439E+03 -0.90977035256E+03  0.53821142892E+03  0.11852782412E+04  0.46999998093E+01 0.  1.
       -5    1    3    3    0  502  0.53619845439E+03  0.90977035256E+03  0.19910787037E+04  0.22537984318E+04  0.46999998093E+01 0. -1.
</event>
<event>
 5   0  0.2938972E-05  0.2218843E+04  0.7818609E-02  0.8510626E-01
        2   -1    0    0  501    0  0.00000000000E+00  0.00000000000E+00  0.17229458291E+04  0.17229458291E+04  0.25500000920E-02 0. -1.
       -2   -1    0    0    0  501  0.00000000000E+00  0.00000000000E+00 -0.71436743290E+03  0.71436743290E+03  0.25500000920E-02 0.  1.
    10030    2    1    2    0    0  0.00000000000E+00  0.00000000000E+00  0.10085783962E+04  0.24373132620E+04  0.22188432923E+04 0.  0.
        2    1    3    3  502    0 -0.34560709154E+03  0.31870894321E+03 -0.59953955383E+03  0.76188406521E+03  0.25500000920E-02 0.  1.
       -2    1    3    3    0  502  0.34560709154E+03 -0.31870894321E+03  0.16081179500E+04  0.16754291968E+04  0.25500000920E-02 0. -1.
</event>
<event>
 5   0  0.1308224E-05  0.2293011E+04  0.7818609E-02  0.8480682E-01
       -1   -1    0    0    0  501  0.00000000000E+00  0.00000000000E+00  0.67946006854E+03  0.67946006856E+03  0.50400001928E-02 0. -1.
        1   -1    0    0  501    0  0.00000000000E+00  0.00000000000E+00 -0.19345865912E+04  0.19345865912E+04  0.50400001928E-02 0.  1.
    10030    2    1    2    0    0  0.00000000000E+00  0.00000000000E+00 -0.12551265226E+04  0.26140466598E+04  0.22930105433E+04 0.  0.
        5    1    3    3  502    0  0.65297665691E+03  0.21008899323E+03  0.41971509892E+03  0.80417582269E+03  0.46999998093E+01 0. -1.
       -5    1    3    3    0  502 -0.65297665691E+03 -0.21008899323E+03 -0.16748416216E+04  0.18098708371E+04  0.46999998093E+01 0.  1.
</event>
<event>
 5   0  0.2816178E-05  0.2295550E+04  0.7818609E-02  0.8479678E-01
       -2   -1    0    0    0  501  0.00000000000E+00  0.00000000000E+00  0.76382161603E+03  0.76382161604E+03  0.25500000920E-02 0. -1.
        2   -1    0    0  501    0  0.00000000000E+00  0.00000000000E+00 -0.17247319428E+04  0.17247319428E+04  0.25500000920E-02 0.  1.
    10030    2    1    2    0    0  0.00000000000E+00  0.00000000000E+00 -0.96091032677E+03  0.24885535588E+04  0.22955500777E+04 0.  0.
        1    1    3    3  502    0  0.51751607263E+03  0.62826802105E+03 -0.13577167840E+04  0.15830156213E+04  0.50400001928E-02 0.  1.
       -1    1    3    3    0  502 -0.51751607263E+03 -0.62826802105E+03  0.39680645727E+03  0.90553793750E+03  0.50400001928E-02 0. -1.
</event>
<event>
 5   0  0.2994157E-05  0.2303658E+04  0.7818609E-02  0.8476480E-01
        2   -1    0    0  501    0  0.00000000000E+00  0.00000000000E+00  0.16152927521E+04  0.16152927521E+04  0.25500000920E-02 0. -1.
       -2   -1    0    0    0  501  0.00000000000E+00  0.00000000000E+00 -0.82134336588E+03  0.82134336588E+03  0.25500000920E-02 0.  1.
    10030    2    1    2    0    0  0.00000000000E+00  0.00000000000E+00  0.79394938620E+03  0.24366361180E+04  0.23036579485E+04 0.  0.
        4    1    3    3  502    0 -0.40441238599E+03  0.10176307526E+04  0.19163087919E+02  0.10952125654E+04  0.12699999809E+01 0. -1.
       -4    1    3    3    0  502  0.40441238599E+03 -0.10176307526E+04  0.77478629828E+03  0.13414235526E+04  0.12699999809E+01 0.  1.
</event>
<event>
 5   0  0.2816178E-05  0.2278988E+04  0.7818609E-02  0.8486252E-01
       -2   -1    0    0    0  501  0.00000000000E+00  0.00000000000E+00  0.71758306653E+03  0.71758306653E+03  0.25500000920E-02 0.  1.
        2   -1    0    0  501    0  0.00000000000E+00  0.00000000000E+00 -0.18094725269E+04  0.18094725269E+04  0.25500000920E-02 0. -1.
    10030    2    1    2    0    0  0.00000000000E+00  0.00000000000E+00 -0.10918894603E+04  0.25270555934E+04  0.22789882357E+04 0.  0.
        1    1    3    3  502    0 -0.60719936568E+03 -0.41902286787E+03 -0.15089062984E+04  0.16796039566E+04  0.50400001928E-02 0. -1.
       -1    1    3    3    0  502  0.60719936568E+03  0.41902286787E+03  0.41701683809E+03  0.84745163682E+03  0.50400001928E-02 0.  1.
</event>
<event>
 5   0  0.2938972E-05  0.2276947E+04  0.7818609E-02  0.8487066E-01
        2   -1    0    0  501    0  0.00000000000E+00  0.00000000000E+00  0.19038012056E+04  0.19038012056E+04  0.25500000920E-02 0.  1.
       -2   -1    0    0    0  501  0.00000000000E+00  0.00000000000E+00 -0.68080747691E+03  0.68080747691E+03  0.25500000920E-02 0. -1.
    10030    2    1    2    0    0  0.00000000000E+00  0.00000000000E+00  0.12229937287E+04  0.25846086825E+04  0.22769471626E+04 0.  0.
        2    1    3    3  502    0  0.91879526573E+03 -0.38414369559E+02 -0.15035542628E+03  0.93180854167E+03  0.25500000920E-02 0. -1.
       -2    1    3    3    0  502 -0.91879526573E+03  0.38414369559E+02  0.13733491550E+04  0.16528001409E+04  0.25500000920E-02 0.  1.
</event>
<event>
 5   0  0.1303224E-05  0.2288021E+04  0.7818609E-02  0.8482659E-01
       -1   -1    0    0    0  501  0.00000000000E+00  0.00000000000E+00  0.12685736321E+04  0.12685736321E+04  0.50400001928E-02 0. -1.
        1   -1    0    0  501    0  0.00000000000E+00  0.00000000000E+00 -0.10316787246E+04  0.10316787246E+04  0.50400001928E-02 0.  1.
    10030    2    1    2    0    0  0.00000000000E+00  0.00000000000E+00  0.23689490748E+03  0.23002523567E+04  0.22880213520E+04 0.  0.
        2    1    3    3  502    0 -0.90193932944E+03 -0.17919422733E+03 -0.56574571106E+03  0.10796635285E+04  0.25500000920E-02 0.  1.
       -2    1    3    3    0  502  0.90193932944E+03  0.17919422733E+03  0.80264061854E+03  0.12205888282E+04  0.25500000920E-02 0. -1.
</event>
<event>
 5   0  0.1303224E-05  0.2291858E+04  0.7818609E-02  0.8481138E-01
       -1   -1    0    0    0  501  0.00000000000E+00  0.00000000000E+00  0.84480790316E+03  0.84480790318E+03  0.50400001928E-02 0. -1.
        1   -1    0    0  501    0  0.00000000000E+00  0.00000000000E+00 -0.15543805651E+04  0.15543805651E+04  0.50400001928E-02 0.  1.
    10030    2    1    2    0    0  0.00000000000E+00  0.00000000000E+00 -0.70957266189E+03  0.23991884682E+04  0.22918577494E+04 0.  0.
        2    1    3    3  502    0 -0.17007121834E+03 -0.37922093353E+03 -0.14727023183E+04  0.15302237922E+04  0.25500000920E-02 0.  1.
       -2    1    3    3    0  502  0.17007121834E+03  0.37922093353E+03  0.76312965643E+03  0.86896467607E+03  0.25500000920E-02 0. -1.
</event>
<event>
 5   0  0.2816178E-05  0.2125155E+04  0.7818609E-02  0.8550243E-01
       -2   -1    0    0    0  501  0.00000000000E+00  0.00000000000E+00  0.55172507158E+03  0.55172507159E+03  0.25500000920E-02 0.  1.
        2   -1    0    0  501    0  0.00000000000E+00  0.00000000000E+00 -0.20464370873E+04  0.20464370873E+04  0.25500000920E-02 0. -1.
    10030    2    1    2    0    0  0.00000000000E+00  0.00000000000E+00 -0.14947120157E+04  0.25981621589E+04  0.21251547223E+04 0.  0.
        1    1    3    3  502    0  0.10274536360E+04  0.14221765488E+03 -0.10293016807E+04  0.14612832667E+04  0.50400001928E-02 0.  1.
       -1    1    3    3    0  502 -0.10274536360E+04 -0.14221765488E+03 -0.46541033497E+03  0.11368788922E+04  0.50400001928E-02 0. -1.
</event>
<event>
 5   0  0.1327820E-05  0.2297192E+04  0.7818609E-02  0.8479029E-01
       -1   -1    0    0    0  501  0.00000000000E+00  0.00000000000E+00  0.90144253980E+03  0.90144253982E+03  0.50400001928E-02 0.  1.
        1   -1    0    0  501    0  0.00000000000E+00  0.00000000000E+00 -0.14635134814E+04  0.14635134814E+04  0.50400001928E-02 0. -1.
    10030    2    1    2    0    0  0.00000000000E+00  0.00000000000E+00 -0.56207094159E+03  0.23649560212E+04  0.22971924688E+04 0.  0.
        1    1    3    3  502    0 -0.89672754535E+03  0.63969611901E+03  0.54053051672E+02  0.11028386771E+04  0.50400001928E-02 0.  1.
       -1    1    3    3    0  502  0.89672754535E+03 -0.63969611901E+03 -0.61612399326E+03  0.12621173441E+04  0.50400001928E-02 0. -1.
</event>
<event>
 5   0  0.1308224E-05  0.2362993E+04  0.7818609E-02  0.8453490E-01
        1   -1    0    0  501    0  0.00000000000E+00  0.00000000000E+00  0.17282158387E+04  0.17282158387E+04  0.50400001928E-02 0. -1.
       -1   -1    0    0    0  501  0.00000000000E+00  0.00000000000E+00 -0.80773147748E+03  0.80773147749E+03  0.50400001928E-02 0.  1.
    10030    2    1    2    0    0  0.00000000000E+00  0.00000000000E+00  0.92048436121E+03  0.25359473162E+04  0.23629932990E+04 0.  0.
        5    1    3    3  502    0  0.41282543739E+03 -0.98969123859E+03 -0.72042664863E+02  0.10747678005E+04  0.46999998093E+01 0. -1.
       -5    1    3    3    0  502 -0.41282543739E+03  0.98969123859E+03  0.99252702608E+03  0.14611795157E+04  0.46999998093E+01 0.  1.
</event>
<event>
 5   0  0.2816178E-05  0.2288010E+04  0.7818609E-02  0.8482664E-01
       -2   -1    0    0    0  501  0.00000000000E+00  0.00000000000E+00  0.46845677071E+03  0.46845677071E+03  0.25500000920E-02 0. -1.
        2   -1    0    0  501    0  0.00000000000E+00  0.00000000000E+00 -0.27937409858E+04  0.27937409858E+04  0.25500000920E-02 0.  1.
    10030    2    1    2    0    0  0.00000000000E+00  0.00000000000E+00 -0.23252842150E+04  0.32621977565E+04  0.22880095108E+04 0.  0.
        1    1    3    3  502    0 -0.64610268680E+03  0.92228160639E+03 -0.87502009821E+03  0.14260828222E+04  0.50400001928E-02 0. -1.
       -1    1    3    3    0  502  0.64610268680E+03 -0.92228160639E+03 -0.14502641168E+04  0.18361149343E+04  0.50400001928E-02 0.  1.
</event>
<event>
 5   0  0.1284837E-05  0.2212989E+04  0.7818609E-02  0.8513041E-01
        1   -1    0    0  501    0  0.00000000000E+00  0.00000000000E+00  0.12213250761E+04  0.12213250762E+04  0.50400001928E-02 0. -1.
       -1   -1    0    0    0  501  0.00000000000E+00  0.00000000000E+00 -0.10024607771E+04  0.10024607771E+04  0.50400001928E-02 0.  1.
    10030    2    1    2    0    0  0.00000000000E+00  0.00000000000E+00  0.21886429906E+03  0.22237858533E+04  0.22129893673E+04 0.  0.
        4    1    3    3  502    0 -0.77772018042E+03 -0.11078002074E+03 -0.67360500783E+03  0.10348266577E+04  0.12699999809E+01 0.  1.
       -4    1    3    3    0  502  0.77772018042E+03  0.11078002074E+03  0.89246930689E+03  0.11889591955E+04  0.12699999809E+01 0. -1.
</event>
<event>
 5   0  0.2938972E-05  0.2289042E+04  0.7818609E-02  0.8482254E-01
        2   -1    0    0  501    0  0.00000000000E+00  0.00000000000E+00  0.16961333863E+04  0.16961333863E+04  0.25500000920E-02 0. -1.
       -2   -1    0    0    0  501  0.00000000000E+00  0.00000000000E+00 -0.77230259840E+03  0.77230259841E+03  0.25500000920E-02 0.  1.
    10030    2    1    2    0    0  0.00000000000E+00  0.00000000000E+00  0.92383078787E+03  0.24684359847E+04  0.22890419144E+04 0.  0.
        2    1    3    3  502    0 -0.10552229679E+04 -0.40106687865E+03  0.25851147962E+03  0.11580925430E+04  0.25500000920E-02 0.  1.
       -2    1    3    3    0  502  0.10552229679E+04  0.40106687865E+03  0.66531930824E+03  0.13103434416E+04  0.25500000920E-02 0. -1.
</event>
<event>
 5   0  0.1284837E-05  0.2288339E+04  0.7818609E-02  0.8482533E-01
        1   -1    0    0  501    0  0.00000000000E+00  0.00000000000E+00  0.13916366791E+04  0.13916366791E+04  0.50400001928E-02 0. -1.
       -1   -1    0    0    0  501  0.00000000000E+00  0.00000000000E+00 -0.94070784825E+03  0.94070784827E+03  0.50400001928E-02 0.  1.
    10030    2    1    2    0    0  0.00000000000E+00  0.00000000000E+00  0.45092883084E+03  0.23323445274E+04  0.22883387389E+04 0.  0.
        4    1    3    3  502    0  0.17507839399E+02 -0.56829973207E+03 -0.78652971252E+03  0.97051620877E+03  0.12699999809E+01 0.  1.
       -4    1    3    3    0  502 -0.17507839399E+02  0.56829973207E+03  0.12374585434E+04  0.13618283186E+04  0.12699999809E+01 0. -1.
</event>
<event>
 5   0  0.1327820E-05  0.2300412E+04  0.7818609E-02  0.8477759E-01
       -1   -1    0    0    0  501  0.00000000000E+00  0.00000000000E+00  0.10541300762E+04  0.10541300762E+04  0.50400001928E-02 0. -1.
        1   -1    0    0  501    0  0.00000000000E+00  0.00000000000E+00 -0.12550388276E+04  0.12550388276E+04  0.50400001928E-02 0.  1.
    10030    2    1    2    0    0  0.00000000000E+00  0.00000000000E+00 -0.20090875141E+03  0.23091689038E+04  0.23004122891E+04 0.  0.
        1    1    3    3  502    0 -0.10250589486E+04  0.17171436742E+03  0.39411011841E+03  0.11115549728E+04  0.50400001928E-02 0. -1.
       -1    1    3    3    0  502  0.10250589486E+04 -0.17171436742E+03 -0.59501886982E+03  0.11976139310E+04  0.50400001928E-02 0.  1.
</event>
<event>
 5   0  0.2910126E-05  0.2311040E+04  0.7818609E-02  0.8473581E-01
        2   -1    0    0  501    0  0.00000000000E+00  0.00000000000E+00  0.14085926821E+04  0.14085926821E+04  0.25500000920E-02 0. -1.
       -2   -1    0    0    0  501  0.00000000000E+00  0.00000000000E+00 -0.94791527417E+03  0.94791527418E+03  0.25500000920E-02 0.  1.
    10030    2    1    2    0    0  0.00000000000E+00  0.00000000000E+00  0.46067740790E+03  0.23565079563E+04  0.23110400416E+04 0.  0.
        5    1    3    3  502    0 -0.65384662133E+03  0.88408869431E+03 -0.13171917572E+03  0.11074747197E+04  0.46999998093E+01 0.  1.
       -5    1    3    3    0  502  0.65384662133E+03 -0.88408869431E+03  0.59239658362E+03  0.12490332365E+04  0.46999998093E+01 0. -1.
</event>
<event>
 5   0  0.1371753E-05  0.2282258E+04  0.7818609E-02  0.8484950E-01
       -1   -1    0    0    0  501  0.00000000000E+00  0.00000000000E+00  0.75929010937E+03  0.75929010939E+03  0.50400001928E-02 0. -1.
        1   -1    0    0  501    0  0.00000000000E+00  0.00000000000E+00 -0.17149902543E+04  0.17149902543E+04  0.50400001928E-02 0.  1.
    10030    2    1    2    0    0  0.00000000000E+00  0.00000000000E+00 -0.95570014488E+03  0.24742803637E+04  0.22822577749E+04 0.  0.
        3    1    3    3  502    0 -0.99894773579E+02 -0.28753695436E+02 -0.17098465231E+04  0.17130034687E+04  0.10100000352E+00 0.  1.
       -3    1    3    3    0  502  0.99894773579E+02  0.28753695436E+02  0.75414637826E+03  0.76127689498E+03  0.10100000352E+00 0. -1.
</event>
<event>
 5   0  0.1308224E-05  0.2301137E+04  0.7818609E-02  0.8477473E-01
        1   -1    0    0  501    0  0.00000000000E+00  0.00000000000E+00  0.12443237271E+04  0.12443237271E+04  0.50400001928E-02 0. -1.
       -1   -1    0    0    0  501  0.00000000000E+00  0.00000000000E+00 -0.10638777307E+04  0.10638777308E+04  0.50400001928E-02 0.  1.
    10030    2    1    2    0    0  0.00000000000E+00  0.00000000000E+00  0.18044599633E+03  0.23082014578E+04  0.23011373736E+04 0.  0.
        5    1    3    3  502    0  0.59014386233E+02  0.43320057601E+03  0.11577460486E+04  0.12375554290E+04  0.46999998093E+01 0. -1.
       -5    1    3    3    0  502 -0.59014386233E+02 -0.43320057601E+03 -0.97730005228E+03  0.10706460288E+04  0.46999998093E+01 0.  1.
</event>
<event>
 5   0  0.2938972E-05  0.2230788E+04  0.7818609E-02  0.8505722E-01
       -2   -1    0    0    0  501  0.00000000000E+00  0.00000000000E+00  0.13348371958E+04  0.13348371958E+04  0.25500000920E-02 0. -1.
        2   -1    0    0  501    0  0.00000000000E+00  0.00000000000E+00 -0.93202629498E+03  0.93202629499E+03  0.25500000920E-02 0.  1.
    10030    2    1    2    0    0  0.00000000000E+00  0.00000000000E+00  0.40281090079E+03  0.22668634908E+04  0.22307876331E+04 0.  0.
        2    1    3    3  502    0 -0.44588949629E+03 -0.84267653071E+03 -0.38690641198E+03  0.10288915151E+04  0.25500000920E-02 0.  1.
       -2    1    3    3    0  502  0.44588949629E+03  0.84267653071E+03  0.78971731277E+03  0.12379719756E+04  0.25500000920E-02 0. -1.
</event>
<event>
 5   0  0.2994157E-05  0.2325705E+04  0.7818609E-02  0.8467855E-01
       -2   -1    0    0    0  501  0.00000000000E+00  0.00000000000E+00  0.99830568494E+03  0.99830568495E+03  0.25500000920E-02 0.  1.
        2   -1    0    0  501    0  0.00000000000E+00  0.00000000000E+00 -0.13545206512E+04  0.13545206512E+04  0.25500000920E-02 0. -1.
    10030    2    1    2    0    0  0.00000000000E+00  0.00000000000E+00 -0.35621496630E+03  0.23528263362E+04  0.23257047676E+04 0.  0.
        4    1    3    3  502    0 -0.93173901391E+03  0.54659903571E+03 -0.61361103247E+03  0.12423478611E+04  0.12699999809E+01 0.  1.
       -4    1    3    3    0  502  0.93173901391E+03 -0.54659903571E+03  0.25739606617E+03  0.11104784751E+04  0.12699999809E+01 0. -1.
</event>
<event>
 5   0  0.1371753E-05  0.2292364E+04  0.7818609E-02  0.8480938E-01
        1   -1    0    0  501    0  0.00000000000E+00  0.00000000000E+00  0.12536167154E+04  0.12536167154E+04  0.50400001928E-02 0. -1.
       -1   -1    0    0    0  501  0.00000000000E+00  0.00000000000E+00 -0.10479542920E+04  0.10479542920E+04  0.50400001928E-02 0.  1.
    10030    2    1    2    0    0  0.00000000000E+00  0.00000000000E+00  0.20566242344E+03  0.23015710074E+04  0.22923638606E+04 0.  0.
        3    1    3    3  502    0  0.11165310443E+04  0.24426749007E+03  0.16317685345E+02  0.11430548791E+04  0.10100000352E+00 0.  1.
       -3    1    3    3    0  502 -0.11165310443E+04 -0.24426749007E+03  0.18934473810E+03  0.11585161283E+04  0.10100000352E+00 0. -1.
</event>
<event>
 5   0  0.2938972E-05  0.2296800E+04  0.7818609E-02  0.8479184E-01
        2   -1    0    0  501    0  0.00000000000E+00  0.00000000000E+00  0.11436697774E+04  0.11436697774E+04  0.25500000920E-02 0. -1.
       -2   -1    0    0    0  501  0.00000000000E+00  0.00000000000E+00 -0.11531502590E+04  0.11531502590E+04  0.25500000920E-02 0.  1.
    10030    2    1    2    0    0  0.00000000000E+00  0.00000000000E+00 -0.94804816516E+01  0.22968200364E+04  0.22968004702E+04 0.  0.
        2    1    3    3  502    0  0.72749350841E+03  0.71040624451E+03  0.52902386160E+03  0.11462068239E+04  0.25500000920E-02 0. -1.
       -2    1    3    3    0  502 -0.72749350841E+03 -0.71040624451E+03 -0.53850434325E+03  0.11506132125E+04  0.25500000920E-02 0.  1.
</event>
<event>
 5   0  0.2994157E-05  0.2302619E+04  0.7818609E-02  0.8476889E-01
        2   -1    0    0  501    0  0.00000000000E+00  0.00000000000E+00  0.22429307650E+04  0.22429307650E+04  0.25500000920E-02 0.  1.
       -2   -1    0    0    0  501  0.00000000000E+00  0.00000000000E+00 -0.59097394132E+03  0.59097394133E+03  0.25500000920E-02 0. -1.
    10030    2    1    2    0    0  0.00000000000E+00  0.00000000000E+00  0.16519568237E+04  0.28339047063E+04  0.23026190604E+04 0.  0.
        4    1    3    3  502    0 -0.53335444808E+03 -0.70297167910E+03  0.17361170016E+04  0.19474958292E+04  0.12699999809E+01 0.  1.
       -4    1    3    3    0  502  0.53335444808E+03  0.70297167910E+03 -0.84160177901E+02  0.88640887707E+03  0.12699999809E+01 0. -1.
</event>
<event>
 5   0  0.2871888E-05  0.2302954E+04  0.7818609E-02  0.8476757E-01
        2   -1    0    0  501    0  0.00000000000E+00  0.00000000000E+00  0.14347206930E+04  0.14347206930E+04  0.25500000920E-02 0.  1.
       -2   -1    0    0    0  501  0.00000000000E+00  0.00000000000E+00 -0.92415180776E+03  0.92415180777E+03  0.25500000920E-02 0. -1.
    10030    2    1    2    0    0  0.00000000000E+00  0.00000000000E+00  0.51056888519E+03  0.23588725007E+04  0.23029543826E+04 0.  0.
        3    1    3    3  502    0  0.30105501127E+03 -0.23827186601E+03  0.13672273056E+04  0.14201120087E+04  0.10100000352E+00 0.  1.
       -3    1    3    3    0  502 -0.30105501127E+03  0.23827186601E+03 -0.85665842039E+03  0.93876049202E+03  0.10100000352E+00 0. -1.
</event>
<event>
 5   0  0.1308224E-05  0.2363458E+04  0.7818609E-02  0.8453312E-01
       -1   -1    0    0    0  501  0.00000000000E+00  0.00000000000E+00  0.12185987230E+04  0.12185987230E+04  0.50400001928E-02 0.  1.
        1   -1    0    0  501    0  0.00000000000E+00  0.00000000000E+00 -0.11459750452E+04  0.11459750452E+04  0.50400001928E-02 0. -1.
    10030    2    1    2    0    0  0.00000000000E+00  0.00000000000E+00  0.72623677808E+02  0.23645737682E+04  0.23634582515E+04 0.  0.
        5    1    3    3  502    0  0.98974846920E+03  0.45797473536E+03  0.49162964675E+03  0.11962711608E+04  0.46999998093E+01 0.  1.
       -5    1    3    3    0  502 -0.98974846920E+03 -0.45797473536E+03 -0.41900596894E+03  0.11683026074E+04  0.46999998093E+01 0. -1.
</event>
<event>
 5   0  0.2938972E-05  0.2325201E+04  0.7818609E-02  0.8468051E-01
       -2   -1    0    0    0  501  0.00000000000E+00  0.00000000000E+00  0.12046468932E+04  0.12046468932E+04  0.25500000920E-02 0. -1.
        2   -1    0    0  501    0  0.00000000000E+00  0.00000000000E+00 -0.11220216500E+04  0.11220216500E+04  0.25500000920E-02 0.  1.
    10030    2    1    2    0    0  0.00000000000E+00  0.00000000000E+00  0.82625243224E+02  0.23266685432E+04  0.23252009761E+04 0.  0.
        2    1    3    3  502    0  0.62385578948E+03 -0.83368058527E+03 -0.47614095674E+03  0.11449583289E+04  0.25500000920E-02 0. -1.
       -2    1    3    3    0  502 -0.62385578948E+03  0.83368058527E+03  0.55876619996E+03  0.11817102143E+04  0.25500000920E-02 0.  1.
</event>
<event>
 5   0  0.1017200E-05  0.2304477E+04  0.7818609E-02  0.8476158E-01
       -3   -1    0    0    0  501  0.00000000000E+00  0.00000000000E+00  0.17158326771E+04  0.17158326800E+04  0.10100000352E+00 0. -1.
        3   -1    0    0  501    0  0.00000000000E+00  0.00000000000E+00 -0.77376645963E+03  0.77376646622E+03  0.10100000352E+00 0.  1.
    10030    2    1    2    0    0  0.00000000000E+00  0.00000000000E+00  0.94206621743E+03  0.24895991463E+04  0.23044771969E+04 0.  0.
        3    1    3    3  502    0  0.34571267826E+03  0.10819488674E+04  0.68030301093E+03  0.13239874639E+04  0.10100000352E+00 0. -1.
       -3    1    3    3    0  502 -0.34571267826E+03 -0.10819488674E+04  0.26176320649E+03  0.11656116824E+04  0.10100000352E+00 0.  1.
</event>
<event>
 5   0  0.1284837E-05  0.2306135E+04  0.7818609E-02  0.8475506E-01
        1   -1    0    0  501    0  0.00000000000E+00  0.00000000000E+00  0.14963055143E+04  0.14963055143E+04  0.50400001928E-02 0.  1.
       -1   -1    0    0    0  501  0.00000000000E+00  0.00000000000E+00 -0.88856477798E+03  0.88856477800E+03  0.50400001928E-02 0. -1.
    10030    2    1    2    0    0  0.00000000000E+00  0.00000000000E+00  0.60774073629E+03  0.23848702923E+04  0.23061347550E+04 0.  0.
        4    1    3    3  502    0 -0.25989336282E+02 -0.74589497451E+03 -0.60507378207E+03  0.96080729246E+03  0.12699999809E+01 0. -1.
       -4    1    3    3    0  502  0.25989336282E+02  0.74589497451E+03  0.12128145184E+04  0.14240629998E+04  0.12699999809E+01 0.  1.
</event>
<event>
 5   0  0.2938972E-05  0.2295231E+04  0.7818609E-02  0.8479804E-01
       -2   -1    0    0    0  501  0.00000000000E+00  0.00000000000E+00  0.79181226622E+03  0.79181226623E+03  0.25500000920E-02 0.  1.
        2   -1    0    0  501    0  0.00000000000E+00  0.00000000000E+00 -0.16633002180E+04  0.16633002180E+04  0.25500000920E-02 0. -1.
    10030    2    1    2    0    0  0.00000000000E+00  0.00000000000E+00 -0.87148795182E+03  0.24551124843E+04  0.22952311562E+04 0.  0.
        2    1    3    3  502    0  0.38731962418E+03 -0.66428749696E+03 -0.13469816106E+04  0.15510170306E+04  0.25500000920E-02 0. -1.
       -2    1    3    3    0  502 -0.38731962418E+03  0.66428749696E+03  0.47549365875E+03  0.90409545371E+03  0.25500000920E-02 0.  1.
</event>
<event>
 5   0  0.1308224E-05  0.2285452E+04  0.7818609E-02  0.8483679E-01
        1   -1    0    0  501    0  0.00000000000E+00  0.00000000000E+00  0.17376363968E+04  0.17376363969E+04  0.50400001928E-02 0.  1.
       -1   -1    0    0    0  501  0.00000000000E+00  0.00000000000E+00 -0.75149351922E+03  0.75149351924E+03  0.50400001928E-02 0. -1.
    10030    2    1    2    0    0  0.00000000000E+00  0.00000000000E+00  0.98614287762E+03  0.24891299161E+04  0.22854518074E+04 0.  0.
        5    1    3    3  502    0 -0.10099129936E+04 -0.48578374765E+03  0.24980424761E+03  0.11481874221E+04  0.46999998093E+01 0. -1.
       -5    1    3    3    0  502  0.10099129936E+04  0.48578374765E+03  0.73633863001E+03  0.13409424940E+04  0.46999998093E+01 0.  1.
</event>
<event>
 5   0  0.1308224E-05  0.2253237E+04  0.7818609E-02  0.8496591E-01
       -1   -1    0    0    0  501  0.00000000000E+00  0.00000000000E+00  0.10266422167E+04  0.10266422167E+04  0.50400001928E-02 0. -1.
        1   -1    0    0  501    0  0.00000000000E+00  0.00000000000E+00 -0.12363307237E+04  0.12363307237E+04  0.50400001928E-02 0.  1.
    10030    2    1    2    0    0  0.00000000000E+00  0.00000000000E+00 -0.20968850699E+03  0.22629729405E+04  0.22532370624E+04 0.  0.
        5    1    3    3  502    0  0.49867238706E+03 -0.84242368650E+03  0.45514491686E+03  0.10795975188E+04  0.46999998093E+01 0. -1.
       -5    1    3    3    0  502 -0.49867238706E+03  0.84242368650E+03 -0.66483342385E+03  0.11833754217E+04  0.46999998093E+01 0.  1.
</event>
<event>
 5   0  0.1371753E-05  0.2294819E+04  0.7818609E-02  0.8479967E-01
        1   -1    0    0  501    0  0.00000000000E+00  0.00000000000E+00  0.10177417945E+04  0.10177417945E+04  0.50400001928E-02 0.  1.
       -1   -1    0    0    0  501  0.00000000000E+00  0.00000000000E+00 -0.12935981571E+04  0.12935981571E+04  0.50400001928E-02 0. -1.
    10030    2    1    2    0    0  0.00000000000E+00  0.00000000000E+00 -0.27585636260E+03  0.23113399517E+04  0.22948193043E+04 0.  0.
        3    1    3    3  502    0  0.10593210965E+04 -0.36636363401E+03 -0.38498039079E+03  0.11851554368E+04  0.10100000352E+00 0.  1.
       -3    1    3    3    0  502 -0.10593210965E+04  0.36636363401E+03  0.10912402819E+03  0.11261845149E+04  0.10100000352E+00 0. -1.
</event>
<event>
 5   0  0.1303224E-05  0.2289928E+04  0.7818609E-02  0.8481903E-01
        1   -1    0    0  501    0  0.00000000000E+00  0.00000000000E+00  0.14124805344E+04  0.14124805344E+04  0.50400001928E-02 0. -1.
       -1   -1    0    0    0  501  0.00000000000E+00  0.00000000000E+00 -0.92811355495E+03  0.92811355497E+03  0.50400001928E-02 0.  1.
    10030    2    1    2    0    0  0.00000000000E+00  0.00000000000E+00  0.48436697945E+03  0.23405940894E+04  0.22899277981E+04 0.  0.
        2    1    3    3  502    0  0.31909440907E+03 -0.15176492427E+01 -0.88174530810E+03  0.93770908790E+03  0.25500000920E-02 0.  1.
       -2    1    3    3    0  502 -0.31909440907E+03  0.15176492427E+01  0.13661122876E+04  0.14028850015E+04  0.25500000920E-02 0. -1.
</event>
<event>
 5   0  0.2910126E-05  0.2125955E+04  0.7818609E-02  0.8549895E-01
       -2   -1    0    0    0  501  0.00000000000E+00  0.00000000000E+00  0.40914368459E+03  0.40914368460E+03  0.25500000920E-02 0.  1.
        2   -1    0    0  501    0  0.00000000000E+00  0.00000000000E+00 -0.27616727936E+04  0.27616727936E+04  0.25500000920E-02 0. -1.
    10030    2    1    2    0    0  0.00000000000E+00  0.00000000000E+00 -0.23525291090E+04  0.31708164782E+04  0.21259548278E+04 0.  0.
        5    1    3    3  502    0 -0.63436328222E+03  0.22747862651E+02 -0.24479324920E+04  0.25288989332E+04  0.46999998093E+01 0. -1.
       -5    1    3    3    0  502  0.63436328222E+03 -0.22747862651E+02  0.95403382966E+02  0.64191754499E+03  0.46999998093E+01 0.  1.
</event>
<event>
 5   0  0.1284837E-05  0.2300437E+04  0.7818609E-02  0.8477749E-01
       -1   -1    0    0    0  501  0.00000000000E+00  0.00000000000E+00  0.89042211618E+03  0.89042211619E+03  0.50400001928E-02 0. -1.
        1   -1    0    0  501    0  0.00000000000E+00  0.00000000000E+00 -0.14858151149E+04  0.14858151149E+04  0.50400001928E-02 0.  1.
    10030    2    1    2    0    0  0.00000000000E+00  0.00000000000E+00 -0.59539299871E+03  0.23762372311E+04  0.23004370358E+04 0.  0.
        4    1    3    3  502    0  0.80588032566E+03  0.76087663966E+03  0.20050622091E+02  0.11085034959E+04  0.12699999809E+01 0. -1.
       -4    1    3    3    0  502 -0.80588032566E+03 -0.76087663966E+03 -0.61544362081E+03  0.12677337352E+04  0.12699999809E+01 0.  1.
</event>
<event>
 5   0  0.1308224E-05  0.2287891E+04  0.7818609E-02  0.8482711E-01
       -1   -1    0    0    0  501  0.00000000000E+00  0.00000000000E+00  0.59373468258E+03  0.59373468260E+03  0.50400001928E-02 0.  1.
        1   -1    0    0  501    0  0.00000000000E+00  0.00000000000E+00 -0.22040332591E+04  0.22040332591E+04  0.50400001928E-02 0. -1.
    10030    2    1    2    0    0  0.00000000000E+00  0.00000000000E+00 -0.16102985766E+04  0.27977679417E+04  0.22878907208E+04 0.  0.
        5    1    3    3  502    0  0.62065824598E+03 -0.10868154926E+03 -0.19726823186E+04  0.20708756499E+04  0.46999998093E+01 0. -1.
       -5    1    3    3    0  502 -0.62065824598E+03  0.10868154926E+03  0.36238374200E+03  0.72689229182E+03  0.46999998093E+01 0.  1.
</event>
<event>
 5   0  0.2938972E-05  0.2303211E+04  0.7818609E-02  0.8476656E-01
        2   -1    0    0  501    0  0.00000000000E+00  0.00000000000E+00  0.10271147181E+04  0.10271147181E+04  0.25500000920E-02 0.  1.
       -2   -1    0    0    0  501  0.00000000000E+00  0.00000000000E+00 -0.12911855260E+04  0.12911855260E+04  0.25500000920E-02 0. -1.
    10030    2    1    2    0    0  0.00000000000E+00  0.00000000000E+00 -0.26407080790E+03  0.23183002442E+04  0.23032113734E+04 0.  0.
        2    1    3    3  502    0 -0.72598586654E+03  0.26197802632E+03  0.72826134444E+03  0.10611562328E+04  0.25500000920E-02 0.  1.
       -2    1    3    3    0  502  0.72598586654E+03 -0.26197802632E+03 -0.99233215233E+03  0.12571440113E+04  0.25500000920E-02 0. -1.
</event>
<event>
 5   0  0.1303224E-05  0.2314709E+04  0.7818609E-02  0.8472144E-01
        1   -1    0    0  501    0  0.00000000000E+00  0.00000000000E+00  0.19965370016E+04  0.19965370016E+04  0.50400001928E-02 0. -1.
       -1   -1    0    0    0  501  0.00000000000E+00  0.00000000000E+00 -0.67089624695E+03  0.67089624697E+03  0.50400001928E-02 0.  1.
    10030    2    1    2    0    0  0.00000000000E+00  0.00000000000E+00  0.13256407546E+04  0.26674332486E+04  0.23147087776E+04 0.  0.
        2    1    3    3  502    0  0.49251636550E+03  0.43377793945E+03  0.17613593611E+04  0.18796602006E+04  0.25500000920E-02 0. -1.
       -2    1    3    3    0  502 -0.49251636550E+03 -0.43377793945E+03 -0.43571860643E+03  0.78777304793E+03  0.25500000920E-02 0.  1.
</event>
<event>
 5   0  0.2910126E-05  0.2274348E+04  0.7818609E-02  0.8488104E-01
        2   -1    0    0  501    0  0.00000000000E+00  0.00000000000E+00  0.16518498328E+04  0.16518498328E+04  0.25500000920E-02 0. -1.
       -2   -1    0    0    0  501  0.00000000000E+00  0.00000000000E+00 -0.78285876298E+03  0.78285876298E+03  0.25500000920E-02 0.  1.
    10030    2    1    2    0    0  0.00000000000E+00  0.00000000000E+00  0.86899106985E+03  0.24347085958E+04  0.22743483610E+04 0.  0.
        5    1    3    3  502    0  0.93242260355E+03  0.65039783876E+03  0.40589540030E+03  0.12071463980E+04  0.46999998093E+01 0. -1.
       -5    1    3    3    0  502 -0.93242260355E+03 -0.65039783876E+03  0.46309566955E+03  0.12275621978E+04  0.46999998093E+01 0.  1.
</event>
<event>
 5   0  0.1327820E-05  0.2281284E+04  0.7818609E-02  0.8485337E-01
        1   -1    0    0  501    0  0.00000000000E+00  0.00000000000E+00  0.21219069068E+04  0.21219069068E+04  0.50400001928E-02 0. -1.
       -1   -1    0    0    0  501  0.00000000000E+00  0.00000000000E+00 -0.61315778922E+03  0.61315778924E+03  0.50400001928E-02 0.  1.
    10030    2    1    2    0    0  0.00000000000E+00  0.00000000000E+00  0.15087491176E+04  0.27350646960E+04  0.22812836281E+04 0.  0.
        1    1    3    3  502    0 -0.72256037093E+03 -0.64539152437E+03  0.14761571515E+04  0.17656906992E+04  0.50400001928E-02 0. -1.
       -1    1    3    3    0  502  0.72256037093E+03  0.64539152437E+03  0.32591966045E+02  0.96937399678E+03  0.50400001928E-02 0.  1.
</event>
<event>
 5   0  0.2871888E-05  0.2306338E+04  0.7818609E-02  0.8475426E-01
        2   -1    0    0  501    0  0.00000000000E+00  0.00000000000E+00  0.10848637839E+04  0.10848637839E+04  0.25500000920E-02 0. -1.
       -2   -1    0    0    0  501  0.00000000000E+00  0.00000000000E+00 -0.12257750950E+04  0.12257750950E+04  0.25500000920E-02 0.  1.
    10030    2    1    2    0    0  0.00000000000E+00  0.00000000000E+00 -0.14091131105E+03  0.23106388789E+04  0.23063382300E+04 0.  0.
        3    1    3    3  502    0 -0.37928359903E+03  0.32956041773E+03 -0.11103375960E+04  0.12187352890E+04  0.10100000352E+00 0.  1.
       -3    1    3    3    0  502  0.37928359903E+03 -0.32956041773E+03  0.96942628494E+03  0.10919035899E+04  0.10100000352E+00 0. -1.
</event>
<event>
 5   0  0.2910126E-05  0.2294942E+04  0.7818609E-02  0.8479918E-01
       -2   -1    0    0    0  501  0.00000000000E+00  0.00000000000E+00  0.88505746221E+03  0.88505746221E+03  0.25500000920E-02 0. -1.
        2   -1    0    0  501    0  0.00000000000E+00  0.00000000000E+00 -0.14876877816E+04  0.14876877816E+04  0.25500000920E-02 0.  1.
    10030    2    1    2    0    0  0.00000000000E+00  0.00000000000E+00 -0.60263031937E+03  0.23727452438E+04  0.22949415439E+04 0.  0.
        5    1    3    3  502    0 -0.33219024122E+02  0.41937494515E+03  0.80243941384E+03  0.90604081093E+03  0.46999998093E+01 0. -1.
       -5    1    3    3    0  502  0.33219024122E+02 -0.41937494515E+03 -0.14050697332E+04  0.14667044329E+04  0.46999998093E+01 0.  1.
</event>
<event>
 5   0  0.1327820E-05  0.2275455E+04  0.7818609E-02  0.8487662E-01
        1   -1    0    0  501    0  0.00000000000E+00  0.00000000000E+00  0.10579514666E+04  0.10579514666E+04  0.50400001928E-02 0.  1.
       -1   -1    0    0    0  501  0.00000000000E+00  0.00000000000E+00 -0.12235188219E+04  0.12235188219E+04  0.50400001928E-02 0. -1.
    10030    2    1    2    0    0  0.00000000000E+00  0.00000000000E+00 -0.16556735531E+03  0.22814702885E+04  0.22754547080E+04 0.  0.
        1    1    3    3  502    0 -0.45729437819E+03  0.97043396938E+03 -0.46268283498E+03  0.11683046020E+04  0.50400001928E-02 0. -1.
       -1    1    3    3    0  502  0.45729437819E+03 -0.97043396938E+03  0.29711547967E+03  0.11131656865E+04  0.50400001928E-02 0.  1.
</event>
<event>
 5   0  0.2938972E-05  0.2288659E+04  0.7818609E-02  0.8482406E-01
        2   -1    0    0  501    0  0.00000000000E+00  0.00000000000E+00  0.27351561746E+04  0.27351561746E+04  0.25500000920E-02 0. -1.
       -2   -1    0    0    0  501  0.00000000000E+00  0.00000000000E+00 -0.47876250172E+03  0.47876250172E+03  0.25500000920E-02 0.  1.
    10030    2    1    2    0    0  0.00000000000E+00  0.00000000000E+00  0.22563936729E+04  0.32139186763E+04  0.22886591819E+04 0.  0.
        2    1    3    3  502    0 -0.31508278945E+03  0.35376489691E+03 -0.33459095112E+03  0.57998092302E+03  0.25500000920E-02 0.  1.
       -2    1    3    3    0  502  0.31508278945E+03 -0.35376489691E+03  0.25909846240E+04  0.26339377533E+04  0.25500000920E-02 0. -1.
</event>
<event>
 5   0  0.2910126E-05  0.2290463E+04  0.7818609E-02  0.8481691E-01
        2   -1    0    0  501    0  0.00000000000E+00  0.00000000000E+00  0.14531057994E+04  0.14531057994E+04  0.25500000920E-02 0.  1.
       -2   -1    0    0    0  501  0.00000000000E+00  0.00000000000E+00 -0.90258725455E+03  0.90258725456E+03  0.25500000920E-02 0. -1.
    10030    2    1    2    0    0  0.00000000000E+00  0.00000000000E+00  0.55051854485E+03  0.23556930540E+04  0.22904626380E+04 0.  0.
        5    1    3    3  502    0 -0.66284978247E+03  0.93384444477E+03  0.26510891182E+03  0.11754744175E+04  0.46999998093E+01 0.  1.
       -5    1    3    3    0  502  0.66284978247E+03 -0.93384444477E+03  0.28540963303E+03  0.11802186364E+04  0.46999998093E+01 0. -1.
</event>
<event>
 5   0  0.1303224E-05  0.2323669E+04  0.7818609E-02  0.8468647E-01
        1   -1    0    0  501    0  0.00000000000E+00  0.00000000000E+00  0.11477986177E+04  0.11477986177E+04  0.50400001928E-02 0. -1.
       -1   -1    0    0    0  501  0.00000000000E+00  0.00000000000E+00 -0.11760416179E+04  0.11760416179E+04  0.50400001928E-02 0.  1.
    10030    2    1    2    0    0  0.00000000000E+00  0.00000000000E+00 -0.28243000286E+02  0.23238402356E+04  0.23236686024E+04 0.  0.
        2    1    3    3  502    0 -0.59874919325E+03 -0.64753404305E+03  0.74227953177E+03  0.11527271302E+04  0.25500000920E-02 0. -1.
       -2    1    3    3    0  502  0.59874919325E+03  0.64753404305E+03 -0.77052253206E+03  0.11711131054E+04  0.25500000920E-02 0.  1.
</event>
<event>
 5   0  0.2910126E-05  0.2294376E+04  0.7818609E-02  0.8480142E-01
        2   -1    0    0  501    0  0.00000000000E+00  0.00000000000E+00  0.11649011956E+04  0.11649011956E+04  0.25500000920E-02 0.  1.
       -2   -1    0    0    0  501  0.00000000000E+00  0.00000000000E+00 -0.11297439837E+04  0.11297439837E+04  0.25500000920E-02 0. -1.
    10030    2    1    2    0    0  0.00000000000E+00  0.00000000000E+00  0.35157211893E+02  0.22946451792E+04  0.22943758343E+04 0.  0.
        5    1    3    3  502    0  0.15277106852E+03  0.14248800544E+03  0.11457075663E+04  0.11646071220E+04  0.46999998093E+01 0.  1.
       -5    1    3    3    0  502 -0.15277106852E+03 -0.14248800544E+03 -0.11105503544E+04  0.11300380572E+04  0.46999998093E+01 0. -1.
</event>
<event>
 5   0  0.1284837E-05  0.2293939E+04  0.7818609E-02  0.8480315E-01
        1   -1    0    0  501    0  0.00000000000E+00  0.00000000000E+00  0.20280469042E+04  0.20280469042E+04  0.50400001928E-02 0. -1.
       -1   -1    0    0    0  501  0.00000000000E+00  0.00000000000E+00 -0.64867268784E+03  0.64867268786E+03  0.50400001928E-02 0.  1.
    10030    2    1    2    0    0  0.00000000000E+00  0.00000000000E+00  0.13793742164E+04  0.26767195921E+04  0.22939386535E+04 0.  0.
        4    1    3    3  502    0  0.88059542679E+02 -0.10940102441E+03  0.20179755844E+04  0.20228569251E+04  0.12699999809E+01 0. -1.
       -4    1    3    3    0  502 -0.88059542679E+02  0.10940102441E+03 -0.63860136801E+03  0.65386266702E+03  0.12699999809E+01 0.  1.
</event>
<event>
 5   0  0.1308224E-05  0.2308212E+04  0.7818609E-02  0.8474690E-01
       -1   -1    0    0    0  501  0.00000000000E+00  0.00000000000E+00  0.96563367393E+03  0.96563367394E+03  0.50400001928E-02 0. -1.
        1   -1    0    0  501    0  0.00000000000E+00  0.00000000000E+00 -0.13793648758E+04  0.13793648758E+04  0.50400001928E-02 0.  1.
    10030    2    1    2    0    0  0.00000000000E+00  0.00000000000E+00 -0.41373120188E+03  0.23449985498E+04  0.23082124449E+04 0.  0.
        5    1    3    3  502    0 -0.24027552692E+03  0.99843507449E+03  0.32815250567E+03  0.10781053213E+04  0.46999998093E+01 0. -1.
       -5    1    3    3    0  502  0.24027552692E+03 -0.99843507449E+03 -0.74188370755E+03  0.12668932285E+04  0.46999998093E+01 0.  1.
</event>
<event>
 5   0  0.1308224E-05  0.2361719E+04  0.7818609E-02  0.8453976E-01
       -1   -1    0    0    0  501  0.00000000000E+00  0.00000000000E+00  0.11528168527E+04  0.11528168528E+04  0.50400001928E-02 0.  1.
        1   -1    0    0  501    0  0.00000000000E+00  0.00000000000E+00 -0.12095844779E+04  0.12095844779E+04  0.50400001928E-02 0. -1.
    10030    2    1    2    0    0  0.00000000000E+00  0.00000000000E+00 -0.56767625153E+02  0.23624013307E+04  0.23617191797E+04 0.  0.
        5    1    3    3  502    0  0.18491304654E+02  0.67999041612E+03  0.93712986934E+03  0.11579997307E+04  0.46999998093E+01 0.  1.
       -5    1    3    3    0  502 -0.18491304654E+02 -0.67999041612E+03 -0.99389749449E+03  0.12044015999E+04  0.46999998093E+01 0. -1.
</event>
<event>
 5   0  0.1017200E-05  0.2302914E+04  0.7818609E-02  0.8476773E-01
        3   -1    0    0  501    0  0.00000000000E+00  0.00000000000E+00  0.25704990102E+04  0.25704990122E+04  0.10100000352E+00 0.  1.
       -3   -1    0    0    0  501  0.00000000000E+00  0.00000000000E+00 -0.51579597793E+03  0.51579598782E+03  0.10100000352E+00 0. -1.
    10030    2    1    2    0    0  0.00000000000E+00  0.00000000000E+00  0.20547030323E+04  0.30862950000E+04  0.23029138664E+04 0.  0.
        5    1    3    3  502    0  0.80930898211E+03 -0.78159702975E+03  0.69919866067E+03  0.13246795094E+04  0.46999998093E+01 0. -1.
       -5    1    3    3    0  502 -0.80930898211E+03  0.78159702975E+03  0.13555043716E+04  0.17616154906E+04  0.46999998093E+01 0.  1.
</event>
<event>
 5   0  0.2871888E-05  0.2307637E+04  0.7818609E-02  0.8474916E-01
        2   -1    0    0  501    0  0.00000000000E+00  0.00000000000E+00  0.21911496204E+04  0.21911496204E+04  0.25500000920E-02 0. -1.
       -2   -1    0    0    0  501  0.00000000000E+00  0.00000000000E+00 -0.60757947117E+03  0.60757947117E+03  0.25500000920E-02 0.  1.
    10030    2    1    2    0    0  0.00000000000E+00  0.00000000000E+00  0.15835701493E+04  0.27987290916E+04  0.23076373438E+04 0.  0.
        3    1    3    3  502    0  0.57175161042E+02  0.87674311659E+03 -0.11527308611E+03  0.88613508344E+03  0.10100000352E+00 0.  1.
       -3    1    3    3    0  502 -0.57175161042E+02 -0.87674311659E+03  0.16988432354E+04  0.19125940082E+04  0.10100000352E+00 0. -1.
</event>
<event>
 5   0  0.1308224E-05  0.2299581E+04  0.7818609E-02  0.8478086E-01
       -1   -1    0    0    0  501  0.00000000000E+00  0.00000000000E+00  0.84356819618E+03  0.84356819619E+03  0.50400001928E-02 0. -1.
        1   -1    0    0  501    0  0.00000000000E+00  0.00000000000E+00 -0.15671746986E+04  0.15671746986E+04  0.50400001928E-02 0.  1.
    10030    2    1    2    0    0  0.00000000000E+00  0.00000000000E+00 -0.72360650240E+03  0.24107428948E+04  0.22995814694E+04 0.  0.
        5    1    3    3  502    0 -0.29676990882E+03  0.93604061310E+03  0.26523390023E+03  0.10171605183E+04  0.46999998093E+01 0. -1.
       -5    1    3    3    0  502  0.29676990882E+03 -0.93604061310E+03 -0.98884040263E+03  0.13935823765E+04  0.46999998093E+01 0.  1.
</event>
<event>
 5   0  0.1308224E-05  0.2303903E+04  0.7818609E-02  0.8476384E-01
        1   -1    0    0  501    0  0.00000000000E+00  0.00000000000E+00  0.15774547058E+04  0.15774547058E+04  0.50400001928E-02 0.  1.
       -1   -1    0    0    0  501  0.00000000000E+00  0.00000000000E+00 -0.84122382420E+03  0.84122382421E+03  0.50400001928E-02 0. -1.
    10030    2    1    2    0    0  0.00000000000E+00  0.00000000000E+00  0.73623088157E+03  0.24186785300E+04  0.23039031925E+04 0.  0.
        5    1    3    3  502    0  0.68448492963E+03 -0.59048584074E+02  0.13388217362E+04  0.15048162963E+04  0.46999998093E+01 0.  1.
       -5    1    3    3    0  502 -0.68448492963E+03  0.59048584074E+02 -0.60259085462E+03  0.91386223374E+03  0.46999998093E+01 0. -1.
</event>
<event>
 5   0  0.2871888E-05  0.2310961E+04  0.7818609E-02  0.8473612E-01
        2   -1    0    0  501    0  0.00000000000E+00  0.00000000000E+00  0.25732393091E+04  0.25732393091E+04  0.25500000920E-02 0.  1.
       -2   -1    0    0    0  501  0.00000000000E+00  0.00000000000E+00 -0.51885406985E+03  0.51885406986E+03  0.25500000920E-02 0. -1.
    10030    2    1    2    0    0  0.00000000000E+00  0.00000000000E+00  0.20543852392E+04  0.30920933789E+04  0.23109614347E+04 0.  0.
        3    1    3    3  502    0 -0.11443838421E+04  0.99475034616E+02  0.85993571493E+03  0.14349212886E+04  0.10100000352E+00 0. -1.
       -3    1    3    3    0  502  0.11443838421E+04 -0.99475034616E+02  0.11944495243E+04  0.16571720903E+04  0.10100000352E+00 0.  1.
</event>
<event>
 5   0  0.2816178E-05  0.2297746E+04  0.7818609E-02  0.8478810E-01
        2   -1    0    0  501    0  0.00000000000E+00  0.00000000000E+00  0.22009618214E+04  0.22009618214E+04  0.25500000920E-02 0. -1.
       -2   -1    0    0    0  501  0.00000000000E+00  0.00000000000E+00 -0.59969637934E+03  0.59969637935E+03  0.25500000920E-02 0.  1.
    10030    2    1    2    0    0  0.00000000000E+00  0.00000000000E+00  0.16012654420E+04  0.28006582007E+04  0.22977457086E+04 0.  0.
        1    1    3    3  502    0 -0.11368677942E+04 -0.94718181964E+02  0.63498750612E+03  0.13056220925E+04  0.50400001928E-02 0.  1.
       -1    1    3    3    0  502  0.11368677942E+04  0.94718181964E+02  0.96627793592E+03  0.14950361082E+04  0.50400001928E-02 0. -1.
</event>
<event>
 5   0  0.2994157E-05  0.2267031E+04  0.7818609E-02  0.8491035E-01
       -2   -1    0    0    0  501  0.00000000000E+00  0.00000000000E+00  0.80015693690E+03  0.80015693690E+03  0.25500000920E-02 0. -1.
        2   -1    0    0  501    0  0.00000000000E+00  0.00000000000E+00 -0.16057568582E+04  0.16057568582E+04  0.25500000920E-02 0.  1.
    10030    2    1    2    0    0  0.00000000000E+00  0.00000000000E+00 -0.80559992132E+03  0.24059137951E+04  0.22670310885E+04 0.  0.
        4    1    3    3  502    0  0.44153135056E+03  0.95753043042E+03  0.38666402230E+02  0.10551356132E+04  0.12699999809E+01 0. -1.
       -4    1    3    3    0  502 -0.44153135056E+03 -0.95753043042E+03 -0.84426632355E+03  0.13507781819E+04  0.12699999809E+01 0.  1.
</event>
<event>
 5   0  0.1303224E-05  0.2308769E+04  0.7818609E-02  0.8474472E-01
        1   -1    0    0  501    0  0.00000000000E+00  0.00000000000E+00  0.12959419400E+04  0.12959419400E+04  0.50400001928E-02 0.  1.
       -1   -1    0    0    0  501  0.00000000000E+00  0.00000000000E+00 -0.10282897783E+04  0.10282897784E+04  0.50400001928E-02 0. -1.
    10030    2    1    2    0    0  0.00000000000E+00  0.00000000000E+00  0.26765216166E+03  0.23242317184E+04  0.23087692395E+04 0.  0.
        2    1    3    3  502    0 -0.10222534530E+04 -0.37383202800E+03 -0.25326354558E+03  0.11175396775E+04  0.25500000920E-02 0. -1.
       -2    1    3    3    0  502  0.10222534530E+04  0.37383202800E+03  0.52091570724E+03  0.12066920408E+04  0.25500000920E-02 0.  1.
</event>
<event>
 5   0  0.2910126E-05  0.2315385E+04  0.7818609E-02  0.8471880E-01
        2   -1    0    0  501    0  0.00000000000E+00  0.00000000000E+00  0.15245948074E+04  0.15245948074E+04  0.25500000920E-02 0.  1.
       -2   -1    0    0    0  501  0.00000000000E+00  0.00000000000E+00 -0.87908702548E+03  0.87908702549E+03  0.25500000920E-02 0. -1.
    10030    2    1    2    0    0  0.00000000000E+00  0.00000000000E+00  0.64550778188E+03  0.24036818329E+04  0.23153846456E+04 0.  0.
        5    1    3    3  502    0 -0.34412223126E+03  0.60235912487E+03  0.12849055603E+04  0.14602263572E+04  0.46999998093E+01 0.  1.
       -5    1    3    3    0  502  0.34412223126E+03 -0.60235912487E+03 -0.63939777846E+03  0.94345547562E+03  0.46999998093E+01 0. -1.
</event>
<event>
 5   0  0.1284837E-05  0.2297305E+04  0.7818609E-02  0.8478985E-01
       -1   -1    0    0    0  501  0.00000000000E+00  0.00000000000E+00  0.10154012648E+04  0.10154012648E+04  0.50400001928E-02 0.  1.
        1   -1    0    0  501    0  0.00000000000E+00  0.00000000000E+00 -0.12993900900E+04  0.12993900900E+04  0.50400001928E-02 0. -1.
    10030    2    1    2    0    0  0.00000000000E+00  0.00000000000E+00 -0.28398882519E+03  0.23147913549E+04  0.22973048043E+04 0.  0.
        4    1    3    3  502    0 -0.10265374106E+04  0.50937909008E+03 -0.22104292248E+03  0.11670936977E+04  0.12699999809E+01 0.  1.
       -4    1    3    3    0  502  0.10265374106E+04 -0.50937909008E+03 -0.62945902715E+02  0.11476976572E+04  0.12699999809E+01 0. -1.
</event>
<event>
 5   0  0.2816178E-05  0.2303250E+04  0.7818609E-02  0.8476641E-01
       -2   -1    0    0    0  501  0.00000000000E+00  0.00000000000E+00  0.10667952142E+04  0.10667952142E+04  0.25500000920E-02 0.  1.
        2   -1    0    0  501    0  0.00000000000E+00  0.00000000000E+00 -0.12432002127E+04  0.12432002127E+04  0.25500000920E-02 0. -1.
    10030    2    1    2    0    0  0.00000000000E+00  0.00000000000E+00 -0.17640499852E+03  0.23099954270E+04  0.23032499103E+04 0.  0.
        1    1    3    3  502    0  0.81457574398E+03  0.17249207351E+03 -0.88611587810E+03  0.12159311278E+04  0.50400001928E-02 0. -1.
       -1    1    3    3    0  502 -0.81457574398E+03 -0.17249207351E+03  0.70971087958E+03  0.10940642992E+04  0.50400001928E-02 0.  1.
</event>
<event>
 5   0  0.2910126E-05  0.2305752E+04  0.7818609E-02  0.8475657E-01
        2   -1    0    0  501    0  0.00000000000E+00  0.00000000000E+00  0.10893511836E+04  0.10893511836E+04  0.25500000920E-02 0.  1.
       -2   -1    0    0    0  501  0.00000000000E+00  0.00000000000E+00 -0.12201052461E+04  0.12201052461E+04  0.25500000920E-02 0. -1.
    10030    2    1    2    0    0  0.00000000000E+00  0.00000000000E+00 -0.13075406250E+03  0.23094564297E+04  0.23057520196E+04 0.  0.
        5    1    3    3  502    0  0.37634491882E+03  0.10028357076E+04 -0.49242577791E+03  0.11789063538E+04  0.46999998093E+01 0. -1.
       -5    1    3    3    0  502 -0.37634491882E+03 -0.10028357076E+04  0.36167171541E+03  0.11305500759E+04  0.46999998093E+01 0.  1.
</event>
<event>
 5   0  0.2938972E-05  0.2292982E+04  0.7818609E-02  0.8480693E-01
        2   -1    0    0  501    0  0.00000000000E+00  0.00000000000E+00  0.18688519982E+04  0.18688519982E+04  0.25500000920E-02 0.  1.
       -2   -1    0    0    0  501  0.00000000000E+00  0.00000000000E+00 -0.70334189633E+03  0.70334189633E+03  0.25500000920E-02 0. -1.
    10030    2    1    2    0    0  0.00000000000E+00  0.00000000000E+00  0.11655101019E+04  0.25721938945E+04  0.22929822576E+04 0.  0.
        2    1    3    3  502    0 -0.54654850607E+03 -0.55847561845E+03 -0.35834846606E+03  0.85966499814E+03  0.25500000920E-02 0. -1.
       -2    1    3    3    0  502  0.54654850607E+03  0.55847561845E+03  0.15238585680E+04  0.17125288964E+04  0.25500000920E-02 0.  1.
</event>
<event>
 5   0  0.1327820E-05  0.2288514E+04  0.7818609E-02  0.8482464E-01
        1   -1    0    0  501    0  0.00000000000E+00  0.00000000000E+00  0.93261739346E+03  0.93261739347E+03  0.50400001928E-02 0.  1.
       -1   -1    0    0    0  501  0.00000000000E+00  0.00000000000E+00 -0.14039241446E+04  0.14039241446E+04  0.50400001928E-02 0. -1.
    10030    2    1    2    0    0  0.00000000000E+00  0.00000000000E+00 -0.47130675109E+03  0.23365415380E+04  0.22885139950E+04 0.  0.
        1    1    3    3  502    0 -0.27611803232E+03 -0.80700178142E+03 -0.10144398034E+04  0.13253607651E+04  0.50400001928E-02 0. -1.
       -1    1    3    3    0  502  0.27611803232E+03  0.80700178142E+03  0.54313305230E+03  0.10111807729E+04  0.50400001928E-02 0.  1.
</event>
<event>
 5   0  0.1284837E-05  0.2299893E+04  0.7818609E-02  0.8477963E-01
        1   -1    0    0  501    0  0.00000000000E+00  0.00000000000E+00  0.15781466116E+04  0.15781466116E+04  0.50400001928E-02 0. -1.
       -1   -1    0    0    0  501  0.00000000000E+00  0.00000000000E+00 -0.83793032925E+03  0.83793032927E+03  0.50400001928E-02 0.  1.
    10030    2    1    2    0    0  0.00000000000E+00  0.00000000000E+00  0.74021628236E+03  0.24160769409E+04  0.22998929626E+04 0.  0.
        4    1    3    3  502    0 -0.22193952938E+03  0.33351744541E+03  0.15024682709E+04  0.15549609510E+04  0.12699999809E+01 0. -1.
       -4    1    3    3    0  502  0.22193952938E+03 -0.33351744541E+03 -0.76225198855E+03  0.86111598990E+03  0.12699999809E+01 0.  1.
</event>
<event>
 5   0  0.2938972E-05  0.2299515E+04  0.7818609E-02  0.8478112E-01
        2   -1    0    0  501    0  0.00000000000E+00  0.00000000000E+00  0.13693317854E+04  0.13693317854E+04  0.25500000920E-02 0.  1.
       -2   -1    0    0    0  501  0.00000000000E+00  0.00000000000E+00 -0.96539222920E+03  0.96539222920E+03  0.25500000920E-02 0. -1.
    10030    2    1    2    0    0  0.00000000000E+00  0.00000000000E+00  0.40393955623E+03  0.23347240146E+04  0.22995149618E+04 0.  0.
        2    1    3    3  502    0  0.33877204166E+03 -0.93904726584E+03 -0.37717266736E+03  0.10671623516E+04  0.25500000920E-02 0. -1.
       -2    1    3    3    0  502 -0.33877204166E+03  0.93904726584E+03  0.78111222359E+03  0.12675616630E+04  0.25500000920E-02 0.  1.
</event>
<event>
 5   0  0.2910126E-05  0.2279246E+04  0.7818609E-02  0.8486149E-01
       -2   -1    0    0    0  501  0.00000000000E+00  0.00000000000E+00  0.10557504972E+04  0.10557504973E+04  0.25500000920E-02 0. -1.
        2   -1    0    0  501    0  0.00000000000E+00  0.00000000000E+00 -0.12301589948E+04  0.12301589948E+04  0.25500000920E-02 0.  1.
    10030    2    1    2    0    0  0.00000000000E+00  0.00000000000E+00 -0.17440849757E+03  0.22859094921E+04  0.22792463408E+04 0.  0.
        5    1    3    3  502    0  0.47568648017E+03 -0.44342320443E+03 -0.10257911277E+04  0.12145662984E+04  0.46999998093E+01 0.  1.
       -5    1    3    3    0  502 -0.47568648017E+03  0.44342320443E+03  0.85138263014E+03  0.10713431936E+04  0.46999998093E+01 0. -1.
</event>
<event>
 5   0  0.1284837E-05  0.2332858E+04  0.7818609E-02  0.8465077E-01
        1   -1    0    0  501    0  0.00000000000E+00  0.00000000000E+00  0.10281804178E+04  0.10281804178E+04  0.50400001928E-02 0.  1.
       -1   -1    0    0    0  501  0.00000000000E+00  0.00000000000E+00 -0.13232665847E+04  0.13232665847E+04  0.50400001928E-02 0. -1.
    10030    2    1    2    0    0  0.00000000000E+00  0.00000000000E+00 -0.29508616692E+03  0.23514470026E+04  0.23328581526E+04 0.  0.
        4    1    3    3  502    0 -0.94657705742E+03 -0.32069390828E+02  0.53870389930E+03  0.10896054678E+04  0.12699999809E+01 0.  1.
       -4    1    3    3    0  502  0.94657705742E+03  0.32069390828E+02 -0.83379006622E+03  0.12618415348E+04  0.12699999809E+01 0. -1.
</event>
<event>
 5   0  0.1303224E-05  0.2301113E+04  0.7818609E-02  0.8477482E-01
       -1   -1    0    0    0  501  0.00000000000E+00  0.00000000000E+00  0.68679989312E+03  0.68679989314E+03  0.50400001928E-02 0.  1.
        1   -1    0    0  501    0  0.00000000000E+00  0.00000000000E+00 -0.19274610318E+04  0.19274610318E+04  0.50400001928E-02 0. -1.
    10030    2    1    2    0    0  0.00000000000E+00  0.00000000000E+00 -0.12406611387E+04  0.26142609249E+04  0.23011128009E+04 0.  0.
        2    1    3    3  502    0  0.88984607423E+03 -0.72142336763E+03 -0.49848668481E+03  0.12493064821E+04  0.25500000920E-02 0.  1.
       -2    1    3    3    0  502 -0.88984607423E+03  0.72142336763E+03 -0.74217445386E+03  0.13649544429E+04  0.25500000920E-02 0. -1.
</event>
<event>
 5   0  0.2994157E-05  0.2314612E+04  0.7818609E-02  0.8472182E-01
       -2   -1    0    0    0  501  0.00000000000E+00  0.00000000000E+00  0.73956161969E+03  0.73956161969E+03  0.25500000920E-02 0.  1.
        2   -1    0    0  501    0  0.00000000000E+00  0.00000000000E+00 -0.18110142352E+04  0.18110142352E+04  0.25500000920E-02 0. -1.
    10030    2    1    2    0    0  0.00000000000E+00  0.00000000000E+00 -0.10714526155E+04  0.25505758549E+04  0.23146115191E+04 0.  0.
        4    1    3    3  502    0 -0.10484015167E+04  0.20255889393E+03 -0.10275190157E+04  0.14818815021E+04  0.12699999809E+01 0. -1.
       -4    1    3    3    0  502  0.10484015167E+04 -0.20255889393E+03 -0.43933599861E+02  0.10686943528E+04  0.12699999809E+01 0.  1.
</event>
<event>
 5   0  0.1017200E-05  0.2281247E+04  0.7818609E-02  0.8485352E-01
       -3   -1    0    0    0  501  0.00000000000E+00  0.00000000000E+00  0.10941450040E+04  0.10941450086E+04  0.10100000352E+00 0. -1.
        3   -1    0    0  501    0  0.00000000000E+00  0.00000000000E+00 -0.11890760953E+04  0.11890760996E+04  0.10100000352E+00 0.  1.
    10030    2    1    2    0    0  0.00000000000E+00  0.00000000000E+00 -0.94931091346E+02  0.22832211082E+04  0.22812467462E+04 0.  0.
        4    1    3    3  502    0 -0.21631291279E+03  0.86943668032E+03  0.65905520394E+03  0.11122350435E+04  0.12699999809E+01 0. -1.
       -4    1    3    3    0  502  0.21631291279E+03 -0.86943668032E+03 -0.75398629528E+03  0.11709860647E+04  0.12699999809E+01 0.  1.
</event>
<event>
 5   0  0.2994157E-05  0.2304064E+04  0.7818609E-02  0.8476321E-01
        2   -1    0    0  501    0  0.00000000000E+00  0.00000000000E+00  0.20696277872E+04  0.20696277872E+04  0.25500000920E-02 0.  1.
       -2   -1    0    0    0  501  0.00000000000E+00  0.00000000000E+00 -0.64126386796E+03  0.64126386796E+03  0.25500000920E-02 0. -1.
    10030    2    1    2    0    0  0.00000000000E+00  0.00000000000E+00  0.14283639193E+04  0.27108916552E+04  0.23040638186E+04 0.  0.
        4    1    3    3  502    0 -0.27793365668E+03 -0.10455456097E+04  0.11800250648E+04  0.16008977187E+04  0.12699999809E+01 0.  1.
       -4    1    3    3    0  502  0.27793365668E+03  0.10455456097E+04  0.24833885448E+03  0.11099939365E+04  0.12699999809E+01 0. -1.
</event>
<event>
 5   0  0.2994157E-05  0.2237062E+04  0.7818609E-02  0.8503159E-01
        2   -1    0    0  501    0  0.00000000000E+00  0.00000000000E+00  0.87231851694E+03  0.87231851694E+03  0.25500000920E-02 0.  1.
       -2   -1    0    0    0  501  0.00000000000E+00  0.00000000000E+00 -0.14342366382E+04  0.14342366382E+04  0.25500000920E-02 0. -1.
    10030    2    1    2    0    0  0.00000000000E+00  0.00000000000E+00 -0.56191812130E+03  0.23065551552E+04  0.22370616238E+04 0.  0.
        4    1    3    3  502    0  0.25066717077E+03 -0.35442976775E+03  0.78191560735E+03  0.89434228385E+03  0.12699999809E+01 0.  1.
       -4    1    3    3    0  502 -0.25066717077E+03  0.35442976775E+03 -0.13438337286E+04  0.14122128713E+04  0.12699999809E+01 0. -1.
</event>
<event>
 5   0  0.2871888E-05  0.2306596E+04  0.7818609E-02  0.8475325E-01
       -2   -1    0    0    0  501  0.00000000000E+00  0.00000000000E+00  0.16224781095E+04  0.16224781095E+04  0.25500000920E-02 0. -1.
        2   -1    0    0  501    0  0.00000000000E+00  0.00000000000E+00 -0.81979282040E+03  0.81979282040E+03  0.25500000920E-02 0.  1.
    10030    2    1    2    0    0  0.00000000000E+00  0.00000000000E+00  0.80268528908E+03  0.24422709299E+04  0.23065956780E+04 0.  0.
        3    1    3    3  502    0 -0.10533259141E+04 -0.45348491107E+03  0.53081284534E+03  0.12636875931E+04  0.10100000352E+00 0. -1.
       -3    1    3    3    0  502  0.10533259141E+04  0.45348491107E+03  0.27187244374E+03  0.11785833368E+04  0.10100000352E+00 0.  1.
</event>
<event>
 5   0  0.1303224E-05  0.2299751E+04  0.7818609E-02  0.8478019E-01
       -1   -1    0    0    0  501  0.00000000000E+00  0.00000000000E+00  0.81704515571E+03  0.81704515573E+03  0.50400001928E-02 0. -1.
        1   -1    0    0  501    0  0.00000000000E+00  0.00000000000E+00 -0.16182866609E+04  0.16182866609E+04  0.50400001928E-02 0.  1.
    10030    2    1    2    0    0  0.00000000000E+00  0.00000000000E+00 -0.80124150518E+03  0.24353318166E+04  0.22997506620E+04 0.  0.
        2    1    3    3  502    0 -0.38811273990E+03 -0.10813081743E+04 -0.34923787178E+03  0.12007605747E+04  0.25500000920E-02 0. -1.
       -2    1    3    3    0  502  0.38811273990E+03  0.10813081743E+04 -0.45200363341E+03  0.12345712419E+04  0.25500000920E-02 0.  1.
</event>
<event>
 5   0  0.1327820E-05  0.2298847E+04  0.7818609E-02  0.8478376E-01
       -1   -1    0    0    0  501  0.00000000000E+00  0.00000000000E+00  0.85085720769E+03  0.85085720770E+03  0.50400001928E-02 0.  1.
        1   -1    0    0  501    0  0.00000000000E+00  0.00000000000E+00 -0.15527564844E+04  0.15527564844E+04  0.50400001928E-02 0. -1.
    10030    2    1    2    0    0  0.00000000000E+00  0.00000000000E+00 -0.70189927668E+03  0.24036136921E+04  0.22988467078E+04 0.  0.
        1    1    3    3  502    0 -0.51673691510E+03 -0.30671826116E+03  0.67354237042E+03  0.90263639187E+03  0.50400001928E-02 0.  1.
       -1    1    3    3    0  502  0.51673691510E+03  0.30671826116E+03 -0.13754416471E+04  0.15009773002E+04  0.50400001928E-02 0. -1.
</event>
<event>
 5   0  0.1308224E-05  0.2267744E+04  0.7818609E-02  0.8490749E-01
       -1   -1    0    0    0  501  0.00000000000E+00  0.00000000000E+00  0.10650250274E+04  0.10650250274E+04  0.50400001928E-02 0.  1.
        1   -1    0    0  501    0  0.00000000000E+00  0.00000000000E+00 -0.12071698228E+04  0.12071698228E+04  0.50400001928E-02 0. -1.
    10030    2    1    2    0    0  0.00000000000E+00  0.00000000000E+00 -0.14214479540E+03  0.22721948503E+04  0.22677443187E+04 0.  0.
        5    1    3    3  502    0 -0.43724951732E+03  0.98074851523E+03  0.29377020699E+03  0.11132734682E+04  0.46999998093E+01 0.  1.
       -5    1    3    3    0  502  0.43724951732E+03 -0.98074851523E+03 -0.43591500239E+03  0.11589213821E+04  0.46999998093E+01 0. -1.
</event>
<event>
 5   0  0.2816178E-05  0.2296307E+04  0.7818609E-02  0.8479379E-01
       -2   -1    0    0    0  501  0.00000000000E+00  0.00000000000E+00  0.57494046388E+03  0.57494046389E+03  0.25500000920E-02 0. -1.
        2   -1    0    0  501    0  0.00000000000E+00  0.00000000000E+00 -0.22928574349E+04  0.22928574349E+04  0.25500000920E-02 0.  1.
    10030    2    1    2    0    0  0.00000000000E+00  0.00000000000E+00 -0.17179169710E+04  0.28677978988E+04  0.22963070502E+04 0.  0.
        1    1    3    3  502    0 -0.75291029620E+03  0.32940532594E+03  0.14238196844E+03  0.83405899542E+03  0.50400001928E-02 0. -1.
       -1    1    3    3    0  502  0.75291029620E+03 -0.32940532594E+03 -0.18602989395E+04  0.20337389034E+04  0.50400001928E-02 0.  1.
</event>
<event>
 5   0  0.2910126E-05  0.2314908E+04  0.7818609E-02  0.8472066E-01
       -2   -1    0    0    0  501  0.00000000000E+00  0.00000000000E+00  0.57675676467E+03  0.57675676468E+03  0.25500000920E-02 0.  1.
        2   -1    0    0  501    0  0.00000000000E+00  0.00000000000E+00 -0.23228160305E+04  0.23228160305E+04  0.25500000920E-02 0. -1.
    10030    2    1    2    0    0  0.00000000000E+00  0.00000000000E+00 -0.17460592659E+04  0.28995727952E+04  0.23149080835E+04 0.  0.
        5    1    3    3  502    0 -0.74013072410E+03  0.13513300669E+03 -0.19747339463E+04  0.21132086189E+04  0.46999998093E+01 0. -1.
       -5    1    3    3    0  502  0.74013072410E+03 -0.13513300669E+03  0.22867468048E+03  0.78636417629E+03  0.46999998093E+01 0.  1.
</event>
<event>
 5   0  0.2994157E-05  0.2312367E+04  0.7818609E-02  0.8473061E-01
        2   -1    0    0  501    0  0.00000000000E+00  0.00000000000E+00  0.89982138447E+03  0.89982138448E+03  0.25500000920E-02 0. -1.
       -2   -1    0    0    0  501  0.00000000000E+00  0.00000000000E+00 -0.14855842394E+04  0.14855842394E+04  0.25500000920E-02 0.  1.
    10030    2    1    2    0    0  0.00000000000E+00  0.00000000000E+00 -0.58576285488E+03  0.23854056238E+04  0.23123671568E+04 0.  0.
        4    1    3    3  502    0 -0.52276349589E+03 -0.10303975634E+04 -0.33613481916E+03  0.12033241628E+04  0.12699999809E+01 0. -1.
       -4    1    3    3    0  502  0.52276349589E+03  0.10303975634E+04 -0.24962803572E+03  0.11820814610E+04  0.12699999809E+01 0.  1.
</event>
<event>
 5   0  0.1308224E-05  0.2293104E+04  0.7818609E-02  0.8480645E-01
        1   -1    0    0  501    0  0.00000000000E+00  0.00000000000E+00  0.88945541521E+03  0.88945541523E+03  0.50400001928E-02 0.  1.
       -1   -1    0    0    0  501  0.00000000000E+00  0.00000000000E+00 -0.14779624691E+04  0.14779624692E+04  0.50400001928E-02 0. -1.
    10030    2    1    2    0    0  0.00000000000E+00  0.00000000000E+00 -0.58850705393E+03  0.23674178844E+04  0.22931042032E+04 0.  0.
        5    1    3    3  502    0  0.10590880143E+04  0.43458474381E+03 -0.35977936394E+03  0.11999977510E+04  0.46999998093E+01 0. -1.
       -5    1    3    3    0  502 -0.10590880143E+04 -0.43458474381E+03 -0.22872768999E+03  0.11674201334E+04  0.46999998093E+01 0.  1.
</event>
<event>
 5   0  0.1327820E-05  0.2296553E+04  0.7818609E-02  0.8479281E-01
        1   -1    0    0  501    0  0.00000000000E+00  0.00000000000E+00  0.11967233830E+04  0.11967233830E+04  0.50400001928E-02 0. -1.
       -1   -1    0    0    0  501  0.00000000000E+00  0.00000000000E+00 -0.11017909700E+04  0.11017909700E+04  0.50400001928E-02 0.  1.
    10030    2    1    2    0    0  0.00000000000E+00  0.00000000000E+00  0.94932413018E+02  0.22985143530E+04  0.22965530840E+04 0.  0.
        1    1    3    3  502    0  0.82668878680E+03 -0.18410934277E+03 -0.72858518342E+03  0.11172049811E+04  0.50400001928E-02 0.  1.
       -1    1    3    3    0  502 -0.82668878680E+03  0.18410934277E+03  0.82351759644E+03  0.11813093718E+04  0.50400001928E-02 0. -1.
</event>
<event>
 5   0  0.1303224E-05  0.2313672E+04  0.7818609E-02  0.8472550E-01
        1   -1    0    0  501    0  0.00000000000E+00  0.00000000000E+00  0.25331383083E+04  0.25331383083E+04  0.50400001928E-02 0. -1.
       -1   -1    0    0    0  501  0.00000000000E+00  0.00000000000E+00 -0.52830489642E+03  0.52830489644E+03  0.50400001928E-02 0.  1.
    10030    2    1    2    0    0  0.00000000000E+00  0.00000000000E+00  0.20048334119E+04  0.30614432048E+04  0.23136718623E+04 0.  0.
        2    1    3    3  502    0 -0.23900675951E+03 -0.77799217767E+03 -0.85403423549E+02  0.81834577311E+03  0.25500000920E-02 0.  1.
       -2    1    3    3    0  502  0.23900675951E+03  0.77799217767E+03  0.20902368354E+04  0.22430974316E+04  0.25500000920E-02 0. -1.
</event>
<event>
 5   0  0.1303224E-05  0.2292924E+04  0.7818609E-02  0.8480716E-01
        1   -1    0    0  501    0  0.00000000000E+00  0.00000000000E+00  0.17589278932E+04  0.17589278932E+04  0.50400001928E-02 0.  1.
       -1   -1    0    0    0  501  0.00000000000E+00  0.00000000000E+00 -0.74725904946E+03  0.74725904948E+03  0.50400001928E-02 0. -1.
    10030    2    1    2    0    0  0.00000000000E+00  0.00000000000E+00  0.10116688438E+04  0.25061869427E+04  0.22929237106E+04 0.  0.
        2    1    3    3  502    0 -0.38969735034E+03 -0.34727861113E+03 -0.60984291753E+03  0.80272961991E+03  0.25500000920E-02 0. -1.
       -2    1    3    3    0  502  0.38969735034E+03  0.34727861113E+03  0.16215117613E+04  0.17034573228E+04  0.25500000920E-02 0.  1.
</event>
<event>
 5   0  0.1308224E-05  0.2284241E+04  0.7818609E-02  0.8484161E-01
        1   -1    0    0  501    0  0.00000000000E+00  0.00000000000E+00  0.59470032640E+03  0.59470032643E+03  0.50400001928E-02 0.  1.
       -1   -1    0    0    0  501  0.00000000000E+00  0.00000000000E+00 -0.21934388237E+04  0.21934388237E+04  0.50400001928E-02 0. -1.
    10030    2    1    2    0    0  0.00000000000E+00  0.00000000000E+00 -0.15987384973E+04  0.27881391501E+04  0.22842406042E+04 0.  0.
        5    1    3    3  502    0 -0.23790044374E+02 -0.85423519741E+03  0.12549679726E+03  0.86374491306E+03  0.46999998093E+01 0.  1.
       -5    1    3    3    0  502  0.23790044374E+02  0.85423519741E+03 -0.17242352945E+04  0.19243942371E+04  0.46999998093E+01 0. -1.
</event>
<event>
 5   0  0.2816178E-05  0.2327802E+04  0.7818609E-02  0.8467039E-01
       -2   -1    0    0    0  501  0.00000000000E+00  0.00000000000E+00  0.11093922503E+04  0.11093922503E+04  0.25500000920E-02 0. -1.
        2   -1    0    0  501    0  0.00000000000E+00  0.00000000000E+00 -0.12210880216E+04  0.12210880216E+04  0.25500000920E-02 0.  1.
    10030    2    1    2    0    0  0.00000000000E+00  0.00000000000E+00 -0.11169577132E+03  0.23304802718E+04  0.23278020431E+04 0.  0.
        1    1    3    3  502    0 -0.11468364654E+03 -0.49140444007E+03 -0.11058800992E+04  0.12155663109E+04  0.50400001928E-02 0.  1.
       -1    1    3    3    0  502  0.11468364654E+03  0.49140444007E+03  0.99418432784E+03  0.11149139609E+04  0.50400001928E-02 0. -1.
</event>
<event>
 5   0  0.1303224E-05  0.2321346E+04  0.7818609E-02  0.8469552E-01
       -1   -1    0    0    0  501  0.00000000000E+00  0.00000000000E+00  0.17123126383E+04  0.17123126383E+04  0.50400001928E-02 0.  1.
        1   -1    0    0  501    0  0.00000000000E+00  0.00000000000E+00 -0.78675023945E+03  0.78675023947E+03  0.50400001928E-02 0. -1.
    10030    2    1    2    0    0  0.00000000000E+00  0.00000000000E+00  0.92556239888E+03  0.24990628778E+04  0.23213464871E+04 0.  0.
        2    1    3    3  502    0 -0.96360130335E+02 -0.11912881803E+03  0.17013770157E+04  0.17082624797E+04  0.25500000920E-02 0.  1.
       -2    1    3    3    0  502  0.96360130335E+02  0.11912881803E+03 -0.77581461681E+03  0.79080039812E+03  0.25500000920E-02 0. -1.
</event>
<event>
 5   0  0.1327820E-05  0.2277187E+04  0.7818609E-02  0.8486971E-01
       -1   -1    0    0    0  501  0.00000000000E+00  0.00000000000E+00  0.10888684722E+04  0.10888684722E+04  0.50400001928E-02 0.  1.
        1   -1    0    0  501    0  0.00000000000E+00  0.00000000000E+00 -0.11905895113E+04  0.11905895113E+04  0.50400001928E-02 0. -1.
    10030    2    1    2    0    0  0.00000000000E+00  0.00000000000E+00 -0.10172103918E+03  0.22794579835E+04  0.22771871967E+04 0.  0.
        1    1    3    3  502    0  0.87429634451E+03  0.69022406140E+03 -0.28687525654E+03  0.11502611729E+04  0.50400001928E-02 0. -1.
       -1    1    3    3    0  502 -0.87429634451E+03 -0.69022406140E+03  0.18515421736E+03  0.11291968107E+04  0.50400001928E-02 0.  1.
</event>
<event>
 5   0  0.2994157E-05  0.2260094E+04  0.7818609E-02  0.8493824E-01
       -2   -1    0    0    0  501  0.00000000000E+00  0.00000000000E+00  0.82369461233E+03  0.82369461234E+03  0.25500000920E-02 0. -1.
        2   -1    0    0  501    0  0.00000000000E+00  0.00000000000E+00 -0.15503394860E+04  0.15503394860E+04  0.25500000920E-02 0.  1.
    10030    2    1    2    0    0  0.00000000000E+00  0.00000000000E+00 -0.72664487371E+03  0.23740340984E+04  0.22600940529E+04 0.  0.
        4    1    3    3  502    0 -0.77731904854E+00 -0.94513246278E+03 -0.10140101064E+04  0.13861796727E+04  0.12699999809E+01 0.  1.
       -4    1    3    3    0  502  0.77731904854E+00  0.94513246278E+03  0.28736523264E+03  0.98785442564E+03  0.12699999809E+01 0. -1.
</event>
<event>
 5   0  0.1308224E-05  0.2297811E+04  0.7818609E-02  0.8478785E-01
       -1   -1    0    0    0  501  0.00000000000E+00  0.00000000000E+00  0.11770679842E+04  0.11770679842E+04  0.50400001928E-02 0. -1.
        1   -1    0    0  501    0  0.00000000000E+00  0.00000000000E+00 -0.11214165367E+04  0.11214165367E+04  0.50400001928E-02 0.  1.
    10030    2    1    2    0    0  0.00000000000E+00  0.00000000000E+00  0.55651447490E+02  0.22984845210E+04  0.22978106992E+04 0.  0.
        5    1    3    3  502    0  0.39604826126E+03 -0.69362843027E+03  0.85389280641E+03  0.11692431909E+04  0.46999998093E+01 0. -1.
       -5    1    3    3    0  502 -0.39604826126E+03  0.69362843027E+03 -0.79824135892E+03  0.11292413301E+04  0.46999998093E+01 0.  1.
</event>
<event>
 5   0  0.1308224E-05  0.2308664E+04  0.7818609E-02  0.8474513E-01
        1   -1    0    0  501    0  0.00000000000E+00  0.00000000000E+00  0.93691656732E+03  0.93691656733E+03  0.50400001928E-02 0. -1.
       -1   -1    0    0    0  501  0.00000000000E+00  0.00000000000E+00 -0.14222000302E+04  0.14222000302E+04  0.50400001928E-02 0.  1.
    10030    2    1    2    0    0  0.00000000000E+00  0.00000000000E+00 -0.48528346292E+03  0.23591165976E+04  0.23086643501E+04 0.  0.
        5    1    3    3  502    0  0.76163025693E+03 -0.81871727968E+03 -0.53540238064E+03  0.12397807998E+04  0.46999998093E+01 0.  1.
       -5    1    3    3    0  502 -0.76163025693E+03  0.81871727968E+03  0.50118917721E+02  0.11193357978E+04  0.46999998093E+01 0. -1.
</event>
<event>
 5   0  0.1303224E-05  0.2297249E+04  0.7818609E-02  0.8479006E-01
       -1   -1    0    0    0  501  0.00000000000E+00  0.00000000000E+00  0.13734725411E+04  0.13734725411E+04  0.50400001928E-02 0. -1.
        1   -1    0    0  501    0  0.00000000000E+00  0.00000000000E+00 -0.96058604818E+03  0.96058604820E+03  0.50400001928E-02 0.  1.
    10030    2    1    2    0    0  0.00000000000E+00  0.00000000000E+00  0.41288649290E+03  0.23340585893E+04  0.22972492773E+04 0.  0.
        2    1    3    3  502    0  0.10038971948E+04  0.45745203177E+03 -0.11847236894E+03  0.11095529016E+04  0.25500000920E-02 0.  1.
       -2    1    3    3    0  502 -0.10038971948E+04 -0.45745203177E+03  0.53135886185E+03  0.12245056877E+04  0.25500000920E-02 0. -1.
</event>
<event>
 5   0  0.2816178E-05  0.2292384E+04  0.7818609E-02  0.8480930E-01
        2   -1    0    0  501    0  0.00000000000E+00  0.00000000000E+00  0.88400746698E+03  0.88400746698E+03  0.25500000920E-02 0.  1.
       -2   -1    0    0    0  501  0.00000000000E+00  0.00000000000E+00 -0.14861374833E+04  0.14861374833E+04  0.25500000920E-02 0. -1.
    10030    2    1    2    0    0  0.00000000000E+00  0.00000000000E+00 -0.60213001627E+03  0.23701449502E+04  0.22923844635E+04 0.  0.
        1    1    3    3  502    0  0.29546792055E+03  0.99061331116E+03 -0.81297673649E+03  0.13151225032E+04  0.50400001928E-02 0. -1.
       -1    1    3    3    0  502 -0.29546792055E+03 -0.99061331116E+03  0.21084672022E+03  0.10550224470E+04  0.50400001928E-02 0.  1.
</event>
<event>
 5   0  0.1284837E-05  0.2296271E+04  0.7818609E-02  0.8479393E-01
        1   -1    0    0  501    0  0.00000000000E+00  0.00000000000E+00  0.13145473191E+04  0.13145473191E+04  0.50400001928E-02 0.  1.
       -1   -1    0    0    0  501  0.00000000000E+00  0.00000000000E+00 -0.10027903121E+04  0.10027903121E+04  0.50400001928E-02 0. -1.
    10030    2    1    2    0    0  0.00000000000E+00  0.00000000000E+00  0.31175700701E+03  0.23173376313E+04  0.22962711656E+04 0.  0.
        4    1    3    3  502    0  0.94265783679E+03 -0.22775722252E+03 -0.46436275014E+03  0.10752262675E+04  0.12699999809E+01 0. -1.
       -4    1    3    3    0  502 -0.94265783679E+03  0.22775722252E+03  0.77611975715E+03  0.12421113638E+04  0.12699999809E+01 0.  1.
</event>
<event>
 5   0  0.2816178E-05  0.2224102E+04  0.7818609E-02  0.8508463E-01
        2   -1    0    0  501    0  0.00000000000E+00  0.00000000000E+00  0.84089800448E+03  0.84089800448E+03  0.25500000920E-02 0.  1.
       -2   -1    0    0    0  501  0.00000000000E+00  0.00000000000E+00 -0.14706388421E+04  0.14706388421E+04  0.25500000920E-02 0. -1.
    10030    2    1    2    0    0  0.00000000000E+00  0.00000000000E+00 -0.62974083761E+03  0.23115368466E+04  0.22241018570E+04 0.  0.
        1    1    3    3  502    0 -0.44602934032E+03  0.48844341855E+03 -0.12439588925E+04  0.14088835551E+04  0.50400001928E-02 0. -1.
       -1    1    3    3    0  502  0.44602934032E+03 -0.48844341855E+03  0.61421805492E+03  0.90265329145E+03  0.50400001928E-02 0.  1.
</event>
<event>
 5   0  0.2871888E-05  0.2326842E+04  0.7818609E-02  0.8467412E-01
        2   -1    0    0  501    0  0.00000000000E+00  0.00000000000E+00  0.83365916233E+03  0.83365916233E+03  0.25500000920E-02 0. -1.
       -2   -1    0    0    0  501  0.00000000000E+00  0.00000000000E+00 -0.16236234684E+04  0.16236234684E+04  0.25500000920E-02 0.  1.
    10030    2    1    2    0    0  0.00000000000E+00  0.00000000000E+00 -0.78996430607E+03  0.24572826307E+04  0.23268421353E+04 0.  0.
        3    1    3    3  502    0  0.86992304898E+03 -0.65692788525E+03 -0.82425191148E+03  0.13666424482E+04  0.10100000352E+00 0. -1.
       -3    1    3    3    0  502 -0.86992304898E+03  0.65692788525E+03  0.34287605414E+02  0.10906401825E+04  0.10100000352E+00 0.  1.
</event>
<event>
 5   0  0.2871888E-05  0.2301492E+04  0.7818609E-02  0.8477333E-01
       -2   -1    0    0    0  501  0.00000000000E+00  0.00000000000E+00  0.12651092354E+04  0.12651092354E+04  0.25500000920E-02 0.  1.
        2   -1    0    0  501    0  0.00000000000E+00  0.00000000000E+00 -0.10467211983E+04  0.10467211983E+04  0.25500000920E-02 0. -1.
    10030    2    1    2    0    0  0.00000000000E+00  0.00000000000E+00  0.21838803711E+03  0.23118304337E+04  0.23014922593E+04 0.  0.
        3    1    3    3  502    0  0.20650983746E+03  0.10295222549E+04  0.58211055223E+03  0.12005894767E+04  0.10100000352E+00 0.  1.
       -3    1    3    3    0  502 -0.20650983746E+03 -0.10295222549E+04 -0.36372251512E+03  0.11112409570E+04  0.10100000352E+00 0. -1.
</event>
<event>
 5   0  0.1327820E-05  0.2301374E+04  0.7818609E-02  0.8477379E-01
        1   -1    0    0  501    0  0.00000000000E+00  0.00000000000E+00  0.18346460112E+04  0.18346460112E+04  0.50400001928E-02 0.  1.
       -1   -1    0    0    0  501  0.00000000000E+00  0.00000000000E+00 -0.72170925090E+03  0.72170925092E+03  0.50400001928E-02 0. -1.
    10030    2    1    2    0    0  0.00000000000E+00  0.00000000000E+00  0.11129367603E+04  0.25563552621E+04  0.23013743706E+04 0.  0.
        1    1    3    3  502    0 -0.21348562661E+03  0.69361860047E+03  0.15483767176E+04  0.17100155950E+04  0.50400001928E-02 0.  1.
       -1    1    3    3    0  502  0.21348562661E+03 -0.69361860047E+03 -0.43543995728E+03  0.84633966710E+03  0.50400001928E-02 0. -1.
</event>
<event>
 5   0  0.1308224E-05  0.2281154E+04  0.7818609E-02  0.8485389E-01
        1   -1    0    0  501    0  0.00000000000E+00  0.00000000000E+00  0.92064433724E+03  0.92064433726E+03  0.50400001928E-02 0. -1.
       -1   -1    0    0    0  501  0.00000000000E+00  0.00000000000E+00 -0.14130499458E+04  0.14130499458E+04  0.50400001928E-02 0.  1.
    10030    2    1    2    0    0  0.00000000000E+00  0.00000000000E+00 -0.49240560854E+03  0.23336942830E+04  0.22811544716E+04 0.  0.
        5    1    3    3  502    0 -0.20076081918E+03 -0.88386649616E+03 -0.95451455115E+03  0.13162997409E+04  0.46999998093E+01 0.  1.
       -5    1    3    3    0  502  0.20076081918E+03  0.88386649616E+03  0.46210894261E+03  0.10173945421E+04  0.46999998093E+01 0. -1.
</event>
<event>
 5   0  0.2871888E-05  0.2398978E+04  0.7818609E-02  0.8439886E-01
        2   -1    0    0  501    0  0.00000000000E+00  0.00000000000E+00  0.18585075077E+04  0.18585075077E+04  0.25500000920E-02 0.  1.
       -2   -1    0    0    0  501  0.00000000000E+00  0.00000000000E+00 -0.77415522063E+03  0.77415522064E+03  0.25500000920E-02 0. -1.
    10030    2    1    2    0    0  0.00000000000E+00  0.00000000000E+00  0.10843522871E+04  0.26326627284E+04  0.23989775236E+04 0.  0.
        3    1    3    3  502    0  0.10431507003E+04 -0.19217270845E+03 -0.72451580854E+02  0.10631758910E+04  0.10100000352E+00 0. -1.
       -3    1    3    3    0  502 -0.10431507003E+04  0.19217270845E+03  0.11568038679E+04  0.15694868373E+04  0.10100000352E+00 0.  1.
</event>
<event>
 5   0  0.1308224E-05  0.2300450E+04  0.7818609E-02  0.8477744E-01
       -1   -1    0    0    0  501  0.00000000000E+00  0.00000000000E+00  0.63508094969E+03  0.63508094971E+03  0.50400001928E-02 0.  1.
        1   -1    0    0  501    0  0.00000000000E+00  0.00000000000E+00 -0.20832263512E+04  0.20832263512E+04  0.50400001928E-02 0. -1.
    10030    2    1    2    0    0  0.00000000000E+00  0.00000000000E+00 -0.14481454015E+04  0.27183073009E+04  0.23004498426E+04 0.  0.
        5    1    3    3  502    0 -0.48600655409E+03 -0.17276571195E+03  0.49074737498E+03  0.71197291936E+03  0.46999998093E+01 0.  1.
       -5    1    3    3    0  502  0.48600655409E+03  0.17276571195E+03 -0.19388927765E+04  0.20063343815E+04  0.46999998093E+01 0. -1.
</event>
<event>
 5   0  0.2938972E-05  0.2295409E+04  0.7818609E-02  0.8479734E-01
        2   -1    0    0  501    0  0.00000000000E+00  0.00000000000E+00  0.85886360995E+03  0.85886360995E+03  0.25500000920E-02 0.  1.
       -2   -1    0    0    0  501  0.00000000000E+00  0.00000000000E+00 -0.15336836627E+04  0.15336836627E+04  0.25500000920E-02 0. -1.
    10030    2    1    2    0    0  0.00000000000E+00  0.00000000000E+00 -0.67482005279E+03  0.23925472727E+04  0.22954085363E+04 0.  0.
        2    1    3    3  502    0  0.58804954239E+03 -0.85112367038E+03 -0.85544486035E+03  0.13423858148E+04  0.25500000920E-02 0. -1.
       -2    1    3    3    0  502 -0.58804954239E+03  0.85112367038E+03  0.18062480756E+03  0.10501614579E+04  0.25500000920E-02 0.  1.
</event>
<event>
 5   0  0.1371753E-05  0.2287507E+04  0.7818609E-02  0.8482863E-01
       -1   -1    0    0    0  501  0.00000000000E+00  0.00000000000E+00  0.12755950102E+04  0.12755950102E+04  0.50400001928E-02 0.  1.
        1   -1    0    0  501    0  0.00000000000E+00  0.00000000000E+00 -0.10255386500E+04  0.10255386500E+04  0.50400001928E-02 0. -1.
    10030    2    1    2    0    0  0.00000000000E+00  0.00000000000E+00  0.25005636023E+03  0.23011336602E+04  0.22875069265E+04 0.  0.
        3    1    3    3  502    0 -0.10653160202E+04 -0.39614561520E+03  0.25362711949E+03  0.11645412390E+04  0.10100000352E+00 0. -1.
       -3    1    3    3    0  502  0.10653160202E+04  0.39614561520E+03 -0.35707592582E+01  0.11365924212E+04  0.10100000352E+00 0.  1.
</event>
<event>
 5   0  0.1327820E-05  0.2254498E+04  0.7818609E-02  0.8496081E-01
       -1   -1    0    0    0  501  0.00000000000E+00  0.00000000000E+00  0.89257276555E+03  0.89257276557E+03  0.50400001928E-02 0. -1.
        1   -1    0    0  501    0  0.00000000000E+00  0.00000000000E+00 -0.14236260643E+04  0.14236260643E+04  0.50400001928E-02 0.  1.
    10030    2    1    2    0    0  0.00000000000E+00  0.00000000000E+00 -0.53105329873E+03  0.23161988299E+04  0.22544975967E+04 0.  0.
        1    1    3    3  502    0 -0.48897159915E+03  0.30632774696E+03 -0.12604093959E+04  0.13862040826E+04  0.50400001928E-02 0.  1.
       -1    1    3    3    0  502  0.48897159915E+03 -0.30632774696E+03  0.72935609719E+03  0.92999474723E+03  0.50400001928E-02 0. -1.
</event>
<event>
 5   0  0.1284837E-05  0.2311151E+04  0.7818609E-02  0.8473538E-01
        1   -1    0    0  501    0  0.00000000000E+00  0.00000000000E+00  0.10672546510E+04  0.10672546510E+04  0.50400001928E-02 0.  1.
       -1   -1    0    0    0  501  0.00000000000E+00  0.00000000000E+00 -0.12512048204E+04  0.12512048204E+04  0.50400001928E-02 0. -1.
    10030    2    1    2    0    0  0.00000000000E+00  0.00000000000E+00 -0.18395016937E+03  0.23184594714E+04  0.23111505048E+04 0.  0.
        4    1    3    3  502    0  0.14059672261E+03  0.71819843958E+03 -0.98910532289E+03  0.12304094399E+04  0.12699999809E+01 0. -1.
       -4    1    3    3    0  502 -0.14059672261E+03 -0.71819843958E+03  0.80515515352E+03  0.10880500316E+04  0.12699999809E+01 0.  1.
</event>
<event>
 5   0  0.2994157E-05  0.2316773E+04  0.7818609E-02  0.8471337E-01
        2   -1    0    0  501    0  0.00000000000E+00  0.00000000000E+00  0.14240155725E+04  0.14240155725E+04  0.25500000920E-02 0. -1.
       -2   -1    0    0    0  501  0.00000000000E+00  0.00000000000E+00 -0.94230700482E+03  0.94230700482E+03  0.25500000920E-02 0.  1.
    10030    2    1    2    0    0  0.00000000000E+00  0.00000000000E+00  0.48170856769E+03  0.23663225773E+04  0.23167734882E+04 0.  0.
        4    1    3    3  502    0 -0.74382033832E+03  0.10982255363E+03 -0.65920079251E+03  0.99993849148E+03  0.12699999809E+01 0.  1.
       -4    1    3    3    0  502  0.74382033832E+03 -0.10982255363E+03  0.11409093602E+04  0.13663840859E+04  0.12699999809E+01 0. -1.
</event>
<event>
 5   0  0.1371753E-05  0.2306324E+04  0.7818609E-02  0.8475432E-01
        1   -1    0    0  501    0  0.00000000000E+00  0.00000000000E+00  0.17054665001E+04  0.17054665001E+04  0.50400001928E-02 0. -1.
       -1   -1    0    0    0  501  0.00000000000E+00  0.00000000000E+00 -0.77971772177E+03  0.77971772178E+03  0.50400001928E-02 0.  1.
    10030    2    1    2    0    0  0.00000000000E+00  0.00000000000E+00  0.92574877831E+03  0.24851842219E+04  0.23063238749E+04 0.  0.
        3    1    3    3  502    0 -0.35989960417E+03  0.62771396500E+03  0.14304117460E+04  0.16030066501E+04  0.10100000352E+00 0. -1.
       -3    1    3    3    0  502  0.35989960417E+03 -0.62771396500E+03 -0.50466296770E+03  0.88217757176E+03  0.10100000352E+00 0.  1.
</event>
<event>
 5   0  0.1308224E-05  0.2295484E+04  0.7818609E-02  0.8479704E-01
       -1   -1    0    0    0  501  0.00000000000E+00  0.00000000000E+00  0.10134346722E+04  0.10134346722E+04  0.50400001928E-02 0. -1.
        1   -1    0    0  501    0  0.00000000000E+00  0.00000000000E+00 -0.12998488055E+04  0.12998488055E+04  0.50400001928E-02 0.  1.
    10030    2    1    2    0    0  0.00000000000E+00  0.00000000000E+00 -0.28641413326E+03  0.23132834777E+04  0.22954841303E+04 0.  0.
        5    1    3    3  502    0 -0.50511081775E+02 -0.51881793318E+03  0.88725108295E+03  0.10290578173E+04  0.46999998093E+01 0. -1.
       -5    1    3    3    0  502  0.50511081775E+02  0.51881793318E+03 -0.11736652162E+04  0.12842256604E+04  0.46999998093E+01 0.  1.
</event>
<event>
 5   0  0.1284837E-05  0.2275570E+04  0.7818609E-02  0.8487616E-01
        1   -1    0    0  501    0  0.00000000000E+00  0.00000000000E+00  0.10906778047E+04  0.10906778047E+04  0.50400001928E-02 0. -1.
       -1   -1    0    0    0  501  0.00000000000E+00  0.00000000000E+00 -0.11869269319E+04  0.11869269320E+04  0.50400001928E-02 0.  1.
    10030    2    1    2    0    0  0.00000000000E+00  0.00000000000E+00 -0.96249127233E+02  0.22776047367E+04  0.22755701356E+04 0.  0.
        4    1    3    3  502    0 -0.29055929511E+03 -0.18436902610E+03  0.10373434128E+04  0.10929316588E+04  0.12699999809E+01 0. -1.
       -4    1    3    3    0  502  0.29055929511E+03  0.18436902610E+03 -0.11335925400E+04  0.11846730779E+04  0.12699999809E+01 0.  1.
</event>
<event>
 5   0  0.2938972E-05  0.2300163E+04  0.7818609E-02  0.8477857E-01
       -2   -1    0    0    0  501  0.00000000000E+00  0.00000000000E+00  0.11462109038E+04  0.11462109038E+04  0.25500000920E-02 0. -1.
        2   -1    0    0  501    0  0.00000000000E+00  0.00000000000E+00 -0.11539650424E+04  0.11539650424E+04  0.25500000920E-02 0.  1.
    10030    2    1    2    0    0  0.00000000000E+00  0.00000000000E+00 -0.77541386346E+01  0.23001759462E+04  0.23001628761E+04 0.  0.
        2    1    3    3  502    0 -0.23696031266E+03  0.53815869930E+03  0.98452236460E+03  0.11467559731E+04  0.25500000920E-02 0. -1.
       -2    1    3    3    0  502  0.23696031266E+03 -0.53815869930E+03 -0.99227650323E+03  0.11534199731E+04  0.25500000920E-02 0.  1.
</event>
<event>
 5   0  0.2994157E-05  0.2293691E+04  0.7818609E-02  0.8480413E-01
       -2   -1    0    0    0  501  0.00000000000E+00  0.00000000000E+00  0.73689608923E+03  0.73689608923E+03  0.25500000920E-02 0.  1.
        2   -1    0    0  501    0  0.00000000000E+00  0.00000000000E+00 -0.17848579413E+04  0.17848579413E+04  0.25500000920E-02 0. -1.
    10030    2    1    2    0    0  0.00000000000E+00  0.00000000000E+00 -0.10479618521E+04  0.25217540305E+04  0.22936912057E+04 0.  0.
        4    1    3    3  502    0  0.38692718372E+03  0.66757091680E+03 -0.14568071333E+04  0.16485303185E+04  0.12699999809E+01 0. -1.
       -4    1    3    3    0  502 -0.38692718372E+03 -0.66757091680E+03  0.40884528120E+03  0.87322371207E+03  0.12699999809E+01 0.  1.
</event>
<event>
 5   0  0.2994157E-05  0.2298559E+04  0.7818609E-02  0.8478490E-01
       -2   -1    0    0    0  501  0.00000000000E+00  0.00000000000E+00  0.70025636252E+03  0.70025636252E+03  0.25500000920E-02 0.  1.
        2   -1    0    0  501    0  0.00000000000E+00  0.00000000000E+00 -0.18862276607E+04  0.18862276607E+04  0.25500000920E-02 0. -1.
    10030    2    1    2    0    0  0.00000000000E+00  0.00000000000E+00 -0.11859712982E+04  0.25864840232E+04  0.22985586097E+04 0.  0.
        4    1    3    3  502    0 -0.40498526207E+03  0.77582423161E+03 -0.14312314104E+04  0.16775998522E+04  0.12699999809E+01 0. -1.
       -4    1    3    3    0  502  0.40498526207E+03 -0.77582423161E+03  0.24526011226E+03  0.90888417106E+03  0.12699999809E+01 0.  1.
</event>
<event>
 5   0  0.1284837E-05  0.2331277E+04  0.7818609E-02  0.8465690E-01
        1   -1    0    0  501    0  0.00000000000E+00  0.00000000000E+00  0.14918844338E+04  0.14918844338E+04  0.50400001928E-02 0.  1.
       -1   -1    0    0    0  501  0.00000000000E+00  0.00000000000E+00 -0.91073588877E+03  0.91073588879E+03  0.50400001928E-02 0. -1.
    10030    2    1    2    0    0  0.00000000000E+00  0.00000000000E+00  0.58114854505E+03  0.24026203226E+04  0.23312766424E+04 0.  0.
        4    1    3    3  502    0 -0.70106408379E+03 -0.52928440025E+03 -0.49908425907E+03  0.10103066547E+04  0.12699999809E+01 0. -1.
       -4    1    3    3    0  502  0.70106408379E+03  0.52928440025E+03  0.10802328041E+04  0.13923136679E+04  0.12699999809E+01 0.  1.
</event>
<event>
 5   0  0.2938972E-05  0.2305072E+04  0.7818609E-02  0.8475924E-01
        2   -1    0    0  501    0  0.00000000000E+00  0.00000000000E+00  0.26114514531E+04  0.26114514531E+04  0.25500000920E-02 0.  1.
       -2   -1    0    0    0  501  0.00000000000E+00  0.00000000000E+00 -0.50865955116E+03  0.50865955117E+03  0.25500000920E-02 0. -1.
    10030    2    1    2    0    0  0.00000000000E+00  0.00000000000E+00  0.21027919019E+04  0.31201110042E+04  0.23050724275E+04 0.  0.
        2    1    3    3  502    0 -0.31811206215E+03  0.77458200863E+03  0.21233523503E+04  0.22824981437E+04  0.25500000920E-02 0. -1.
       -2    1    3    3    0  502  0.31811206215E+03 -0.77458200863E+03 -0.20560448411E+02  0.83761286059E+03  0.25500000920E-02 0.  1.
</event>
<event>
 5   0  0.2994157E-05  0.2303288E+04  0.7818609E-02  0.8476626E-01
        2   -1    0    0  501    0  0.00000000000E+00  0.00000000000E+00  0.14676316409E+04  0.14676316409E+04  0.25500000920E-02 0. -1.
       -2   -1    0    0    0  501  0.00000000000E+00  0.00000000000E+00 -0.90369019124E+03  0.90369019124E+03  0.25500000920E-02 0.  1.
    10030    2    1    2    0    0  0.00000000000E+00  0.00000000000E+00  0.56394144967E+03  0.23713218321E+04  0.23032883608E+04 0.  0.
        4    1    3    3  502    0  0.79483805078E+03 -0.66131934664E+03 -0.24012957620E+03  0.10614964114E+04  0.12699999809E+01 0.  1.
       -4    1    3    3    0  502 -0.79483805078E+03  0.66131934664E+03  0.80407102587E+03  0.13098254207E+04  0.12699999809E+01 0. -1.
</event>
<event>
 5   0  0.2910126E-05  0.2309215E+04  0.7818609E-02  0.8474297E-01
        2   -1    0    0  501    0  0.00000000000E+00  0.00000000000E+00  0.15686414448E+04  0.15686414448E+04  0.25500000920E-02 0. -1.
       -2   -1    0    0    0  501  0.00000000000E+00  0.00000000000E+00 -0.84985543169E+03  0.84985543169E+03  0.25500000920E-02 0.  1.
    10030    2    1    2    0    0  0.00000000000E+00  0.00000000000E+00  0.71878601312E+03  0.24184968765E+04  0.23092149768E+04 0.  0.
        5    1    3    3  502    0  0.34258253373E+03  0.14559575347E+03 -0.78527800881E+03  0.86904807518E+03  0.46999998093E+01 0.  1.
       -5    1    3    3    0  502 -0.34258253373E+03 -0.14559575347E+03  0.15040640219E+04  0.15494488013E+04  0.46999998093E+01 0. -1.
</event>
<event>
 5   0  0.1017200E-05  0.2305532E+04  0.7818609E-02  0.8475743E-01
       -4   -1    0    0    0  501  0.00000000000E+00  0.00000000000E+00  0.10730111210E+04  0.10730118726E+04  0.12699999809E+01 0.  1.
        4   -1    0    0  501    0  0.00000000000E+00  0.00000000000E+00 -0.12384475383E+04  0.12384481895E+04  0.12699999809E+01 0. -1.
    10030    2    1    2    0    0  0.00000000000E+00  0.00000000000E+00 -0.16543641727E+03  0.23114600621E+04  0.23055321317E+04 0.  0.
        3    1    3    3  502    0  0.15078033878E+02 -0.57897004969E+03  0.91655707522E+03  0.10842096420E+04  0.10100000352E+00 0.  1.
       -3    1    3    3    0  502 -0.15078033878E+02  0.57897004969E+03 -0.10819934925E+04  0.12272504201E+04  0.10100000352E+00 0. -1.
</event>
<event>
 5   0  0.2910126E-05  0.2313192E+04  0.7818609E-02  0.8472738E-01
       -2   -1    0    0    0  501  0.00000000000E+00  0.00000000000E+00  0.75366442631E+03  0.75366442631E+03  0.25500000920E-02 0.  1.
        2   -1    0    0  501    0  0.00000000000E+00  0.00000000000E+00 -0.17749473442E+04  0.17749473442E+04  0.25500000920E-02 0. -1.
    10030    2    1    2    0    0  0.00000000000E+00  0.00000000000E+00 -0.10212829179E+04  0.25286117705E+04  0.23131923153E+04 0.  0.
        5    1    3    3  502    0  0.11512600204E+04  0.10429972897E+03 -0.46952894528E+03  0.12477009211E+04  0.46999998093E+01 0. -1.
       -5    1    3    3    0  502 -0.11512600204E+04 -0.10429972897E+03 -0.55175397264E+03  0.12809108495E+04  0.46999998093E+01 0.  1.
</event>
<event>
 5   0  0.1017200E-05  0.2307994E+04  0.7818609E-02  0.8474776E-01
        3   -1    0    0  501    0  0.00000000000E+00  0.00000000000E+00  0.14462459043E+04  0.14462459078E+04  0.10100000352E+00 0.  1.
       -3   -1    0    0    0  501  0.00000000000E+00  0.00000000000E+00 -0.92080365802E+03  0.92080366356E+03  0.10100000352E+00 0. -1.
    10030    2    1    2    0    0  0.00000000000E+00  0.00000000000E+00  0.52544224627E+03  0.23670495714E+04  0.23079935267E+04 0.  0.
        2    1    3    3  502    0 -0.29372306348E+03 -0.72314269634E+03  0.11344705533E+04  0.13770374118E+04  0.25500000920E-02 0. -1.
       -2    1    3    3    0  502  0.29372306348E+03  0.72314269634E+03 -0.60902830702E+03  0.99001215955E+03  0.25500000920E-02 0.  1.
</event>
<event>
 5   0  0.1303224E-05  0.2300322E+04  0.7818609E-02  0.8477794E-01
        1   -1    0    0  501    0  0.00000000000E+00  0.00000000000E+00  0.16174446937E+04  0.16174446937E+04  0.50400001928E-02 0.  1.
       -1   -1    0    0    0  501  0.00000000000E+00  0.00000000000E+00 -0.81787648346E+03  0.81787648348E+03  0.50400001928E-02 0. -1.
    10030    2    1    2    0    0  0.00000000000E+00  0.00000000000E+00  0.79956821028E+03  0.24353211772E+04  0.23003216978E+04 0.  0.
        2    1    3    3  502    0  0.59812419991E+03  0.10085504693E+03 -0.63477904056E+03  0.87799130369E+03  0.25500000920E-02 0. -1.
       -2    1    3    3    0  502 -0.59812419991E+03 -0.10085504693E+03  0.14343472508E+04  0.15573298735E+04  0.25500000920E-02 0.  1.
</event>
<event>
 5   0  0.2816178E-05  0.2290436E+04  0.7818609E-02  0.8481702E-01
       -2   -1    0    0    0  501  0.00000000000E+00  0.00000000000E+00  0.12151756555E+04  0.12151756555E+04  0.25500000920E-02 0. -1.
        2   -1    0    0  501    0  0.00000000000E+00  0.00000000000E+00 -0.10792880341E+04  0.10792880341E+04  0.25500000920E-02 0.  1.
    10030    2    1    2    0    0  0.00000000000E+00  0.00000000000E+00  0.13588762136E+03  0.22944636896E+04  0.22904362417E+04 0.  0.
        1    1    3    3  502    0 -0.90427894707E+03 -0.14768266713E+03  0.75617001258E+03  0.11879914445E+04  0.50400001928E-02 0.  1.
       -1    1    3    3    0  502  0.90427894707E+03  0.14768266713E+03 -0.62028239122E+03  0.11064722451E+04  0.50400001928E-02 0. -1.
</event>
<event>
 5   0  0.1284837E-05  0.2297034E+04  0.7818609E-02  0.8479091E-01
        1   -1    0    0  501    0  0.00000000000E+00  0.00000000000E+00  0.12418870194E+04  0.12418870194E+04  0.50400001928E-02 0.  1.
       -1   -1    0    0    0  501  0.00000000000E+00  0.00000000000E+00 -0.10621669599E+04  0.10621669599E+04  0.50400001928E-02 0. -1.
    10030    2    1    2    0    0  0.00000000000E+00  0.00000000000E+00  0.17972005950E+03  0.23040539793E+04  0.22970340529E+04 0.  0.
        4    1    3    3  502    0  0.54823274829E+03  0.19432058117E+03 -0.90350490929E+03  0.10745428649E+04  0.12699999809E+01 0. -1.
       -4    1    3    3    0  502 -0.54823274829E+03 -0.19432058117E+03  0.10832249688E+04  0.12295111144E+04  0.12699999809E+01 0.  1.
</event>
<event>
 5   0  0.2871888E-05  0.2287305E+04  0.7818609E-02  0.8482943E-01
        2   -1    0    0  501    0  0.00000000000E+00  0.00000000000E+00  0.20715953151E+04  0.20715953151E+04  0.25500000920E-02 0. -1.
       -2   -1    0    0    0  501  0.00000000000E+00  0.00000000000E+00 -0.63136896719E+03  0.63136896720E+03  0.25500000920E-02 0.  1.
    10030    2    1    2    0    0  0.00000000000E+00  0.00000000000E+00  0.14402263479E+04  0.27029642823E+04  0.22873049596E+04 0.  0.
        3    1    3    3  502    0 -0.11058342108E+03 -0.10106750984E+04  0.10125935104E+03  0.10217369103E+04  0.10100000352E+00 0.  1.
       -3    1    3    3    0  502  0.11058342108E+03  0.10106750984E+04  0.13389669969E+04  0.16812273720E+04  0.10100000352E+00 0. -1.
</event>
<event>
 5   0  0.1308224E-05  0.2310994E+04  0.7818609E-02  0.8473599E-01
        1   -1    0    0  501    0  0.00000000000E+00  0.00000000000E+00  0.21929173791E+04  0.21929173791E+04  0.50400001928E-02 0. -1.
       -1   -1    0    0    0  501  0.00000000000E+00  0.00000000000E+00 -0.60885697480E+03  0.60885697482E+03  0.50400001928E-02 0.  1.
    10030    2    1    2    0    0  0.00000000000E+00  0.00000000000E+00  0.15840604043E+04  0.28017743540E+04  0.23109937616E+04 0.  0.
        5    1    3    3  502    0  0.73429057108E+03  0.82269262297E+03  0.12105081518E+04  0.16374852275E+04  0.46999998093E+01 0. -1.
       -5    1    3    3    0  502 -0.73429057108E+03 -0.82269262297E+03  0.37355225253E+03  0.11642891265E+04  0.46999998093E+01 0.  1.
</event>
<event>
 5   0  0.1371753E-05  0.2303224E+04  0.7818609E-02  0.8476651E-01
        1   -1    0    0  501    0  0.00000000000E+00  0.00000000000E+00  0.15671906149E+04  0.15671906149E+04  0.50400001928E-02 0. -1.
       -1   -1    0    0    0  501  0.00000000000E+00  0.00000000000E+00 -0.84623407315E+03  0.84623407317E+03  0.50400001928E-02 0.  1.
    10030    2    1    2    0    0  0.00000000000E+00  0.00000000000E+00  0.72095654177E+03  0.24134246881E+04  0.23032239123E+04 0.  0.
        3    1    3    3  502    0  0.70611050804E+03  0.38312294983E+03  0.12250847327E+04  0.14649941491E+04  0.10100000352E+00 0. -1.
       -3    1    3    3    0  502 -0.70611050804E+03 -0.38312294983E+03 -0.50412819095E+03  0.94843053903E+03  0.10100000352E+00 0.  1.
</event>
<event>
 5   0  0.1017200E-05  0.2297416E+04  0.7818609E-02  0.8478941E-01
       -3   -1    0    0    0  501  0.00000000000E+00  0.00000000000E+00  0.14757511023E+04  0.14757511058E+04  0.10100000352E+00 0. -1.
        3   -1    0    0  501    0  0.00000000000E+00  0.00000000000E+00 -0.89414132212E+03  0.89414132783E+03  0.10100000352E+00 0.  1.
    10030    2    1    2    0    0  0.00000000000E+00  0.00000000000E+00  0.58160978022E+03  0.23698924336E+04  0.22974159855E+04 0.  0.
        5    1    3    3  502    0 -0.19594128441E+03 -0.77160965934E+03  0.11450188843E+04  0.13945840917E+04  0.46999998093E+01 0. -1.
       -5    1    3    3    0  502  0.19594128441E+03  0.77160965934E+03 -0.56340910409E+03  0.97530834196E+03  0.46999998093E+01 0.  1.
</event>
<event>
 5   0  0.2938972E-05  0.2225197E+04  0.7818609E-02  0.8508013E-01
        2   -1    0    0  501    0  0.00000000000E+00  0.00000000000E+00  0.21230447625E+04  0.21230447625E+04  0.25500000920E-02 0. -1.
       -2   -1    0    0    0  501  0.00000000000E+00  0.00000000000E+00 -0.58306611420E+03  0.58306611421E+03  0.25500000920E-02 0.  1.
    10030    2    1    2    0    0  0.00000000000E+00  0.00000000000E+00  0.15399786483E+04  0.27061108767E+04  0.22251970339E+04 0.  0.
        2    1    3    3  502    0  0.95418125804E+03  0.53130925673E+03  0.51165554292E+03  0.12060442753E+04  0.25500000920E-02 0. -1.
       -2    1    3    3    0  502 -0.95418125804E+03 -0.53130925673E+03  0.10283231054E+04  0.15000666014E+04  0.25500000920E-02 0.  1.
</event>
<event>
 5   0  0.2910126E-05  0.2316792E+04  0.7818609E-02  0.8471329E-01
        2   -1    0    0  501    0  0.00000000000E+00  0.00000000000E+00  0.25353795512E+04  0.25353795512E+04  0.25500000920E-02 0. -1.
       -2   -1    0    0    0  501  0.00000000000E+00  0.00000000000E+00 -0.52926258283E+03  0.52926258283E+03  0.25500000920E-02 0.  1.
    10030    2    1    2    0    0  0.00000000000E+00  0.00000000000E+00  0.20061169684E+04  0.30646421341E+04  0.23167922045E+04 0.  0.
        5    1    3    3  502    0  0.51462332974E+03  0.69871591181E+03 -0.11981967571E+02  0.86787484955E+03  0.46999998093E+01 0.  1.
       -5    1    3    3    0  502 -0.51462332974E+03 -0.69871591181E+03  0.20180989360E+04  0.21967672845E+04  0.46999998093E+01 0. -1.
</event>
<event>
 5   0  0.1284837E-05  0.2310843E+04  0.7818609E-02  0.8473658E-01
        1   -1    0    0  501    0  0.00000000000E+00  0.00000000000E+00  0.18113224790E+04  0.18113224790E+04  0.50400001928E-02 0. -1.
       -1   -1    0    0    0  501  0.00000000000E+00  0.00000000000E+00 -0.73703020487E+03  0.73703020488E+03  0.50400001928E-02 0.  1.
    10030    2    1    2    0    0  0.00000000000E+00  0.00000000000E+00  0.10742922741E+04  0.25483526839E+04  0.23108434632E+04 0.  0.
        4    1    3    3  502    0  0.72218870334E+03 -0.20959383502E+03 -0.43023276086E+03  0.86636478479E+03  0.12699999809E+01 0.  1.
       -4    1    3    3    0  502 -0.72218870334E+03  0.20959383502E+03  0.15045250350E+04  0.16819878991E+04  0.12699999809E+01 0. -1.
</event>
<event>
 5   0  0.2994157E-05  0.2206136E+04  0.7818609E-02  0.8515878E-01
       -2   -1    0    0    0  501  0.00000000000E+00  0.00000000000E+00  0.95952637386E+03  0.95952637386E+03  0.25500000920E-02 0.  1.
        2   -1    0    0  501    0  0.00000000000E+00  0.00000000000E+00 -0.12680832309E+04  0.12680832309E+04  0.25500000920E-02 0. -1.
    10030    2    1    2    0    0  0.00000000000E+00  0.00000000000E+00 -0.30855685704E+03  0.22276096048E+04  0.22061362644E+04 0.  0.
        4    1    3    3  502    0  0.10963713121E+04  0.53971353485E+01 -0.31860963935E+02  0.10968481741E+04  0.12699999809E+01 0.  1.
       -4    1    3    3    0  502 -0.10963713121E+04 -0.53971353485E+01 -0.27669589311E+03  0.11307614307E+04  0.12699999809E+01 0. -1.
</event>
<event>
 5   0  0.1308224E-05  0.2301593E+04  0.7818609E-02  0.8477293E-01
        1   -1    0    0  501    0  0.00000000000E+00  0.00000000000E+00  0.27529253866E+04  0.27529253866E+04  0.50400001928E-02 0.  1.
       -1   -1    0    0    0  501  0.00000000000E+00  0.00000000000E+00 -0.48106383459E+03  0.48106383462E+03  0.50400001928E-02 0. -1.
    10030    2    1    2    0    0  0.00000000000E+00  0.00000000000E+00  0.22718615520E+04  0.32339892212E+04  0.23015932246E+04 0.  0.
        5    1    3    3  502    0 -0.46791607673E+03  0.55280967919E+03  0.23925151989E+04  0.24997389990E+04  0.46999998093E+01 0.  1.
       -5    1    3    3    0  502  0.46791607673E+03 -0.55280967919E+03 -0.12065364690E+03  0.73425022219E+03  0.46999998093E+01 0. -1.
</event>
<event>
 5   0  0.2938972E-05  0.2292640E+04  0.7818609E-02  0.8480829E-01
       -2   -1    0    0    0  501  0.00000000000E+00  0.00000000000E+00  0.82079961489E+03  0.82079961489E+03  0.25500000920E-02 0. -1.
        2   -1    0    0  501    0  0.00000000000E+00  0.00000000000E+00 -0.16009382009E+04  0.16009382009E+04  0.25500000920E-02 0.  1.
    10030    2    1    2    0    0  0.00000000000E+00  0.00000000000E+00 -0.78013858601E+03  0.24217378158E+04  0.22926399270E+04 0.  0.
        2    1    3    3  502    0 -0.13190654518E+03  0.12325853953E+03 -0.15858274931E+04  0.15960704377E+04  0.25500000920E-02 0.  1.
       -2    1    3    3    0  502  0.13190654518E+03 -0.12325853953E+03  0.80568890709E+03  0.82566737809E+03  0.25500000920E-02 0. -1.
</event>
<event>
 5   0  0.2871888E-05  0.2306054E+04  0.7818609E-02  0.8475538E-01
        2   -1    0    0  501    0  0.00000000000E+00  0.00000000000E+00  0.16293823348E+04  0.16293823348E+04  0.25500000920E-02 0. -1.
       -2   -1    0    0    0  501  0.00000000000E+00  0.00000000000E+00 -0.81593572174E+03  0.81593572174E+03  0.25500000920E-02 0.  1.
    10030    2    1    2    0    0  0.00000000000E+00  0.00000000000E+00  0.81344661310E+03  0.24453180566E+04  0.23060539902E+04 0.  0.
        3    1    3    3  502    0  0.41715503012E+03  0.22207011987E+03 -0.70852223960E+03  0.85166732443E+03  0.10100000352E+00 0.  1.
       -3    1    3    3    0  502 -0.41715503012E+03 -0.22207011987E+03  0.15219688527E+04  0.15936507322E+04  0.10100000352E+00 0. -1.
</event>
<event>
 5   0  0.1303224E-05  0.2258392E+04  0.7818609E-02  0.8494509E-01
       -1   -1    0    0    0  501  0.00000000000E+00  0.00000000000E+00  0.11161358861E+04  0.11161358861E+04  0.50400001928E-02 0.  1.
        1   -1    0    0  501    0  0.00000000000E+00  0.00000000000E+00 -0.11424093656E+04  0.11424093656E+04  0.50400001928E-02 0. -1.
    10030    2    1    2    0    0  0.00000000000E+00  0.00000000000E+00 -0.26273479427E+02  0.22585452517E+04  0.22583924279E+04 0.  0.
        2    1    3    3  502    0  0.79307874127E+03 -0.30107079952E+03 -0.75848347245E+03  0.11379431858E+04  0.25500000920E-02 0. -1.
       -2    1    3    3    0  502 -0.79307874127E+03  0.30107079952E+03  0.73220999302E+03  0.11206020659E+04  0.25500000920E-02 0.  1.
</event>
<event>
 5   0  0.1308224E-05  0.2271241E+04  0.7818609E-02  0.8489347E-01
        1   -1    0    0  501    0  0.00000000000E+00  0.00000000000E+00  0.14426529920E+04  0.14426529920E+04  0.50400001928E-02 0.  1.
       -1   -1    0    0    0  501  0.00000000000E+00  0.00000000000E+00 -0.89393214781E+03  0.89393214783E+03  0.50400001928E-02 0. -1.
    10030    2    1    2    0    0  0.00000000000E+00  0.00000000000E+00  0.54872084422E+03  0.23365851399E+04  0.22712409716E+04 0.  0.
        5    1    3    3  502    0  0.11173526036E+03 -0.46647031528E+03  0.13333106119E+04  0.14169751590E+04  0.46999998093E+01 0.  1.
       -5    1    3    3    0  502 -0.11173526036E+03  0.46647031528E+03 -0.78458976765E+03  0.91960998088E+03  0.46999998093E+01 0. -1.
</event>
<event>
 5   0  0.2871888E-05  0.2274386E+04  0.7818609E-02  0.8488089E-01
       -2   -1    0    0    0  501  0.00000000000E+00  0.00000000000E+00  0.21414957768E+04  0.21414957768E+04  0.25500000920E-02 0. -1.
        2   -1    0    0  501    0  0.00000000000E+00  0.00000000000E+00 -0.60388091878E+03  0.60388091879E+03  0.25500000920E-02 0.  1.
    10030    2    1    2    0    0  0.00000000000E+00  0.00000000000E+00  0.15376148581E+04  0.27453766956E+04  0.22743864556E+04 0.  0.
        3    1    3    3  502    0  0.11266266074E+03 -0.79336691003E+03 -0.20518674697E+03  0.82717926739E+03  0.10100000352E+00 0. -1.
       -3    1    3    3    0  502 -0.11266266074E+03  0.79336691003E+03  0.17428016050E+04  0.19181974282E+04  0.10100000352E+00 0.  1.
</event>
<event>
 5   0  0.2871888E-05  0.2295306E+04  0.7818609E-02  0.8479774E-01
       -2   -1    0    0    0  501  0.00000000000E+00  0.00000000000E+00  0.20926641217E+04  0.20926641217E+04  0.25500000920E-02 0. -1.
        2   -1    0    0  501    0  0.00000000000E+00  0.00000000000E+00 -0.62939247851E+03  0.62939247851E+03  0.25500000920E-02 0.  1.
    10030    2    1    2    0    0  0.00000000000E+00  0.00000000000E+00  0.14632716431E+04  0.27220566002E+04  0.22953056949E+04 0.  0.
        3    1    3    3  502    0 -0.83487996334E+03 -0.78547203859E+03  0.66543440410E+03  0.13254409956E+04  0.10100000352E+00 0.  1.
       -3    1    3    3    0  502  0.83487996334E+03  0.78547203859E+03  0.79783723905E+03  0.13966156045E+04  0.10100000352E+00 0. -1.
</event>
<event>
 5   0  0.2938972E-05  0.2232968E+04  0.7818609E-02  0.8504830E-01
        2   -1    0    0  501    0  0.00000000000E+00  0.00000000000E+00  0.11520655161E+04  0.11520655161E+04  0.25500000920E-02 0.  1.
       -2   -1    0    0    0  501  0.00000000000E+00  0.00000000000E+00 -0.10820012860E+04  0.10820012860E+04  0.25500000920E-02 0. -1.
    10030    2    1    2    0    0  0.00000000000E+00  0.00000000000E+00  0.70064230100E+02  0.22340668020E+04  0.22329678635E+04 0.  0.
        2    1    3    3  502    0  0.35228794825E+03  0.36479129780E+03 -0.96012160640E+03  0.10858236452E+04  0.25500000920E-02 0. -1.
       -2    1    3    3    0  502 -0.35228794825E+03 -0.36479129780E+03  0.10301858365E+04  0.11482431568E+04  0.25500000920E-02 0.  1.
</event>
<event>
 5   0  0.1327820E-05  0.2147566E+04  0.7818609E-02  0.8540575E-01
        1   -1    0    0  501    0  0.00000000000E+00  0.00000000000E+00  0.93682891034E+03  0.93682891036E+03  0.50400001928E-02 0.  1.
       -1   -1    0    0    0  501  0.00000000000E+00  0.00000000000E+00 -0.12307586796E+04  0.12307586796E+04  0.50400001928E-02 0. -1.
    10030    2    1    2    0    0  0.00000000000E+00  0.00000000000E+00 -0.29392976924E+03  0.21675875899E+04  0.21475663554E+04 0.  0.
        1    1    3    3  502    0  0.27675464562E+03 -0.84105189007E+03  0.46619258063E+03  0.10006482588E+04  0.50400001928E-02 0.  1.
       -1    1    3    3    0  502 -0.27675464562E+03  0.84105189007E+03 -0.76012234987E+03  0.11669393311E+04  0.50400001928E-02 0. -1.
</event>
<event>
 5   0  0.2994157E-05  0.2333346E+04  0.7818609E-02  0.8464888E-01
        2   -1    0    0  501    0  0.00000000000E+00  0.00000000000E+00  0.15043301558E+04  0.15043301558E+04  0.25500000920E-02 0. -1.
       -2   -1    0    0    0  501  0.00000000000E+00  0.00000000000E+00 -0.90480548554E+03  0.90480548555E+03  0.25500000920E-02 0.  1.
    10030    2    1    2    0    0  0.00000000000E+00  0.00000000000E+00  0.59952467029E+03  0.24091356414E+04  0.23333462470E+04 0.  0.
        4    1    3    3  502    0  0.16444910889E+03  0.10029928693E+04 -0.29163062539E+03  0.10573969169E+04  0.12699999809E+01 0.  1.
       -4    1    3    3    0  502 -0.16444910889E+03 -0.10029928693E+04  0.89115529568E+03  0.13517387245E+04  0.12699999809E+01 0. -1.
</event>
<event>
 5   0  0.2871888E-05  0.2311145E+04  0.7818609E-02  0.8473540E-01
       -2   -1    0    0    0  501  0.00000000000E+00  0.00000000000E+00  0.53083521525E+03  0.53083521526E+03  0.25500000920E-02 0.  1.
        2   -1    0    0  501    0  0.00000000000E+00  0.00000000000E+00 -0.25155602143E+04  0.25155602143E+04  0.25500000920E-02 0. -1.
    10030    2    1    2    0    0  0.00000000000E+00  0.00000000000E+00 -0.19847249990E+04  0.30463954296E+04  0.23111451256E+04 0.  0.
        3    1    3    3  502    0 -0.72139613247E+03 -0.78208099247E+02 -0.21778166017E+04  0.22955204307E+04  0.10100000352E+00 0. -1.
       -3    1    3    3    0  502  0.72139613247E+03  0.78208099247E+02  0.19309160267E+03  0.75087499888E+03  0.10100000352E+00 0.  1.
</event>
<event>
 5   0  0.1303224E-05  0.2305742E+04  0.7818609E-02  0.8475660E-01
       -1   -1    0    0    0  501  0.00000000000E+00  0.00000000000E+00  0.16392764682E+04  0.16392764682E+04  0.50400001928E-02 0. -1.
        1   -1    0    0  501    0  0.00000000000E+00  0.00000000000E+00 -0.81079183976E+03  0.81079183978E+03  0.50400001928E-02 0.  1.
    10030    2    1    2    0    0  0.00000000000E+00  0.00000000000E+00  0.82848462842E+03  0.24500683080E+04  0.23057423824E+04 0.  0.
        2    1    3    3  502    0 -0.22931742359E+03 -0.12491217627E+03 -0.77895316410E+03  0.82155801038E+03  0.25500000920E-02 0.  1.
       -2    1    3    3    0  502  0.22931742359E+03  0.12491217627E+03  0.16074377925E+04  0.16285102976E+04  0.25500000920E-02 0. -1.
</event>
<event>
 5   0  0.1327820E-05  0.2249921E+04  0.7818609E-02  0.8497932E-01
        1   -1    0    0  501    0  0.00000000000E+00  0.00000000000E+00  0.99077330476E+03  0.99077330477E+03  0.50400001928E-02 0. -1.
       -1   -1    0    0    0  501  0.00000000000E+00  0.00000000000E+00 -0.12773218126E+04  0.12773218126E+04  0.50400001928E-02 0.  1.
    10030    2    1    2    0    0  0.00000000000E+00  0.00000000000E+00 -0.28654850782E+03  0.22680951174E+04  0.22499212017E+04 0.  0.
        1    1    3    3  502    0 -0.35643757088E+03  0.44962915029E+03 -0.11187278737E+04  0.12572852382E+04  0.50400001928E-02 0.  1.
       -1    1    3    3    0  502  0.35643757088E+03 -0.44962915029E+03  0.83217936590E+03  0.10108098792E+04  0.50400001928E-02 0. -1.
</event>
<event>
 5   0  0.2816178E-05  0.2298994E+04  0.7818609E-02  0.8478318E-01
        2   -1    0    0  501    0  0.00000000000E+00  0.00000000000E+00  0.18391135660E+04  0.18391135660E+04  0.25500000920E-02 0.  1.
       -2   -1    0    0    0  501  0.00000000000E+00  0.00000000000E+00 -0.71846732730E+03  0.71846732730E+03  0.25500000920E-02 0. -1.
    10030    2    1    2    0    0  0.00000000000E+00  0.00000000000E+00  0.11206462387E+04  0.25575808933E+04  0.22989937002E+04 0.  0.
        1    1    3    3  502    0  0.46917028127E+02 -0.58651367137E+03 -0.53824215257E+03  0.79743595922E+03  0.50400001928E-02 0. -1.
       -1    1    3    3    0  502 -0.46917028127E+02  0.58651367137E+03  0.16588883913E+04  0.17601449341E+04  0.50400001928E-02 0.  1.
</event>
<event>
 5   0  0.1308224E-05  0.2336648E+04  0.7818609E-02  0.8463610E-01
       -1   -1    0    0    0  501  0.00000000000E+00  0.00000000000E+00  0.11640217719E+04  0.11640217719E+04  0.50400001928E-02 0. -1.
        1   -1    0    0  501    0  0.00000000000E+00  0.00000000000E+00 -0.11726425054E+04  0.11726425054E+04  0.50400001928E-02 0.  1.
    10030    2    1    2    0    0  0.00000000000E+00  0.00000000000E+00 -0.86207335127E+01  0.23366642774E+04  0.23366483749E+04 0.  0.
        5    1    3    3  502    0 -0.66610017263E+03  0.94917817411E+03 -0.14689699849E+03  0.11688581883E+04  0.46999998093E+01 0.  1.
       -5    1    3    3    0  502  0.66610017263E+03 -0.94917817411E+03  0.13827626498E+03  0.11678060891E+04  0.46999998093E+01 0. -1.
</event>
<event>
 5   0  0.1327820E-05  0.2296691E+04  0.7818609E-02  0.8479227E-01
        1   -1    0    0  501    0  0.00000000000E+00  0.00000000000E+00  0.18106412134E+04  0.18106412134E+04  0.50400001928E-02 0. -1.
       -1   -1    0    0    0  501  0.00000000000E+00  0.00000000000E+00 -0.72830388822E+03  0.72830388824E+03  0.50400001928E-02 0.  1.
    10030    2    1    2    0    0  0.00000000000E+00  0.00000000000E+00  0.10823373252E+04  0.25389451016E+04  0.22966906939E+04 0.  0.
        1    1    3    3  502    0 -0.61909467041E+03 -0.14662587067E+03 -0.51566056166E+03  0.81895248443E+03  0.50400001928E-02 0.  1.
       -1    1    3    3    0  502  0.61909467041E+03  0.14662587067E+03  0.15979978868E+04  0.17199926172E+04  0.50400001928E-02 0. -1.
</event>
<event>
 5   0  0.2871888E-05  0.2283751E+04  0.7818609E-02  0.8484356E-01
        2   -1    0    0  501    0  0.00000000000E+00  0.00000000000E+00  0.17007274334E+04  0.17007274334E+04  0.25500000920E-02 0. -1.
       -2   -1    0    0    0  501  0.00000000000E+00  0.00000000000E+00 -0.76665965056E+03  0.76665965056E+03  0.25500000920E-02 0.  1.
    10030    2    1    2    0    0  0.00000000000E+00  0.00000000000E+00  0.93406778279E+03  0.24673870839E+04  0.22837505116E+04 0.  0.
        3    1    3    3  502    0 -0.15891076428E+03  0.92567056067E+03  0.11686855667E+04  0.14993147041E+04  0.10100000352E+00 0. -1.
       -3    1    3    3    0  502  0.15891076428E+03 -0.92567056067E+03 -0.23461778389E+03  0.96807237984E+03  0.10100000352E+00 0.  1.
</event>
<event>
 5   0  0.1327820E-05  0.2291749E+04  0.7818609E-02  0.8481181E-01
        1   -1    0    0  501    0  0.00000000000E+00  0.00000000000E+00  0.15630940820E+04  0.15630940820E+04  0.50400001928E-02 0.  1.
       -1   -1    0    0    0  501  0.00000000000E+00  0.00000000000E+00 -0.84001881174E+03  0.84001881175E+03  0.50400001928E-02 0. -1.
    10030    2    1    2    0    0  0.00000000000E+00  0.00000000000E+00  0.72307527022E+03  0.24031128937E+04  0.22917490555E+04 0.  0.
        1    1    3    3  502    0 -0.59669844581E+03  0.59118227296E+03  0.11788238013E+04  0.14474705764E+04  0.50400001928E-02 0.  1.
       -1    1    3    3    0  502  0.59669844581E+03 -0.59118227296E+03 -0.45574853104E+03  0.95564231733E+03  0.50400001928E-02 0. -1.
</event>
<event>
 5   0  0.1327820E-05  0.2286392E+04  0.7818609E-02  0.8483306E-01
        1   -1    0    0  501    0  0.00000000000E+00  0.00000000000E+00  0.12328868583E+04  0.12328868583E+04  0.50400001928E-02 0.  1.
       -1   -1    0    0    0  501  0.00000000000E+00  0.00000000000E+00 -0.10600300062E+04  0.10600300062E+04  0.50400001928E-02 0. -1.
    10030    2    1    2    0    0  0.00000000000E+00  0.00000000000E+00  0.17285685207E+03  0.22929168645E+04  0.22863919734E+04 0.  0.
        1    1    3    3  502    0  0.11283612919E+04  0.26355411745E+02  0.26861483847E+03  0.11601929772E+04  0.50400001928E-02 0. -1.
       -1    1    3    3    0  502 -0.11283612919E+04 -0.26355411745E+02 -0.95757986397E+02  0.11327238873E+04  0.50400001928E-02 0.  1.
</event>
<event>
 5   0  0.1303224E-05  0.2310463E+04  0.7818609E-02  0.8473807E-01
        1   -1    0    0  501    0  0.00000000000E+00  0.00000000000E+00  0.72596843534E+03  0.72596843536E+03  0.50400001928E-02 0. -1.
       -1   -1    0    0    0  501  0.00000000000E+00  0.00000000000E+00 -0.18383165069E+04  0.18383165069E+04  0.50400001928E-02 0.  1.
    10030    2    1    2    0    0  0.00000000000E+00  0.00000000000E+00 -0.11123480715E+04  0.25642849422E+04  0.23104629477E+04 0.  0.
        2    1    3    3  502    0 -0.10047978095E+04 -0.47006135621E+03 -0.19828419737E+03  0.11268952656E+04  0.25500000920E-02 0. -1.
       -2    1    3    3    0  502  0.10047978095E+04  0.47006135621E+03 -0.91406387415E+03  0.14373896767E+04  0.25500000920E-02 0.  1.
</event>
<event>
 5   0  0.2816178E-05  0.2300389E+04  0.7818609E-02  0.8477768E-01
        2   -1    0    0  501    0  0.00000000000E+00  0.00000000000E+00  0.13727838536E+04  0.13727838536E+04  0.25500000920E-02 0. -1.
       -2   -1    0    0    0  501  0.00000000000E+00  0.00000000000E+00 -0.96369694647E+03  0.96369694647E+03  0.25500000920E-02 0.  1.
    10030    2    1    2    0    0  0.00000000000E+00  0.00000000000E+00  0.40908690713E+03  0.23364808001E+04  0.23003891913E+04 0.  0.
        1    1    3    3  502    0  0.10342090259E+04  0.50138643306E+03  0.15945161317E+03  0.11603454148E+04  0.50400001928E-02 0. -1.
       -1    1    3    3    0  502 -0.10342090259E+04 -0.50138643306E+03  0.24963529395E+03  0.11761353853E+04  0.50400001928E-02 0.  1.
</event>
<event>
 5   0  0.1017200E-05  0.2286995E+04  0.7818609E-02  0.8483067E-01
       -3   -1    0    0    0  501  0.00000000000E+00  0.00000000000E+00  0.79907321382E+03  0.79907322020E+03  0.10100000352E+00 0.  1.
        3   -1    0    0  501    0  0.00000000000E+00  0.00000000000E+00 -0.16363786394E+04  0.16363786425E+04  0.10100000352E+00 0. -1.
    10030    2    1    2    0    0  0.00000000000E+00  0.00000000000E+00 -0.83730542556E+03  0.24354518627E+04  0.22869948404E+04 0.  0.
        5    1    3    3  502    0  0.70400655713E+03 -0.93057075072E+01 -0.13781702417E+04  0.15476069055E+04  0.46999998093E+01 0. -1.
       -5    1    3    3    0  502 -0.70400655713E+03  0.93057075072E+01  0.54086481618E+03  0.88784495722E+03  0.46999998093E+01 0.  1.
</event>
<event>
 5   0  0.2871888E-05  0.2327228E+04  0.7818609E-02  0.8467262E-01
       -2   -1    0    0    0  501  0.00000000000E+00  0.00000000000E+00  0.13702759785E+04  0.13702759785E+04  0.25500000920E-02 0. -1.
        2   -1    0    0  501    0  0.00000000000E+00  0.00000000000E+00 -0.98812049558E+03  0.98812049559E+03  0.25500000920E-02 0.  1.
    10030    2    1    2    0    0  0.00000000000E+00  0.00000000000E+00  0.38215548287E+03  0.23583964740E+04  0.23272282045E+04 0.  0.
        3    1    3    3  502    0 -0.94616498616E+02 -0.84615541511E+03 -0.61268176846E+03  0.10489567331E+04  0.10100000352E+00 0.  1.
       -3    1    3    3    0  502  0.94616498616E+02  0.84615541511E+03  0.99483725133E+03  0.13094397409E+04  0.10100000352E+00 0. -1.
</event>
<event>
 5   0  0.2938972E-05  0.2301900E+04  0.7818609E-02  0.8477172E-01
       -2   -1    0    0    0  501  0.00000000000E+00  0.00000000000E+00  0.87525271806E+03  0.87525271806E+03  0.25500000920E-02 0.  1.
        2   -1    0    0  501    0  0.00000000000E+00  0.00000000000E+00 -0.15134896852E+04  0.15134896852E+04  0.25500000920E-02 0. -1.
    10030    2    1    2    0    0  0.00000000000E+00  0.00000000000E+00 -0.63823696715E+03  0.23887424033E+04  0.23019000506E+04 0.  0.
        2    1    3    3  502    0 -0.64410992927E+03  0.37275692100E+03  0.59199147043E+03  0.95093597271E+03  0.25500000920E-02 0.  1.
       -2    1    3    3    0  502  0.64410992927E+03 -0.37275692100E+03 -0.12302284376E+04  0.14378064306E+04  0.25500000920E-02 0. -1.
</event>
<event>
 5   0  0.2816178E-05  0.2194327E+04  0.7818609E-02  0.8520793E-01
        2   -1    0    0  501    0  0.00000000000E+00  0.00000000000E+00  0.10671231837E+04  0.10671231837E+04  0.25500000920E-02 0.  1.
       -2   -1    0    0    0  501  0.00000000000E+00  0.00000000000E+00 -0.11280490486E+04  0.11280490486E+04  0.25500000920E-02 0. -1.
    10030    2    1    2    0    0  0.00000000000E+00  0.00000000000E+00 -0.60925864916E+02  0.21951722323E+04  0.21943265865E+04 0.  0.
        1    1    3    3  502    0  0.63026969133E+03  0.90447059662E+02  0.86338391524E+03  0.10727778612E+04  0.50400001928E-02 0.  1.
       -1    1    3    3    0  502 -0.63026969133E+03 -0.90447059662E+02 -0.92430978016E+03  0.11223943710E+04  0.50400001928E-02 0. -1.
</event>
<event>
 5   0  0.2871888E-05  0.2301499E+04  0.7818609E-02  0.8477330E-01
        2   -1    0    0  501    0  0.00000000000E+00  0.00000000000E+00  0.27497086676E+04  0.27497086677E+04  0.25500000920E-02 0. -1.
       -2   -1    0    0    0  501  0.00000000000E+00  0.00000000000E+00 -0.48158706957E+03  0.48158706958E+03  0.25500000920E-02 0.  1.
    10030    2    1    2    0    0  0.00000000000E+00  0.00000000000E+00  0.22681215981E+04  0.32312957372E+04  0.23014987634E+04 0.  0.
        3    1    3    3  502    0 -0.11367606909E+04  0.17879300576E+03  0.11260787508E+04  0.16100450834E+04  0.10100000352E+00 0. -1.
       -3    1    3    3    0  502  0.11367606909E+04 -0.17879300576E+03  0.11420428472E+04  0.16212506538E+04  0.10100000352E+00 0.  1.
</event>
<event>
 5   0  0.1327820E-05  0.2275735E+04  0.7818609E-02  0.8487551E-01
        1   -1    0    0  501    0  0.00000000000E+00  0.00000000000E+00  0.18224260621E+04  0.18224260621E+04  0.50400001928E-02 0.  1.
       -1   -1    0    0    0  501  0.00000000000E+00  0.00000000000E+00 -0.71044965362E+03  0.71044965364E+03  0.50400001928E-02 0. -1.
    10030    2    1    2    0    0  0.00000000000E+00  0.00000000000E+00  0.11119764085E+04  0.25328757158E+04  0.22757345756E+04 0.  0.
        1    1    3    3  502    0  0.87658638003E+02 -0.10576572769E+04  0.99228450138E+02  0.10659123967E+04  0.50400001928E-02 0. -1.
       -1    1    3    3    0  502 -0.87658638003E+02  0.10576572769E+04  0.10127479584E+04  0.14669633190E+04  0.50400001928E-02 0.  1.
</event>
<event>
 5   0  0.1017200E-05  0.2286707E+04  0.7818609E-02  0.8483181E-01
        3   -1    0    0  501    0  0.00000000000E+00  0.00000000000E+00  0.18943564240E+04  0.18943564267E+04  0.10100000352E+00 0.  1.
       -3   -1    0    0    0  501  0.00000000000E+00  0.00000000000E+00 -0.69007983255E+03  0.69007983994E+03  0.10100000352E+00 0. -1.
    10030    2    1    2    0    0  0.00000000000E+00  0.00000000000E+00  0.12042765915E+04  0.25844362667E+04  0.22867069571E+04 0.  0.
        3    1    3    3  502    0  0.85593853123E+02  0.11212656937E+04  0.36861013404E+03  0.11834003992E+04  0.10100000352E+00 0.  1.
       -3    1    3    3    0  502 -0.85593853123E+02 -0.11212656937E+04  0.83566645744E+03  0.14010358675E+04  0.10100000352E+00 0. -1.
</event>
<event>
 5   0  0.2994157E-05  0.2210465E+04  0.7818609E-02  0.8514085E-01
       -2   -1    0    0    0  501  0.00000000000E+00  0.00000000000E+00  0.47060727550E+03  0.47060727550E+03  0.25500000920E-02 0. -1.
        2   -1    0    0  501    0  0.00000000000E+00  0.00000000000E+00 -0.25956650460E+04  0.25956650460E+04  0.25500000920E-02 0.  1.
    10030    2    1    2    0    0  0.00000000000E+00  0.00000000000E+00 -0.21250577705E+04  0.30662723215E+04  0.22104649786E+04 0.  0.
        4    1    3    3  502    0 -0.44375131550E+03 -0.55207353199E+03 -0.22394412216E+04  0.23487867108E+04  0.12699999809E+01 0.  1.
       -4    1    3    3    0  502  0.44375131550E+03  0.55207353199E+03  0.11438345117E+03  0.71748561068E+03  0.12699999809E+01 0. -1.
</event>
<event>
 5   0  0.2938972E-05  0.2214119E+04  0.7818609E-02  0.8512575E-01
        2   -1    0    0  501    0  0.00000000000E+00  0.00000000000E+00  0.12196421087E+04  0.12196421087E+04  0.25500000920E-02 0.  1.
       -2   -1    0    0    0  501  0.00000000000E+00  0.00000000000E+00 -0.10048687544E+04  0.10048687544E+04  0.25500000920E-02 0. -1.
    10030    2    1    2    0    0  0.00000000000E+00  0.00000000000E+00  0.21477335427E+03  0.22245108631E+04  0.22141185574E+04 0.  0.
        2    1    3    3  502    0  0.35117753860E+03  0.93528491257E+03 -0.37181819419E+03  0.10659888840E+04  0.25500000920E-02 0.  1.
       -2    1    3    3    0  502 -0.35117753860E+03 -0.93528491257E+03  0.58659154846E+03  0.11585219791E+04  0.25500000920E-02 0. -1.
</event>
<event>
 5   0  0.1303224E-05  0.2302408E+04  0.7818609E-02  0.8476972E-01
       -1   -1    0    0    0  501  0.00000000000E+00  0.00000000000E+00  0.67318263429E+03  0.67318263431E+03  0.50400001928E-02 0.  1.
        1   -1    0    0  501    0  0.00000000000E+00  0.00000000000E+00 -0.19686649039E+04  0.19686649039E+04  0.50400001928E-02 0. -1.
    10030    2    1    2    0    0  0.00000000000E+00  0.00000000000E+00 -0.12954822696E+04  0.26418475382E+04  0.23024083270E+04 0.  0.
        2    1    3    3  502    0 -0.37544681264E+03  0.22161840916E+03  0.57479253563E+03  0.72143016809E+03  0.25500000920E-02 0.  1.
       -2    1    3    3    0  502  0.37544681264E+03 -0.22161840916E+03 -0.18702748053E+04  0.19204173702E+04  0.25500000920E-02 0. -1.
</event>
<event>
 5   0  0.1017200E-05  0.2305080E+04  0.7818609E-02  0.8475921E-01
       -4   -1    0    0    0  501  0.00000000000E+00  0.00000000000E+00  0.18085291393E+04  0.18085295853E+04  0.12699999809E+01 0. -1.
        4   -1    0    0  501    0  0.00000000000E+00  0.00000000000E+00 -0.73449005672E+03  0.73449115469E+03  0.12699999809E+01 0.  1.
    10030    2    1    2    0    0  0.00000000000E+00  0.00000000000E+00  0.10740390826E+04  0.25430207399E+04  0.23050801576E+04 0.  0.
        5    1    3    3  502    0  0.35897369053E+03 -0.89384741294E+03  0.12351969624E+04  0.15663840315E+04  0.46999998093E+01 0. -1.
       -5    1    3    3    0  502 -0.35897369053E+03  0.89384741294E+03 -0.16115787978E+03  0.97663670847E+03  0.46999998093E+01 0.  1.
</event>
<event>
 5   0  0.2816178E-05  0.2300475E+04  0.7818609E-02  0.8477734E-01
       -2   -1    0    0    0  501  0.00000000000E+00  0.00000000000E+00  0.96406087887E+03  0.96406087887E+03  0.25500000920E-02 0.  1.
        2   -1    0    0  501    0  0.00000000000E+00  0.00000000000E+00 -0.13723685798E+04  0.13723685798E+04  0.25500000920E-02 0. -1.
    10030    2    1    2    0    0  0.00000000000E+00  0.00000000000E+00 -0.40830770098E+03  0.23364294587E+04  0.23004754806E+04 0.  0.
        1    1    3    3  502    0  0.89946386451E+03  0.52926495252E+03 -0.69533433265E+03  0.12540520195E+04  0.50400001928E-02 0. -1.
       -1    1    3    3    0  502 -0.89946386451E+03 -0.52926495252E+03  0.28702663167E+03  0.10823774392E+04  0.50400001928E-02 0.  1.
</event>
<event>
 5   0  0.1327820E-05  0.2296445E+04  0.7818609E-02  0.8479324E-01
        1   -1    0    0  501    0  0.00000000000E+00  0.00000000000E+00  0.12018442271E+04  0.12018442271E+04  0.50400001928E-02 0.  1.
       -1   -1    0    0    0  501  0.00000000000E+00  0.00000000000E+00 -0.10969929492E+04  0.10969929492E+04  0.50400001928E-02 0. -1.
    10030    2    1    2    0    0  0.00000000000E+00  0.00000000000E+00  0.10485127785E+03  0.22988371763E+04  0.22964447680E+04 0.  0.
        1    1    3    3  502    0  0.15496965196E+03  0.44622816948E+03  0.11000719329E+04  0.11972023345E+04  0.50400001928E-02 0.  1.
       -1    1    3    3    0  502 -0.15496965196E+03 -0.44622816948E+03 -0.99522065505E+03  0.11016348417E+04  0.50400001928E-02 0. -1.
</event>
<event>
 5   0  0.1308224E-05  0.2310656E+04  0.7818609E-02  0.8473731E-01
       -1   -1    0    0    0  501  0.00000000000E+00  0.00000000000E+00  0.12217763321E+04  0.12217763321E+04  0.50400001928E-02 0. -1.
        1   -1    0    0  501    0  0.00000000000E+00  0.00000000000E+00 -0.10924935285E+04  0.10924935285E+04  0.50400001928E-02 0.  1.
    10030    2    1    2    0    0  0.00000000000E+00  0.00000000000E+00  0.12928280357E+03  0.23142698606E+04  0.23106559554E+04 0.  0.
        5    1    3    3  502    0 -0.25896495685E+03 -0.10602251508E+04  0.44420697945E+03  0.11783387246E+04  0.46999998093E+01 0. -1.
       -5    1    3    3    0  502  0.25896495685E+03  0.10602251508E+04 -0.31492417588E+03  0.11359311360E+04  0.46999998093E+01 0.  1.
</event>
<event>
 5   0  0.1327820E-05  0.2296864E+04  0.7818609E-02  0.8479159E-01
       -1   -1    0    0    0  501  0.00000000000E+00  0.00000000000E+00  0.81347992906E+03  0.81347992907E+03  0.50400001928E-02 0. -1.
        1   -1    0    0  501    0  0.00000000000E+00  0.00000000000E+00 -0.16213015322E+04  0.16213015322E+04  0.50400001928E-02 0.  1.
    10030    2    1    2    0    0  0.00000000000E+00  0.00000000000E+00 -0.80782160311E+03  0.24347814612E+04  0.22968641713E+04 0.  0.
        1    1    3    3  502    0  0.10480024637E+04 -0.40374836048E+03 -0.14955643056E+03  0.11330000126E+04  0.50400001928E-02 0.  1.
       -1    1    3    3    0  502 -0.10480024637E+04  0.40374836048E+03 -0.65826517255E+03  0.13017814486E+04  0.50400001928E-02 0. -1.
</event>
<event>
 5   0  0.1371753E-05  0.2305396E+04  0.7818609E-02  0.8475797E-01
       -1   -1    0    0    0  501  0.00000000000E+00  0.00000000000E+00  0.12413853250E+04  0.12413853250E+04  0.50400001928E-02 0. -1.
        1   -1    0    0  501    0  0.00000000000E+00  0.00000000000E+00 -0.10703465491E+04  0.10703465491E+04  0.50400001928E-02 0.  1.
    10030    2    1    2    0    0  0.00000000000E+00  0.00000000000E+00  0.17103877588E+03  0.23117318741E+04  0.23053958434E+04 0.  0.
        3    1    3    3  502    0 -0.87155629401E+03 -0.75115404579E+03  0.15544260428E+02  0.11506886670E+04  0.10100000352E+00 0. -1.
       -3    1    3    3    0  502  0.87155629401E+03  0.75115404579E+03  0.15549451545E+03  0.11610432071E+04  0.10100000352E+00 0.  1.
</event>
<event>
 5   0  0.2871888E-05  0.2306772E+04  0.7818609E-02  0.8475256E-01
       -2   -1    0    0    0  501  0.00000000000E+00  0.00000000000E+00  0.84122915312E+03  0.84122915312E+03  0.25500000920E-02 0.  1.
        2   -1    0    0  501    0  0.00000000000E+00  0.00000000000E+00 -0.15813753665E+04  0.15813753665E+04  0.25500000920E-02 0. -1.
    10030    2    1    2    0    0  0.00000000000E+00  0.00000000000E+00 -0.74014621341E+03  0.24226045196E+04  0.23067718226E+04 0.  0.
        3    1    3    3  502    0 -0.22361772416E+03 -0.22040884756E+01 -0.15583891053E+04  0.15743526791E+04  0.10100000352E+00 0. -1.
       -3    1    3    3    0  502  0.22361772416E+03  0.22040884756E+01  0.81824289190E+03  0.84825184050E+03  0.10100000352E+00 0.  1.
</event>
<event>
 5   0  0.2816178E-05  0.2301398E+04  0.7818609E-02  0.8477370E-01
        2   -1    0    0  501    0  0.00000000000E+00  0.00000000000E+00  0.18766472283E+04  0.18766472283E+04  0.25500000920E-02 0.  1.
       -2   -1    0    0    0  501  0.00000000000E+00  0.00000000000E+00 -0.70557133913E+03  0.70557133913E+03  0.25500000920E-02 0. -1.
    10030    2    1    2    0    0  0.00000000000E+00  0.00000000000E+00  0.11710758892E+04  0.25822185674E+04  0.23013982688E+04 0.  0.
        1    1    3    3  502    0  0.80288091541E+03  0.31569628646E+03 -0.26884049572E+03  0.90363550272E+03  0.50400001928E-02 0. -1.
       -1    1    3    3    0  502 -0.80288091541E+03 -0.31569628646E+03  0.14399163849E+04  0.16785830647E+04  0.50400001928E-02 0.  1.
</event>
<event>
 5   0  0.2994157E-05  0.2241806E+04  0.7818609E-02  0.8501226E-01
        2   -1    0    0  501    0  0.00000000000E+00  0.00000000000E+00  0.16470242619E+04  0.16470242619E+04  0.25500000920E-02 0.  1.
       -2   -1    0    0    0  501  0.00000000000E+00  0.00000000000E+00 -0.76284464563E+03  0.76284464563E+03  0.25500000920E-02 0. -1.
    10030    2    1    2    0    0  0.00000000000E+00  0.00000000000E+00  0.88417961630E+03  0.24098689076E+04  0.22418060928E+04 0.  0.
        4    1    3    3  502    0  0.65611076697E+03 -0.90775858222E+03  0.39504791427E+03  0.11876748080E+04  0.12699999809E+01 0.  1.
       -4    1    3    3    0  502 -0.65611076697E+03  0.90775858222E+03  0.48913170204E+03  0.12221940995E+04  0.12699999809E+01 0. -1.
</event>
<event>
 5   0  0.1303224E-05  0.2252438E+04  0.7818609E-02  0.8496914E-01
       -1   -1    0    0    0  501  0.00000000000E+00  0.00000000000E+00  0.94374393544E+03  0.94374393545E+03  0.50400001928E-02 0. -1.
        1   -1    0    0  501    0  0.00000000000E+00  0.00000000000E+00 -0.13439760668E+04  0.13439760668E+04  0.50400001928E-02 0.  1.
    10030    2    1    2    0    0  0.00000000000E+00  0.00000000000E+00 -0.40023213139E+03  0.22877200023E+04  0.22524380235E+04 0.  0.
        2    1    3    3  502    0  0.41018096990E+03  0.19786449172E+03  0.84605250568E+03  0.96083485965E+03  0.25500000920E-02 0. -1.
       -2    1    3    3    0  502 -0.41018096990E+03 -0.19786449172E+03 -0.12462846371E+04  0.13268851426E+04  0.25500000920E-02 0.  1.
</event>
<event>
 5   0  0.2910126E-05  0.2299719E+04  0.7818609E-02  0.8478032E-01
        2   -1    0    0  501    0  0.00000000000E+00  0.00000000000E+00  0.88577841384E+03  0.88577841385E+03  0.25500000920E-02 0. -1.
       -2   -1    0    0    0  501  0.00000000000E+00  0.00000000000E+00 -0.14926722003E+04  0.14926722003E+04  0.25500000920E-02 0.  1.
    10030    2    1    2    0    0  0.00000000000E+00  0.00000000000E+00 -0.60689378645E+03  0.23784506141E+04  0.22997189515E+04 0.  0.
        5    1    3    3  502    0 -0.11001000507E+04  0.10023756067E+02  0.42418054127E+02  0.11009731961E+04  0.46999998093E+01 0. -1.
       -5    1    3    3    0  502  0.11001000507E+04 -0.10023756067E+02 -0.64931184058E+03  0.12774774180E+04  0.46999998093E+01 0.  1.
</event>
<event>
 5   0  0.2910126E-05  0.2293571E+04  0.7818609E-02  0.8480460E-01
        2   -1    0    0  501    0  0.00000000000E+00  0.00000000000E+00  0.16809089470E+04  0.16809089470E+04  0.25500000920E-02 0. -1.
       -2   -1    0    0    0  501  0.00000000000E+00  0.00000000000E+00 -0.78238415777E+03  0.78238415777E+03  0.25500000920E-02 0.  1.
    10030    2    1    2    0    0  0.00000000000E+00  0.00000000000E+00  0.89852478918E+03  0.24632931047E+04  0.22935706056E+04 0.  0.
        5    1    3    3  502    0  0.95833973382E+03 -0.32753268422E+03  0.10270318030E+04  0.14423970046E+04  0.46999998093E+01 0. -1.
       -5    1    3    3    0  502 -0.95833973382E+03  0.32753268422E+03 -0.12850701377E+03  0.10208961001E+04  0.46999998093E+01 0.  1.
</event>
<event>
 5   0  0.2871888E-05  0.2311141E+04  0.7818609E-02  0.8473541E-01
        2   -1    0    0  501    0  0.00000000000E+00  0.00000000000E+00  0.21016935343E+04  0.21016935343E+04  0.25500000920E-02 0. -1.
       -2   -1    0    0    0  501  0.00000000000E+00  0.00000000000E+00 -0.63536548800E+03  0.63536548801E+03  0.25500000920E-02 0.  1.
    10030    2    1    2    0    0  0.00000000000E+00  0.00000000000E+00  0.14663280463E+04  0.27370590223E+04  0.23111413094E+04 0.  0.
        3    1    3    3  502    0 -0.64239552099E+03 -0.93094796757E+03  0.10134364567E+04  0.15186802118E+04  0.10100000352E+00 0. -1.
       -3    1    3    3    0  502  0.64239552099E+03  0.93094796757E+03  0.45289158954E+03  0.12183788105E+04  0.10100000352E+00 0.  1.
</event>
<event>
 5   0  0.2910126E-05  0.2296744E+04  0.7818609E-02  0.8479206E-01
        2   -1    0    0  501    0  0.00000000000E+00  0.00000000000E+00  0.11194151612E+04  0.11194151612E+04  0.25500000920E-02 0.  1.
       -2   -1    0    0    0  501  0.00000000000E+00  0.00000000000E+00 -0.11780781037E+04  0.11780781037E+04  0.25500000920E-02 0. -1.
    10030    2    1    2    0    0  0.00000000000E+00  0.00000000000E+00 -0.58662942513E+02  0.22974932649E+04  0.22967442090E+04 0.  0.
        5    1    3    3  502    0  0.56936135171E+03  0.92303003902E+03  0.34838881558E+03  0.11391021282E+04  0.46999998093E+01 0.  1.
       -5    1    3    3    0  502 -0.56936135171E+03 -0.92303003902E+03 -0.40705175809E+03  0.11583911367E+04  0.46999998093E+01 0. -1.
</event>
<event>
 5   0  0.2938972E-05  0.2308459E+04  0.7818609E-02  0.8474593E-01
        2   -1    0    0  501    0  0.00000000000E+00  0.00000000000E+00  0.21628592289E+04  0.21628592289E+04  0.25500000920E-02 0. -1.
       -2   -1    0    0    0  501  0.00000000000E+00  0.00000000000E+00 -0.61596531847E+03  0.61596531847E+03  0.25500000920E-02 0.  1.
    10030    2    1    2    0    0  0.00000000000E+00  0.00000000000E+00  0.15468939104E+04  0.27788245474E+04  0.23084594636E+04 0.  0.
        2    1    3    3  502    0 -0.11371434186E+04 -0.19464101562E+03  0.73061629832E+03  0.13655696448E+04  0.25500000920E-02 0. -1.
       -2    1    3    3    0  502  0.11371434186E+04  0.19464101562E+03  0.81627761211E+03  0.14132549025E+04  0.25500000920E-02 0.  1.
</event>
<event>
 5   0  0.2910126E-05  0.2300739E+04  0.7818609E-02  0.8477630E-01
       -2   -1    0    0    0  501  0.00000000000E+00  0.00000000000E+00  0.61617650792E+03  0.61617650793E+03  0.25500000920E-02 0.  1.
        2   -1    0    0  501    0  0.00000000000E+00  0.00000000000E+00 -0.21476809578E+04  0.21476809578E+04  0.25500000920E-02 0. -1.
    10030    2    1    2    0    0  0.00000000000E+00  0.00000000000E+00 -0.15315044498E+04  0.27638574657E+04  0.23007394922E+04 0.  0.
        5    1    3    3  502    0 -0.49478004711E+03 -0.17338340249E+03  0.46430126198E+03  0.70033338572E+03  0.46999998093E+01 0.  1.
       -5    1    3    3    0  502  0.49478004711E+03  0.17338340249E+03 -0.19958057118E+04  0.20635240800E+04  0.46999998093E+01 0. -1.
</event>
<event>
 5   0  0.2938972E-05  0.2284470E+04  0.7818609E-02  0.8484070E-01
       -2   -1    0    0    0  501  0.00000000000E+00  0.00000000000E+00  0.57864583587E+03  0.57864583587E+03  0.25500000920E-02 0.  1.
        2   -1    0    0  501    0  0.00000000000E+00  0.00000000000E+00 -0.22547478273E+04  0.22547478273E+04  0.25500000920E-02 0. -1.
    10030    2    1    2    0    0  0.00000000000E+00  0.00000000000E+00 -0.16761019914E+04  0.28333936631E+04  0.22844696900E+04 0.  0.
        2    1    3    3  502    0 -0.55394444771E+03 -0.49718667328E+03  0.23653374201E+03  0.78102320731E+03  0.25500000920E-02 0.  1.
       -2    1    3    3    0  502  0.55394444771E+03  0.49718667328E+03 -0.19126357334E+04  0.20523704558E+04  0.25500000920E-02 0. -1.
</event>
<event>
 5   0  0.2994157E-05  0.2305379E+04  0.7818609E-02  0.8475803E-01
        2   -1    0    0  501    0  0.00000000000E+00  0.00000000000E+00  0.14434403940E+04  0.14434403940E+04  0.25500000920E-02 0. -1.
       -2   -1    0    0    0  501  0.00000000000E+00  0.00000000000E+00 -0.92050462798E+03  0.92050462799E+03  0.25500000920E-02 0.  1.
    10030    2    1    2    0    0  0.00000000000E+00  0.00000000000E+00  0.52293576605E+03  0.23639450220E+04  0.23053794160E+04 0.  0.
        4    1    3    3  502    0  0.14827756290E+03 -0.70673944022E+03 -0.65981347558E+03  0.97817294354E+03  0.12699999809E+01 0.  1.
       -4    1    3    3    0  502 -0.14827756290E+03  0.70673944022E+03  0.11827492416E+04  0.13857720785E+04  0.12699999809E+01 0. -1.
</event>
<event>
 5   0  0.2816178E-05  0.2289155E+04  0.7818609E-02  0.8482209E-01
        2   -1    0    0  501    0  0.00000000000E+00  0.00000000000E+00  0.97040553359E+03  0.97040553360E+03  0.25500000920E-02 0.  1.
       -2   -1    0    0    0  501  0.00000000000E+00  0.00000000000E+00 -0.13500103893E+04  0.13500103893E+04  0.25500000920E-02 0. -1.
    10030    2    1    2    0    0  0.00000000000E+00  0.00000000000E+00 -0.37960485575E+03  0.23204159229E+04  0.22891549115E+04 0.  0.
        1    1    3    3  502    0 -0.47149084461E+02  0.54331482952E+03  0.83024166706E+03  0.99333542466E+03  0.50400001928E-02 0.  1.
       -1    1    3    3    0  502  0.47149084461E+02 -0.54331482952E+03 -0.12098465228E+04  0.13270804983E+04  0.50400001928E-02 0. -1.
</event>
<event>
 5   0  0.1327820E-05  0.2279103E+04  0.7818609E-02  0.8486206E-01
       -1   -1    0    0    0  501  0.00000000000E+00  0.00000000000E+00  0.13571692323E+04  0.13571692323E+04  0.50400001928E-02 0. -1.
        1   -1    0    0  501    0  0.00000000000E+00  0.00000000000E+00 -0.95682822713E+03  0.95682822714E+03  0.50400001928E-02 0.  1.
    10030    2    1    2    0    0  0.00000000000E+00  0.00000000000E+00  0.40034100520E+03  0.23139974595E+04  0.22791031837E+04 0.  0.
        1    1    3    3  502    0 -0.21473554697E+03  0.11139374903E+04  0.30956870743E+03  0.11759255385E+04  0.50400001928E-02 0.  1.
       -1    1    3    3    0  502  0.21473554697E+03 -0.11139374903E+04  0.90772297770E+02  0.11380719210E+04  0.50400001928E-02 0. -1.
</event>
<event>
 5   0  0.1308224E-05  0.2294202E+04  0.7818609E-02  0.8480211E-01
       -1   -1    0    0    0  501  0.00000000000E+00  0.00000000000E+00  0.16048557726E+04  0.16048557726E+04  0.50400001928E-02 0.  1.
        1   -1    0    0  501    0  0.00000000000E+00  0.00000000000E+00 -0.81991189435E+03  0.81991189437E+03  0.50400001928E-02 0. -1.
    10030    2    1    2    0    0  0.00000000000E+00  0.00000000000E+00  0.78494387827E+03  0.24247676670E+04  0.22942016796E+04 0.  0.
        5    1    3    3  502    0  0.80638127764E+03  0.80905271167E+03  0.50332773438E+03  0.12482699842E+04  0.46999998093E+01 0.  1.
       -5    1    3    3    0  502 -0.80638127764E+03 -0.80905271167E+03  0.28161614390E+03  0.11764976828E+04  0.46999998093E+01 0. -1.
</event>
<event>
 5   0  0.1303224E-05  0.2298807E+04  0.7818609E-02  0.8478392E-01
       -1   -1    0    0    0  501  0.00000000000E+00  0.00000000000E+00  0.68809933994E+03  0.68809933996E+03  0.50400001928E-02 0. -1.
        1   -1    0    0  501    0  0.00000000000E+00  0.00000000000E+00 -0.19199680820E+04  0.19199680820E+04  0.50400001928E-02 0.  1.
    10030    2    1    2    0    0  0.00000000000E+00  0.00000000000E+00 -0.12318687421E+04  0.26080674220E+04  0.22988073168E+04 0.  0.
        2    1    3    3  502    0  0.71165614729E+03 -0.41473205329E+02  0.40700360556E+03  0.82086931584E+03  0.25500000920E-02 0. -1.
       -2    1    3    3    0  502 -0.71165614729E+03  0.41473205329E+02 -0.16388723477E+04  0.17871981062E+04  0.25500000920E-02 0.  1.
</event>
<event>
 5   0  0.1308224E-05  0.2322780E+04  0.7818609E-02  0.8468993E-01
        1   -1    0    0  501    0  0.00000000000E+00  0.00000000000E+00  0.12652740447E+04  0.12652740447E+04  0.50400001928E-02 0.  1.
       -1   -1    0    0    0  501  0.00000000000E+00  0.00000000000E+00 -0.10660350273E+04  0.10660350273E+04  0.50400001928E-02 0. -1.
    10030    2    1    2    0    0  0.00000000000E+00  0.00000000000E+00  0.19923901738E+03  0.23313090720E+04  0.23227797577E+04 0.  0.
        5    1    3    3  502    0 -0.11169005536E+03  0.68285507443E+03 -0.83656422592E+03  0.10856461280E+04  0.46999998093E+01 0. -1.
       -5    1    3    3    0  502  0.11169005536E+03 -0.68285507443E+03  0.10358032433E+04  0.12456629440E+04  0.46999998093E+01 0.  1.
</event>
<event>
 5   0  0.2816178E-05  0.2282174E+04  0.7818609E-02  0.8484983E-01
        2   -1    0    0  501    0  0.00000000000E+00  0.00000000000E+00  0.11280968781E+04  0.11280968781E+04  0.25500000920E-02 0.  1.
       -2   -1    0    0    0  501  0.00000000000E+00  0.00000000000E+00 -0.11542268920E+04  0.11542268920E+04  0.25500000920E-02 0. -1.
    10030    2    1    2    0    0  0.00000000000E+00  0.00000000000E+00 -0.26130013917E+02  0.22823237701E+04  0.22821741858E+04 0.  0.
        1    1    3    3  502    0 -0.97751825894E+03 -0.26642447240E+03  0.51190349789E+03  0.11351515922E+04  0.50400001928E-02 0.  1.
       -1    1    3    3    0  502  0.97751825894E+03  0.26642447240E+03 -0.53803351181E+03  0.11471721780E+04  0.50400001928E-02 0. -1.
</event>
<event>
 5   0  0.2994157E-05  0.2220872E+04  0.7818609E-02  0.8509791E-01
        2   -1    0    0  501    0  0.00000000000E+00  0.00000000000E+00  0.13170512942E+04  0.13170512942E+04  0.25500000920E-02 0.  1.
       -2   -1    0    0    0  501  0.00000000000E+00  0.00000000000E+00 -0.93623403367E+03  0.93623403368E+03  0.25500000920E-02 0. -1.
    10030    2    1    2    0    0  0.00000000000E+00  0.00000000000E+00  0.38081726048E+03  0.22532853278E+04  0.22208721221E+04 0.  0.
        4    1    3    3  502    0  0.10459808035E+04  0.15232267456E+03 -0.15483488284E+03  0.10682946655E+04  0.12699999809E+01 0. -1.
       -4    1    3    3    0  502 -0.10459808035E+04 -0.15232267456E+03  0.53565214332E+03  0.11849906624E+04  0.12699999809E+01 0.  1.
</event>
<event>
 5   0  0.1284837E-05  0.2297783E+04  0.7818609E-02  0.8478796E-01
       -1   -1    0    0    0  501  0.00000000000E+00  0.00000000000E+00  0.13853299760E+04  0.13853299760E+04  0.50400001928E-02 0.  1.
        1   -1    0    0  501    0  0.00000000000E+00  0.00000000000E+00 -0.95280687667E+03  0.95280687669E+03  0.50400001928E-02 0. -1.
    10030    2    1    2    0    0  0.00000000000E+00  0.00000000000E+00  0.43252309930E+03  0.23381368527E+04  0.22977832166E+04 0.  0.
        4    1    3    3  502    0  0.93233523770E+03  0.12107225764E+03 -0.45567064135E+03  0.10447702299E+04  0.12699999809E+01 0. -1.
       -4    1    3    3    0  502 -0.93233523770E+03 -0.12107225764E+03  0.88819374064E+03  0.12933666228E+04  0.12699999809E+01 0.  1.
</event>
<event>
 5   0  0.1303224E-05  0.2282573E+04  0.7818609E-02  0.8484824E-01
       -1   -1    0    0    0  501  0.00000000000E+00  0.00000000000E+00  0.80883773077E+03  0.80883773078E+03  0.50400001928E-02 0.  1.
        1   -1    0    0  501    0  0.00000000000E+00  0.00000000000E+00 -0.16103778651E+04  0.16103778651E+04  0.50400001928E-02 0. -1.
    10030    2    1    2    0    0  0.00000000000E+00  0.00000000000E+00 -0.80154013433E+03  0.24192155959E+04  0.22825725646E+04 0.  0.
        2    1    3    3  502    0 -0.72817060911E+03 -0.87661935062E+03 -0.46645131452E+03  0.12313694615E+04  0.25500000920E-02 0. -1.
       -2    1    3    3    0  502  0.72817060911E+03  0.87661935062E+03 -0.33508881981E+03  0.11878461344E+04  0.25500000920E-02 0.  1.
</event>
<event>
 5   0  0.1303224E-05  0.2301489E+04  0.7818609E-02  0.8477334E-01
        1   -1    0    0  501    0  0.00000000000E+00  0.00000000000E+00  0.59040913997E+03  0.59040913999E+03  0.50400001928E-02 0. -1.
       -1   -1    0    0    0  501  0.00000000000E+00  0.00000000000E+00 -0.22428734405E+04  0.22428734405E+04  0.50400001928E-02 0.  1.
    10030    2    1    2    0    0  0.00000000000E+00  0.00000000000E+00 -0.16524643006E+04  0.28332825805E+04  0.23014890650E+04 0.  0.
        2    1    3    3  502    0 -0.27876208985E+03  0.61750282270E+03 -0.19713177713E+04  0.20844931745E+04  0.25500000920E-02 0.  1.
       -2    1    3    3    0  502  0.27876208985E+03 -0.61750282270E+03  0.31885347079E+03  0.74878940605E+03  0.25500000920E-02 0. -1.
</event>
<event>
 5   0  0.2938972E-05  0.2298463E+04  0.7818609E-02  0.8478528E-01
        2   -1    0    0  501    0  0.00000000000E+00  0.00000000000E+00  0.74249413966E+03  0.74249413966E+03  0.25500000920E-02 0. -1.
       -2   -1    0    0    0  501  0.00000000000E+00  0.00000000000E+00 -0.17787783559E+04  0.17787783559E+04  0.25500000920E-02 0.  1.
    10030    2    1    2    0    0  0.00000000000E+00  0.00000000000E+00 -0.10362842162E+04  0.25212724956E+04  0.22984625340E+04 0.  0.
        2    1    3    3  502    0  0.61375497647E+03 -0.25679369267E+03 -0.15460470273E+04  0.16831219749E+04  0.25500000920E-02 0.  1.
       -2    1    3    3    0  502 -0.61375497647E+03  0.25679369267E+03  0.50976281107E+03  0.83815052066E+03  0.25500000920E-02 0. -1.
</event>
<event>
 5   0  0.1327820E-05  0.2304938E+04  0.7818609E-02  0.8475977E-01
        1   -1    0    0  501    0  0.00000000000E+00  0.00000000000E+00  0.13293041564E+04  0.13293041564E+04  0.50400001928E-02 0.  1.
       -1   -1    0    0    0  501  0.00000000000E+00  0.00000000000E+00 -0.99915765518E+03  0.99915765519E+03  0.50400001928E-02 0. -1.
    10030    2    1    2    0    0  0.00000000000E+00  0.00000000000E+00  0.33014650125E+03  0.23284618116E+04  0.23049376772E+04 0.  0.
        1    1    3    3  502    0  0.96741791272E+03 -0.71810023243E+02  0.79362136743E+03  0.12533510969E+04  0.50400001928E-02 0.  1.
       -1    1    3    3    0  502 -0.96741791272E+03  0.71810023243E+02 -0.46347486618E+03  0.10751107147E+04  0.50400001928E-02 0. -1.
</event>
<event>
 5   0  0.1303224E-05  0.2304945E+04  0.7818609E-02  0.8475974E-01
        1   -1    0    0  501    0  0.00000000000E+00  0.00000000000E+00  0.16362891512E+04  0.16362891513E+04  0.50400001928E-02 0. -1.
       -1   -1    0    0    0  501  0.00000000000E+00  0.00000000000E+00 -0.81171046007E+03  0.81171046009E+03  0.50400001928E-02 0.  1.
    10030    2    1    2    0    0  0.00000000000E+00  0.00000000000E+00  0.82457869117E+03  0.24479996113E+04  0.23049451358E+04 0.  0.
        2    1    3    3  502    0 -0.99552962339E+03 -0.83757246039E+02 -0.19791112149E+03  0.10184612508E+04  0.25500000920E-02 0.  1.
       -2    1    3    3    0  502  0.99552962339E+03  0.83757246039E+02  0.10224898127E+04  0.14295383606E+04  0.25500000920E-02 0. -1.
</event>
<event>
 5   0  0.1371753E-05  0.2299104E+04  0.7818609E-02  0.8478275E-01
        1   -1    0    0  501    0  0.00000000000E+00  0.00000000000E+00  0.20917724158E+04  0.20917724158E+04  0.50400001928E-02 0.  1.
       -1   -1    0    0    0  501  0.00000000000E+00  0.00000000000E+00 -0.63174628619E+03  0.63174628621E+03  0.50400001928E-02 0. -1.
    10030    2    1    2    0    0  0.00000000000E+00  0.00000000000E+00  0.14600261296E+04  0.27235187020E+04  0.22991036995E+04 0.  0.
        3    1    3    3  502    0  0.47074017801E+03  0.10475495104E+04  0.67062744852E+03  0.13299238613E+04  0.10100000352E+00 0. -1.
       -3    1    3    3    0  502 -0.47074017801E+03 -0.10475495104E+04  0.78939868104E+03  0.13935948406E+04  0.10100000352E+00 0.  1.
</event>
<event>
 5   0  0.1284837E-05  0.2333981E+04  0.7818609E-02  0.8464642E-01
       -1   -1    0    0    0  501  0.00000000000E+00  0.00000000000E+00  0.10096076786E+04  0.10096076786E+04  0.50400001928E-02 0.  1.
        1   -1    0    0  501    0  0.00000000000E+00  0.00000000000E+00 -0.13489073026E+04  0.13489073026E+04  0.50400001928E-02 0. -1.
    10030    2    1    2    0    0  0.00000000000E+00  0.00000000000E+00 -0.33929962398E+03  0.23585149812E+04  0.23339812942E+04 0.  0.
        4    1    3    3  502    0  0.10608697416E+04  0.88129122727E+02 -0.65285419617E+03  0.12487720229E+04  0.12699999809E+01 0. -1.
       -4    1    3    3    0  502 -0.10608697416E+04 -0.88129122727E+02  0.31355457220E+03  0.11097429583E+04  0.12699999809E+01 0.  1.
</event>
<event>
 5   0  0.2994157E-05  0.2288717E+04  0.7818609E-02  0.8482383E-01
       -2   -1    0    0    0  501  0.00000000000E+00  0.00000000000E+00  0.46811436915E+03  0.46811436916E+03  0.25500000920E-02 0. -1.
        2   -1    0    0  501    0  0.00000000000E+00  0.00000000000E+00 -0.27975147783E+04  0.27975147783E+04  0.25500000920E-02 0.  1.
    10030    2    1    2    0    0  0.00000000000E+00  0.00000000000E+00 -0.23294004091E+04  0.32656291474E+04  0.22887174274E+04 0.  0.
        4    1    3    3  502    0  0.11303414222E+04 -0.69570985151E+02 -0.93005843052E+03  0.14654426464E+04  0.12699999809E+01 0.  1.
       -4    1    3    3    0  502 -0.11303414222E+04  0.69570985151E+02 -0.13993419786E+04  0.18001865011E+04  0.12699999809E+01 0. -1.
</event>
<event>
 5   0  0.2938972E-05  0.2307372E+04  0.7818609E-02  0.8475020E-01
       -2   -1    0    0    0  501  0.00000000000E+00  0.00000000000E+00  0.79924943001E+03  0.79924943002E+03  0.25500000920E-02 0. -1.
        2   -1    0    0  501    0  0.00000000000E+00  0.00000000000E+00 -0.16653014497E+04  0.16653014497E+04  0.25500000920E-02 0.  1.
    10030    2    1    2    0    0  0.00000000000E+00  0.00000000000E+00 -0.86605201967E+03  0.24645508797E+04  0.23073718681E+04 0.  0.
        2    1    3    3  502    0  0.16232600905E+03  0.89506770475E+03  0.32488446222E+03  0.96594298129E+03  0.25500000920E-02 0. -1.
       -2    1    3    3    0  502 -0.16232600905E+03 -0.89506770475E+03 -0.11909364819E+04  0.14986078984E+04  0.25500000920E-02 0.  1.
</event>
<event>
 5   0  0.2910126E-05  0.2289682E+04  0.7818609E-02  0.8482001E-01
        2   -1    0    0  501    0  0.00000000000E+00  0.00000000000E+00  0.17156665141E+04  0.17156665141E+04  0.25500000920E-02 0.  1.
       -2   -1    0    0    0  501  0.00000000000E+00  0.00000000000E+00 -0.76393662097E+03  0.76393662098E+03  0.25500000920E-02 0. -1.
    10030    2    1    2    0    0  0.00000000000E+00  0.00000000000E+00  0.95172989311E+03  0.24796031351E+04  0.22896816193E+04 0.  0.
        5    1    3    3  502    0  0.51501801457E+03 -0.10169355802E+04  0.36106820454E+03  0.11957398830E+04  0.46999998093E+01 0.  1.
       -5    1    3    3    0  502 -0.51501801457E+03  0.10169355802E+04  0.59066168857E+03  0.12838632520E+04  0.46999998093E+01 0. -1.
</event>
<event>
 5   0  0.2871888E-05  0.2276118E+04  0.7818609E-02  0.8487397E-01
       -2   -1    0    0    0  501  0.00000000000E+00  0.00000000000E+00  0.17391819028E+04  0.17391819028E+04  0.25500000920E-02 0.  1.
        2   -1    0    0  501    0  0.00000000000E+00  0.00000000000E+00 -0.74470538339E+03  0.74470538340E+03  0.25500000920E-02 0. -1.
    10030    2    1    2    0    0  0.00000000000E+00  0.00000000000E+00  0.99447651943E+03  0.24838872862E+04  0.22761178579E+04 0.  0.
        3    1    3    3  502    0  0.31820762231E+03 -0.55165875313E+03  0.15265175114E+04  0.16540372407E+04  0.10100000352E+00 0.  1.
       -3    1    3    3    0  502 -0.31820762231E+03  0.55165875313E+03 -0.53204099194E+03  0.82985004555E+03  0.10100000352E+00 0. -1.
</event>
<event>
 5   0  0.2816178E-05  0.2295105E+04  0.7818609E-02  0.8479854E-01
       -2   -1    0    0    0  501  0.00000000000E+00  0.00000000000E+00  0.68313521498E+03  0.68313521499E+03  0.25500000920E-02 0. -1.
        2   -1    0    0  501    0  0.00000000000E+00  0.00000000000E+00 -0.19276960583E+04  0.19276960584E+04  0.25500000920E-02 0.  1.
    10030    2    1    2    0    0  0.00000000000E+00  0.00000000000E+00 -0.12445608434E+04  0.26108312733E+04  0.22951052797E+04 0.  0.
        1    1    3    3  502    0  0.28913451756E+03 -0.98399750918E+03 -0.36652987650E+02  0.10262520689E+04  0.50400001928E-02 0. -1.
       -1    1    3    3    0  502 -0.28913451756E+03  0.98399750918E+03 -0.12079078557E+04  0.15845792045E+04  0.50400001928E-02 0.  1.
</event>
<event>
 5   0  0.1371753E-05  0.2313240E+04  0.7818609E-02  0.8472719E-01
       -1   -1    0    0    0  501  0.00000000000E+00  0.00000000000E+00  0.17461046650E+04  0.17461046650E+04  0.50400001928E-02 0.  1.
        1   -1    0    0  501    0  0.00000000000E+00  0.00000000000E+00 -0.76614505420E+03  0.76614505422E+03  0.50400001928E-02 0. -1.
    10030    2    1    2    0    0  0.00000000000E+00  0.00000000000E+00  0.97995961075E+03  0.25122497192E+04  0.23132396791E+04 0.  0.
        3    1    3    3  502    0 -0.63261173553E+03 -0.79133522828E+03  0.10959815236E+04  0.14925094846E+04  0.10100000352E+00 0.  1.
       -3    1    3    3    0  502  0.63261173553E+03  0.79133522828E+03 -0.11602191286E+03  0.10197402345E+04  0.10100000352E+00 0. -1.
</event>
<event>
 5   0  0.1371753E-05  0.2305062E+04  0.7818609E-02  0.8475928E-01
       -1   -1    0    0    0  501  0.00000000000E+00  0.00000000000E+00  0.76424124554E+03  0.76424124555E+03  0.50400001928E-02 0.  1.
        1   -1    0    0  501    0  0.00000000000E+00  0.00000000000E+00 -0.17381001794E+04  0.17381001794E+04  0.50400001928E-02 0. -1.
    10030    2    1    2    0    0  0.00000000000E+00  0.00000000000E+00 -0.97385893385E+03  0.25023414249E+04  0.23050621215E+04 0.  0.
        3    1    3    3  502    0  0.10379026615E+04  0.34127174526E+03 -0.88622490837E+02  0.10961579699E+04  0.10100000352E+00 0.  1.
       -3    1    3    3    0  502 -0.10379026615E+04 -0.34127174526E+03 -0.88523644302E+03  0.14061834550E+04  0.10100000352E+00 0. -1.
</event>
<event>
 5   0  0.2910126E-05  0.2292131E+04  0.7818609E-02  0.8481030E-01
        2   -1    0    0  501    0  0.00000000000E+00  0.00000000000E+00  0.15156954939E+04  0.15156954939E+04  0.25500000920E-02 0. -1.
       -2   -1    0    0    0  501  0.00000000000E+00  0.00000000000E+00 -0.86657667835E+03  0.86657667835E+03  0.25500000920E-02 0.  1.
    10030    2    1    2    0    0  0.00000000000E+00  0.00000000000E+00  0.64911881553E+03  0.23822721722E+04  0.22921312061E+04 0.  0.
        5    1    3    3  502    0  0.22778986566E+03 -0.10259769514E+03 -0.83792122309E+03  0.87438468425E+03  0.46999998093E+01 0.  1.
       -5    1    3    3    0  502 -0.22778986566E+03  0.10259769514E+03  0.14870400386E+04  0.15078874880E+04  0.46999998093E+01 0. -1.
</event>
<event>
 5   0  0.1284837E-05  0.2270552E+04  0.7818609E-02  0.8489623E-01
        1   -1    0    0  501    0  0.00000000000E+00  0.00000000000E+00  0.16353363719E+04  0.16353363719E+04  0.50400001928E-02 0.  1.
       -1   -1    0    0    0  501  0.00000000000E+00  0.00000000000E+00 -0.78812610274E+03  0.78812610275E+03  0.50400001928E-02 0. -1.
    10030    2    1    2    0    0  0.00000000000E+00  0.00000000000E+00  0.84721026914E+03  0.24234624746E+04  0.22705517228E+04 0.  0.
        4    1    3    3  502    0  0.34218133600E+03  0.10229711070E+04  0.80140872303E+03  0.13438063502E+04  0.12699999809E+01 0.  1.
       -4    1    3    3    0  502 -0.34218133600E+03 -0.10229711070E+04  0.45801546107E+02  0.10796561245E+04  0.12699999809E+01 0. -1.
</event>
<event>
 5   0  0.2816178E-05  0.2307793E+04  0.7818609E-02  0.8474855E-01
        2   -1    0    0  501    0  0.00000000000E+00  0.00000000000E+00  0.23563352676E+04  0.23563352676E+04  0.25500000920E-02 0.  1.
       -2   -1    0    0    0  501  0.00000000000E+00  0.00000000000E+00 -0.56506290610E+03  0.56506290610E+03  0.25500000920E-02 0. -1.
    10030    2    1    2    0    0  0.00000000000E+00  0.00000000000E+00  0.17912723615E+04  0.29213981737E+04  0.23077934518E+04 0.  0.
        1    1    3    3  502    0  0.86399004005E+02  0.65999765111E+03 -0.29753290969E+03  0.72910048672E+03  0.50400001928E-02 0. -1.
       -1    1    3    3    0  502 -0.86399004005E+02 -0.65999765111E+03  0.20888052712E+04  0.21922976870E+04  0.50400001928E-02 0.  1.
</event>
<event>
 5   0  0.2871888E-05  0.2298373E+04  0.7818609E-02  0.8478563E-01
       -2   -1    0    0    0  501  0.00000000000E+00  0.00000000000E+00  0.16807870630E+04  0.16807870630E+04  0.25500000920E-02 0. -1.
        2   -1    0    0  501    0  0.00000000000E+00  0.00000000000E+00 -0.78572093829E+03  0.78572093830E+03  0.25500000920E-02 0.  1.
    10030    2    1    2    0    0  0.00000000000E+00  0.00000000000E+00  0.89506612475E+03  0.24665080013E+04  0.22983729795E+04 0.  0.
        3    1    3    3  502    0  0.10255833203E+04 -0.32445253245E+03  0.13550109084E+02  0.10757668001E+04  0.10100000352E+00 0.  1.
       -3    1    3    3    0  502 -0.10255833203E+04  0.32445253245E+03  0.88151601567E+03  0.13907412012E+04  0.10100000352E+00 0. -1.
</event>
<event>
 5   0  0.1371753E-05  0.2279785E+04  0.7818609E-02  0.8485935E-01
        1   -1    0    0  501    0  0.00000000000E+00  0.00000000000E+00  0.13856389107E+04  0.13856389108E+04  0.50400001928E-02 0.  1.
       -1   -1    0    0    0  501  0.00000000000E+00  0.00000000000E+00 -0.93772944053E+03  0.93772944054E+03  0.50400001928E-02 0. -1.
    10030    2    1    2    0    0  0.00000000000E+00  0.00000000000E+00  0.44790947022E+03  0.23233683513E+04  0.22797845517E+04 0.  0.
        3    1    3    3  502    0  0.84639751286E+03  0.26352472479E+03  0.95425775458E+03  0.13024752983E+04  0.10100000352E+00 0.  1.
       -3    1    3    3    0  502 -0.84639751286E+03 -0.26352472479E+03 -0.50634828436E+03  0.10208930530E+04  0.10100000352E+00 0. -1.
</event>
<event>
 5   0  0.2871888E-05  0.2296739E+04  0.7818609E-02  0.8479208E-01
        2   -1    0    0  501    0  0.00000000000E+00  0.00000000000E+00  0.14059921204E+04  0.14059921204E+04  0.25500000920E-02 0.  1.
       -2   -1    0    0    0  501  0.00000000000E+00  0.00000000000E+00 -0.93795139138E+03  0.93795139139E+03  0.25500000920E-02 0. -1.
    10030    2    1    2    0    0  0.00000000000E+00  0.00000000000E+00  0.46804072900E+03  0.23439435118E+04  0.22967387885E+04 0.  0.
        3    1    3    3  502    0  0.47945805830E+03  0.10347194212E+04  0.96234586568E+02  0.11444585690E+04  0.10100000352E+00 0.  1.
       -3    1    3    3    0  502 -0.47945805830E+03 -0.10347194212E+04  0.37180614243E+03  0.11994849428E+04  0.10100000352E+00 0. -1.
</event>
<event>
 5   0  0.2816178E-05  0.2307505E+04  0.7818609E-02  0.8474968E-01
        2   -1    0    0  501    0  0.00000000000E+00  0.00000000000E+00  0.90091619464E+03  0.90091619464E+03  0.25500000920E-02 0.  1.
       -2   -1    0    0    0  501  0.00000000000E+00  0.00000000000E+00 -0.14775460674E+04  0.14775460674E+04  0.25500000920E-02 0. -1.
    10030    2    1    2    0    0  0.00000000000E+00  0.00000000000E+00 -0.57662987274E+03  0.23784622620E+04  0.23075053026E+04 0.  0.
        1    1    3    3  502    0 -0.80864018665E+03  0.28410574388E+03  0.50778897681E+03  0.99622521056E+03  0.50400001928E-02 0.  1.
       -1    1    3    3    0  502  0.80864018665E+03 -0.28410574388E+03 -0.10844188495E+04  0.13822370515E+04  0.50400001928E-02 0. -1.
</event>
<event>
 5   0  0.1303224E-05  0.2399540E+04  0.7818609E-02  0.8439676E-01
       -1   -1    0    0    0  501  0.00000000000E+00  0.00000000000E+00  0.10295436210E+04  0.10295436210E+04  0.50400001928E-02 0. -1.
        1   -1    0    0  501    0  0.00000000000E+00  0.00000000000E+00 -0.13981424433E+04  0.13981424433E+04  0.50400001928E-02 0.  1.
    10030    2    1    2    0    0  0.00000000000E+00  0.00000000000E+00 -0.36859882230E+03  0.24276860643E+04  0.23995404841E+04 0.  0.
        2    1    3    3  502    0  0.27622098029E+03 -0.61723872037E+03  0.81836847466E+03  0.10616066259E+04  0.25500000920E-02 0. -1.
       -2    1    3    3    0  502 -0.27622098029E+03  0.61723872037E+03 -0.11869672970E+04  0.13660794384E+04  0.25500000920E-02 0.  1.
</event>
<event>
 5   0  0.2994157E-05  0.2327159E+04  0.7818609E-02  0.8467289E-01
        2   -1    0    0  501    0  0.00000000000E+00  0.00000000000E+00  0.16963494899E+04  0.16963494899E+04  0.25500000920E-02 0.  1.
       -2   -1    0    0    0  501  0.00000000000E+00  0.00000000000E+00 -0.79813591552E+03  0.79813591553E+03  0.25500000920E-02 0. -1.
    10030    2    1    2    0    0  0.00000000000E+00  0.00000000000E+00  0.89821357436E+03  0.24944854054E+04  0.23271591722E+04 0.  0.
        4    1    3    3  502    0 -0.11385922918E+04 -0.55553007166E+02  0.69920071864E+03  0.13372964523E+04  0.12699999809E+01 0.  1.
       -4    1    3    3    0  502  0.11385922918E+04  0.55553007166E+02  0.19901285572E+03  0.11571889531E+04  0.12699999809E+01 0. -1.
</event>
<event>
 5   0  0.2938972E-05  0.2308591E+04  0.7818609E-02  0.8474541E-01
       -2   -1    0    0    0  501  0.00000000000E+00  0.00000000000E+00  0.84989323181E+03  0.84989323181E+03  0.25500000920E-02 0. -1.
        2   -1    0    0  501    0  0.00000000000E+00  0.00000000000E+00 -0.15677244618E+04  0.15677244618E+04  0.25500000920E-02 0.  1.
    10030    2    1    2    0    0  0.00000000000E+00  0.00000000000E+00 -0.71783122995E+03  0.24176176936E+04  0.23085912669E+04 0.  0.
        2    1    3    3  502    0  0.11997141478E+03 -0.11148620007E+04 -0.71952675965E+02  0.11236047386E+04  0.25500000920E-02 0. -1.
       -2    1    3    3    0  502 -0.11997141478E+03  0.11148620007E+04 -0.64587855399E+03  0.12940129549E+04  0.25500000920E-02 0.  1.
</event>
<event>
 5   0  0.1371753E-05  0.2288205E+04  0.7818609E-02  0.8482586E-01
       -1   -1    0    0    0  501  0.00000000000E+00  0.00000000000E+00  0.84095669695E+03  0.84095669696E+03  0.50400001928E-02 0.  1.
        1   -1    0    0  501    0  0.00000000000E+00  0.00000000000E+00 -0.15565260178E+04  0.15565260178E+04  0.50400001928E-02 0. -1.
    10030    2    1    2    0    0  0.00000000000E+00  0.00000000000E+00 -0.71556932084E+03  0.23974827148E+04  0.22882053917E+04 0.  0.
        3    1    3    3  502    0  0.88453088672E+03 -0.21027284457E+03 -0.10854752488E+04  0.14159329379E+04  0.10100000352E+00 0. -1.
       -3    1    3    3    0  502 -0.88453088672E+03  0.21027284457E+03  0.36990592793E+03  0.98154977686E+03  0.10100000352E+00 0.  1.
</event>
<event>
 5   0  0.1284837E-05  0.2290842E+04  0.7818609E-02  0.8481541E-01
        1   -1    0    0  501    0  0.00000000000E+00  0.00000000000E+00  0.97872744225E+03  0.97872744227E+03  0.50400001928E-02 0.  1.
       -1   -1    0    0    0  501  0.00000000000E+00  0.00000000000E+00 -0.13405054516E+04  0.13405054517E+04  0.50400001928E-02 0. -1.
    10030    2    1    2    0    0  0.00000000000E+00  0.00000000000E+00 -0.36177800939E+03  0.23192328939E+04  0.22908421788E+04 0.  0.
        4    1    3    3  502    0  0.42023931003E+03  0.10402838135E+04  0.52612769931E+02  0.11231924175E+04  0.12699999809E+01 0.  1.
       -4    1    3    3    0  502 -0.42023931003E+03 -0.10402838135E+04 -0.41439077932E+03  0.11960404764E+04  0.12699999809E+01 0. -1.
</event>
<event>
 5   0  0.1308224E-05  0.2288052E+04  0.7818609E-02  0.8482647E-01
       -1   -1    0    0    0  501  0.00000000000E+00  0.00000000000E+00  0.77023126518E+03  0.77023126520E+03  0.50400001928E-02 0.  1.
        1   -1    0    0  501    0  0.00000000000E+00  0.00000000000E+00 -0.16992238640E+04  0.16992238640E+04  0.50400001928E-02 0. -1.
    10030    2    1    2    0    0  0.00000000000E+00  0.00000000000E+00 -0.92899259883E+03  0.24694551292E+04  0.22880518758E+04 0.  0.
        5    1    3    3  502    0  0.78776906677E+02  0.59294244514E+03 -0.15169972505E+04  0.16306714237E+04  0.46999998093E+01 0. -1.
       -5    1    3    3    0  502 -0.78776906677E+02 -0.59294244514E+03  0.58800465162E+03  0.83878370550E+03  0.46999998093E+01 0.  1.
</event>
<event>
 5   0  0.1284837E-05  0.2293352E+04  0.7818609E-02  0.8480547E-01
        1   -1    0    0  501    0  0.00000000000E+00  0.00000000000E+00  0.19972166813E+04  0.19972166813E+04  0.50400001928E-02 0.  1.
       -1   -1    0    0    0  501  0.00000000000E+00  0.00000000000E+00 -0.65834908932E+03  0.65834908934E+03  0.50400001928E-02 0. -1.
    10030    2    1    2    0    0  0.00000000000E+00  0.00000000000E+00  0.13388675920E+04  0.26555657706E+04  0.22933519428E+04 0.  0.
        4    1    3    3  502    0  0.14083811040E+03 -0.10015137936E+04  0.12951493861E+04  0.16432525057E+04  0.12699999809E+01 0.  1.
       -4    1    3    3    0  502 -0.14083811040E+03  0.10015137936E+04  0.43718205848E+02  0.10123132650E+04  0.12699999809E+01 0. -1.
</event>
<event>
 5   0  0.1327820E-05  0.2308735E+04  0.7818609E-02  0.8474485E-01
        1   -1    0    0  501    0  0.00000000000E+00  0.00000000000E+00  0.17313608324E+04  0.17313608325E+04  0.50400001928E-02 0.  1.
       -1   -1    0    0    0  501  0.00000000000E+00  0.00000000000E+00 -0.76966285650E+03  0.76966285652E+03  0.50400001928E-02 0. -1.
    10030    2    1    2    0    0  0.00000000000E+00  0.00000000000E+00  0.96169797595E+03  0.25010236890E+04  0.23087348258E+04 0.  0.
        1    1    3    3  502    0  0.33069657018E+03  0.79150478292E+03  0.13176660632E+04  0.15722862007E+04  0.50400001928E-02 0.  1.
       -1    1    3    3    0  502 -0.33069657018E+03 -0.79150478292E+03 -0.35596808724E+03  0.92873748824E+03  0.50400001928E-02 0. -1.
</event>
<event>
 5   0  0.2910126E-05  0.2310213E+04  0.7818609E-02  0.8473905E-01
       -2   -1    0    0    0  501  0.00000000000E+00  0.00000000000E+00  0.70222476732E+03  0.70222476732E+03  0.25500000920E-02 0.  1.
        2   -1    0    0  501    0  0.00000000000E+00  0.00000000000E+00 -0.19000619047E+04  0.19000619047E+04  0.25500000920E-02 0. -1.
    10030    2    1    2    0    0  0.00000000000E+00  0.00000000000E+00 -0.11978371374E+04  0.26022866720E+04  0.23102125694E+04 0.  0.
        5    1    3    3  502    0 -0.94830076590E+03 -0.44176267348E+03 -0.47291274843E+02  0.10472283213E+04  0.46999998093E+01 0.  1.
       -5    1    3    3    0  502  0.94830076590E+03  0.44176267348E+03 -0.11505458625E+04  0.15550583507E+04  0.46999998093E+01 0. -1.
</event>
<event>
 5   0  0.1284837E-05  0.2291503E+04  0.7818609E-02  0.8481279E-01
        1   -1    0    0  501    0  0.00000000000E+00  0.00000000000E+00  0.91483334533E+03  0.91483334534E+03  0.50400001928E-02 0. -1.
       -1   -1    0    0    0  501  0.00000000000E+00  0.00000000000E+00 -0.14349567217E+04  0.14349567217E+04  0.50400001928E-02 0.  1.
    10030    2    1    2    0    0  0.00000000000E+00  0.00000000000E+00 -0.52012337637E+03  0.23497900670E+04  0.22915027891E+04 0.  0.
        4    1    3    3  502    0  0.47505475783E+02  0.59417268340E+03  0.74331955017E+03  0.95279773011E+03  0.12699999809E+01 0. -1.
       -4    1    3    3    0  502 -0.47505475783E+02 -0.59417268340E+03 -0.12634429265E+04  0.13969923369E+04  0.12699999809E+01 0.  1.
</event>
<event>
 5   0  0.2910126E-05  0.2286969E+04  0.7818609E-02  0.8483077E-01
        2   -1    0    0  501    0  0.00000000000E+00  0.00000000000E+00  0.12727906364E+04  0.12727906364E+04  0.25500000920E-02 0. -1.
       -2   -1    0    0    0  501  0.00000000000E+00  0.00000000000E+00 -0.10273153208E+04  0.10273153208E+04  0.25500000920E-02 0.  1.
    10030    2    1    2    0    0  0.00000000000E+00  0.00000000000E+00  0.24547531560E+03  0.23001059573E+04  0.22869694541E+04 0.  0.
        5    1    3    3  502    0 -0.26740433247E+02  0.30895624451E+03  0.12296805299E+04  0.12681897758E+04  0.46999998093E+01 0. -1.
       -5    1    3    3    0  502  0.26740433247E+02 -0.30895624451E+03 -0.98420521429E+03  0.10319161815E+04  0.46999998093E+01 0.  1.
</event>
<event>
 5   0  0.2871888E-05  0.2300937E+04  0.7818609E-02  0.8477552E-01
        2   -1    0    0  501    0  0.00000000000E+00  0.00000000000E+00  0.23127564070E+04  0.23127564070E+04  0.25500000920E-02 0. -1.
       -2   -1    0    0    0  501  0.00000000000E+00  0.00000000000E+00 -0.57229437832E+03  0.57229437833E+03  0.25500000920E-02 0.  1.
    10030    2    1    2    0    0  0.00000000000E+00  0.00000000000E+00  0.17404620287E+04  0.28850507853E+04  0.23009367572E+04 0.  0.
        3    1    3    3  502    0  0.64003920395E+03  0.49738606783E+03 -0.15343919245E+03  0.82497677485E+03  0.10100000352E+00 0.  1.
       -3    1    3    3    0  502 -0.64003920395E+03 -0.49738606783E+03  0.18939012211E+04  0.20600740105E+04  0.10100000352E+00 0. -1.
</event>
<event>
 5   0  0.2871888E-05  0.2301501E+04  0.7818609E-02  0.8477330E-01
       -2   -1    0    0    0  501  0.00000000000E+00  0.00000000000E+00  0.11186536749E+04  0.11186536749E+04  0.25500000920E-02 0.  1.
        2   -1    0    0  501    0  0.00000000000E+00  0.00000000000E+00 -0.11837681536E+04  0.11837681536E+04  0.25500000920E-02 0. -1.
    10030    2    1    2    0    0  0.00000000000E+00  0.00000000000E+00 -0.65114478708E+02  0.23024218284E+04  0.23015008974E+04 0.  0.
        3    1    3    3  502    0  0.49139395374E+03  0.39121990574E+03  0.93204098428E+03  0.11239312430E+04  0.10100000352E+00 0.  1.
       -3    1    3    3    0  502 -0.49139395374E+03 -0.39121990574E+03 -0.99715546299E+03  0.11784905854E+04  0.10100000352E+00 0. -1.
</event>
<event>
 5   0  0.1308224E-05  0.2302446E+04  0.7818609E-02  0.8476957E-01
       -1   -1    0    0    0  501  0.00000000000E+00  0.00000000000E+00  0.90035005420E+03  0.90035005421E+03  0.50400001928E-02 0. -1.
        1   -1    0    0  501    0  0.00000000000E+00  0.00000000000E+00 -0.14719990549E+04  0.14719990549E+04  0.50400001928E-02 0.  1.
    10030    2    1    2    0    0  0.00000000000E+00  0.00000000000E+00 -0.57164900066E+03  0.23723491091E+04  0.23024460288E+04 0.  0.
        5    1    3    3  502    0  0.65428689485E+03  0.79100621947E+03 -0.82271062757E+03  0.13155443918E+04  0.46999998093E+01 0.  1.
       -5    1    3    3    0  502 -0.65428689485E+03 -0.79100621947E+03  0.25106162691E+03  0.10568047173E+04  0.46999998093E+01 0. -1.
</event>
<event>
 5   0  0.2910126E-05  0.2322449E+04  0.7818609E-02  0.8469122E-01
        2   -1    0    0  501    0  0.00000000000E+00  0.00000000000E+00  0.18433806131E+04  0.18433806131E+04  0.25500000920E-02 0.  1.
       -2   -1    0    0    0  501  0.00000000000E+00  0.00000000000E+00 -0.73150492152E+03  0.73150492152E+03  0.25500000920E-02 0. -1.
    10030    2    1    2    0    0  0.00000000000E+00  0.00000000000E+00  0.11118756916E+04  0.25748855346E+04  0.23224486997E+04 0.  0.
        5    1    3    3  502    0  0.25785253037E+03 -0.56663539894E+03 -0.53084060468E+03  0.81815489996E+03  0.46999998093E+01 0. -1.
       -5    1    3    3    0  502 -0.25785253037E+03  0.56663539894E+03  0.16427162963E+04  0.17567306347E+04  0.46999998093E+01 0.  1.
</event>
<event>
 5   0  0.2871888E-05  0.2294497E+04  0.7818609E-02  0.8480094E-01
       -2   -1    0    0    0  501  0.00000000000E+00  0.00000000000E+00  0.75689377318E+03  0.75689377318E+03  0.25500000920E-02 0. -1.
        2   -1    0    0  501    0  0.00000000000E+00  0.00000000000E+00 -0.17389224760E+04  0.17389224760E+04  0.25500000920E-02 0.  1.
    10030    2    1    2    0    0  0.00000000000E+00  0.00000000000E+00 -0.98202870279E+03  0.24958162492E+04  0.22944974126E+04 0.  0.
        3    1    3    3  502    0  0.45601984121E+03 -0.26062786499E+03 -0.16004549224E+04  0.16844396542E+04  0.10100000352E+00 0.  1.
       -3    1    3    3    0  502 -0.45601984121E+03  0.26062786499E+03  0.61842621963E+03  0.81137659500E+03  0.10100000352E+00 0. -1.
</event>
<event>
 5   0  0.1371753E-05  0.2298074E+04  0.7818609E-02  0.8478681E-01
       -1   -1    0    0    0  501  0.00000000000E+00  0.00000000000E+00  0.88879043559E+03  0.88879043560E+03  0.50400001928E-02 0.  1.
        1   -1    0    0  501    0  0.00000000000E+00  0.00000000000E+00 -0.14854857333E+04  0.14854857333E+04  0.50400001928E-02 0. -1.
    10030    2    1    2    0    0  0.00000000000E+00  0.00000000000E+00 -0.59669529769E+03  0.23742761689E+04  0.22980735515E+04 0.  0.
        3    1    3    3  502    0  0.92545256429E+03 -0.67824840527E+03 -0.36205391440E+03  0.12031485341E+04  0.10100000352E+00 0.  1.
       -3    1    3    3    0  502 -0.92545256429E+03  0.67824840527E+03 -0.23464138329E+03  0.11711276348E+04  0.10100000352E+00 0. -1.
</event>
<event>
 5   0  0.1371753E-05  0.2298365E+04  0.7818609E-02  0.8478566E-01
       -1   -1    0    0    0  501  0.00000000000E+00  0.00000000000E+00  0.89056047004E+03  0.89056047006E+03  0.50400001928E-02 0. -1.
        1   -1    0    0  501    0  0.00000000000E+00  0.00000000000E+00 -0.14829098532E+04  0.14829098532E+04  0.50400001928E-02 0.  1.
    10030    2    1    2    0    0  0.00000000000E+00  0.00000000000E+00 -0.59234938316E+03  0.23734703233E+04  0.22983654156E+04 0.  0.
        3    1    3    3  502    0 -0.96637348085E+03 -0.31868704810E+03 -0.84764938777E+03  0.13243672579E+04  0.10100000352E+00 0.  1.
       -3    1    3    3    0  502  0.96637348085E+03  0.31868704810E+03  0.25530000462E+03  0.10491030653E+04  0.10100000352E+00 0. -1.
</event>
<event>
 5   0  0.1284837E-05  0.2295036E+04  0.7818609E-02  0.8479881E-01
        1   -1    0    0  501    0  0.00000000000E+00  0.00000000000E+00  0.14495973345E+04  0.14495973345E+04  0.50400001928E-02 0. -1.
       -1   -1    0    0    0  501  0.00000000000E+00  0.00000000000E+00 -0.90838874951E+03  0.90838874953E+03  0.50400001928E-02 0.  1.
    10030    2    1    2    0    0  0.00000000000E+00  0.00000000000E+00  0.54120858496E+03  0.23579860840E+04  0.22950363047E+04 0.  0.
        4    1    3    3  502    0  0.10602510945E+04  0.42491869473E+03  0.15754970736E+03  0.11530445801E+04  0.12699999809E+01 0.  1.
       -4    1    3    3    0  502 -0.10602510945E+04 -0.42491869473E+03  0.38365887760E+03  0.12049415039E+04  0.12699999809E+01 0. -1.
</event>
<event>
 5   0  0.2816178E-05  0.2320638E+04  0.7818609E-02  0.8469828E-01
       -2   -1    0    0    0  501  0.00000000000E+00  0.00000000000E+00  0.16737748218E+04  0.16737748218E+04  0.25500000920E-02 0. -1.
        2   -1    0    0  501    0  0.00000000000E+00  0.00000000000E+00 -0.80437354168E+03  0.80437354169E+03  0.25500000920E-02 0.  1.
    10030    2    1    2    0    0  0.00000000000E+00  0.00000000000E+00  0.86940128013E+03  0.24781483635E+04  0.23206379997E+04 0.  0.
        1    1    3    3  502    0 -0.61616019601E+03 -0.96347650520E+03  0.64395980507E+03  0.13124879404E+04  0.50400001928E-02 0. -1.
       -1    1    3    3    0  502  0.61616019601E+03  0.96347650520E+03  0.22544147506E+03  0.11656604231E+04  0.50400001928E-02 0.  1.
</event>
<event>
 5   0  0.2910126E-05  0.2299869E+04  0.7818609E-02  0.8477973E-01
        2   -1    0    0  501    0  0.00000000000E+00  0.00000000000E+00  0.18407371839E+04  0.18407371839E+04  0.25500000920E-02 0.  1.
       -2   -1    0    0    0  501  0.00000000000E+00  0.00000000000E+00 -0.71838045327E+03  0.71838045328E+03  0.25500000920E-02 0. -1.
    10030    2    1    2    0    0  0.00000000000E+00  0.00000000000E+00  0.11223567306E+04  0.25591176371E+04  0.22998692245E+04 0.  0.
        5    1    3    3  502    0  0.10182240244E+03 -0.26733534424E+03 -0.67814321053E+03  0.73602737171E+03  0.46999998093E+01 0. -1.
       -5    1    3    3    0  502 -0.10182240244E+03  0.26733534424E+03  0.18004999411E+04  0.18230902654E+04  0.46999998093E+01 0.  1.
</event>
<event>
 5   0  0.2938972E-05  0.2283455E+04  0.7818609E-02  0.8484473E-01
        2   -1    0    0  501    0  0.00000000000E+00  0.00000000000E+00  0.25243374846E+04  0.25243374846E+04  0.25500000920E-02 0.  1.
       -2   -1    0    0    0  501  0.00000000000E+00  0.00000000000E+00 -0.51638958348E+03  0.51638958349E+03  0.25500000920E-02 0. -1.
    10030    2    1    2    0    0  0.00000000000E+00  0.00000000000E+00  0.20079479011E+04  0.30407270681E+04  0.22834549107E+04 0.  0.
        2    1    3    3  502    0 -0.10193179768E+04 -0.17305509686E+03  0.16489365680E+04  0.19462654006E+04  0.25500000920E-02 0.  1.
       -2    1    3    3    0  502  0.10193179768E+04  0.17305509686E+03  0.35901133319E+03  0.10944616675E+04  0.25500000920E-02 0. -1.
</event>
<event>
 5   0  0.2871888E-05  0.2289586E+04  0.7818609E-02  0.8482038E-01
       -2   -1    0    0    0  501  0.00000000000E+00  0.00000000000E+00  0.12319608181E+04  0.12319608181E+04  0.25500000920E-02 0.  1.
        2   -1    0    0  501    0  0.00000000000E+00  0.00000000000E+00 -0.10637929492E+04  0.10637929492E+04  0.25500000920E-02 0. -1.
    10030    2    1    2    0    0  0.00000000000E+00  0.00000000000E+00  0.16816786892E+03  0.22957537673E+04  0.22895861914E+04 0.  0.
        3    1    3    3  502    0  0.14360566198E+03 -0.59974061255E+03 -0.88300357605E+03  0.10770360783E+04  0.10100000352E+00 0. -1.
       -3    1    3    3    0  502 -0.14360566198E+03  0.59974061255E+03  0.10511714450E+04  0.12187176890E+04  0.10100000352E+00 0.  1.
</event>
<event>
 5   0  0.1303224E-05  0.2303451E+04  0.7818609E-02  0.8476562E-01
       -1   -1    0    0    0  501  0.00000000000E+00  0.00000000000E+00  0.12255430889E+04  0.12255430889E+04  0.50400001928E-02 0.  1.
        1   -1    0    0  501    0  0.00000000000E+00  0.00000000000E+00 -0.10823541645E+04  0.10823541645E+04  0.50400001928E-02 0. -1.
    10030    2    1    2    0    0  0.00000000000E+00  0.00000000000E+00  0.14318892441E+03  0.23078972533E+04  0.23034510335E+04 0.  0.
        2    1    3    3  502    0  0.29381743319E+02 -0.70642856106E+03  0.98250669573E+03  0.12104643761E+04  0.25500000920E-02 0.  1.
       -2    1    3    3    0  502 -0.29381743319E+02  0.70642856106E+03 -0.83931777132E+03  0.10974328772E+04  0.25500000920E-02 0. -1.
</event>
<event>
 5   0  0.1327820E-05  0.2281980E+04  0.7818609E-02  0.8485060E-01
        1   -1    0    0  501    0  0.00000000000E+00  0.00000000000E+00  0.88454944169E+03  0.88454944171E+03  0.50400001928E-02 0. -1.
       -1   -1    0    0    0  501  0.00000000000E+00  0.00000000000E+00 -0.14717748380E+04  0.14717748380E+04  0.50400001928E-02 0.  1.
    10030    2    1    2    0    0  0.00000000000E+00  0.00000000000E+00 -0.58722539631E+03  0.23563242797E+04  0.22819795015E+04 0.  0.
        1    1    3    3  502    0 -0.22519936708E+03 -0.37682585716E+03 -0.13810832558E+04  0.14491733647E+04  0.50400001928E-02 0.  1.
       -1    1    3    3    0  502  0.22519936708E+03  0.37682585716E+03  0.79385785947E+03  0.90715091502E+03  0.50400001928E-02 0. -1.
</event>
<event>
 5   0  0.2871888E-05  0.2304608E+04  0.7818609E-02  0.8476107E-01
        2   -1    0    0  501    0  0.00000000000E+00  0.00000000000E+00  0.20749793977E+04  0.20749793977E+04  0.25500000920E-02 0.  1.
       -2   -1    0    0    0  501  0.00000000000E+00  0.00000000000E+00 -0.63991208078E+03  0.63991208079E+03  0.25500000920E-02 0. -1.
    10030    2    1    2    0    0  0.00000000000E+00  0.00000000000E+00  0.14350673169E+04  0.27148914785E+04  0.23046078920E+04 0.  0.
        3    1    3    3  502    0  0.22897194908E+03 -0.95633331994E+03  0.14251378227E+04  0.17314789621E+04  0.10100000352E+00 0.  1.
       -3    1    3    3    0  502 -0.22897194908E+03  0.95633331994E+03  0.99294941997E+01  0.98341251637E+03  0.10100000352E+00 0. -1.
</event>
<event>
 5   0  0.2910126E-05  0.2305313E+04  0.7818609E-02  0.8475829E-01
       -2   -1    0    0    0  501  0.00000000000E+00  0.00000000000E+00  0.11718922861E+04  0.11718922861E+04  0.25500000920E-02 0. -1.
        2   -1    0    0  501    0  0.00000000000E+00  0.00000000000E+00 -0.11337365665E+04  0.11337365665E+04  0.25500000920E-02 0.  1.
    10030    2    1    2    0    0  0.00000000000E+00  0.00000000000E+00  0.38155719542E+02  0.23056288526E+04  0.23053131126E+04 0.  0.
        5    1    3    3  502    0 -0.10475418057E+04 -0.10256124964E+03 -0.45080815838E+03  0.11450383096E+04  0.46999998093E+01 0.  1.
       -5    1    3    3    0  502  0.10475418057E+04  0.10256124964E+03  0.48896387792E+03  0.11605905431E+04  0.46999998093E+01 0. -1.
</event>
<event>
 5   0  0.1371753E-05  0.2285198E+04  0.7818609E-02  0.8483780E-01
       -1   -1    0    0    0  501  0.00000000000E+00  0.00000000000E+00  0.12601088723E+04  0.12601088723E+04  0.50400001928E-02 0.  1.
        1   -1    0    0  501    0  0.00000000000E+00  0.00000000000E+00 -0.10360473278E+04  0.10360473278E+04  0.50400001928E-02 0. -1.
    10030    2    1    2    0    0  0.00000000000E+00  0.00000000000E+00  0.22406154452E+03  0.22961562001E+04  0.22851979606E+04 0.  0.
        3    1    3    3  502    0 -0.99039569634E+03  0.36640368326E+03  0.55046837443E+03  0.11908613420E+04  0.10100000352E+00 0.  1.
       -3    1    3    3    0  502  0.99039569634E+03 -0.36640368326E+03 -0.32640682990E+03  0.11052948581E+04  0.10100000352E+00 0. -1.
</event>
<event>
 5   0  0.1303224E-05  0.2294388E+04  0.7818609E-02  0.8480137E-01
        1   -1    0    0  501    0  0.00000000000E+00  0.00000000000E+00  0.11130872774E+04  0.11130872774E+04  0.50400001928E-02 0.  1.
       -1   -1    0    0    0  501  0.00000000000E+00  0.00000000000E+00 -0.11823459881E+04  0.11823459881E+04  0.50400001928E-02 0. -1.
    10030    2    1    2    0    0  0.00000000000E+00  0.00000000000E+00 -0.69258710688E+02  0.22954332656E+04  0.22943881772E+04 0.  0.
        2    1    3    3  502    0  0.58680317472E+03 -0.13422379338E+03  0.94239126812E+03  0.11182375842E+04  0.25500000920E-02 0.  1.
       -2    1    3    3    0  502 -0.58680317472E+03  0.13422379338E+03 -0.10116499788E+04  0.11771956814E+04  0.25500000920E-02 0. -1.
</event>
<event>
 5   0  0.1303224E-05  0.2280029E+04  0.7818609E-02  0.8485837E-01
       -1   -1    0    0    0  501  0.00000000000E+00  0.00000000000E+00  0.13917057868E+04  0.13917057868E+04  0.50400001928E-02 0. -1.
        1   -1    0    0  501    0  0.00000000000E+00  0.00000000000E+00 -0.93384221954E+03  0.93384221955E+03  0.50400001928E-02 0.  1.
    10030    2    1    2    0    0  0.00000000000E+00  0.00000000000E+00  0.45786356730E+03  0.23255480064E+04  0.22800294919E+04 0.  0.
        2    1    3    3  502    0  0.11061205848E+04  0.78420230641E+02 -0.40888970330E+02  0.11096505705E+04  0.25500000920E-02 0.  1.
       -2    1    3    3    0  502 -0.11061205848E+04 -0.78420230641E+02  0.49875253763E+03  0.12158974359E+04  0.25500000920E-02 0. -1.
</event>
<event>
 5   0  0.2994157E-05  0.2255870E+04  0.7818609E-02  0.8495527E-01
       -2   -1    0    0    0  501  0.00000000000E+00  0.00000000000E+00  0.10410121306E+04  0.10410121306E+04  0.25500000920E-02 0.  1.
        2   -1    0    0  501    0  0.00000000000E+00  0.00000000000E+00 -0.12221155643E+04  0.12221155643E+04  0.25500000920E-02 0. -1.
    10030    2    1    2    0    0  0.00000000000E+00  0.00000000000E+00 -0.18110343376E+03  0.22631276949E+04  0.22558697901E+04 0.  0.
        4    1    3    3  502    0  0.45437882398E+03  0.26628060565E+03  0.91008908311E+03  0.10514890531E+04  0.12699999809E+01 0.  1.
       -4    1    3    3    0  502 -0.45437882398E+03 -0.26628060565E+03 -0.10911925169E+04  0.12116386418E+04  0.12699999809E+01 0. -1.
</event>
<event>
 5   0  0.1308224E-05  0.2288406E+04  0.7818609E-02  0.8482506E-01
        1   -1    0    0  501    0  0.00000000000E+00  0.00000000000E+00  0.18880460631E+04  0.18880460631E+04  0.50400001928E-02 0.  1.
       -1   -1    0    0    0  501  0.00000000000E+00  0.00000000000E+00 -0.69341560031E+03  0.69341560033E+03  0.50400001928E-02 0. -1.
    10030    2    1    2    0    0  0.00000000000E+00  0.00000000000E+00  0.11946304628E+04  0.25814616635E+04  0.22884060779E+04 0.  0.
        5    1    3    3  502    0  0.93730770254E+03  0.21586855103E+03 -0.10174913812E+03  0.96722279629E+03  0.46999998093E+01 0. -1.
       -5    1    3    3    0  502 -0.93730770254E+03 -0.21586855103E+03  0.12963796009E+04  0.16142388672E+04  0.46999998093E+01 0.  1.
</event>
<event>
 5   0  0.2910126E-05  0.2279795E+04  0.7818609E-02  0.8485930E-01
       -2   -1    0    0    0  501  0.00000000000E+00  0.00000000000E+00  0.76602631439E+03  0.76602631439E+03  0.25500000920E-02 0. -1.
        2   -1    0    0  501    0  0.00000000000E+00  0.00000000000E+00 -0.16962427915E+04  0.16962427915E+04  0.25500000920E-02 0.  1.
    10030    2    1    2    0    0  0.00000000000E+00  0.00000000000E+00 -0.93021647708E+03  0.24622691059E+04  0.22797952661E+04 0.  0.
        5    1    3    3  502    0 -0.30680349064E+03 -0.10931957300E+04 -0.57386150818E+03  0.12722202666E+04  0.46999998093E+01 0. -1.
       -5    1    3    3    0  502  0.30680349064E+03  0.10931957300E+04 -0.35635496890E+03  0.11900488393E+04  0.46999998093E+01 0.  1.
</event>
<event>
 5   0  0.1303224E-05  0.2289490E+04  0.7818609E-02  0.8482077E-01
       -1   -1    0    0    0  501  0.00000000000E+00  0.00000000000E+00  0.94328327087E+03  0.94328327088E+03  0.50400001928E-02 0.  1.
        1   -1    0    0  501    0  0.00000000000E+00  0.00000000000E+00 -0.13892337635E+04  0.13892337635E+04  0.50400001928E-02 0. -1.
    10030    2    1    2    0    0  0.00000000000E+00  0.00000000000E+00 -0.44595049267E+03  0.23325170344E+04  0.22894898720E+04 0.  0.
        2    1    3    3  502    0  0.85963007296E+03 -0.29467941063E+03 -0.93222017832E+03  0.13018580100E+04  0.25500000920E-02 0. -1.
       -2    1    3    3    0  502 -0.85963007296E+03  0.29467941063E+03  0.48626968566E+03  0.10306590244E+04  0.25500000920E-02 0.  1.
</event>
<event>
 5   0  0.2816178E-05  0.2287565E+04  0.7818609E-02  0.8482840E-01
       -2   -1    0    0    0  501  0.00000000000E+00  0.00000000000E+00  0.84169023896E+03  0.84169023896E+03  0.25500000920E-02 0. -1.
        2   -1    0    0  501    0  0.00000000000E+00  0.00000000000E+00 -0.15542989131E+04  0.15542989131E+04  0.25500000920E-02 0.  1.
    10030    2    1    2    0    0  0.00000000000E+00  0.00000000000E+00 -0.71260867415E+03  0.23959891521E+04  0.22875648394E+04 0.  0.
        1    1    3    3  502    0  0.25714250430E+03 -0.10700208351E+04 -0.68280238907E+03  0.12951007519E+04  0.50400001928E-02 0.  1.
       -1    1    3    3    0  502 -0.25714250430E+03  0.10700208351E+04 -0.29806285079E+02  0.11008884002E+04  0.50400001928E-02 0. -1.
</event>
<event>
 5   0  0.1308224E-05  0.2310140E+04  0.7818609E-02  0.8473934E-01
       -1   -1    0    0    0  501  0.00000000000E+00  0.00000000000E+00  0.85882122790E+03  0.85882122791E+03  0.50400001928E-02 0.  1.
        1   -1    0    0  501    0  0.00000000000E+00  0.00000000000E+00 -0.15535094591E+04  0.15535094591E+04  0.50400001928E-02 0. -1.
    10030    2    1    2    0    0  0.00000000000E+00  0.00000000000E+00 -0.69468823123E+03  0.24123306870E+04  0.23101401700E+04 0.  0.
        5    1    3    3  502    0 -0.10140270141E+04  0.47479693556E+03 -0.51101448809E+02  0.11208551929E+04  0.46999998093E+01 0.  1.
       -5    1    3    3    0  502  0.10140270141E+04 -0.47479693556E+03 -0.64358678242E+03  0.12914754941E+04  0.46999998093E+01 0. -1.
</event>
<event>
 5   0  0.1303224E-05  0.2295719E+04  0.7818609E-02  0.8479611E-01
       -1   -1    0    0    0  501  0.00000000000E+00  0.00000000000E+00  0.80372722645E+03  0.80372722647E+03  0.50400001928E-02 0. -1.
        1   -1    0    0  501    0  0.00000000000E+00  0.00000000000E+00 -0.16393384774E+04  0.16393384774E+04  0.50400001928E-02 0.  1.
    10030    2    1    2    0    0  0.00000000000E+00  0.00000000000E+00 -0.83561125095E+03  0.24430657039E+04  0.22957185957E+04 0.  0.
        2    1    3    3  502    0  0.76696404237E+03  0.18136277610E+03  0.47029652571E+03  0.91777182400E+03  0.25500000920E-02 0. -1.
       -2    1    3    3    0  502 -0.76696404237E+03 -0.18136277610E+03 -0.13059077767E+04  0.15252938799E+04  0.25500000920E-02 0.  1.
</event>
<event>
 5   0  0.2938972E-05  0.2285250E+04  0.7818609E-02  0.8483760E-01
        2   -1    0    0  501    0  0.00000000000E+00  0.00000000000E+00  0.21844276539E+04  0.21844276539E+04  0.25500000920E-02 0.  1.
       -2   -1    0    0    0  501  0.00000000000E+00  0.00000000000E+00 -0.59768156324E+03  0.59768156324E+03  0.25500000920E-02 0. -1.
    10030    2    1    2    0    0  0.00000000000E+00  0.00000000000E+00  0.15867460906E+04  0.27821092171E+04  0.22852502138E+04 0.  0.
        2    1    3    3  502    0 -0.30305191261E+03  0.59834594128E+03  0.19195581058E+04  0.20333621539E+04  0.25500000920E-02 0.  1.
       -2    1    3    3    0  502  0.30305191261E+03 -0.59834594128E+03 -0.33281201521E+03  0.74874706321E+03  0.25500000920E-02 0. -1.
</event>
<event>
 5   0  0.2938972E-05  0.2300773E+04  0.7818609E-02  0.8477617E-01
       -2   -1    0    0    0  501  0.00000000000E+00  0.00000000000E+00  0.72802157545E+03  0.72802157546E+03  0.25500000920E-02 0.  1.
        2   -1    0    0  501    0  0.00000000000E+00  0.00000000000E+00 -0.18177875112E+04  0.18177875112E+04  0.25500000920E-02 0. -1.
    10030    2    1    2    0    0  0.00000000000E+00  0.00000000000E+00 -0.10897659358E+04  0.25458090867E+04  0.23007725031E+04 0.  0.
        2    1    3    3  502    0  0.32950696480E+03  0.93196149699E+03 -0.11959927638E+04  0.15516203668E+04  0.25500000920E-02 0. -1.
       -2    1    3    3    0  502 -0.32950696480E+03 -0.93196149699E+03  0.10622682800E+03  0.99418871987E+03  0.25500000920E-02 0.  1.
</event>
<event>
 5   0  0.2994157E-05  0.2275825E+04  0.7818609E-02  0.8487515E-01
       -2   -1    0    0    0  501  0.00000000000E+00  0.00000000000E+00  0.14874345099E+04  0.14874345099E+04  0.25500000920E-02 0.  1.
        2   -1    0    0  501    0  0.00000000000E+00  0.00000000000E+00 -0.87052203738E+03  0.87052203738E+03  0.25500000920E-02 0. -1.
    10030    2    1    2    0    0  0.00000000000E+00  0.00000000000E+00  0.61691247254E+03  0.23579565473E+04  0.22758247033E+04 0.  0.
        4    1    3    3  502    0  0.89520924980E+03  0.19202375028E+03 -0.39162875072E+03  0.99581494912E+03  0.12699999809E+01 0. -1.
       -4    1    3    3    0  502 -0.89520924980E+03 -0.19202375028E+03  0.10085412233E+04  0.13621415982E+04  0.12699999809E+01 0.  1.
</event>
<event>
 5   0  0.2938972E-05  0.2329775E+04  0.7818609E-02  0.8466273E-01
        2   -1    0    0  501    0  0.00000000000E+00  0.00000000000E+00  0.19633590664E+04  0.19633590664E+04  0.25500000920E-02 0.  1.
       -2   -1    0    0    0  501  0.00000000000E+00  0.00000000000E+00 -0.69114337694E+03  0.69114337695E+03  0.25500000920E-02 0. -1.
    10030    2    1    2    0    0  0.00000000000E+00  0.00000000000E+00  0.12722156895E+04  0.26545024433E+04  0.23297747662E+04 0.  0.
        2    1    3    3  502    0  0.35999187508E+03 -0.53997420964E+03  0.17383064532E+04  0.18554987530E+04  0.25500000920E-02 0.  1.
       -2    1    3    3    0  502 -0.35999187508E+03  0.53997420964E+03 -0.46609076371E+03  0.79900369037E+03  0.25500000920E-02 0. -1.
</event>
<event>
 5   0  0.2938972E-05  0.2305088E+04  0.7818609E-02  0.8475918E-01
       -2   -1    0    0    0  501  0.00000000000E+00  0.00000000000E+00  0.11393452470E+04  0.11393452470E+04  0.25500000920E-02 0.  1.
        2   -1    0    0  501    0  0.00000000000E+00  0.00000000000E+00 -0.11658951993E+04  0.11658951993E+04  0.25500000920E-02 0. -1.
    10030    2    1    2    0    0  0.00000000000E+00  0.00000000000E+00 -0.26549952319E+02  0.23052404463E+04  0.23050875505E+04 0.  0.
        2    1    3    3  502    0 -0.91388843678E+03  0.16196335041E+03  0.67009527283E+03  0.11447497003E+04  0.25500000920E-02 0.  1.
       -2    1    3    3    0  502  0.91388843678E+03 -0.16196335041E+03 -0.69664522515E+03  0.11604907460E+04  0.25500000920E-02 0. -1.
</event>
<event>
 5   0  0.2871888E-05  0.2326086E+04  0.7818609E-02  0.8467706E-01
       -2   -1    0    0    0  501  0.00000000000E+00  0.00000000000E+00  0.13866616420E+04  0.13866616420E+04  0.25500000920E-02 0. -1.
        2   -1    0    0  501    0  0.00000000000E+00  0.00000000000E+00 -0.97548603016E+03  0.97548603016E+03  0.25500000920E-02 0.  1.
    10030    2    1    2    0    0  0.00000000000E+00  0.00000000000E+00  0.41117561188E+03  0.23621476722E+04  0.23260860349E+04 0.  0.
        3    1    3    3  502    0 -0.98401676555E+03  0.39873229129E+03 -0.27652771363E+03  0.10971526884E+04  0.10100000352E+00 0.  1.
       -3    1    3    3    0  502  0.98401676555E+03 -0.39873229129E+03  0.68770332552E+03  0.12649949838E+04  0.10100000352E+00 0. -1.
</event>
<event>
 5   0  0.1284837E-05  0.2352993E+04  0.7818609E-02  0.8457315E-01
       -1   -1    0    0    0  501  0.00000000000E+00  0.00000000000E+00  0.88097749321E+03  0.88097749322E+03  0.50400001928E-02 0.  1.
        1   -1    0    0  501    0  0.00000000000E+00  0.00000000000E+00 -0.15711458135E+04  0.15711458135E+04  0.50400001928E-02 0. -1.
    10030    2    1    2    0    0  0.00000000000E+00  0.00000000000E+00 -0.69016832028E+03  0.24521233067E+04  0.23529930729E+04 0.  0.
        4    1    3    3  502    0  0.72430628393E+03 -0.65632931539E+03  0.33729556674E+03  0.10340008102E+04  0.12699999809E+01 0.  1.
       -4    1    3    3    0  502 -0.72430628393E+03  0.65632931539E+03 -0.10274638870E+04  0.14181224965E+04  0.12699999809E+01 0. -1.
</event>
<event>
 5   0  0.1327820E-05  0.2266513E+04  0.7818609E-02  0.8491243E-01
       -1   -1    0    0    0  501  0.00000000000E+00  0.00000000000E+00  0.13466613071E+04  0.13466613071E+04  0.50400001928E-02 0. -1.
        1   -1    0    0  501    0  0.00000000000E+00  0.00000000000E+00 -0.95367024746E+03  0.95367024747E+03  0.50400001928E-02 0.  1.
    10030    2    1    2    0    0  0.00000000000E+00  0.00000000000E+00  0.39299105961E+03  0.23003315545E+04  0.22665134652E+04 0.  0.
        1    1    3    3  502    0 -0.18832528553E+02  0.16741213132E+03 -0.94089031698E+03  0.95585358422E+03  0.50400001928E-02 0.  1.
       -1    1    3    3    0  502  0.18832528553E+02 -0.16741213132E+03  0.13338813766E+04  0.13444779703E+04  0.50400001928E-02 0. -1.
</event>
<event>
 5   0  0.1371753E-05  0.2050961E+04  0.7818609E-02  0.8583159E-01
       -1   -1    0    0    0  501  0.00000000000E+00  0.00000000000E+00  0.63596646801E+03  0.63596646803E+03  0.50400001928E-02 0.  1.
        1   -1    0    0  501    0  0.00000000000E+00  0.00000000000E+00 -0.16535620771E+04  0.16535620772E+04  0.50400001928E-02 0. -1.
    10030    2    1    2    0    0  0.00000000000E+00  0.00000000000E+00 -0.10175956091E+04  0.22895285452E+04  0.20509607835E+04 0.  0.
        3    1    3    3  502    0 -0.72151896074E+03  0.60706044281E+03 -0.58797550745E+02  0.94475878091E+03  0.10100000352E+00 0.  1.
       -3    1    3    3    0  502  0.72151896074E+03 -0.60706044281E+03 -0.95879805840E+03  0.13447697643E+04  0.10100000352E+00 0. -1.
</event>
<event>
 5   0  0.1303224E-05  0.2296753E+04  0.7818609E-02  0.8479202E-01
       -1   -1    0    0    0  501  0.00000000000E+00  0.00000000000E+00  0.10993365475E+04  0.10993365476E+04  0.50400001928E-02 0.  1.
        1   -1    0    0  501    0  0.00000000000E+00  0.00000000000E+00 -0.11996043647E+04  0.11996043648E+04  0.50400001928E-02 0. -1.
    10030    2    1    2    0    0  0.00000000000E+00  0.00000000000E+00 -0.10026781719E+03  0.22989409123E+04  0.22967532917E+04 0.  0.
        2    1    3    3  502    0  0.14366984825E+03  0.35604108584E+03 -0.11334598575E+04  0.11967194862E+04  0.25500000920E-02 0. -1.
       -2    1    3    3    0  502 -0.14366984825E+03 -0.35604108584E+03  0.10331920403E+04  0.11022214261E+04  0.25500000920E-02 0.  1.
</event>
<event>
 5   0  0.1371753E-05  0.2293924E+04  0.7818609E-02  0.8480320E-01
       -1   -1    0    0    0  501  0.00000000000E+00  0.00000000000E+00  0.10204245206E+04  0.10204245206E+04  0.50400001928E-02 0. -1.
        1   -1    0    0  501    0  0.00000000000E+00  0.00000000000E+00 -0.12891912399E+04  0.12891912399E+04  0.50400001928E-02 0.  1.
    10030    2    1    2    0    0  0.00000000000E+00  0.00000000000E+00 -0.26876671932E+03  0.23096157605E+04  0.22939244564E+04 0.  0.
        3    1    3    3  502    0 -0.65706588990E+03  0.13439801875E+03  0.80242408724E+03  0.10457929227E+04  0.10100000352E+00 0. -1.
       -3    1    3    3    0  502  0.65706588990E+03 -0.13439801875E+03 -0.10711908066E+04  0.12638228378E+04  0.10100000352E+00 0.  1.
</event>
<event>
 5   0  0.2994157E-05  0.2285511E+04  0.7818609E-02  0.8483656E-01
       -2   -1    0    0    0  501  0.00000000000E+00  0.00000000000E+00  0.10909200537E+04  0.10909200537E+04  0.25500000920E-02 0.  1.
        2   -1    0    0  501    0  0.00000000000E+00  0.00000000000E+00 -0.11970536988E+04  0.11970536988E+04  0.25500000920E-02 0. -1.
    10030    2    1    2    0    0  0.00000000000E+00  0.00000000000E+00 -0.10613364508E+03  0.22879737526E+04  0.22855107836E+04 0.  0.
        4    1    3    3  502    0 -0.10059484075E+04 -0.52693488013E+02 -0.59325881125E+03  0.11690450942E+04  0.12699999809E+01 0. -1.
       -4    1    3    3    0  502  0.10059484075E+04  0.52693488013E+02  0.48712516616E+03  0.11189286584E+04  0.12699999809E+01 0.  1.
</event>
<event>
 5   0  0.2994157E-05  0.2303678E+04  0.7818609E-02  0.8476472E-01
       -2   -1    0    0    0  501  0.00000000000E+00  0.00000000000E+00  0.72182486883E+03  0.72182486884E+03  0.25500000920E-02 0. -1.
        2   -1    0    0  501    0  0.00000000000E+00  0.00000000000E+00 -0.18380267654E+04  0.18380267654E+04  0.25500000920E-02 0.  1.
    10030    2    1    2    0    0  0.00000000000E+00  0.00000000000E+00 -0.11162018966E+04  0.25598516342E+04  0.23036783012E+04 0.  0.
        4    1    3    3  502    0  0.89117404856E+03  0.29142999204E+03 -0.13015350199E+04  0.16040940266E+04  0.12699999809E+01 0.  1.
       -4    1    3    3    0  502 -0.89117404856E+03 -0.29142999204E+03  0.18533312337E+03  0.95575760766E+03  0.12699999809E+01 0. -1.
</event>
<event>
 5   0  0.2938972E-05  0.2305860E+04  0.7818609E-02  0.8475614E-01
       -2   -1    0    0    0  501  0.00000000000E+00  0.00000000000E+00  0.90175828533E+03  0.90175828533E+03  0.25500000920E-02 0.  1.
        2   -1    0    0  501    0  0.00000000000E+00  0.00000000000E+00 -0.14740616438E+04  0.14740616438E+04  0.25500000920E-02 0. -1.
    10030    2    1    2    0    0  0.00000000000E+00  0.00000000000E+00 -0.57230335849E+03  0.23758199292E+04  0.23058597532E+04 0.  0.
        2    1    3    3  502    0 -0.11061603382E+04  0.32468905942E+03 -0.27040326292E+03  0.11841163810E+04  0.25500000920E-02 0.  1.
       -2    1    3    3    0  502  0.11061603382E+04 -0.32468905942E+03 -0.30190009556E+03  0.11917035482E+04  0.25500000920E-02 0. -1.
</event>
<event>
 5   0  0.1017200E-05  0.2313554E+04  0.7818609E-02  0.8472596E-01
        3   -1    0    0  501    0  0.00000000000E+00  0.00000000000E+00  0.10154308922E+04  0.10154308972E+04  0.10100000352E+00 0.  1.
       -3   -1    0    0    0  501  0.00000000000E+00  0.00000000000E+00 -0.13177987469E+04  0.13177987508E+04  0.10100000352E+00 0. -1.
    10030    2    1    2    0    0  0.00000000000E+00  0.00000000000E+00 -0.30236785474E+03  0.23332296480E+04  0.23135544668E+04 0.  0.
        3    1    3    3  502    0  0.63918804937E+03 -0.16814677416E+03 -0.11086252517E+04  0.12906915429E+04  0.10100000352E+00 0. -1.
       -3    1    3    3    0  502 -0.63918804937E+03  0.16814677416E+03  0.80625739696E+03  0.10425381050E+04  0.10100000352E+00 0.  1.
</event>
<event>
 5   0  0.1284837E-05  0.2315494E+04  0.7818609E-02  0.8471837E-01
        1   -1    0    0  501    0  0.00000000000E+00  0.00000000000E+00  0.16292944312E+04  0.16292944312E+04  0.50400001928E-02 0. -1.
       -1   -1    0    0    0  501  0.00000000000E+00  0.00000000000E+00 -0.82267426129E+03  0.82267426130E+03  0.50400001928E-02 0.  1.
    10030    2    1    2    0    0  0.00000000000E+00  0.00000000000E+00  0.80662016994E+03  0.24519686925E+04  0.23154944117E+04 0.  0.
        4    1    3    3  502    0  0.25978143742E+03 -0.93769874127E+03  0.10676726579E+04  0.14445386260E+04  0.12699999809E+01 0. -1.
       -4    1    3    3    0  502 -0.25978143742E+03  0.93769874127E+03 -0.26105248798E+03  0.10074300665E+04  0.12699999809E+01 0.  1.
</event>
<event>
 5   0  0.1371753E-05  0.2287148E+04  0.7818609E-02  0.8483006E-01
        1   -1    0    0  501    0  0.00000000000E+00  0.00000000000E+00  0.11124565710E+04  0.11124565710E+04  0.50400001928E-02 0.  1.
       -1   -1    0    0    0  501  0.00000000000E+00  0.00000000000E+00 -0.11755615683E+04  0.11755615684E+04  0.50400001928E-02 0. -1.
    10030    2    1    2    0    0  0.00000000000E+00  0.00000000000E+00 -0.63104997389E+02  0.22880181393E+04  0.22871477358E+04 0.  0.
        3    1    3    3  502    0 -0.45380596408E+03  0.72372379119E+03 -0.79213467766E+03  0.11649864105E+04  0.10100000352E+00 0. -1.
       -3    1    3    3    0  502  0.45380596408E+03 -0.72372379119E+03  0.72902968027E+03  0.11230317288E+04  0.10100000352E+00 0.  1.
</event>
<event>
 5   0  0.1284837E-05  0.2308810E+04  0.7818609E-02  0.8474455E-01
        1   -1    0    0  501    0  0.00000000000E+00  0.00000000000E+00  0.19689299650E+04  0.19689299650E+04  0.50400001928E-02 0. -1.
       -1   -1    0    0    0  501  0.00000000000E+00  0.00000000000E+00 -0.67684030899E+03  0.67684030901E+03  0.50400001928E-02 0.  1.
    10030    2    1    2    0    0  0.00000000000E+00  0.00000000000E+00  0.12920896560E+04  0.26457702740E+04  0.23088102269E+04 0.  0.
        4    1    3    3  502    0 -0.27206039659E+03  0.10942771348E+04  0.36257620454E+03  0.11844502624E+04  0.12699999809E+01 0.  1.
       -4    1    3    3    0  502  0.27206039659E+03 -0.10942771348E+04  0.92951345148E+03  0.14613200116E+04  0.12699999809E+01 0. -1.
</event>
<event>
 5   0  0.1284837E-05  0.2336880E+04  0.7818609E-02  0.8463520E-01
       -1   -1    0    0    0  501  0.00000000000E+00  0.00000000000E+00  0.91488551425E+03  0.91488551427E+03  0.50400001928E-02 0.  1.
        1   -1    0    0  501    0  0.00000000000E+00  0.00000000000E+00 -0.14922656766E+04  0.14922656766E+04  0.50400001928E-02 0. -1.
    10030    2    1    2    0    0  0.00000000000E+00  0.00000000000E+00 -0.57738016233E+03  0.24071511909E+04  0.23368801860E+04 0.  0.
        4    1    3    3  502    0 -0.78324651194E+03 -0.70510725294E+03  0.23106114951E+03  0.10789078757E+04  0.12699999809E+01 0.  1.
       -4    1    3    3    0  502  0.78324651194E+03  0.70510725294E+03 -0.80844131184E+03  0.13282433151E+04  0.12699999809E+01 0. -1.
</event>
<event>
 5   0  0.2816178E-05  0.2290138E+04  0.7818609E-02  0.8481820E-01
        2   -1    0    0  501    0  0.00000000000E+00  0.00000000000E+00  0.23381865056E+04  0.23381865056E+04  0.25500000920E-02 0.  1.
       -2   -1    0    0    0  501  0.00000000000E+00  0.00000000000E+00 -0.56076938443E+03  0.56076938444E+03  0.25500000920E-02 0. -1.
    10030    2    1    2    0    0  0.00000000000E+00  0.00000000000E+00  0.17774171211E+04  0.28989558900E+04  0.22901383429E+04 0.  0.
        1    1    3    3  502    0  0.10978163212E+04  0.25179985120E+02  0.12995691462E+04  0.17013861033E+04  0.50400001928E-02 0.  1.
       -1    1    3    3    0  502 -0.10978163212E+04 -0.25179985120E+02  0.47784797496E+03  0.11975697867E+04  0.50400001928E-02 0. -1.
</event>
<event>
 5   0  0.2938972E-05  0.2303527E+04  0.7818609E-02  0.8476532E-01
        2   -1    0    0  501    0  0.00000000000E+00  0.00000000000E+00  0.10182313439E+04  0.10182313439E+04  0.25500000920E-02 0.  1.
       -2   -1    0    0    0  501  0.00000000000E+00  0.00000000000E+00 -0.13028075475E+04  0.13028075475E+04  0.25500000920E-02 0. -1.
    10030    2    1    2    0    0  0.00000000000E+00  0.00000000000E+00 -0.28457620366E+03  0.23210388914E+04  0.23035272778E+04 0.  0.
        2    1    3    3  502    0 -0.87326629194E+03 -0.90007853729E+02 -0.89351884338E+03  0.12526257836E+04  0.25500000920E-02 0. -1.
       -2    1    3    3    0  502  0.87326629194E+03  0.90007853729E+02  0.60894263972E+03  0.10684131078E+04  0.25500000920E-02 0.  1.
</event>
<event>
 5   0  0.2871888E-05  0.2298583E+04  0.7818609E-02  0.8478480E-01
        2   -1    0    0  501    0  0.00000000000E+00  0.00000000000E+00  0.22667328062E+04  0.22667328062E+04  0.25500000920E-02 0. -1.
       -2   -1    0    0    0  501  0.00000000000E+00  0.00000000000E+00 -0.58272008981E+03  0.58272008982E+03  0.25500000920E-02 0.  1.
    10030    2    1    2    0    0  0.00000000000E+00  0.00000000000E+00  0.16840127164E+04  0.28494528960E+04  0.22985828194E+04 0.  0.
        3    1    3    3  502    0 -0.82830221882E+03 -0.39319421224E+03 -0.17017815416E+02  0.91704736546E+03  0.10100000352E+00 0.  1.
       -3    1    3    3    0  502  0.82830221882E+03  0.39319421224E+03  0.17010305318E+04  0.19324055306E+04  0.10100000352E+00 0. -1.
</event>
<event>
 5   0  0.2910126E-05  0.2311307E+04  0.7818609E-02  0.8473476E-01
        2   -1    0    0  501    0  0.00000000000E+00  0.00000000000E+00  0.88149008177E+03  0.88149008177E+03  0.25500000920E-02 0.  1.
       -2   -1    0    0    0  501  0.00000000000E+00  0.00000000000E+00 -0.15150880848E+04  0.15150880848E+04  0.25500000920E-02 0. -1.
    10030    2    1    2    0    0  0.00000000000E+00  0.00000000000E+00 -0.63359800299E+03  0.23965781665E+04  0.23113070932E+04 0.  0.
        5    1    3    3  502    0  0.87725131302E+03 -0.64740778193E+03 -0.71408781202E+03  0.13033227519E+04  0.46999998093E+01 0. -1.
       -5    1    3    3    0  502 -0.87725131302E+03  0.64740778193E+03  0.80489809025E+02  0.10932554146E+04  0.46999998093E+01 0.  1.
</event>
<event>
 5   0  0.1308224E-05  0.2304782E+04  0.7818609E-02  0.8476038E-01
        1   -1    0    0  501    0  0.00000000000E+00  0.00000000000E+00  0.22558587277E+04  0.22558587277E+04  0.50400001928E-02 0. -1.
       -1   -1    0    0    0  501  0.00000000000E+00  0.00000000000E+00 -0.58869171703E+03  0.58869171705E+03  0.50400001928E-02 0.  1.
    10030    2    1    2    0    0  0.00000000000E+00  0.00000000000E+00  0.16671670107E+04  0.28445504448E+04  0.23047822872E+04 0.  0.
        5    1    3    3  502    0  0.20532020810E+03  0.16652093177E+03  0.22179175760E+04  0.22336217389E+04  0.46999998093E+01 0. -1.
       -5    1    3    3    0  502 -0.20532020810E+03 -0.16652093177E+03 -0.55075056527E+03  0.61092870592E+03  0.46999998093E+01 0.  1.
</event>
<event>
 5   0  0.1303224E-05  0.2268747E+04  0.7818609E-02  0.8490347E-01
       -1   -1    0    0    0  501  0.00000000000E+00  0.00000000000E+00  0.23370960805E+04  0.23370960805E+04  0.50400001928E-02 0.  1.
        1   -1    0    0  501    0  0.00000000000E+00  0.00000000000E+00 -0.55059911058E+03  0.55059911060E+03  0.50400001928E-02 0. -1.
    10030    2    1    2    0    0  0.00000000000E+00  0.00000000000E+00  0.17864969700E+04  0.28876951911E+04  0.22687468112E+04 0.  0.
        2    1    3    3  502    0 -0.19695059573E+03  0.30879189584E+03 -0.47327193859E+03  0.59843821733E+03  0.25500000920E-02 0. -1.
       -2    1    3    3    0  502  0.19695059573E+03 -0.30879189584E+03  0.22597689086E+04  0.22892569738E+04  0.25500000920E-02 0.  1.
</event>
<event>
 5   0  0.1308224E-05  0.2268260E+04  0.7818609E-02  0.8490542E-01
       -1   -1    0    0    0  501  0.00000000000E+00  0.00000000000E+00  0.91664900203E+03  0.91664900204E+03  0.50400001928E-02 0. -1.
        1   -1    0    0  501    0  0.00000000000E+00  0.00000000000E+00 -0.14032095354E+04  0.14032095354E+04  0.50400001928E-02 0.  1.
    10030    2    1    2    0    0  0.00000000000E+00  0.00000000000E+00 -0.48656053336E+03  0.23198585374E+04  0.22682597914E+04 0.  0.
        5    1    3    3  502    0 -0.97998681269E+03  0.15307287814E+03  0.31915969290E+03  0.10419647108E+04  0.46999998093E+01 0. -1.
       -5    1    3    3    0  502  0.97998681269E+03 -0.15307287814E+03 -0.80572022626E+03  0.12778938266E+04  0.46999998093E+01 0.  1.
</event>
<event>
 5   0  0.2938972E-05  0.2308741E+04  0.7818609E-02  0.8474483E-01
       -2   -1    0    0    0  501  0.00000000000E+00  0.00000000000E+00  0.13861787268E+04  0.13861787269E+04  0.25500000920E-02 0.  1.
        2   -1    0    0  501    0  0.00000000000E+00  0.00000000000E+00 -0.96132681259E+03  0.96132681259E+03  0.25500000920E-02 0. -1.
    10030    2    1    2    0    0  0.00000000000E+00  0.00000000000E+00  0.42485191426E+03  0.23475055394E+04  0.23087405893E+04 0.  0.
        2    1    3    3  502    0 -0.21761549684E+03  0.15410074523E+03  0.13544348205E+04  0.13804337098E+04  0.25500000920E-02 0.  1.
       -2    1    3    3    0  502  0.21761549684E+03 -0.15410074523E+03 -0.92958290623E+03  0.96707182966E+03  0.25500000920E-02 0. -1.
</event>
<event>
 5   0  0.2816178E-05  0.2274388E+04  0.7818609E-02  0.8488089E-01
       -2   -1    0    0    0  501  0.00000000000E+00  0.00000000000E+00  0.83219497371E+03  0.83219497371E+03  0.25500000920E-02 0. -1.
        2   -1    0    0  501    0  0.00000000000E+00  0.00000000000E+00 -0.15539747637E+04  0.15539747637E+04  0.25500000920E-02 0.  1.
    10030    2    1    2    0    0  0.00000000000E+00  0.00000000000E+00 -0.72177978995E+03  0.23861697374E+04  0.22743878188E+04 0.  0.
        1    1    3    3  502    0 -0.10052943960E+04  0.27329614128E+03  0.11748298178E+03  0.10483844020E+04  0.50400001928E-02 0. -1.
       -1    1    3    3    0  502  0.10052943960E+04 -0.27329614128E+03 -0.83926277173E+03  0.13377853353E+04  0.50400001928E-02 0.  1.
</event>
<event>
 5   0  0.2816178E-05  0.2339275E+04  0.7818609E-02  0.8462594E-01
        2   -1    0    0  501    0  0.00000000000E+00  0.00000000000E+00  0.13963332115E+04  0.13963332115E+04  0.25500000920E-02 0. -1.
       -2   -1    0    0    0  501  0.00000000000E+00  0.00000000000E+00 -0.97974621692E+03  0.97974621692E+03  0.25500000920E-02 0.  1.
    10030    2    1    2    0    0  0.00000000000E+00  0.00000000000E+00  0.41658699454E+03  0.23760794284E+04  0.23392752566E+04 0.  0.
        1    1    3    3  502    0 -0.45432307843E+03  0.71490685731E+03  0.10275507043E+04  0.13316762836E+04  0.50400001928E-02 0. -1.
       -1    1    3    3    0  502  0.45432307843E+03 -0.71490685731E+03 -0.61096370978E+03  0.10444031448E+04  0.50400001928E-02 0.  1.
</event>
<event>
 5   0  0.2871888E-05  0.2294591E+04  0.7818609E-02  0.8480057E-01
       -2   -1    0    0    0  501  0.00000000000E+00  0.00000000000E+00  0.82721348562E+03  0.82721348562E+03  0.25500000920E-02 0. -1.
        2   -1    0    0  501    0  0.00000000000E+00  0.00000000000E+00 -0.15912297131E+04  0.15912297131E+04  0.25500000920E-02 0.  1.
    10030    2    1    2    0    0  0.00000000000E+00  0.00000000000E+00 -0.76401622751E+03  0.24184431987E+04  0.22945907499E+04 0.  0.
        3    1    3    3  502    0  0.68429793186E+03  0.84052831754E+03 -0.77852603046E+03  0.13344865314E+04  0.10100000352E+00 0. -1.
       -3    1    3    3    0  502 -0.68429793186E+03 -0.84052831754E+03  0.14509802954E+02  0.10839566674E+04  0.10100000352E+00 0.  1.
</event>
<event>
 5   0  0.1284837E-05  0.2300219E+04  0.7818609E-02  0.8477835E-01
       -1   -1    0    0    0  501  0.00000000000E+00  0.00000000000E+00  0.51793742902E+03  0.51793742904E+03  0.50400001928E-02 0. -1.
        1   -1    0    0  501    0  0.00000000000E+00  0.00000000000E+00 -0.25538829676E+04  0.25538829676E+04  0.50400001928E-02 0.  1.
    10030    2    1    2    0    0  0.00000000000E+00  0.00000000000E+00 -0.20359455386E+04  0.30718203967E+04  0.23002187533E+04 0.  0.
        4    1    3    3  502    0  0.12393172492E+03 -0.97059758285E+03 -0.18251521819E+04  0.20708937298E+04  0.12699999809E+01 0.  1.
       -4    1    3    3    0  502 -0.12393172492E+03  0.97059758285E+03 -0.21079335673E+03  0.10009266669E+04  0.12699999809E+01 0. -1.
</event>
<event>
 5   0  0.2871888E-05  0.2311679E+04  0.7818609E-02  0.8473330E-01
        2   -1    0    0  501    0  0.00000000000E+00  0.00000000000E+00  0.19081238309E+04  0.19081238309E+04  0.25500000920E-02 0.  1.
       -2   -1    0    0    0  501  0.00000000000E+00  0.00000000000E+00 -0.70014611846E+03  0.70014611846E+03  0.25500000920E-02 0. -1.
    10030    2    1    2    0    0  0.00000000000E+00  0.00000000000E+00  0.12079777124E+04  0.26082699494E+04  0.23116794706E+04 0.  0.
        3    1    3    3  502    0 -0.96283572276E+03  0.51263579238E+03  0.17269240186E+03  0.11043870519E+04  0.10100000352E+00 0. -1.
       -3    1    3    3    0  502  0.96283572276E+03 -0.51263579238E+03  0.10352853106E+04  0.15038828974E+04  0.10100000352E+00 0.  1.
</event>
<event>
 5   0  0.1303224E-05  0.2229937E+04  0.7818609E-02  0.8506070E-01
       -1   -1    0    0    0  501  0.00000000000E+00  0.00000000000E+00  0.14698305639E+04  0.14698305639E+04  0.50400001928E-02 0. -1.
        1   -1    0    0  501    0  0.00000000000E+00  0.00000000000E+00 -0.84578084922E+03  0.84578084924E+03  0.50400001928E-02 0.  1.
    10030    2    1    2    0    0  0.00000000000E+00  0.00000000000E+00  0.62404971465E+03  0.23156114131E+04  0.22299368086E+04 0.  0.
        2    1    3    3  502    0 -0.86435625535E+03  0.22806492662E+03 -0.37993179429E+03  0.97132564840E+03  0.25500000920E-02 0. -1.
       -2    1    3    3    0  502  0.86435625535E+03 -0.22806492662E+03  0.10039815089E+04  0.13442857647E+04  0.25500000920E-02 0.  1.
</event>
<event>
 5   0  0.2910126E-05  0.2302634E+04  0.7818609E-02  0.8476883E-01
       -2   -1    0    0    0  501  0.00000000000E+00  0.00000000000E+00  0.12497297061E+04  0.12497297061E+04  0.25500000920E-02 0.  1.
        2   -1    0    0  501    0  0.00000000000E+00  0.00000000000E+00 -0.10606535837E+04  0.10606535837E+04  0.25500000920E-02 0. -1.
    10030    2    1    2    0    0  0.00000000000E+00  0.00000000000E+00  0.18907612240E+03  0.23103832897E+04  0.23026335282E+04 0.  0.
        5    1    3    3  502    0  0.20178696634E+03  0.91689668718E+03 -0.57410607971E+03  0.11004714424E+04  0.46999998093E+01 0. -1.
       -5    1    3    3    0  502 -0.20178696634E+03 -0.91689668718E+03  0.76318220210E+03  0.12099118473E+04  0.46999998093E+01 0.  1.
</event>
<event>
 5   0  0.2871888E-05  0.2269784E+04  0.7818609E-02  0.8489931E-01
        2   -1    0    0  501    0  0.00000000000E+00  0.00000000000E+00  0.16998813434E+04  0.16998813434E+04  0.25500000920E-02 0. -1.
       -2   -1    0    0    0  501  0.00000000000E+00  0.00000000000E+00 -0.75768798544E+03  0.75768798545E+03  0.25500000920E-02 0.  1.
    10030    2    1    2    0    0  0.00000000000E+00  0.00000000000E+00  0.94219335799E+03  0.24575693289E+04  0.22697838405E+04 0.  0.
        3    1    3    3  502    0 -0.74669091900E+03  0.40653940647E+02  0.13954103552E+04  0.15831519639E+04  0.10100000352E+00 0. -1.
       -3    1    3    3    0  502  0.74669091900E+03 -0.40653940647E+02 -0.45321699717E+03  0.87441736495E+03  0.10100000352E+00 0.  1.
</event>
<event>
 5   0  0.1303224E-05  0.2297447E+04  0.7818609E-02  0.8478929E-01
       -1   -1    0    0    0  501  0.00000000000E+00  0.00000000000E+00  0.93614052853E+03  0.93614052854E+03  0.50400001928E-02 0. -1.
        1   -1    0    0  501    0  0.00000000000E+00  0.00000000000E+00 -0.14095804103E+04  0.14095804103E+04  0.50400001928E-02 0.  1.
    10030    2    1    2    0    0  0.00000000000E+00  0.00000000000E+00 -0.47343988173E+03  0.23457209388E+04  0.22974467134E+04 0.  0.
        2    1    3    3  502    0  0.57952881177E+03  0.15615363263E+01 -0.12493813940E+04  0.13772472362E+04  0.25500000920E-02 0.  1.
       -2    1    3    3    0  502 -0.57952881177E+03 -0.15615363263E+01  0.77594151227E+03  0.96847370256E+03  0.25500000920E-02 0. -1.
</event>
<event>
 5   0  0.1303224E-05  0.2362532E+04  0.7818609E-02  0.8453666E-01
       -1   -1    0    0    0  501  0.00000000000E+00  0.00000000000E+00  0.78542845317E+03  0.78542845319E+03  0.50400001928E-02 0.  1.
        1   -1    0    0  501    0  0.00000000000E+00  0.00000000000E+00 -0.17765965566E+04  0.17765965566E+04  0.50400001928E-02 0. -1.
    10030    2    1    2    0    0  0.00000000000E+00  0.00000000000E+00 -0.99116810338E+03  0.25620250097E+04  0.23625321038E+04 0.  0.
        2    1    3    3  502    0  0.65497113080E+03 -0.71910848762E+03  0.23130268444E+03  0.99980254600E+03  0.25500000920E-02 0.  1.
       -2    1    3    3    0  502 -0.65497113080E+03  0.71910848762E+03 -0.12224707878E+04  0.15622224637E+04  0.25500000920E-02 0. -1.
</event>
<event>
 5   0  0.1017200E-05  0.2314814E+04  0.7818609E-02  0.8472103E-01
       -3   -1    0    0    0  501  0.00000000000E+00  0.00000000000E+00  0.10341417556E+04  0.10341417605E+04  0.10100000352E+00 0.  1.
        3   -1    0    0  501    0  0.00000000000E+00  0.00000000000E+00 -0.12953650749E+04  0.12953650788E+04  0.10100000352E+00 0. -1.
    10030    2    1    2    0    0  0.00000000000E+00  0.00000000000E+00 -0.26122331929E+03  0.23295068393E+04  0.23148141377E+04 0.  0.
        2    1    3    3  502    0  0.69560260556E+03  0.81680773135E+02 -0.10579028439E+04  0.12687368367E+04  0.25500000920E-02 0. -1.
       -2    1    3    3    0  502 -0.69560260556E+03 -0.81680773135E+02  0.79667952464E+03  0.10607700027E+04  0.25500000920E-02 0.  1.
</event>
<event>
 5   0  0.2938972E-05  0.2302871E+04  0.7818609E-02  0.8476790E-01
       -2   -1    0    0    0  501  0.00000000000E+00  0.00000000000E+00  0.57919608478E+03  0.57919608479E+03  0.25500000920E-02 0.  1.
        2   -1    0    0  501    0  0.00000000000E+00  0.00000000000E+00 -0.22890407112E+04  0.22890407112E+04  0.25500000920E-02 0. -1.
    10030    2    1    2    0    0  0.00000000000E+00  0.00000000000E+00 -0.17098446264E+04  0.28682367960E+04  0.23028707457E+04 0.  0.
        2    1    3    3  502    0 -0.74362627926E+03  0.84265314572E+03 -0.11669431683E+04  0.16201236759E+04  0.25500000920E-02 0. -1.
       -2    1    3    3    0  502  0.74362627926E+03 -0.84265314572E+03 -0.54290145806E+03  0.12481131200E+04  0.25500000920E-02 0.  1.
</event>
<event>
 5   0  0.2938972E-05  0.2307124E+04  0.7818609E-02  0.8475118E-01
        2   -1    0    0  501    0  0.00000000000E+00  0.00000000000E+00  0.10113279517E+04  0.10113279517E+04  0.25500000920E-02 0.  1.
       -2   -1    0    0    0  501  0.00000000000E+00  0.00000000000E+00 -0.13157996947E+04  0.13157996947E+04  0.25500000920E-02 0. -1.
    10030    2    1    2    0    0  0.00000000000E+00  0.00000000000E+00 -0.30447174297E+03  0.23271276464E+04  0.23071237592E+04 0.  0.
        2    1    3    3  502    0  0.15713403236E+03 -0.48902917005E+03  0.88961106968E+03  0.10272528844E+04  0.25500000920E-02 0.  1.
       -2    1    3    3    0  502 -0.15713403236E+03  0.48902917005E+03 -0.11940828127E+04  0.12998747620E+04  0.25500000920E-02 0. -1.
</event>
<event>
 5   0  0.1371753E-05  0.2302036E+04  0.7818609E-02  0.8477119E-01
        1   -1    0    0  501    0  0.00000000000E+00  0.00000000000E+00  0.18472217789E+04  0.18472217789E+04  0.50400001928E-02 0. -1.
       -1   -1    0    0    0  501  0.00000000000E+00  0.00000000000E+00 -0.71720786799E+03  0.71720786801E+03  0.50400001928E-02 0.  1.
    10030    2    1    2    0    0  0.00000000000E+00  0.00000000000E+00  0.11300139109E+04  0.25644296469E+04  0.23020356155E+04 0.  0.
        3    1    3    3  502    0 -0.31442852554E+03  0.60370344569E+02 -0.66660348111E+03  0.73950665136E+03  0.10100000352E+00 0.  1.
       -3    1    3    3    0  502  0.31442852554E+03 -0.60370344569E+02  0.17966173920E+04  0.18249229956E+04  0.10100000352E+00 0. -1.
</event>
<event>
 5   0  0.2994157E-05  0.2298813E+04  0.7818609E-02  0.8478389E-01
        2   -1    0    0  501    0  0.00000000000E+00  0.00000000000E+00  0.13286057538E+04  0.13286057538E+04  0.25500000920E-02 0.  1.
       -2   -1    0    0    0  501  0.00000000000E+00  0.00000000000E+00 -0.99437731694E+03  0.99437731695E+03  0.25500000920E-02 0. -1.
    10030    2    1    2    0    0  0.00000000000E+00  0.00000000000E+00  0.33422843684E+03  0.23229830707E+04  0.22988131066E+04 0.  0.
        4    1    3    3  502    0  0.88317466503E+03 -0.21941442719E+03  0.87663159319E+03  0.12635761722E+04  0.12699999809E+01 0. -1.
       -4    1    3    3    0  502 -0.88317466503E+03  0.21941442719E+03 -0.54240315635E+03  0.10594068986E+04  0.12699999809E+01 0.  1.
</event>
<event>
 5   0  0.1327820E-05  0.2265977E+04  0.7818609E-02  0.8491458E-01
        1   -1    0    0  501    0  0.00000000000E+00  0.00000000000E+00  0.14503468489E+04  0.14503468489E+04  0.50400001928E-02 0.  1.
       -1   -1    0    0    0  501  0.00000000000E+00  0.00000000000E+00 -0.88507296521E+03  0.88507296522E+03  0.50400001928E-02 0. -1.
    10030    2    1    2    0    0  0.00000000000E+00  0.00000000000E+00  0.56527388370E+03  0.23354198141E+04  0.22659768632E+04 0.  0.
        1    1    3    3  502    0 -0.28608883875E+03  0.95728144881E+03 -0.26799058820E+03  0.10344339279E+04  0.50400001928E-02 0. -1.
       -1    1    3    3    0  502  0.28608883875E+03 -0.95728144881E+03  0.83326447190E+03  0.13009858862E+04  0.50400001928E-02 0.  1.
</event>
<event>
 5   0  0.2938972E-05  0.2349413E+04  0.7818609E-02  0.8458689E-01
        2   -1    0    0  501    0  0.00000000000E+00  0.00000000000E+00  0.29831788364E+04  0.29831788364E+04  0.25500000920E-02 0.  1.
       -2   -1    0    0    0  501  0.00000000000E+00  0.00000000000E+00 -0.46257219836E+03  0.46257219837E+03  0.25500000920E-02 0. -1.
    10030    2    1    2    0    0  0.00000000000E+00  0.00000000000E+00  0.25206066380E+04  0.34457510347E+04  0.23494131969E+04 0.  0.
        2    1    3    3  502    0  0.20736198511E+03  0.99165957655E+03  0.21323678286E+04  0.23608007678E+04  0.25500000920E-02 0.  1.
       -2    1    3    3    0  502 -0.20736198511E+03 -0.99165957655E+03  0.38823880939E+03  0.10849502670E+04  0.25500000920E-02 0. -1.
</event>
<event>
 5   0  0.1308224E-05  0.2297023E+04  0.7818609E-02  0.8479096E-01
        1   -1    0    0  501    0  0.00000000000E+00  0.00000000000E+00  0.14575133206E+04  0.14575133207E+04  0.50400001928E-02 0.  1.
       -1   -1    0    0    0  501  0.00000000000E+00  0.00000000000E+00 -0.90502021591E+03  0.90502021592E+03  0.50400001928E-02 0. -1.
    10030    2    1    2    0    0  0.00000000000E+00  0.00000000000E+00  0.55249310474E+03  0.23625335366E+04  0.22970233087E+04 0.  0.
        5    1    3    3  502    0  0.54650786360E+03  0.94394259600E+03  0.64616841521E+03  0.12677752878E+04  0.46999998093E+01 0. -1.
       -5    1    3    3    0  502 -0.54650786360E+03 -0.94394259600E+03 -0.93675310470E+02  0.10947582488E+04  0.46999998093E+01 0.  1.
</event>
<event>
 5   0  0.2816178E-05  0.2310247E+04  0.7818609E-02  0.8473892E-01
       -2   -1    0    0    0  501  0.00000000000E+00  0.00000000000E+00  0.59231389679E+03  0.59231389679E+03  0.25500000920E-02 0.  1.
        2   -1    0    0  501    0  0.00000000000E+00  0.00000000000E+00 -0.22527089726E+04  0.22527089726E+04  0.25500000920E-02 0. -1.
    10030    2    1    2    0    0  0.00000000000E+00  0.00000000000E+00 -0.16603950758E+04  0.28450228694E+04  0.23102474585E+04 0.  0.
        1    1    3    3  502    0  0.61897723091E+03  0.97195542972E+03 -0.73106028426E+03  0.13646535491E+04  0.50400001928E-02 0. -1.
       -1    1    3    3    0  502 -0.61897723091E+03 -0.97195542972E+03 -0.92933479154E+03  0.14803693203E+04  0.50400001928E-02 0.  1.
</event>
<event>
 5   0  0.2910126E-05  0.2292586E+04  0.7818609E-02  0.8480850E-01
       -2   -1    0    0    0  501  0.00000000000E+00  0.00000000000E+00  0.10851635402E+04  0.10851635403E+04  0.25500000920E-02 0.  1.
        2   -1    0    0  501    0  0.00000000000E+00  0.00000000000E+00 -0.12108655077E+04  0.12108655077E+04  0.25500000920E-02 0. -1.
    10030    2    1    2    0    0  0.00000000000E+00  0.00000000000E+00 -0.12570196748E+03  0.22960290480E+04  0.22925855283E+04 0.  0.
        5    1    3    3  502    0  0.59294769881E+02  0.47670467236E+03 -0.11051840552E+04  0.12050797070E+04  0.46999998093E+01 0. -1.
       -5    1    3    3    0  502 -0.59294769881E+02 -0.47670467236E+03  0.97948208772E+03  0.10909493410E+04  0.46999998093E+01 0.  1.
</event>
<event>
 5   0  0.1327820E-05  0.2363139E+04  0.7818609E-02  0.8453434E-01
       -1   -1    0    0    0  501  0.00000000000E+00  0.00000000000E+00  0.74732366833E+03  0.74732366834E+03  0.50400001928E-02 0.  1.
        1   -1    0    0  501    0  0.00000000000E+00  0.00000000000E+00 -0.18681409464E+04  0.18681409464E+04  0.50400001928E-02 0. -1.
    10030    2    1    2    0    0  0.00000000000E+00  0.00000000000E+00 -0.11208172781E+04  0.26154646147E+04  0.23631385444E+04 0.  0.
        1    1    3    3  502    0 -0.54304542240E+03 -0.36515889459E+03 -0.16492570345E+04  0.17743416004E+04  0.50400001928E-02 0. -1.
       -1    1    3    3    0  502  0.54304542240E+03  0.36515889459E+03  0.52843975641E+03  0.84112301435E+03  0.50400001928E-02 0.  1.
</event>
<event>
 5   0  0.1284837E-05  0.2302060E+04  0.7818609E-02  0.8477109E-01
        1   -1    0    0  501    0  0.00000000000E+00  0.00000000000E+00  0.22309039606E+04  0.22309039606E+04  0.50400001928E-02 0. -1.
       -1   -1    0    0    0  501  0.00000000000E+00  0.00000000000E+00 -0.59387158247E+03  0.59387158250E+03  0.50400001928E-02 0.  1.
    10030    2    1    2    0    0  0.00000000000E+00  0.00000000000E+00  0.16370323781E+04  0.28247755431E+04  0.23020603515E+04 0.  0.
        4    1    3    3  502    0 -0.98780438738E+03  0.26385310203E+03  0.16980316384E+03  0.10364413609E+04  0.12699999809E+01 0.  1.
       -4    1    3    3    0  502  0.98780438738E+03 -0.26385310203E+03  0.14672292143E+04  0.17883341822E+04  0.12699999809E+01 0. -1.
</event>
<event>
 5   0  0.1284837E-05  0.2295386E+04  0.7818609E-02  0.8479743E-01
        1   -1    0    0  501    0  0.00000000000E+00  0.00000000000E+00  0.11500331927E+04  0.11500331927E+04  0.50400001928E-02 0. -1.
       -1   -1    0    0    0  501  0.00000000000E+00  0.00000000000E+00 -0.11453571457E+04  0.11453571457E+04  0.50400001928E-02 0.  1.
    10030    2    1    2    0    0  0.00000000000E+00  0.00000000000E+00  0.46760469713E+01  0.22953903385E+04  0.22953855756E+04 0.  0.
        4    1    3    3  502    0 -0.42577857462E+03  0.79216524640E+03  0.71534998678E+03  0.11491476792E+04  0.12699999809E+01 0. -1.
       -4    1    3    3    0  502  0.42577857462E+03 -0.79216524640E+03 -0.71067393981E+03  0.11462426592E+04  0.12699999809E+01 0.  1.
</event>
<event>
 5   0  0.2938972E-05  0.2299067E+04  0.7818609E-02  0.8478289E-01
       -2   -1    0    0    0  501  0.00000000000E+00  0.00000000000E+00  0.91251995097E+03  0.91251995097E+03  0.25500000920E-02 0. -1.
        2   -1    0    0  501    0  0.00000000000E+00  0.00000000000E+00 -0.14481080527E+04  0.14481080527E+04  0.25500000920E-02 0.  1.
    10030    2    1    2    0    0  0.00000000000E+00  0.00000000000E+00 -0.53558810175E+03  0.23606280037E+04  0.22990671928E+04 0.  0.
        2    1    3    3  502    0  0.22446383882E+03  0.97213490508E+03  0.31845590896E+03  0.10473034205E+04  0.25500000920E-02 0. -1.
       -2    1    3    3    0  502 -0.22446383882E+03 -0.97213490508E+03 -0.85404401071E+03  0.13133245832E+04  0.25500000920E-02 0.  1.
</event>
<event>
 5   0  0.2938972E-05  0.2290862E+04  0.7818609E-02  0.8481533E-01
        2   -1    0    0  501    0  0.00000000000E+00  0.00000000000E+00  0.80298173992E+03  0.80298173993E+03  0.25500000920E-02 0. -1.
       -2   -1    0    0    0  501  0.00000000000E+00  0.00000000000E+00 -0.16339250277E+04  0.16339250277E+04  0.25500000920E-02 0.  1.
    10030    2    1    2    0    0  0.00000000000E+00  0.00000000000E+00 -0.83094328779E+03  0.24369067676E+04  0.22908618131E+04 0.  0.
        2    1    3    3  502    0 -0.10059020863E+04 -0.43629913410E+03 -0.76798280408E+03  0.13386536255E+04  0.25500000920E-02 0.  1.
       -2    1    3    3    0  502  0.10059020863E+04  0.43629913410E+03 -0.62960483704E+02  0.10982531421E+04  0.25500000920E-02 0. -1.
</event>
<event>
 5   0  0.2994157E-05  0.2200968E+04  0.7818609E-02  0.8518025E-01
        2   -1    0    0  501    0  0.00000000000E+00  0.00000000000E+00  0.20815092794E+04  0.20815092794E+04  0.25500000920E-02 0. -1.
       -2   -1    0    0    0  501  0.00000000000E+00  0.00000000000E+00 -0.58182054930E+03  0.58182054931E+03  0.25500000920E-02 0.  1.
    10030    2    1    2    0    0  0.00000000000E+00  0.00000000000E+00  0.14996887301E+04  0.26633298288E+04  0.22009678529E+04 0.  0.
        4    1    3    3  502    0  0.98365516408E+02 -0.68665956220E+03 -0.28396106575E+03  0.74954161255E+03  0.12699999809E+01 0. -1.
       -4    1    3    3    0  502 -0.98365516408E+02  0.68665956220E+03  0.17836497959E+04  0.19137882162E+04  0.12699999809E+01 0.  1.
</event>
<event>
 5   0  0.2910126E-05  0.2291426E+04  0.7818609E-02  0.8481309E-01
        2   -1    0    0  501    0  0.00000000000E+00  0.00000000000E+00  0.57264924371E+03  0.57264924372E+03  0.25500000920E-02 0. -1.
       -2   -1    0    0    0  501  0.00000000000E+00  0.00000000000E+00 -0.22922551921E+04  0.22922551921E+04  0.25500000920E-02 0.  1.
    10030    2    1    2    0    0  0.00000000000E+00  0.00000000000E+00 -0.17196059484E+04  0.28649044358E+04  0.22914259335E+04 0.  0.
        5    1    3    3  502    0  0.33546269635E+03 -0.44805458941E+03  0.39006081109E+03  0.68224457644E+03  0.46999998093E+01 0. -1.
       -5    1    3    3    0  502 -0.33546269635E+03  0.44805458941E+03 -0.21096667594E+04  0.21826598593E+04  0.46999998093E+01 0.  1.
</event>
<event>
 5   0  0.2938972E-05  0.2467112E+04  0.7818609E-02  0.8414797E-01
        2   -1    0    0  501    0  0.00000000000E+00  0.00000000000E+00  0.13330780910E+04  0.13330780910E+04  0.25500000920E-02 0.  1.
       -2   -1    0    0    0  501  0.00000000000E+00  0.00000000000E+00 -0.11414634899E+04  0.11414634899E+04  0.25500000920E-02 0. -1.
    10030    2    1    2    0    0  0.00000000000E+00  0.00000000000E+00  0.19161460110E+03  0.24745415809E+04  0.24671116473E+04 0.  0.
        2    1    3    3  502    0  0.90911788421E+03 -0.81040357621E+03 -0.10076937484E+03  0.12220489968E+04  0.25500000920E-02 0. -1.
       -2    1    3    3    0  502 -0.90911788421E+03  0.81040357621E+03  0.29238397593E+03  0.12524925841E+04  0.25500000920E-02 0.  1.
</event>
<event>
 5   0  0.2816178E-05  0.2326441E+04  0.7818609E-02  0.8467568E-01
       -2   -1    0    0    0  501  0.00000000000E+00  0.00000000000E+00  0.15056133606E+04  0.15056133606E+04  0.25500000920E-02 0. -1.
        2   -1    0    0  501    0  0.00000000000E+00  0.00000000000E+00 -0.89869179798E+03  0.89869179798E+03  0.25500000920E-02 0.  1.
    10030    2    1    2    0    0  0.00000000000E+00  0.00000000000E+00  0.60692156257E+03  0.24043051585E+04  0.23264413838E+04 0.  0.
        1    1    3    3  502    0  0.84001324155E+03 -0.51301667000E+03 -0.33718502876E+03  0.10404336083E+04  0.50400001928E-02 0. -1.
       -1    1    3    3    0  502 -0.84001324155E+03  0.51301667000E+03  0.94410659134E+03  0.13638715502E+04  0.50400001928E-02 0.  1.
</event>
<event>
 5   0  0.2994157E-05  0.2282019E+04  0.7818609E-02  0.8485045E-01
       -2   -1    0    0    0  501  0.00000000000E+00  0.00000000000E+00  0.70878129919E+03  0.70878129919E+03  0.25500000920E-02 0. -1.
        2   -1    0    0  501    0  0.00000000000E+00  0.00000000000E+00 -0.18368182809E+04  0.18368182810E+04  0.25500000920E-02 0.  1.
    10030    2    1    2    0    0  0.00000000000E+00  0.00000000000E+00 -0.11280369818E+04  0.25455995801E+04  0.22820187971E+04 0.  0.
        4    1    3    3  502    0 -0.80957125051E+03  0.41545753784E+01 -0.14609261578E+04  0.16702484012E+04  0.12699999809E+01 0.  1.
       -4    1    3    3    0  502  0.80957125051E+03 -0.41545753784E+01  0.33288917603E+03  0.87535117899E+03  0.12699999809E+01 0. -1.
</event>
<event>
 5   0  0.2994157E-05  0.2286384E+04  0.7818609E-02  0.8483309E-01
       -2   -1    0    0    0  501  0.00000000000E+00  0.00000000000E+00  0.55839688842E+03  0.55839688843E+03  0.25500000920E-02 0.  1.
        2   -1    0    0  501    0  0.00000000000E+00  0.00000000000E+00 -0.23404280560E+04  0.23404280560E+04  0.25500000920E-02 0. -1.
    10030    2    1    2    0    0  0.00000000000E+00  0.00000000000E+00 -0.17820311676E+04  0.28988249445E+04  0.22863838209E+04 0.  0.
        4    1    3    3  502    0 -0.14145604295E+03  0.11306891847E+04 -0.77468746399E+03  0.13779006220E+04  0.12699999809E+01 0. -1.
       -4    1    3    3    0  502  0.14145604295E+03 -0.11306891847E+04 -0.10073437036E+04  0.15209243224E+04  0.12699999809E+01 0.  1.
</event>
<event>
 5   0  0.2910126E-05  0.2292546E+04  0.7818609E-02  0.8480866E-01
       -2   -1    0    0    0  501  0.00000000000E+00  0.00000000000E+00  0.86558384190E+03  0.86558384191E+03  0.25500000920E-02 0.  1.
        2   -1    0    0  501    0  0.00000000000E+00  0.00000000000E+00 -0.15179827667E+04  0.15179827667E+04  0.25500000920E-02 0. -1.
    10030    2    1    2    0    0  0.00000000000E+00  0.00000000000E+00 -0.65239892482E+03  0.23835666086E+04  0.22925456202E+04 0.  0.
        5    1    3    3  502    0  0.43099082831E+03 -0.93633337152E+03  0.19515327937E+03  0.10490853965E+04  0.46999998093E+01 0.  1.
       -5    1    3    3    0  502 -0.43099082831E+03  0.93633337152E+03 -0.84755220419E+03  0.13344812121E+04  0.46999998093E+01 0. -1.
</event>
<event>
 5   0  0.1284837E-05  0.2300105E+04  0.7818609E-02  0.8477880E-01
       -1   -1    0    0    0  501  0.00000000000E+00  0.00000000000E+00  0.83552813007E+03  0.83552813008E+03  0.50400001928E-02 0.  1.
        1   -1    0    0  501    0  0.00000000000E+00  0.00000000000E+00 -0.15829754154E+04  0.15829754154E+04  0.50400001928E-02 0. -1.
    10030    2    1    2    0    0  0.00000000000E+00  0.00000000000E+00 -0.74744728532E+03  0.24185035455E+04  0.23001047705E+04 0.  0.
        4    1    3    3  502    0  0.22854631705E+03 -0.70207225223E+03  0.55341295635E+03  0.92271684689E+03  0.12699999809E+01 0.  1.
       -4    1    3    3    0  502 -0.22854631705E+03  0.70207225223E+03 -0.13008602417E+04  0.14957866986E+04  0.12699999809E+01 0. -1.
</event>
<event>
 5   0  0.2910126E-05  0.2285446E+04  0.7818609E-02  0.8483682E-01
       -2   -1    0    0    0  501  0.00000000000E+00  0.00000000000E+00  0.27394677562E+04  0.27394677562E+04  0.25500000920E-02 0.  1.
        2   -1    0    0  501    0  0.00000000000E+00  0.00000000000E+00 -0.47666764250E+03  0.47666764251E+03  0.25500000920E-02 0. -1.
    10030    2    1    2    0    0  0.00000000000E+00  0.00000000000E+00  0.22628001137E+04  0.32161353987E+04  0.22854458095E+04 0.  0.
        5    1    3    3  502    0 -0.53663384127E+03 -0.70816317000E+03  0.21425695539E+04  0.23195036836E+04  0.46999998093E+01 0.  1.
       -5    1    3    3    0  502  0.53663384127E+03  0.70816317000E+03  0.12023055974E+03  0.89663171505E+03  0.46999998093E+01 0. -1.
</event>
<event>
 5   0  0.2871888E-05  0.2254083E+04  0.7818609E-02  0.8496249E-01
       -2   -1    0    0    0  501  0.00000000000E+00  0.00000000000E+00  0.12151941366E+04  0.12151941367E+04  0.25500000920E-02 0. -1.
        2   -1    0    0  501    0  0.00000000000E+00  0.00000000000E+00 -0.10452838136E+04  0.10452838136E+04  0.25500000920E-02 0.  1.
    10030    2    1    2    0    0  0.00000000000E+00  0.00000000000E+00  0.16991032305E+03  0.22604779503E+04  0.22540831941E+04 0.  0.
        3    1    3    3  502    0  0.91052720453E+02  0.58435171267E+03 -0.87717543960E+03  0.10579197909E+04  0.10100000352E+00 0.  1.
       -3    1    3    3    0  502 -0.91052720453E+02 -0.58435171267E+03  0.10470857627E+04  0.12025581593E+04  0.10100000352E+00 0. -1.
</event>
<event>
 5   0  0.1017200E-05  0.2308368E+04  0.7818609E-02  0.8474629E-01
        4   -1    0    0  501    0  0.00000000000E+00  0.00000000000E+00  0.18063589829E+04  0.18063594294E+04  0.12699999809E+01 0.  1.
       -4   -1    0    0    0  501  0.00000000000E+00  0.00000000000E+00 -0.73747172690E+03  0.73747282043E+03  0.12699999809E+01 0. -1.
    10030    2    1    2    0    0  0.00000000000E+00  0.00000000000E+00  0.10688872560E+04  0.25438322498E+04  0.23083679406E+04 0.  0.
        2    1    3    3  502    0  0.61542864187E+03 -0.96254205752E+03  0.35369802533E+03  0.11959690292E+04  0.25500000920E-02 0.  1.
       -2    1    3    3    0  502 -0.61542864187E+03  0.96254205752E+03  0.71518923070E+03  0.13478632206E+04  0.25500000920E-02 0. -1.
</event>
<event>
 5   0  0.1327820E-05  0.2063925E+04  0.7818609E-02  0.8577303E-01
       -1   -1    0    0    0  501  0.00000000000E+00  0.00000000000E+00  0.16169041743E+04  0.16169041743E+04  0.50400001928E-02 0.  1.
        1   -1    0    0  501    0  0.00000000000E+00  0.00000000000E+00 -0.65863300257E+03  0.65863300259E+03  0.50400001928E-02 0. -1.
    10030    2    1    2    0    0  0.00000000000E+00  0.00000000000E+00  0.95827117169E+03  0.22755371769E+04  0.20639248544E+04 0.  0.
        1    1    3    3  502    0  0.43554130883E+03  0.87119008039E+03  0.85509325557E+03  0.12960913793E+04  0.50400001928E-02 0.  1.
       -1    1    3    3    0  502 -0.43554130883E+03 -0.87119008039E+03  0.10317791612E+03  0.97944579752E+03  0.50400001928E-02 0. -1.
</event>
<event>
 5   0  0.1308224E-05  0.2340887E+04  0.7818609E-02  0.8461972E-01
       -1   -1    0    0    0  501  0.00000000000E+00  0.00000000000E+00  0.87944259945E+03  0.87944259946E+03  0.50400001928E-02 0. -1.
        1   -1    0    0  501    0  0.00000000000E+00  0.00000000000E+00 -0.15577343593E+04  0.15577343593E+04  0.50400001928E-02 0.  1.
    10030    2    1    2    0    0  0.00000000000E+00  0.00000000000E+00 -0.67829175980E+03  0.24371769587E+04  0.23408869722E+04 0.  0.
        5    1    3    3  502    0  0.52338716520E+03  0.30291299284E+03 -0.13824771704E+04  0.15089584562E+04  0.46999998093E+01 0.  1.
       -5    1    3    3    0  502 -0.52338716520E+03 -0.30291299284E+03  0.70418541059E+03  0.92821850251E+03  0.46999998093E+01 0. -1.
</event>
<event>
 5   0  0.1308224E-05  0.2237224E+04  0.7818609E-02  0.8503092E-01
        1   -1    0    0  501    0  0.00000000000E+00  0.00000000000E+00  0.17142159391E+04  0.17142159391E+04  0.50400001928E-02 0.  1.
       -1   -1    0    0    0  501  0.00000000000E+00  0.00000000000E+00 -0.72995081974E+03  0.72995081975E+03  0.50400001928E-02 0. -1.
    10030    2    1    2    0    0  0.00000000000E+00  0.00000000000E+00  0.98426511935E+03  0.24441667588E+04  0.22372244679E+04 0.  0.
        5    1    3    3  502    0  0.66812727047E+03  0.82823763294E+03  0.11541878998E+03  0.10703808730E+04  0.46999998093E+01 0.  1.
       -5    1    3    3    0  502 -0.66812727047E+03 -0.82823763294E+03  0.86884632937E+03  0.13737858859E+04  0.46999998093E+01 0. -1.
</event>
<event>
 5   0  0.2816178E-05  0.2300193E+04  0.7818609E-02  0.8477845E-01
        2   -1    0    0  501    0  0.00000000000E+00  0.00000000000E+00  0.13257765825E+04  0.13257765825E+04  0.25500000920E-02 0. -1.
       -2   -1    0    0    0  501  0.00000000000E+00  0.00000000000E+00 -0.99769622148E+03  0.99769622149E+03  0.25500000920E-02 0.  1.
    10030    2    1    2    0    0  0.00000000000E+00  0.00000000000E+00  0.32808036106E+03  0.23234728040E+04  0.23001932849E+04 0.  0.
        1    1    3    3  502    0 -0.10885094119E+04 -0.36572466848E+03  0.99242580368E+02  0.11525868135E+04  0.50400001928E-02 0.  1.
       -1    1    3    3    0  502  0.10885094119E+04  0.36572466848E+03  0.22883778070E+03  0.11708859905E+04  0.50400001928E-02 0. -1.
</event>
<event>
 5   0  0.2816178E-05  0.2299621E+04  0.7818609E-02  0.8478071E-01
        2   -1    0    0  501    0  0.00000000000E+00  0.00000000000E+00  0.12020227438E+04  0.12020227438E+04  0.25500000920E-02 0. -1.
       -2   -1    0    0    0  501  0.00000000000E+00  0.00000000000E+00 -0.10998659213E+04  0.10998659213E+04  0.25500000920E-02 0.  1.
    10030    2    1    2    0    0  0.00000000000E+00  0.00000000000E+00  0.10215682258E+03  0.23018886651E+04  0.22996207100E+04 0.  0.
        1    1    3    3  502    0 -0.82819294947E+03  0.73401749958E+03  0.36344161554E+03  0.11648068763E+04  0.50400001928E-02 0. -1.
       -1    1    3    3    0  502  0.82819294947E+03 -0.73401749958E+03 -0.26128479296E+03  0.11370817887E+04  0.50400001928E-02 0.  1.
</event>
<event>
 5   0  0.1284837E-05  0.2300920E+04  0.7818609E-02  0.8477559E-01
       -1   -1    0    0    0  501  0.00000000000E+00  0.00000000000E+00  0.15216345058E+04  0.15216345058E+04  0.50400001928E-02 0.  1.
        1   -1    0    0  501    0  0.00000000000E+00  0.00000000000E+00 -0.86982630955E+03  0.86982630956E+03  0.50400001928E-02 0. -1.
    10030    2    1    2    0    0  0.00000000000E+00  0.00000000000E+00  0.65180819622E+03  0.23914608153E+04  0.23009195785E+04 0.  0.
        4    1    3    3  502    0 -0.77277486634E+03  0.45871943221E+03  0.10724668405E+04  0.13992109378E+04  0.12699999809E+01 0.  1.
       -4    1    3    3    0  502  0.77277486634E+03 -0.45871943221E+03 -0.42065864431E+03  0.99224987754E+03  0.12699999809E+01 0. -1.
</event>
<event>
 5   0  0.2938972E-05  0.2332412E+04  0.7818609E-02  0.8465250E-01
        2   -1    0    0  501    0  0.00000000000E+00  0.00000000000E+00  0.14296328806E+04  0.14296328806E+04  0.25500000920E-02 0. -1.
       -2   -1    0    0    0  501  0.00000000000E+00  0.00000000000E+00 -0.95131832418E+03  0.95131832418E+03  0.25500000920E-02 0.  1.
    10030    2    1    2    0    0  0.00000000000E+00  0.00000000000E+00  0.47831455638E+03  0.23809512047E+04  0.23324115899E+04 0.  0.
        2    1    3    3  502    0  0.84536972666E+03  0.77567954100E+03  0.45257080907E+03  0.12333487189E+04  0.25500000920E-02 0. -1.
       -2    1    3    3    0  502 -0.84536972666E+03 -0.77567954100E+03  0.25743747303E+02  0.11476024859E+04  0.25500000920E-02 0.  1.
</event>
<event>
 5   0  0.2910126E-05  0.2284875E+04  0.7818609E-02  0.8483908E-01
       -2   -1    0    0    0  501  0.00000000000E+00  0.00000000000E+00  0.15828535546E+04  0.15828535546E+04  0.25500000920E-02 0.  1.
        2   -1    0    0  501    0  0.00000000000E+00  0.00000000000E+00 -0.82456391081E+03  0.82456391082E+03  0.25500000920E-02 0. -1.
    10030    2    1    2    0    0  0.00000000000E+00  0.00000000000E+00  0.75828964378E+03  0.24074174654E+04  0.22848754165E+04 0.  0.
        5    1    3    3  502    0  0.81422972982E+02  0.67725104738E+03  0.13447241799E+04  0.15078474365E+04  0.46999998093E+01 0.  1.
       -5    1    3    3    0  502 -0.81422972982E+02 -0.67725104738E+03 -0.58643453615E+03  0.89957002890E+03  0.46999998093E+01 0. -1.
</event>
<event>
 5   0  0.2910126E-05  0.2285106E+04  0.7818609E-02  0.8483817E-01
       -2   -1    0    0    0  501  0.00000000000E+00  0.00000000000E+00  0.69937913764E+03  0.69937913764E+03  0.25500000920E-02 0.  1.
        2   -1    0    0  501    0  0.00000000000E+00  0.00000000000E+00 -0.18665511610E+04  0.18665511610E+04  0.25500000920E-02 0. -1.
    10030    2    1    2    0    0  0.00000000000E+00  0.00000000000E+00 -0.11671720233E+04  0.25659302986E+04  0.22851056355E+04 0.  0.
        5    1    3    3  502    0 -0.87196075174E+03  0.63340734695E+03 -0.10095231182E+04  0.14767123741E+04  0.46999998093E+01 0.  1.
       -5    1    3    3    0  502  0.87196075174E+03 -0.63340734695E+03 -0.15764890515E+03  0.10892179245E+04  0.46999998093E+01 0. -1.
</event>
<event>
 5   0  0.1327820E-05  0.2317718E+04  0.7818609E-02  0.8470968E-01
        1   -1    0    0  501    0  0.00000000000E+00  0.00000000000E+00  0.21219856872E+04  0.21219856872E+04  0.50400001928E-02 0.  1.
       -1   -1    0    0    0  501  0.00000000000E+00  0.00000000000E+00 -0.63287633457E+03  0.63287633459E+03  0.50400001928E-02 0. -1.
    10030    2    1    2    0    0  0.00000000000E+00  0.00000000000E+00  0.14891093526E+04  0.27548620218E+04  0.23177182950E+04 0.  0.
        1    1    3    3  502    0 -0.85278781378E+03  0.52042540603E+03  0.46541407487E+02  0.10001278724E+04  0.50400001928E-02 0. -1.
       -1    1    3    3    0  502  0.85278781378E+03 -0.52042540603E+03  0.14425679451E+04  0.17547341494E+04  0.50400001928E-02 0.  1.
</event>
<event>
 5   0  0.1284837E-05  0.2121991E+04  0.7818609E-02  0.8551618E-01
        1   -1    0    0  501    0  0.00000000000E+00  0.00000000000E+00  0.15614678490E+04  0.15614678490E+04  0.50400001928E-02 0. -1.
       -1   -1    0    0    0  501  0.00000000000E+00  0.00000000000E+00 -0.72093132063E+03  0.72093132065E+03  0.50400001928E-02 0.  1.
    10030    2    1    2    0    0  0.00000000000E+00  0.00000000000E+00  0.84053652832E+03  0.22823991696E+04  0.21219906489E+04 0.  0.
        4    1    3    3  502    0  0.71605882345E+03 -0.73175945653E+03  0.71969563035E+03  0.12514693580E+04  0.12699999809E+01 0.  1.
       -4    1    3    3    0  502 -0.71605882345E+03  0.73175945653E+03  0.12084089798E+03  0.10309298116E+04  0.12699999809E+01 0. -1.
</event>
<event>
 5   0  0.2871888E-05  0.2281303E+04  0.7818609E-02  0.8485330E-01
        2   -1    0    0  501    0  0.00000000000E+00  0.00000000000E+00  0.24315217833E+04  0.24315217833E+04  0.25500000920E-02 0. -1.
       -2   -1    0    0    0  501  0.00000000000E+00  0.00000000000E+00 -0.53509100261E+03  0.53509100262E+03  0.25500000920E-02 0.  1.
    10030    2    1    2    0    0  0.00000000000E+00  0.00000000000E+00  0.18964307807E+04  0.29666127860E+04  0.22813026357E+04 0.  0.
        3    1    3    3  502    0  0.49606805360E+03  0.49136860707E+03  0.21211463094E+04  0.22331117970E+04  0.10100000352E+00 0. -1.
       -3    1    3    3    0  502 -0.49606805360E+03 -0.49136860707E+03 -0.22471552865E+03  0.73350098898E+03  0.10100000352E+00 0.  1.
</event>
<event>
 5   0  0.2816178E-05  0.2318063E+04  0.7818609E-02  0.8470833E-01
       -2   -1    0    0    0  501  0.00000000000E+00  0.00000000000E+00  0.91631716007E+03  0.91631716007E+03  0.25500000920E-02 0.  1.
        2   -1    0    0  501    0  0.00000000000E+00  0.00000000000E+00 -0.14660357868E+04  0.14660357868E+04  0.25500000920E-02 0. -1.
    10030    2    1    2    0    0  0.00000000000E+00  0.00000000000E+00 -0.54971862669E+03  0.23823529468E+04  0.23180627676E+04 0.  0.
        1    1    3    3  502    0 -0.56092910661E+03  0.28987361647E+03  0.72404652801E+03  0.96068285658E+03  0.50400001928E-02 0.  1.
       -1    1    3    3    0  502  0.56092910661E+03 -0.28987361647E+03 -0.12737651547E+04  0.14216700903E+04  0.50400001928E-02 0. -1.
</event>
<event>
 5   0  0.2910126E-05  0.2232417E+04  0.7818609E-02  0.8505055E-01
       -2   -1    0    0    0  501  0.00000000000E+00  0.00000000000E+00  0.14432736093E+04  0.14432736093E+04  0.25500000920E-02 0. -1.
        2   -1    0    0  501    0  0.00000000000E+00  0.00000000000E+00 -0.86326072155E+03  0.86326072155E+03  0.25500000920E-02 0.  1.
    10030    2    1    2    0    0  0.00000000000E+00  0.00000000000E+00  0.58001288770E+03  0.23065343308E+04  0.22324170017E+04 0.  0.
        5    1    3    3  502    0  0.11131441389E+04  0.20064721213E+02  0.37270677186E+03  0.11740634117E+04  0.46999998093E+01 0. -1.
       -5    1    3    3    0  502 -0.11131441389E+04 -0.20064721213E+02  0.20730611584E+03  0.11324709191E+04  0.46999998093E+01 0.  1.
</event>
<event>
 5   0  0.1017200E-05  0.2292748E+04  0.7818609E-02  0.8480786E-01
       -4   -1    0    0    0  501  0.00000000000E+00  0.00000000000E+00  0.10789918416E+04  0.10789925890E+04  0.12699999809E+01 0.  1.
        4   -1    0    0  501    0  0.00000000000E+00  0.00000000000E+00 -0.12179621105E+04  0.12179627727E+04  0.12699999809E+01 0. -1.
    10030    2    1    2    0    0  0.00000000000E+00  0.00000000000E+00 -0.13897026895E+03  0.22969553617E+04  0.22927475216E+04 0.  0.
        1    1    3    3  502    0 -0.90081596373E+03  0.69188357698E+03 -0.22469045378E+03  0.11578679047E+04  0.50400001928E-02 0.  1.
       -1    1    3    3    0  502  0.90081596373E+03 -0.69188357698E+03  0.85720184828E+02  0.11390874570E+04  0.50400001928E-02 0. -1.
</event>
<event>
 5   0  0.2871888E-05  0.2261529E+04  0.7818609E-02  0.8493246E-01
       -2   -1    0    0    0  501  0.00000000000E+00  0.00000000000E+00  0.13011963754E+04  0.13011963754E+04  0.25500000920E-02 0. -1.
        2   -1    0    0  501    0  0.00000000000E+00  0.00000000000E+00 -0.98265611347E+03  0.98265611347E+03  0.25500000920E-02 0.  1.
    10030    2    1    2    0    0  0.00000000000E+00  0.00000000000E+00  0.31854026190E+03  0.22838524888E+04  0.22615291933E+04 0.  0.
        3    1    3    3  502    0  0.68133356826E+02  0.91830999655E+03  0.82202028655E+03  0.12343633038E+04  0.10100000352E+00 0. -1.
       -3    1    3    3    0  502 -0.68133356826E+02 -0.91830999655E+03 -0.50348002465E+03  0.10494891850E+04  0.10100000352E+00 0.  1.
</event>
<event>
 5   0  0.2994157E-05  0.2306228E+04  0.7818609E-02  0.8475470E-01
       -2   -1    0    0    0  501  0.00000000000E+00  0.00000000000E+00  0.14677905274E+04  0.14677905274E+04  0.25500000920E-02 0. -1.
        2   -1    0    0  501    0  0.00000000000E+00  0.00000000000E+00 -0.90590038376E+03  0.90590038377E+03  0.25500000920E-02 0.  1.
    10030    2    1    2    0    0  0.00000000000E+00  0.00000000000E+00  0.56189014363E+03  0.23736909112E+04  0.23062280911E+04 0.  0.
        4    1    3    3  502    0 -0.77917496696E+03  0.78906931195E+03  0.60630344546E+03  0.12638629234E+04  0.12699999809E+01 0. -1.
       -4    1    3    3    0  502  0.77917496696E+03 -0.78906931195E+03 -0.44413301828E+02  0.11098279878E+04  0.12699999809E+01 0.  1.
</event>
<event>
 5   0  0.1017200E-05  0.2296482E+04  0.7818609E-02  0.8479309E-01
       -3   -1    0    0    0  501  0.00000000000E+00  0.00000000000E+00  0.11683273689E+04  0.11683273732E+04  0.10100000352E+00 0. -1.
        3   -1    0    0  501    0  0.00000000000E+00  0.00000000000E+00 -0.11285003511E+04  0.11285003556E+04  0.10100000352E+00 0.  1.
    10030    2    1    2    0    0  0.00000000000E+00  0.00000000000E+00  0.39827017772E+02  0.22968277288E+04  0.22964824024E+04 0.  0.
        1    1    3    3  502    0 -0.78287629730E+03 -0.73964340051E+03  0.41808164907E+03  0.11553181043E+04  0.50400001928E-02 0. -1.
       -1    1    3    3    0  502  0.78287629730E+03  0.73964340051E+03 -0.37825463130E+03  0.11415096245E+04  0.50400001928E-02 0.  1.
</event>
<event>
 5   0  0.2871888E-05  0.2297768E+04  0.7818609E-02  0.8478802E-01
       -2   -1    0    0    0  501  0.00000000000E+00  0.00000000000E+00  0.57953389102E+03  0.57953389102E+03  0.25500000920E-02 0. -1.
        2   -1    0    0  501    0  0.00000000000E+00  0.00000000000E+00 -0.22775792246E+04  0.22775792246E+04  0.25500000920E-02 0.  1.
    10030    2    1    2    0    0  0.00000000000E+00  0.00000000000E+00 -0.16980453336E+04  0.28571131156E+04  0.22977679171E+04 0.  0.
        3    1    3    3  502    0 -0.64529780399E+03  0.64639209436E+03 -0.17155981011E+04  0.19435814493E+04  0.10100000352E+00 0.  1.
       -3    1    3    3    0  502  0.64529780399E+03 -0.64639209436E+03  0.17552767512E+02  0.91353166630E+03  0.10100000352E+00 0. -1.
</event>
<event>
 5   0  0.2994157E-05  0.2247377E+04  0.7818609E-02  0.8498963E-01
       -2   -1    0    0    0  501  0.00000000000E+00  0.00000000000E+00  0.12491311317E+04  0.12491311317E+04  0.25500000920E-02 0.  1.
        2   -1    0    0  501    0  0.00000000000E+00  0.00000000000E+00 -0.10108436265E+04  0.10108436265E+04  0.25500000920E-02 0. -1.
    10030    2    1    2    0    0  0.00000000000E+00  0.00000000000E+00  0.23828750518E+03  0.22599747581E+04  0.22473773542E+04 0.  0.
        4    1    3    3  502    0  0.95415366958E+03 -0.50794915994E+03  0.42787124694E+03  0.11625390278E+04  0.12699999809E+01 0.  1.
       -4    1    3    3    0  502 -0.95415366958E+03  0.50794915994E+03 -0.18958374175E+03  0.10974357304E+04  0.12699999809E+01 0. -1.
</event>
<event>
 5   0  0.2816178E-05  0.2301615E+04  0.7818609E-02  0.8477285E-01
        2   -1    0    0  501    0  0.00000000000E+00  0.00000000000E+00  0.18080362484E+04  0.18080362484E+04  0.25500000920E-02 0. -1.
       -2   -1    0    0    0  501  0.00000000000E+00  0.00000000000E+00 -0.73248400437E+03  0.73248400437E+03  0.25500000920E-02 0.  1.
    10030    2    1    2    0    0  0.00000000000E+00  0.00000000000E+00  0.10755522441E+04  0.25405202528E+04  0.23016147647E+04 0.  0.
        1    1    3    3  502    0 -0.62086553971E+03  0.23790679340E+03 -0.49902204573E+03  0.83132223770E+03  0.50400001928E-02 0.  1.
       -1    1    3    3    0  502  0.62086553971E+03 -0.23790679340E+03  0.15745742898E+04  0.17091980151E+04  0.50400001928E-02 0. -1.
</event>
<event>
 5   0  0.1284837E-05  0.2308687E+04  0.7818609E-02  0.8474504E-01
        1   -1    0    0  501    0  0.00000000000E+00  0.00000000000E+00  0.15603668907E+04  0.15603668908E+04  0.50400001928E-02 0.  1.
       -1   -1    0    0    0  501  0.00000000000E+00  0.00000000000E+00 -0.85397125568E+03  0.85397125570E+03  0.50400001928E-02 0. -1.
    10030    2    1    2    0    0  0.00000000000E+00  0.00000000000E+00  0.70639563506E+03  0.24143381464E+04  0.23086866163E+04 0.  0.
        4    1    3    3  502    0 -0.74920355567E+03  0.28716563503E+03 -0.51468232606E+03  0.95324161650E+03  0.12699999809E+01 0. -1.
       -4    1    3    3    0  502  0.74920355567E+03 -0.28716563503E+03  0.12210779611E+04  0.14610965299E+04  0.12699999809E+01 0.  1.
</event>
<event>
 5   0  0.2871888E-05  0.2309786E+04  0.7818609E-02  0.8474073E-01
       -2   -1    0    0    0  501  0.00000000000E+00  0.00000000000E+00  0.13497924480E+04  0.13497924480E+04  0.25500000920E-02 0. -1.
        2   -1    0    0  501    0  0.00000000000E+00  0.00000000000E+00 -0.98813566618E+03  0.98813566619E+03  0.25500000920E-02 0.  1.
    10030    2    1    2    0    0  0.00000000000E+00  0.00000000000E+00  0.36165678182E+03  0.23379281142E+04  0.23097861891E+04 0.  0.
        3    1    3    3  502    0 -0.50021698998E+03  0.88854217987E+03 -0.36804575784E+03  0.10840580854E+04  0.10100000352E+00 0.  1.
       -3    1    3    3    0  502  0.50021698998E+03 -0.88854217987E+03  0.72970253966E+03  0.12538700288E+04  0.10100000352E+00 0. -1.
</event>
<event>
 5   0  0.2910126E-05  0.2301414E+04  0.7818609E-02  0.8477364E-01
       -2   -1    0    0    0  501  0.00000000000E+00  0.00000000000E+00  0.98514477389E+03  0.98514477389E+03  0.25500000920E-02 0. -1.
        2   -1    0    0  501    0  0.00000000000E+00  0.00000000000E+00 -0.13440935042E+04  0.13440935042E+04  0.25500000920E-02 0.  1.
    10030    2    1    2    0    0  0.00000000000E+00  0.00000000000E+00 -0.35894873027E+03  0.23292382781E+04  0.23014140794E+04 0.  0.
        5    1    3    3  502    0 -0.53781551678E+03  0.47735776558E+03 -0.10886606214E+04  0.13047298591E+04  0.46999998093E+01 0.  1.
       -5    1    3    3    0  502  0.53781551678E+03 -0.47735776558E+03  0.72971189117E+03  0.10245084190E+04  0.46999998093E+01 0. -1.
</event>
<event>
 5   0  0.1371753E-05  0.2253503E+04  0.7818609E-02  0.8496483E-01
        1   -1    0    0  501    0  0.00000000000E+00  0.00000000000E+00  0.97985399470E+03  0.97985399471E+03  0.50400001928E-02 0.  1.
       -1   -1    0    0    0  501  0.00000000000E+00  0.00000000000E+00 -0.12956716736E+04  0.12956716736E+04  0.50400001928E-02 0. -1.
    10030    2    1    2    0    0  0.00000000000E+00  0.00000000000E+00 -0.31581767890E+03  0.22755256683E+04  0.22535031087E+04 0.  0.
        3    1    3    3  502    0  0.86950767075E+03 -0.11400831933E+03  0.55648479936E+03  0.10386129349E+04  0.10100000352E+00 0.  1.
       -3    1    3    3    0  502 -0.86950767075E+03  0.11400831933E+03 -0.87230247827E+03  0.12369127334E+04  0.10100000352E+00 0. -1.
</event>
<event>
 5   0  0.1284837E-05  0.2302284E+04  0.7818609E-02  0.8477021E-01
        1   -1    0    0  501    0  0.00000000000E+00  0.00000000000E+00  0.13881341844E+04  0.13881341844E+04  0.50400001928E-02 0.  1.
       -1   -1    0    0    0  501  0.00000000000E+00  0.00000000000E+00 -0.95461090738E+03  0.95461090739E+03  0.50400001928E-02 0. -1.
    10030    2    1    2    0    0  0.00000000000E+00  0.00000000000E+00  0.43352327700E+03  0.23427450918E+04  0.23022841122E+04 0.  0.
        4    1    3    3  502    0 -0.59221399258E+03  0.55373471932E+01 -0.78769208251E+03  0.98549911465E+03  0.12699999809E+01 0. -1.
       -4    1    3    3    0  502  0.59221399258E+03 -0.55373471932E+01  0.12212153595E+04  0.13572459771E+04  0.12699999809E+01 0.  1.
</event>
<event>
 5   0  0.2994157E-05  0.2306947E+04  0.7818609E-02  0.8475187E-01
        2   -1    0    0  501    0  0.00000000000E+00  0.00000000000E+00  0.12107258983E+04  0.12107258983E+04  0.25500000920E-02 0. -1.
       -2   -1    0    0    0  501  0.00000000000E+00  0.00000000000E+00 -0.10989282540E+04  0.10989282540E+04  0.25500000920E-02 0.  1.
    10030    2    1    2    0    0  0.00000000000E+00  0.00000000000E+00  0.11179764427E+03  0.23096541523E+04  0.23069468113E+04 0.  0.
        4    1    3    3  502    0 -0.40806041333E+03 -0.85284511036E+03 -0.60566497092E+03  0.11228044144E+04  0.12699999809E+01 0.  1.
       -4    1    3    3    0  502  0.40806041333E+03  0.85284511036E+03  0.71746261518E+03  0.11868497379E+04  0.12699999809E+01 0. -1.
</event>
<event>
 5   0  0.1371753E-05  0.2384478E+04  0.7818609E-02  0.8445338E-01
       -1   -1    0    0    0  501  0.00000000000E+00  0.00000000000E+00  0.11133726570E+04  0.11133726570E+04  0.50400001928E-02 0. -1.
        1   -1    0    0  501    0  0.00000000000E+00  0.00000000000E+00 -0.12766917226E+04  0.12766917226E+04  0.50400001928E-02 0.  1.
    10030    2    1    2    0    0  0.00000000000E+00  0.00000000000E+00 -0.16331906563E+03  0.23900643796E+04  0.23844778509E+04 0.  0.
        3    1    3    3  502    0  0.63716527013E+03 -0.99460764484E+02  0.92346680047E+03  0.11263493982E+04  0.10100000352E+00 0. -1.
       -3    1    3    3    0  502 -0.63716527013E+03  0.99460764484E+02 -0.10867858661E+04  0.12637149813E+04  0.10100000352E+00 0.  1.
</event>
<event>
 5   0  0.2910126E-05  0.2324038E+04  0.7818609E-02  0.8468503E-01
       -2   -1    0    0    0  501  0.00000000000E+00  0.00000000000E+00  0.56145970357E+03  0.56145970358E+03  0.25500000920E-02 0.  1.
        2   -1    0    0  501    0  0.00000000000E+00  0.00000000000E+00 -0.24049601337E+04  0.24049601337E+04  0.25500000920E-02 0. -1.
    10030    2    1    2    0    0  0.00000000000E+00  0.00000000000E+00 -0.18435004301E+04  0.29664198372E+04  0.23240380408E+04 0.  0.
        5    1    3    3  502    0  0.22668565154E+03 -0.28651389216E+03 -0.23297322526E+04  0.23582092896E+04  0.46999998093E+01 0. -1.
       -5    1    3    3    0  502 -0.22668565154E+03  0.28651389216E+03  0.48623182250E+03  0.60821054761E+03  0.46999998093E+01 0.  1.
</event>
<event>
 5   0  0.2938972E-05  0.2312620E+04  0.7818609E-02  0.8472962E-01
        2   -1    0    0  501    0  0.00000000000E+00  0.00000000000E+00  0.14867706423E+04  0.14867706423E+04  0.25500000920E-02 0. -1.
       -2   -1    0    0    0  501  0.00000000000E+00  0.00000000000E+00 -0.89929980492E+03  0.89929980492E+03  0.25500000920E-02 0.  1.
    10030    2    1    2    0    0  0.00000000000E+00  0.00000000000E+00  0.58747083739E+03  0.23860704472E+04  0.23126197687E+04 0.  0.
        2    1    3    3  502    0  0.21394085121E+03 -0.17973352356E+03  0.14514141392E+04  0.14780655705E+04  0.25500000920E-02 0. -1.
       -2    1    3    3    0  502 -0.21394085121E+03  0.17973352356E+03 -0.86394330182E+03  0.90800487668E+03  0.25500000920E-02 0.  1.
</event>
<event>
 5   0  0.2910126E-05  0.2296320E+04  0.7818609E-02  0.8479374E-01
        2   -1    0    0  501    0  0.00000000000E+00  0.00000000000E+00  0.13786729385E+04  0.13786729385E+04  0.25500000920E-02 0.  1.
       -2   -1    0    0    0  501  0.00000000000E+00  0.00000000000E+00 -0.95618855173E+03  0.95618855173E+03  0.25500000920E-02 0. -1.
    10030    2    1    2    0    0  0.00000000000E+00  0.00000000000E+00  0.42248438679E+03  0.23348614903E+04  0.22963199084E+04 0.  0.
        5    1    3    3  502    0  0.78764735805E+03  0.83532192439E+03  0.20117077402E+03  0.11656083598E+04  0.46999998093E+01 0.  1.
       -5    1    3    3    0  502 -0.78764735805E+03 -0.83532192439E+03  0.22131361276E+03  0.11692531305E+04  0.46999998093E+01 0. -1.
</event>
<event>
 5   0  0.1308224E-05  0.2322261E+04  0.7818609E-02  0.8469195E-01
        1   -1    0    0  501    0  0.00000000000E+00  0.00000000000E+00  0.11268108347E+04  0.11268108347E+04  0.50400001928E-02 0.  1.
       -1   -1    0    0    0  501  0.00000000000E+00  0.00000000000E+00 -0.11964953559E+04  0.11964953559E+04  0.50400001928E-02 0. -1.
    10030    2    1    2    0    0  0.00000000000E+00  0.00000000000E+00 -0.69684521206E+02  0.23233061906E+04  0.23222609075E+04 0.  0.
        5    1    3    3  502    0 -0.71085543703E+02  0.11575882542E+04 -0.90886399422E+02  0.11633340657E+04  0.46999998093E+01 0. -1.
       -5    1    3    3    0  502  0.71085543703E+02 -0.11575882542E+04  0.21201878216E+02  0.11599721249E+04  0.46999998093E+01 0.  1.
</event>
<event>
 5   0  0.1284837E-05  0.2293228E+04  0.7818609E-02  0.8480596E-01
        1   -1    0    0  501    0  0.00000000000E+00  0.00000000000E+00  0.11560050143E+04  0.11560050143E+04  0.50400001928E-02 0.  1.
       -1   -1    0    0    0  501  0.00000000000E+00  0.00000000000E+00 -0.11372994982E+04  0.11372994982E+04  0.50400001928E-02 0. -1.
    10030    2    1    2    0    0  0.00000000000E+00  0.00000000000E+00  0.18705516073E+02  0.22933045125E+04  0.22932282247E+04 0.  0.
        4    1    3    3  502    0  0.19389061076E+03 -0.42377032502E+03 -0.10383210828E+04  0.11381068233E+04  0.12699999809E+01 0. -1.
       -4    1    3    3    0  502 -0.19389061076E+03  0.42377032502E+03  0.10570265989E+04  0.11551976892E+04  0.12699999809E+01 0.  1.
</event>
<event>
 5   0  0.2871888E-05  0.2321694E+04  0.7818609E-02  0.8469416E-01
       -2   -1    0    0    0  501  0.00000000000E+00  0.00000000000E+00  0.11140389869E+04  0.11140389869E+04  0.25500000920E-02 0.  1.
        2   -1    0    0  501    0  0.00000000000E+00  0.00000000000E+00 -0.12096214004E+04  0.12096214004E+04  0.25500000920E-02 0. -1.
    10030    2    1    2    0    0  0.00000000000E+00  0.00000000000E+00 -0.95582413509E+02  0.23236603873E+04  0.23216936916E+04 0.  0.
        3    1    3    3  502    0  0.93556490316E+03  0.63178398032E+03  0.22286846255E+03  0.11506967661E+04  0.10100000352E+00 0.  1.
       -3    1    3    3    0  502 -0.93556490316E+03 -0.63178398032E+03 -0.31845087606E+03  0.11729636211E+04  0.10100000352E+00 0. -1.
</event>
<event>
 5   0  0.1303224E-05  0.2310877E+04  0.7818609E-02  0.8473645E-01
        1   -1    0    0  501    0  0.00000000000E+00  0.00000000000E+00  0.13303298720E+04  0.13303298720E+04  0.50400001928E-02 0. -1.
       -1   -1    0    0    0  501  0.00000000000E+00  0.00000000000E+00 -0.10035391672E+04  0.10035391672E+04  0.50400001928E-02 0.  1.
    10030    2    1    2    0    0  0.00000000000E+00  0.00000000000E+00  0.32679070481E+03  0.23338690392E+04  0.23108770039E+04 0.  0.
        2    1    3    3  502    0  0.75797097489E+03  0.31606192708E+02 -0.71677963986E+03  0.10436915264E+04  0.25500000920E-02 0.  1.
       -2    1    3    3    0  502 -0.75797097489E+03 -0.31606192708E+02  0.10435703447E+04  0.12901775128E+04  0.25500000920E-02 0. -1.
</event>
<event>
 5   0  0.2994157E-05  0.2300938E+04  0.7818609E-02  0.8477551E-01
        2   -1    0    0  501    0  0.00000000000E+00  0.00000000000E+00  0.12442457735E+04  0.12442457735E+04  0.25500000920E-02 0. -1.
       -2   -1    0    0    0  501  0.00000000000E+00  0.00000000000E+00 -0.10637597419E+04  0.10637597419E+04  0.25500000920E-02 0.  1.
    10030    2    1    2    0    0  0.00000000000E+00  0.00000000000E+00  0.18048603154E+03  0.23080055154E+04  0.23009376897E+04 0.  0.
        4    1    3    3  502    0 -0.62801350166E+03 -0.78342039381E+03  0.65359838103E+03  0.11980571473E+04  0.12699999809E+01 0. -1.
       -4    1    3    3    0  502  0.62801350166E+03  0.78342039381E+03 -0.47311234949E+03  0.11099483681E+04  0.12699999809E+01 0.  1.
</event>
<event>
 5   0  0.1284837E-05  0.2306181E+04  0.7818609E-02  0.8475488E-01
       -1   -1    0    0    0  501  0.00000000000E+00  0.00000000000E+00  0.62640544475E+03  0.62640544478E+03  0.50400001928E-02 0.  1.
        1   -1    0    0  501    0  0.00000000000E+00  0.00000000000E+00 -0.21226144764E+04  0.21226144764E+04  0.50400001928E-02 0. -1.
    10030    2    1    2    0    0  0.00000000000E+00  0.00000000000E+00 -0.14962090316E+04  0.27490199211E+04  0.23061806218E+04 0.  0.
        4    1    3    3  502    0 -0.11335599593E+04 -0.16183079356E+03 -0.58611100468E+03  0.12863417547E+04  0.12699999809E+01 0. -1.
       -4    1    3    3    0  502  0.11335599593E+04  0.16183079356E+03 -0.91009802693E+03  0.14626781665E+04  0.12699999809E+01 0.  1.
</event>
<event>
 5   0  0.1327820E-05  0.2305906E+04  0.7818609E-02  0.8475596E-01
       -1   -1    0    0    0  501  0.00000000000E+00  0.00000000000E+00  0.78893510851E+03  0.78893510853E+03  0.50400001928E-02 0. -1.
        1   -1    0    0  501    0  0.00000000000E+00  0.00000000000E+00 -0.16849309055E+04  0.16849309055E+04  0.50400001928E-02 0.  1.
    10030    2    1    2    0    0  0.00000000000E+00  0.00000000000E+00 -0.89599579695E+03  0.24738660140E+04  0.23059064567E+04 0.  0.
        1    1    3    3  502    0 -0.42034953111E+03  0.77919177333E+03 -0.12403513755E+04  0.15239111138E+04  0.50400001928E-02 0.  1.
       -1    1    3    3    0  502  0.42034953111E+03 -0.77919177333E+03  0.34435557857E+03  0.94995490022E+03  0.50400001928E-02 0. -1.
</event>
<event>
 5   0  0.1308224E-05  0.2284634E+04  0.7818609E-02  0.8484004E-01
       -1   -1    0    0    0  501  0.00000000000E+00  0.00000000000E+00  0.52173101580E+03  0.52173101582E+03  0.50400001928E-02 0. -1.
        1   -1    0    0  501    0  0.00000000000E+00  0.00000000000E+00 -0.25010752697E+04  0.25010752697E+04  0.50400001928E-02 0.  1.
    10030    2    1    2    0    0  0.00000000000E+00  0.00000000000E+00 -0.19793442539E+04  0.30228062855E+04  0.22846343612E+04 0.  0.
        5    1    3    3  502    0  0.10202976659E+04  0.11248597856E+03 -0.16528173433E+04  0.19456329774E+04  0.46999998093E+01 0. -1.
       -5    1    3    3    0  502 -0.10202976659E+04 -0.11248597856E+03 -0.32652691054E+03  0.10771733081E+04  0.46999998093E+01 0.  1.
</event>
<event>
 5   0  0.1371753E-05  0.2281785E+04  0.7818609E-02  0.8485138E-01
        1   -1    0    0  501    0  0.00000000000E+00  0.00000000000E+00  0.13519357873E+04  0.13519357873E+04  0.50400001928E-02 0. -1.
       -1   -1    0    0    0  501  0.00000000000E+00  0.00000000000E+00 -0.96279364722E+03  0.96279364724E+03  0.50400001928E-02 0.  1.
    10030    2    1    2    0    0  0.00000000000E+00  0.00000000000E+00  0.38914214008E+03  0.23147294345E+04  0.22817845538E+04 0.  0.
        3    1    3    3  502    0  0.84280207062E+03 -0.76593425438E+03  0.26385478624E+03  0.11690123912E+04  0.10100000352E+00 0. -1.
       -3    1    3    3    0  502 -0.84280207062E+03  0.76593425438E+03  0.12528735384E+03  0.11457170434E+04  0.10100000352E+00 0.  1.
</event>
<event>
 5   0  0.2938972E-05  0.2281391E+04  0.7818609E-02  0.8485295E-01
        2   -1    0    0  501    0  0.00000000000E+00  0.00000000000E+00  0.19404118506E+04  0.19404118506E+04  0.25500000920E-02 0.  1.
       -2   -1    0    0    0  501  0.00000000000E+00  0.00000000000E+00 -0.67057230984E+03  0.67057230984E+03  0.25500000920E-02 0. -1.
    10030    2    1    2    0    0  0.00000000000E+00  0.00000000000E+00  0.12698395408E+04  0.26109841605E+04  0.22813912043E+04 0.  0.
        2    1    3    3  502    0 -0.62545261284E+03  0.76907287897E+03 -0.10993874422E+02  0.99135509751E+03  0.25500000920E-02 0. -1.
       -2    1    3    3    0  502  0.62545261284E+03 -0.76907287897E+03  0.12808334152E+04  0.16196290630E+04  0.25500000920E-02 0.  1.
</event>
<event>
 5   0  0.1284837E-05  0.2306480E+04  0.7818609E-02  0.8475371E-01
       -1   -1    0    0    0  501  0.00000000000E+00  0.00000000000E+00  0.20756774902E+04  0.20756774902E+04  0.50400001928E-02 0. -1.
        1   -1    0    0  501    0  0.00000000000E+00  0.00000000000E+00 -0.64073649462E+03  0.64073649464E+03  0.50400001928E-02 0.  1.
    10030    2    1    2    0    0  0.00000000000E+00  0.00000000000E+00  0.14349409956E+04  0.27164139848E+04  0.23064798452E+04 0.  0.
        4    1    3    3  502    0  0.69906832856E+03 -0.16634121003E+02 -0.36257253579E+03  0.78767612544E+03  0.12699999809E+01 0.  1.
       -4    1    3    3    0  502 -0.69906832856E+03  0.16634121003E+02  0.17975135314E+04  0.19287378594E+04  0.12699999809E+01 0. -1.
</event>
<event>
 5   0  0.2871888E-05  0.2281397E+04  0.7818609E-02  0.8485292E-01
       -2   -1    0    0    0  501  0.00000000000E+00  0.00000000000E+00  0.95135995673E+03  0.95135995674E+03  0.25500000920E-02 0. -1.
        2   -1    0    0  501    0  0.00000000000E+00  0.00000000000E+00 -0.13677186570E+04  0.13677186570E+04  0.25500000920E-02 0.  1.
    10030    2    1    2    0    0  0.00000000000E+00  0.00000000000E+00 -0.41635870023E+03  0.23190786137E+04  0.22813967321E+04 0.  0.
        3    1    3    3  502    0 -0.55714083954E+03  0.81145210507E+02  0.80027638875E+03  0.97848493543E+03  0.10100000352E+00 0. -1.
       -3    1    3    3    0  502  0.55714083954E+03 -0.81145210507E+02 -0.12166350890E+04  0.13405936783E+04  0.10100000352E+00 0.  1.
</event>
<event>
 5   0  0.2994157E-05  0.2307179E+04  0.7818609E-02  0.8475096E-01
       -2   -1    0    0    0  501  0.00000000000E+00  0.00000000000E+00  0.58990011761E+03  0.58990011761E+03  0.25500000920E-02 0. -1.
        2   -1    0    0  501    0  0.00000000000E+00  0.00000000000E+00 -0.22559213671E+04  0.22559213671E+04  0.25500000920E-02 0.  1.
    10030    2    1    2    0    0  0.00000000000E+00  0.00000000000E+00 -0.16660212495E+04  0.28458214847E+04  0.23071786058E+04 0.  0.
        4    1    3    3  502    0 -0.44902293833E+03  0.10444504248E+04 -0.59171665678E+03  0.12816506949E+04  0.12699999809E+01 0. -1.
       -4    1    3    3    0  502  0.44902293833E+03 -0.10444504248E+04 -0.10743045927E+04  0.15641707898E+04  0.12699999809E+01 0.  1.
</event>
<event>
 5   0  0.1327820E-05  0.2300230E+04  0.7818609E-02  0.8477831E-01
        1   -1    0    0  501    0  0.00000000000E+00  0.00000000000E+00  0.14159216461E+04  0.14159216461E+04  0.50400001928E-02 0. -1.
       -1   -1    0    0    0  501  0.00000000000E+00  0.00000000000E+00 -0.93420714050E+03  0.93420714051E+03  0.50400001928E-02 0.  1.
    10030    2    1    2    0    0  0.00000000000E+00  0.00000000000E+00  0.48171450559E+03  0.23501287866E+04  0.23002296513E+04 0.  0.
        1    1    3    3  502    0  0.33420135491E+03 -0.98194166911E+03 -0.26677528987E+03  0.10710130916E+04  0.50400001928E-02 0.  1.
       -1    1    3    3    0  502 -0.33420135491E+03  0.98194166911E+03  0.74848979546E+03  0.12791156950E+04  0.50400001928E-02 0. -1.
</event>
<event>
 5   0  0.2910126E-05  0.2292487E+04  0.7818609E-02  0.8480889E-01
       -2   -1    0    0    0  501  0.00000000000E+00  0.00000000000E+00  0.83003444538E+03  0.83003444539E+03  0.25500000920E-02 0.  1.
        2   -1    0    0  501    0  0.00000000000E+00  0.00000000000E+00 -0.15829154166E+04  0.15829154166E+04  0.25500000920E-02 0. -1.
    10030    2    1    2    0    0  0.00000000000E+00  0.00000000000E+00 -0.75288097122E+03  0.24129498620E+04  0.22924871384E+04 0.  0.
        5    1    3    3  502    0 -0.61350645836E+02 -0.80931895153E+03  0.47546665905E+03  0.94066556273E+03  0.46999998093E+01 0.  1.
       -5    1    3    3    0  502  0.61350645836E+02  0.80931895153E+03 -0.12283476303E+04  0.14722842993E+04  0.46999998093E+01 0. -1.
</event>
<event>
 5   0  0.2816178E-05  0.2302312E+04  0.7818609E-02  0.8477010E-01
        2   -1    0    0  501    0  0.00000000000E+00  0.00000000000E+00  0.21850685504E+04  0.21850685504E+04  0.25500000920E-02 0. -1.
       -2   -1    0    0    0  501  0.00000000000E+00  0.00000000000E+00 -0.60646168422E+03  0.60646168422E+03  0.25500000920E-02 0.  1.
    10030    2    1    2    0    0  0.00000000000E+00  0.00000000000E+00  0.15786068662E+04  0.27915302346E+04  0.23023121884E+04 0.  0.
        1    1    3    3  502    0  0.83567488813E+03 -0.59882356327E+03  0.14172493265E+04  0.17508677369E+04  0.50400001928E-02 0. -1.
       -1    1    3    3    0  502 -0.83567488813E+03  0.59882356327E+03  0.16135753970E+03  0.10406624977E+04  0.50400001928E-02 0.  1.
</event>
<event>
 5   0  0.2871888E-05  0.2294089E+04  0.7818609E-02  0.8480255E-01
       -2   -1    0    0    0  501  0.00000000000E+00  0.00000000000E+00  0.61043676961E+03  0.61043676961E+03  0.25500000920E-02 0.  1.
        2   -1    0    0  501    0  0.00000000000E+00  0.00000000000E+00 -0.21553597471E+04  0.21553597471E+04  0.25500000920E-02 0. -1.
    10030    2    1    2    0    0  0.00000000000E+00  0.00000000000E+00 -0.15449229775E+04  0.27657965167E+04  0.22940887876E+04 0.  0.
        3    1    3    3  502    0 -0.86008617015E+03 -0.94198166124E+01 -0.16873616258E+04  0.18939446189E+04  0.10100000352E+00 0. -1.
       -3    1    3    3    0  502  0.86008617015E+03  0.94198166124E+01  0.14243864830E+03  0.87185189783E+03  0.10100000352E+00 0.  1.
</event>
<event>
 5   0  0.1327820E-05  0.2300911E+04  0.7818609E-02  0.8477562E-01
       -1   -1    0    0    0  501  0.00000000000E+00  0.00000000000E+00  0.70776490011E+03  0.70776490013E+03  0.50400001928E-02 0. -1.
        1   -1    0    0  501    0  0.00000000000E+00  0.00000000000E+00 -0.18700390229E+04  0.18700390229E+04  0.50400001928E-02 0.  1.
    10030    2    1    2    0    0  0.00000000000E+00  0.00000000000E+00 -0.11622741228E+04  0.25778039230E+04  0.23009111085E+04 0.  0.
        1    1    3    3  502    0 -0.72234704167E+03  0.45329722642E+03  0.28398372693E+03  0.89883835102E+03  0.50400001928E-02 0. -1.
       -1    1    3    3    0  502  0.72234704167E+03 -0.45329722642E+03 -0.14462578497E+04  0.16789655720E+04  0.50400001928E-02 0.  1.
</event>
<event>
 5   0  0.1303224E-05  0.2293185E+04  0.7818609E-02  0.8480613E-01
        1   -1    0    0  501    0  0.00000000000E+00  0.00000000000E+00  0.22330577543E+04  0.22330577543E+04  0.50400001928E-02 0. -1.
       -1   -1    0    0    0  501  0.00000000000E+00  0.00000000000E+00 -0.58873277008E+03  0.58873277010E+03  0.50400001928E-02 0.  1.
    10030    2    1    2    0    0  0.00000000000E+00  0.00000000000E+00  0.16443249842E+04  0.28217905244E+04  0.22931849271E+04 0.  0.
        2    1    3    3  502    0 -0.84394900705E+03 -0.76147421481E+03  0.63725230140E+03  0.13031436613E+04  0.25500000920E-02 0. -1.
       -2    1    3    3    0  502  0.84394900705E+03  0.76147421481E+03  0.10070726828E+04  0.15186468631E+04  0.25500000920E-02 0.  1.
</event>
<event>
 5   0  0.2816178E-05  0.2294821E+04  0.7818609E-02  0.8479966E-01
       -2   -1    0    0    0  501  0.00000000000E+00  0.00000000000E+00  0.11094184400E+04  0.11094184400E+04  0.25500000920E-02 0. -1.
        2   -1    0    0  501    0  0.00000000000E+00  0.00000000000E+00 -0.11867040986E+04  0.11867040986E+04  0.25500000920E-02 0.  1.
    10030    2    1    2    0    0  0.00000000000E+00  0.00000000000E+00 -0.77285658633E+02  0.22961225386E+04  0.22948214831E+04 0.  0.
        1    1    3    3  502    0  0.69061447804E+03  0.72873063844E+03 -0.59443476899E+03  0.11667687840E+04  0.50400001928E-02 0.  1.
       -1    1    3    3    0  502 -0.69061447804E+03 -0.72873063844E+03  0.51714911036E+03  0.11293537546E+04  0.50400001928E-02 0. -1.
</event>
<event>
 5   0  0.2871888E-05  0.2260286E+04  0.7818609E-02  0.8493746E-01
        2   -1    0    0  501    0  0.00000000000E+00  0.00000000000E+00  0.13638281030E+04  0.13638281030E+04  0.25500000920E-02 0. -1.
       -2   -1    0    0    0  501  0.00000000000E+00  0.00000000000E+00 -0.93649885174E+03  0.93649885174E+03  0.25500000920E-02 0.  1.
    10030    2    1    2    0    0  0.00000000000E+00  0.00000000000E+00  0.42732925125E+03  0.23003269547E+04  0.22602862230E+04 0.  0.
        3    1    3    3  502    0 -0.25859152098E+03  0.72020536444E+03 -0.63272798739E+03  0.99293003677E+03  0.10100000352E+00 0.  1.
       -3    1    3    3    0  502  0.25859152098E+03 -0.72020536444E+03  0.10600572386E+04  0.13073969180E+04  0.10100000352E+00 0. -1.
</event>
<event>
 5   0  0.1308224E-05  0.2347289E+04  0.7818609E-02  0.8459506E-01
        1   -1    0    0  501    0  0.00000000000E+00  0.00000000000E+00  0.12632832848E+04  0.12632832848E+04  0.50400001928E-02 0.  1.
       -1   -1    0    0    0  501  0.00000000000E+00  0.00000000000E+00 -0.10903663717E+04  0.10903663718E+04  0.50400001928E-02 0. -1.
    10030    2    1    2    0    0  0.00000000000E+00  0.00000000000E+00  0.17291691303E+03  0.23536496565E+04  0.23472891699E+04 0.  0.
        5    1    3    3  502    0  0.69519949455E+03 -0.55958814518E+03 -0.67782626159E+03  0.11206746898E+04  0.46999998093E+01 0. -1.
       -5    1    3    3    0  502 -0.69519949455E+03  0.55958814518E+03  0.85074317462E+03  0.12329749667E+04  0.46999998093E+01 0.  1.
</event>
<event>
 5   0  0.2871888E-05  0.2301459E+04  0.7818609E-02  0.8477346E-01
       -2   -1    0    0    0  501  0.00000000000E+00  0.00000000000E+00  0.69725740690E+03  0.69725740691E+03  0.25500000920E-02 0.  1.
        2   -1    0    0  501    0  0.00000000000E+00  0.00000000000E+00 -0.18991233871E+04  0.18991233871E+04  0.25500000920E-02 0. -1.
    10030    2    1    2    0    0  0.00000000000E+00  0.00000000000E+00 -0.12018659802E+04  0.25963807941E+04  0.23014585361E+04 0.  0.
        3    1    3    3  502    0 -0.21707131926E+03 -0.77127685298E+03  0.33085664358E+03  0.86686450521E+03  0.10100000352E+00 0.  1.
       -3    1    3    3    0  502  0.21707131926E+03  0.77127685298E+03 -0.15327226238E+04  0.17295162888E+04  0.10100000352E+00 0. -1.
</event>
<event>
 5   0  0.1284837E-05  0.2239106E+04  0.7818609E-02  0.8502325E-01
        1   -1    0    0  501    0  0.00000000000E+00  0.00000000000E+00  0.15475335007E+04  0.15475335007E+04  0.50400001928E-02 0.  1.
       -1   -1    0    0    0  501  0.00000000000E+00  0.00000000000E+00 -0.80993360900E+03  0.80993360901E+03  0.50400001928E-02 0. -1.
    10030    2    1    2    0    0  0.00000000000E+00  0.00000000000E+00  0.73759989174E+03  0.23574671098E+04  0.22391064230E+04 0.  0.
        4    1    3    3  502    0  0.26896871218E+03  0.64680254504E+03 -0.55069173145E+03  0.89104472188E+03  0.12699999809E+01 0. -1.
       -4    1    3    3    0  502 -0.26896871218E+03 -0.64680254504E+03  0.12882916232E+04  0.14664223879E+04  0.12699999809E+01 0.  1.
</event>
<event>
 5   0  0.1284837E-05  0.2297479E+04  0.7818609E-02  0.8478916E-01
       -1   -1    0    0    0  501  0.00000000000E+00  0.00000000000E+00  0.18260923914E+04  0.18260923914E+04  0.50400001928E-02 0.  1.
        1   -1    0    0  501    0  0.00000000000E+00  0.00000000000E+00 -0.72263718932E+03  0.72263718934E+03  0.50400001928E-02 0. -1.
    10030    2    1    2    0    0  0.00000000000E+00  0.00000000000E+00  0.11034552021E+04  0.25487295808E+04  0.22974788558E+04 0.  0.
        4    1    3    3  502    0  0.10141054702E+04  0.40639365199E+03  0.94556571410E+03  0.14448743328E+04  0.12699999809E+01 0.  1.
       -4    1    3    3    0  502 -0.10141054702E+04 -0.40639365199E+03  0.15788948802E+03  0.11038552479E+04  0.12699999809E+01 0. -1.
</event>
<event>
 5   0  0.2871888E-05  0.2295031E+04  0.7818609E-02  0.8479883E-01
       -2   -1    0    0    0  501  0.00000000000E+00  0.00000000000E+00  0.62773270238E+03  0.62773270238E+03  0.25500000920E-02 0. -1.
        2   -1    0    0  501    0  0.00000000000E+00  0.00000000000E+00 -0.20976951889E+04  0.20976951889E+04  0.25500000920E-02 0.  1.
    10030    2    1    2    0    0  0.00000000000E+00  0.00000000000E+00 -0.14699624865E+04  0.27254278912E+04  0.22950310409E+04 0.  0.
        3    1    3    3  502    0 -0.73435837983E+01  0.63169347902E+03 -0.18726001490E+04  0.19762899352E+04  0.10100000352E+00 0.  1.
       -3    1    3    3    0  502  0.73435837983E+01 -0.63169347902E+03  0.40263766255E+03  0.74913795603E+03  0.10100000352E+00 0. -1.
</event>
<event>
 5   0  0.1308224E-05  0.2290392E+04  0.7818609E-02  0.8481719E-01
        1   -1    0    0  501    0  0.00000000000E+00  0.00000000000E+00  0.24017387880E+04  0.24017387880E+04  0.50400001928E-02 0.  1.
       -1   -1    0    0    0  501  0.00000000000E+00  0.00000000000E+00 -0.54605167552E+03  0.54605167554E+03  0.50400001928E-02 0. -1.
    10030    2    1    2    0    0  0.00000000000E+00  0.00000000000E+00  0.18556871125E+04  0.29477904635E+04  0.22903916603E+04 0.  0.
        5    1    3    3  502    0  0.85289670979E+03  0.83169252770E+01 -0.55656695663E+02  0.85476413506E+03  0.46999998093E+01 0. -1.
       -5    1    3    3    0  502 -0.85289670979E+03 -0.83169252770E+01  0.19113438081E+04  0.20930263285E+04  0.46999998093E+01 0.  1.
</event>
<event>
 5   0  0.1327820E-05  0.2310164E+04  0.7818609E-02  0.8473924E-01
       -1   -1    0    0    0  501  0.00000000000E+00  0.00000000000E+00  0.79008771718E+03  0.79008771720E+03  0.50400001928E-02 0. -1.
        1   -1    0    0  501    0  0.00000000000E+00  0.00000000000E+00 -0.16886920064E+04  0.16886920064E+04  0.50400001928E-02 0.  1.
    10030    2    1    2    0    0  0.00000000000E+00  0.00000000000E+00 -0.89860428925E+03  0.24787797236E+04  0.23101643339E+04 0.  0.
        1    1    3    3  502    0  0.41153149465E+03 -0.11619411259E+03 -0.16006320712E+04  0.16567686230E+04  0.50400001928E-02 0.  1.
       -1    1    3    3    0  502 -0.41153149465E+03  0.11619411259E+03  0.70202778194E+03  0.82201110061E+03  0.50400001928E-02 0. -1.
</event>
<event>
 5   0  0.1284837E-05  0.2327381E+04  0.7818609E-02  0.8467203E-01
        1   -1    0    0  501    0  0.00000000000E+00  0.00000000000E+00  0.11155202523E+04  0.11155202523E+04  0.50400001928E-02 0.  1.
       -1   -1    0    0    0  501  0.00000000000E+00  0.00000000000E+00 -0.12139408404E+04  0.12139408405E+04  0.50400001928E-02 0. -1.
    10030    2    1    2    0    0  0.00000000000E+00  0.00000000000E+00 -0.98420588179E+02  0.23294610927E+04  0.23273810110E+04 0.  0.
        4    1    3    3  502    0  0.17971571970E+03  0.11008429122E+03  0.10962590026E+04  0.11163340472E+04  0.12699999809E+01 0.  1.
       -4    1    3    3    0  502 -0.17971571970E+03 -0.11008429122E+03 -0.11946795908E+04  0.12131270456E+04  0.12699999809E+01 0. -1.
</event>
<event>
 5   0  0.2938972E-05  0.2334873E+04  0.7818609E-02  0.8464297E-01
       -2   -1    0    0    0  501  0.00000000000E+00  0.00000000000E+00  0.87891337934E+03  0.87891337935E+03  0.25500000920E-02 0.  1.
        2   -1    0    0  501    0  0.00000000000E+00  0.00000000000E+00 -0.15506740138E+04  0.15506740138E+04  0.25500000920E-02 0. -1.
    10030    2    1    2    0    0  0.00000000000E+00  0.00000000000E+00 -0.67176063444E+03  0.24295873931E+04  0.23348731338E+04 0.  0.
        2    1    3    3  502    0 -0.54484281282E+03  0.10168141515E+04 -0.52243894352E+03  0.12663755995E+04  0.25500000920E-02 0. -1.
       -2    1    3    3    0  502  0.54484281282E+03 -0.10168141515E+04 -0.14932169092E+03  0.11632117936E+04  0.25500000920E-02 0.  1.
</event>
<event>
 5   0  0.2938972E-05  0.2298171E+04  0.7818609E-02  0.8478643E-01
       -2   -1    0    0    0  501  0.00000000000E+00  0.00000000000E+00  0.63128660870E+03  0.63128660870E+03  0.25500000920E-02 0.  1.
        2   -1    0    0  501    0  0.00000000000E+00  0.00000000000E+00 -0.20915976905E+04  0.20915976905E+04  0.25500000920E-02 0. -1.
    10030    2    1    2    0    0  0.00000000000E+00  0.00000000000E+00 -0.14603110818E+04  0.27228842992E+04  0.22981711101E+04 0.  0.
        2    1    3    3  502    0  0.88532374805E+02 -0.87043395144E+03  0.15242815083E+03  0.88810336469E+03  0.25500000920E-02 0.  1.
       -2    1    3    3    0  502 -0.88532374805E+02  0.87043395144E+03 -0.16127392326E+04  0.18347809345E+04  0.25500000920E-02 0. -1.
</event>
<event>
 5   0  0.2938972E-05  0.2297669E+04  0.7818609E-02  0.8478841E-01
        2   -1    0    0  501    0  0.00000000000E+00  0.00000000000E+00  0.13715855419E+04  0.13715855419E+04  0.25500000920E-02 0.  1.
       -2   -1    0    0    0  501  0.00000000000E+00  0.00000000000E+00 -0.96225934538E+03  0.96225934538E+03  0.25500000920E-02 0. -1.
    10030    2    1    2    0    0  0.00000000000E+00  0.00000000000E+00  0.40932619647E+03  0.23338448872E+04  0.22976692587E+04 0.  0.
        2    1    3    3  502    0 -0.51826406345E+03  0.34165048515E+03 -0.77725154207E+03  0.99470732033E+03  0.25500000920E-02 0. -1.
       -2    1    3    3    0  502  0.51826406345E+03 -0.34165048515E+03  0.11865777385E+04  0.13391375669E+04  0.25500000920E-02 0.  1.
</event>
<event>
 5   0  0.1303224E-05  0.2319974E+04  0.7818609E-02  0.8470087E-01
        1   -1    0    0  501    0  0.00000000000E+00  0.00000000000E+00  0.76349615126E+03  0.76349615127E+03  0.50400001928E-02 0. -1.
       -1   -1    0    0    0  501  0.00000000000E+00  0.00000000000E+00 -0.17623790774E+04  0.17623790774E+04  0.50400001928E-02 0.  1.
    10030    2    1    2    0    0  0.00000000000E+00  0.00000000000E+00 -0.99888292615E+03  0.25258752287E+04  0.23199738298E+04 0.  0.
        2    1    3    3  502    0 -0.25213251387E+03 -0.80416838410E+02 -0.17290715528E+04  0.17492072797E+04  0.25500000920E-02 0.  1.
       -2    1    3    3    0  502  0.25213251387E+03  0.80416838410E+02  0.73018862669E+03  0.77666794900E+03  0.25500000920E-02 0. -1.
</event>
<event>
 5   0  0.1284837E-05  0.2299195E+04  0.7818609E-02  0.8478239E-01
       -1   -1    0    0    0  501  0.00000000000E+00  0.00000000000E+00  0.65975487110E+03  0.65975487112E+03  0.50400001928E-02 0. -1.
        1   -1    0    0  501    0  0.00000000000E+00  0.00000000000E+00 -0.20031290983E+04  0.20031290984E+04  0.50400001928E-02 0.  1.
    10030    2    1    2    0    0  0.00000000000E+00  0.00000000000E+00 -0.13433742272E+04  0.26628839695E+04  0.22991947983E+04 0.  0.
        4    1    3    3  502    0 -0.52013006292E+03  0.87826578048E+01  0.51563785111E+03  0.73245916188E+03  0.12699999809E+01 0. -1.
       -4    1    3    3    0  502  0.52013006292E+03 -0.87826578048E+01 -0.18590120783E+04  0.19304248076E+04  0.12699999809E+01 0.  1.
</event>
<event>
 5   0  0.1371753E-05  0.2301679E+04  0.7818609E-02  0.8477259E-01
       -1   -1    0    0    0  501  0.00000000000E+00  0.00000000000E+00  0.26046925274E+04  0.26046925274E+04  0.50400001928E-02 0. -1.
        1   -1    0    0  501    0  0.00000000000E+00  0.00000000000E+00 -0.50847896814E+03  0.50847896817E+03  0.50400001928E-02 0.  1.
    10030    2    1    2    0    0  0.00000000000E+00  0.00000000000E+00  0.20962135593E+04  0.31131714956E+04  0.23016788383E+04 0.  0.
        3    1    3    3  502    0 -0.89237717446E+03  0.31437962634E+03  0.19342795958E+04  0.21532786945E+04  0.10100000352E+00 0. -1.
       -3    1    3    3    0  502  0.89237717446E+03 -0.31437962634E+03  0.16193396345E+03  0.95989280114E+03  0.10100000352E+00 0.  1.
</event>
<event>
 5   0  0.2910126E-05  0.2431624E+04  0.7818609E-02  0.8427758E-01
        2   -1    0    0  501    0  0.00000000000E+00  0.00000000000E+00  0.20590991502E+04  0.20590991502E+04  0.25500000920E-02 0.  1.
       -2   -1    0    0    0  501  0.00000000000E+00  0.00000000000E+00 -0.71788603597E+03  0.71788603598E+03  0.25500000920E-02 0. -1.
    10030    2    1    2    0    0  0.00000000000E+00  0.00000000000E+00  0.13412131142E+04  0.27769851862E+04  0.24316237592E+04 0.  0.
        5    1    3    3  502    0  0.80427383923E+03 -0.72068471045E+03  0.32771703463E+02  0.10804346046E+04  0.46999998093E+01 0. -1.
       -5    1    3    3    0  502 -0.80427383923E+03  0.72068471045E+03  0.13084414107E+04  0.16965505815E+04  0.46999998093E+01 0.  1.
</event>
<event>
 5   0  0.1284837E-05  0.2354905E+04  0.7818609E-02  0.8456582E-01
       -1   -1    0    0    0  501  0.00000000000E+00  0.00000000000E+00  0.96655767383E+03  0.96655767384E+03  0.50400001928E-02 0.  1.
        1   -1    0    0  501    0  0.00000000000E+00  0.00000000000E+00 -0.14343627280E+04  0.14343627280E+04  0.50400001928E-02 0. -1.
    10030    2    1    2    0    0  0.00000000000E+00  0.00000000000E+00 -0.46780505417E+03  0.24009204019E+04  0.23549049253E+04 0.  0.
        4    1    3    3  502    0 -0.42798190036E+03  0.10220383599E+04  0.17220452889E+03  0.11213326575E+04  0.12699999809E+01 0.  1.
       -4    1    3    3    0  502  0.42798190036E+03 -0.10220383599E+04 -0.64000958307E+03  0.12795877443E+04  0.12699999809E+01 0. -1.
</event>
<event>
 5   0  0.2910126E-05  0.2295598E+04  0.7818609E-02  0.8479659E-01
       -2   -1    0    0    0  501  0.00000000000E+00  0.00000000000E+00  0.14887235597E+04  0.14887235597E+04  0.25500000920E-02 0. -1.
        2   -1    0    0  501    0  0.00000000000E+00  0.00000000000E+00 -0.88494805073E+03  0.88494805073E+03  0.25500000920E-02 0.  1.
    10030    2    1    2    0    0  0.00000000000E+00  0.00000000000E+00  0.60377550893E+03  0.23736716104E+04  0.22955984076E+04 0.  0.
        5    1    3    3  502    0  0.26872822475E+03  0.11156355946E+04  0.27734698107E+03  0.11805935273E+04  0.46999998093E+01 0.  1.
       -5    1    3    3    0  502 -0.26872822475E+03 -0.11156355946E+04  0.32642852785E+03  0.11930780831E+04  0.46999998093E+01 0. -1.
</event>
<event>
 5   0  0.1284837E-05  0.2301939E+04  0.7818609E-02  0.8477157E-01
       -1   -1    0    0    0  501  0.00000000000E+00  0.00000000000E+00  0.10143292557E+04  0.10143292557E+04  0.50400001928E-02 0. -1.
        1   -1    0    0  501    0  0.00000000000E+00  0.00000000000E+00 -0.13060162348E+04  0.13060162349E+04  0.50400001928E-02 0.  1.
    10030    2    1    2    0    0  0.00000000000E+00  0.00000000000E+00 -0.29168697918E+03  0.23203454905E+04  0.23019387267E+04 0.  0.
        4    1    3    3  502    0 -0.77656241571E+03 -0.36209271654E+03 -0.92047302116E+03  0.12575502043E+04  0.12699999809E+01 0.  1.
       -4    1    3    3    0  502  0.77656241571E+03  0.36209271654E+03  0.62878604197E+03  0.10627952862E+04  0.12699999809E+01 0. -1.
</event>
<event>
 5   0  0.1017200E-05  0.2320156E+04  0.7818609E-02  0.8470016E-01
       -3   -1    0    0    0  501  0.00000000000E+00  0.00000000000E+00  0.12675588210E+04  0.12675588250E+04  0.10100000352E+00 0.  1.
        3   -1    0    0  501    0  0.00000000000E+00  0.00000000000E+00 -0.10617111742E+04  0.10617111790E+04  0.10100000352E+00 0. -1.
    10030    2    1    2    0    0  0.00000000000E+00  0.00000000000E+00  0.20584764683E+03  0.23292700040E+04  0.23201563521E+04 0.  0.
        2    1    3    3  502    0 -0.46631991689E+02 -0.11459556093E+04  0.27794327517E+03  0.11801022266E+04  0.25500000920E-02 0.  1.
       -2    1    3    3    0  502  0.46631991689E+02  0.11459556093E+04 -0.72095628337E+02  0.11491677774E+04  0.25500000920E-02 0. -1.
</event>
<event>
 5   0  0.1371753E-05  0.2300145E+04  0.7818609E-02  0.8477864E-01
        1   -1    0    0  501    0  0.00000000000E+00  0.00000000000E+00  0.13935404790E+04  0.13935404790E+04  0.50400001928E-02 0. -1.
       -1   -1    0    0    0  501  0.00000000000E+00  0.00000000000E+00 -0.94914107415E+03  0.94914107416E+03  0.50400001928E-02 0.  1.
    10030    2    1    2    0    0  0.00000000000E+00  0.00000000000E+00  0.44439940486E+03  0.23426815532E+04  0.23001447843E+04 0.  0.
        3    1    3    3  502    0 -0.31076099253E+03  0.45181733895E+03 -0.80741328423E+03  0.97602639513E+03  0.10100000352E+00 0.  1.
       -3    1    3    3    0  502  0.31076099253E+03 -0.45181733895E+03  0.12518126891E+04  0.13666551580E+04  0.10100000352E+00 0. -1.
</event>
<event>
 5   0  0.1371753E-05  0.2309330E+04  0.7818609E-02  0.8474251E-01
        1   -1    0    0  501    0  0.00000000000E+00  0.00000000000E+00  0.95662738730E+03  0.95662738732E+03  0.50400001928E-02 0.  1.
       -1   -1    0    0    0  501  0.00000000000E+00  0.00000000000E+00 -0.13937000212E+04  0.13937000212E+04  0.50400001928E-02 0. -1.
    10030    2    1    2    0    0  0.00000000000E+00  0.00000000000E+00 -0.43707263391E+03  0.23503274085E+04  0.23093303012E+04 0.  0.
        3    1    3    3  502    0  0.15000464156E+03 -0.14176030692E+03 -0.13747743861E+04  0.13901805638E+04  0.10100000352E+00 0. -1.
       -3    1    3    3    0  502 -0.15000464156E+03  0.14176030692E+03  0.93770175221E+03  0.96014684471E+03  0.10100000352E+00 0.  1.
</event>
<event>
 5   0  0.2994157E-05  0.2301256E+04  0.7818609E-02  0.8477426E-01
       -2   -1    0    0    0  501  0.00000000000E+00  0.00000000000E+00  0.84869289425E+03  0.84869289425E+03  0.25500000920E-02 0.  1.
        2   -1    0    0  501    0  0.00000000000E+00  0.00000000000E+00 -0.15599804946E+04  0.15599804946E+04  0.25500000920E-02 0. -1.
    10030    2    1    2    0    0  0.00000000000E+00  0.00000000000E+00 -0.71128760040E+03  0.24086733889E+04  0.23012556233E+04 0.  0.
        4    1    3    3  502    0 -0.56098805444E+03 -0.35896339466E+01 -0.14071369881E+04  0.15148454043E+04  0.12699999809E+01 0. -1.
       -4    1    3    3    0  502  0.56098805444E+03  0.35896339466E+01  0.69584938774E+03  0.89382798458E+03  0.12699999809E+01 0.  1.
</event>
<event>
 5   0  0.2938972E-05  0.2294961E+04  0.7818609E-02  0.8479910E-01
       -2   -1    0    0    0  501  0.00000000000E+00  0.00000000000E+00  0.63487821081E+03  0.63487821082E+03  0.25500000920E-02 0. -1.
        2   -1    0    0  501    0  0.00000000000E+00  0.00000000000E+00 -0.20739597001E+04  0.20739597001E+04  0.25500000920E-02 0.  1.
    10030    2    1    2    0    0  0.00000000000E+00  0.00000000000E+00 -0.14390814893E+04  0.27088379109E+04  0.22949612839E+04 0.  0.
        2    1    3    3  502    0  0.11241186917E+04  0.93574339929E+02 -0.96800986165E+03  0.14864192149E+04  0.25500000920E-02 0.  1.
       -2    1    3    3    0  502 -0.11241186917E+04 -0.93574339929E+02 -0.47107162761E+03  0.12224186960E+04  0.25500000920E-02 0. -1.
</event>
<event>
 5   0  0.1371753E-05  0.2298775E+04  0.7818609E-02  0.8478404E-01
       -1   -1    0    0    0  501  0.00000000000E+00  0.00000000000E+00  0.16364140983E+04  0.16364140983E+04  0.50400001928E-02 0. -1.
        1   -1    0    0  501    0  0.00000000000E+00  0.00000000000E+00 -0.80730892265E+03  0.80730892267E+03  0.50400001928E-02 0.  1.
    10030    2    1    2    0    0  0.00000000000E+00  0.00000000000E+00  0.82910517565E+03  0.24437230210E+04  0.22987750675E+04 0.  0.
        3    1    3    3  502    0 -0.42247094813E+03  0.10560269572E+04  0.59057416689E+03  0.12815820275E+04  0.10100000352E+00 0. -1.
       -3    1    3    3    0  502  0.42247094813E+03 -0.10560269572E+04  0.23853100877E+03  0.11621409935E+04  0.10100000352E+00 0.  1.
</event>
<event>
 5   0  0.2871888E-05  0.2289027E+04  0.7818609E-02  0.8482260E-01
       -2   -1    0    0    0  501  0.00000000000E+00  0.00000000000E+00  0.91362788279E+03  0.91362788279E+03  0.25500000920E-02 0. -1.
        2   -1    0    0  501    0  0.00000000000E+00  0.00000000000E+00 -0.14337471257E+04  0.14337471257E+04  0.25500000920E-02 0.  1.
    10030    2    1    2    0    0  0.00000000000E+00  0.00000000000E+00 -0.52011924295E+03  0.23473750085E+04  0.22890271741E+04 0.  0.
        3    1    3    3  502    0  0.51808714599E+02 -0.52532170265E+03  0.78133785598E+03  0.94294002438E+03  0.10100000352E+00 0. -1.
       -3    1    3    3    0  502 -0.51808714599E+02  0.52532170265E+03 -0.13014570989E+04  0.14044349842E+04  0.10100000352E+00 0.  1.
</event>
<event>
 5   0  0.1327820E-05  0.2302285E+04  0.7818609E-02  0.8477021E-01
        1   -1    0    0  501    0  0.00000000000E+00  0.00000000000E+00  0.80128691912E+03  0.80128691913E+03  0.50400001928E-02 0.  1.
       -1   -1    0    0    0  501  0.00000000000E+00  0.00000000000E+00 -0.16537514861E+04  0.16537514861E+04  0.50400001928E-02 0. -1.
    10030    2    1    2    0    0  0.00000000000E+00  0.00000000000E+00 -0.85246456694E+03  0.24550384052E+04  0.23022853283E+04 0.  0.
        1    1    3    3  502    0  0.98748951906E+03  0.57496932888E+03 -0.27769123021E+03  0.11759411970E+04  0.50400001928E-02 0.  1.
       -1    1    3    3    0  502 -0.98748951906E+03 -0.57496932888E+03 -0.57477333673E+03  0.12790972082E+04  0.50400001928E-02 0. -1.
</event>
<event>
 5   0  0.1284837E-05  0.2291729E+04  0.7818609E-02  0.8481189E-01
        1   -1    0    0  501    0  0.00000000000E+00  0.00000000000E+00  0.11332325312E+04  0.11332325312E+04  0.50400001928E-02 0. -1.
       -1   -1    0    0    0  501  0.00000000000E+00  0.00000000000E+00 -0.11586371324E+04  0.11586371325E+04  0.50400001928E-02 0.  1.
    10030    2    1    2    0    0  0.00000000000E+00  0.00000000000E+00 -0.25404601225E+02  0.22918696637E+04  0.22917288587E+04 0.  0.
        4    1    3    3  502    0 -0.45745006515E+02 -0.59845424364E+03 -0.98885836926E+03  0.11567551922E+04  0.12699999809E+01 0.  1.
       -4    1    3    3    0  502  0.45745006515E+02  0.59845424364E+03  0.96345376803E+03  0.11351144715E+04  0.12699999809E+01 0. -1.
</event>
<event>
 5   0  0.1308224E-05  0.2313113E+04  0.7818609E-02  0.8472769E-01
       -1   -1    0    0    0  501  0.00000000000E+00  0.00000000000E+00  0.13909675380E+04  0.13909675380E+04  0.50400001928E-02 0.  1.
        1   -1    0    0  501    0  0.00000000000E+00  0.00000000000E+00 -0.96164895027E+03  0.96164895029E+03  0.50400001928E-02 0. -1.
    10030    2    1    2    0    0  0.00000000000E+00  0.00000000000E+00  0.42931858768E+03  0.23526164882E+04  0.23131125980E+04 0.  0.
        5    1    3    3  502    0  0.35448921384E+03  0.11001178965E+04  0.25632716493E+03  0.11839120298E+04  0.46999998093E+01 0. -1.
       -5    1    3    3    0  502 -0.35448921384E+03 -0.11001178965E+04  0.17299142275E+03  0.11687044584E+04  0.46999998093E+01 0.  1.
</event>
<event>
 5   0  0.2871888E-05  0.2292300E+04  0.7818609E-02  0.8480963E-01
        2   -1    0    0  501    0  0.00000000000E+00  0.00000000000E+00  0.16152695091E+04  0.16152695091E+04  0.25500000920E-02 0. -1.
       -2   -1    0    0    0  501  0.00000000000E+00  0.00000000000E+00 -0.81327628701E+03  0.81327628701E+03  0.25500000920E-02 0.  1.
    10030    2    1    2    0    0  0.00000000000E+00  0.00000000000E+00  0.80199322207E+03  0.24285457961E+04  0.22923004941E+04 0.  0.
        3    1    3    3  502    0  0.10886981165E+04  0.25033534271E+03  0.67261131821E+03  0.13039698494E+04  0.10100000352E+00 0.  1.
       -3    1    3    3    0  502 -0.10886981165E+04 -0.25033534271E+03  0.12938190387E+03  0.11245759467E+04  0.10100000352E+00 0. -1.
</event>
<event>
 5   0  0.1327820E-05  0.2291540E+04  0.7818609E-02  0.8481264E-01
       -1   -1    0    0    0  501  0.00000000000E+00  0.00000000000E+00  0.81610938290E+03  0.81610938292E+03  0.50400001928E-02 0. -1.
        1   -1    0    0  501    0  0.00000000000E+00  0.00000000000E+00 -0.16085939643E+04  0.16085939643E+04  0.50400001928E-02 0.  1.
    10030    2    1    2    0    0  0.00000000000E+00  0.00000000000E+00 -0.79248458135E+03  0.24247033472E+04  0.22915397684E+04 0.  0.
        1    1    3    3  502    0 -0.11265592813E+04  0.13457690317E+03 -0.22713685721E+03  0.11570816346E+04  0.50400001928E-02 0. -1.
       -1    1    3    3    0  502  0.11265592813E+04 -0.13457690317E+03 -0.56534772414E+03  0.12676217126E+04  0.50400001928E-02 0.  1.
</event>
<event>
 5   0  0.2816178E-05  0.2300131E+04  0.7818609E-02  0.8477869E-01
       -2   -1    0    0    0  501  0.00000000000E+00  0.00000000000E+00  0.73157331768E+03  0.73157331768E+03  0.25500000920E-02 0.  1.
        2   -1    0    0  501    0  0.00000000000E+00  0.00000000000E+00 -0.18079544110E+04  0.18079544110E+04  0.25500000920E-02 0. -1.
    10030    2    1    2    0    0  0.00000000000E+00  0.00000000000E+00 -0.10763810933E+04  0.25395277287E+04  0.23001314803E+04 0.  0.
        1    1    3    3  502    0  0.65036846802E+03  0.11928569271E+03  0.50072584457E+03  0.82941822510E+03  0.50400001928E-02 0.  1.
       -1    1    3    3    0  502 -0.65036846802E+03 -0.11928569271E+03 -0.15771069379E+04  0.17101095036E+04  0.50400001928E-02 0. -1.
</event>
<event>
 5   0  0.1284837E-05  0.2317671E+04  0.7818609E-02  0.8470986E-01
       -1   -1    0    0    0  501  0.00000000000E+00  0.00000000000E+00  0.11608846131E+04  0.11608846132E+04  0.50400001928E-02 0.  1.
        1   -1    0    0  501    0  0.00000000000E+00  0.00000000000E+00 -0.11567903896E+04  0.11567903896E+04  0.50400001928E-02 0. -1.
    10030    2    1    2    0    0  0.00000000000E+00  0.00000000000E+00  0.40942235427E+01  0.23176750028E+04  0.23176713865E+04 0.  0.
        4    1    3    3  502    0 -0.90875466950E+03  0.19098409589E+02  0.72086584058E+03  0.11601073104E+04  0.12699999809E+01 0.  1.
       -4    1    3    3    0  502  0.90875466950E+03 -0.19098409589E+02 -0.71677161704E+03  0.11575676924E+04  0.12699999809E+01 0. -1.
</event>
<event>
 5   0  0.1308224E-05  0.2371103E+04  0.7818609E-02  0.8450402E-01
        1   -1    0    0  501    0  0.00000000000E+00  0.00000000000E+00  0.10477148757E+04  0.10477148757E+04  0.50400001928E-02 0. -1.
       -1   -1    0    0    0  501  0.00000000000E+00  0.00000000000E+00 -0.13415220006E+04  0.13415220006E+04  0.50400001928E-02 0.  1.
    10030    2    1    2    0    0  0.00000000000E+00  0.00000000000E+00 -0.29380712495E+03  0.23892368763E+04  0.23711031661E+04 0.  0.
        5    1    3    3  502    0  0.58981569980E+03  0.99610569797E+03  0.11078912702E+03  0.11629296806E+04  0.46999998093E+01 0.  1.
       -5    1    3    3    0  502 -0.58981569980E+03 -0.99610569797E+03 -0.40459625197E+03  0.12263071958E+04  0.46999998093E+01 0. -1.
</event>
<event>
 5   0  0.1303224E-05  0.2301163E+04  0.7818609E-02  0.8477463E-01
       -1   -1    0    0    0  501  0.00000000000E+00  0.00000000000E+00  0.78941510489E+03  0.78941510491E+03  0.50400001928E-02 0. -1.
        1   -1    0    0  501    0  0.00000000000E+00  0.00000000000E+00 -0.16769849632E+04  0.16769849632E+04  0.50400001928E-02 0.  1.
    10030    2    1    2    0    0  0.00000000000E+00  0.00000000000E+00 -0.88756985828E+03  0.24664000681E+04  0.23011625415E+04 0.  0.
        2    1    3    3  502    0 -0.30513315538E+03 -0.94515612606E+03  0.17879596933E+03  0.10091552625E+04  0.25500000920E-02 0. -1.
       -2    1    3    3    0  502  0.30513315538E+03  0.94515612606E+03 -0.10663658276E+04  0.14572448056E+04  0.25500000920E-02 0.  1.
</event>
<event>
 5   0  0.1284837E-05  0.2288464E+04  0.7818609E-02  0.8482483E-01
        1   -1    0    0  501    0  0.00000000000E+00  0.00000000000E+00  0.21997748233E+04  0.21997748233E+04  0.50400001928E-02 0.  1.
       -1   -1    0    0    0  501  0.00000000000E+00  0.00000000000E+00 -0.59518241358E+03  0.59518241360E+03  0.50400001928E-02 0. -1.
    10030    2    1    2    0    0  0.00000000000E+00  0.00000000000E+00  0.16045924097E+04  0.27949572369E+04  0.22884643660E+04 0.  0.
        4    1    3    3  502    0  0.93959164746E+03  0.65077971694E+03  0.73631109191E+03  0.13595963890E+04  0.12699999809E+01 0. -1.
       -4    1    3    3    0  502 -0.93959164746E+03 -0.65077971694E+03  0.86828131776E+03  0.14353608479E+04  0.12699999809E+01 0.  1.
</event>
<event>
 5   0  0.1308224E-05  0.2231953E+04  0.7818609E-02  0.8505245E-01
       -1   -1    0    0    0  501  0.00000000000E+00  0.00000000000E+00  0.97749791302E+03  0.97749791303E+03  0.50400001928E-02 0. -1.
        1   -1    0    0  501    0  0.00000000000E+00  0.00000000000E+00 -0.12740732853E+04  0.12740732853E+04  0.50400001928E-02 0.  1.
    10030    2    1    2    0    0  0.00000000000E+00  0.00000000000E+00 -0.29657537230E+03  0.22515711984E+04  0.22319533843E+04 0.  0.
        5    1    3    3  502    0  0.61618234305E+03 -0.87001695055E+03 -0.48099209000E+03  0.11696091889E+04  0.46999998093E+01 0.  1.
       -5    1    3    3    0  502 -0.61618234305E+03  0.87001695055E+03  0.18441671771E+03  0.10819620095E+04  0.46999998093E+01 0. -1.
</event>
<event>
 5   0  0.2938972E-05  0.2296296E+04  0.7818609E-02  0.8479383E-01
        2   -1    0    0  501    0  0.00000000000E+00  0.00000000000E+00  0.12499923578E+04  0.12499923578E+04  0.25500000920E-02 0. -1.
       -2   -1    0    0    0  501  0.00000000000E+00  0.00000000000E+00 -0.10546014295E+04  0.10546014295E+04  0.25500000920E-02 0.  1.
    10030    2    1    2    0    0  0.00000000000E+00  0.00000000000E+00  0.19539092827E+03  0.23045937873E+04  0.22962959107E+04 0.  0.
        2    1    3    3  502    0  0.82769304929E+02  0.11233550891E+04 -0.12551847231E+03  0.11333720929E+04  0.25500000920E-02 0.  1.
       -2    1    3    3    0  502 -0.82769304929E+02 -0.11233550891E+04  0.32090940059E+03  0.11712216944E+04  0.25500000920E-02 0. -1.
</event>
<event>
 5   0  0.1327820E-05  0.2308831E+04  0.7818609E-02  0.8474447E-01
       -1   -1    0    0    0  501  0.00000000000E+00  0.00000000000E+00  0.21100804541E+04  0.21100804541E+04  0.50400001928E-02 0.  1.
        1   -1    0    0  501    0  0.00000000000E+00  0.00000000000E+00 -0.63157566439E+03  0.63157566441E+03  0.50400001928E-02 0. -1.
    10030    2    1    2    0    0  0.00000000000E+00  0.00000000000E+00  0.14785047897E+04  0.27416561186E+04  0.23088312756E+04 0.  0.
        1    1    3    3  502    0 -0.11072307285E+04  0.30920129431E+03  0.61408808341E+03  0.13033301580E+04  0.50400001928E-02 0. -1.
       -1    1    3    3    0  502  0.11072307285E+04 -0.30920129431E+03  0.86441670633E+03  0.14383259605E+04  0.50400001928E-02 0.  1.
</event>
<event>
 5   0  0.1327820E-05  0.2292998E+04  0.7818609E-02  0.8480687E-01
        1   -1    0    0  501    0  0.00000000000E+00  0.00000000000E+00  0.18010398303E+04  0.18010398303E+04  0.50400001928E-02 0. -1.
       -1   -1    0    0    0  501  0.00000000000E+00  0.00000000000E+00 -0.72983385863E+03  0.72983385865E+03  0.50400001928E-02 0.  1.
    10030    2    1    2    0    0  0.00000000000E+00  0.00000000000E+00  0.10712059717E+04  0.25308736890E+04  0.22929979057E+04 0.  0.
        1    1    3    3  502    0  0.64319545514E+03 -0.35008608080E+03 -0.43806793645E+03  0.85332536260E+03  0.50400001928E-02 0.  1.
       -1    1    3    3    0  502 -0.64319545514E+03  0.35008608080E+03  0.15092739081E+04  0.16775483264E+04  0.50400001928E-02 0. -1.
</event>
<event>
 5   0  0.1327820E-05  0.2271479E+04  0.7818609E-02  0.8489252E-01
        1   -1    0    0  501    0  0.00000000000E+00  0.00000000000E+00  0.23823933132E+04  0.23823933132E+04  0.50400001928E-02 0.  1.
       -1   -1    0    0    0  501  0.00000000000E+00  0.00000000000E+00 -0.54143231384E+03  0.54143231387E+03  0.50400001928E-02 0. -1.
    10030    2    1    2    0    0  0.00000000000E+00  0.00000000000E+00  0.18409609994E+04  0.29238256271E+04  0.22714794510E+04 0.  0.
        1    1    3    3  502    0 -0.78724472582E+03  0.61039575681E+03  0.16226393816E+04  0.19040209561E+04  0.50400001928E-02 0.  1.
       -1    1    3    3    0  502  0.78724472582E+03 -0.61039575681E+03  0.21832161773E+03  0.10198046710E+04  0.50400001928E-02 0. -1.
</event>
<event>
 5   0  0.2994157E-05  0.2300633E+04  0.7818609E-02  0.8477672E-01
       -2   -1    0    0    0  501  0.00000000000E+00  0.00000000000E+00  0.12064645742E+04  0.12064645742E+04  0.25500000920E-02 0.  1.
        2   -1    0    0  501    0  0.00000000000E+00  0.00000000000E+00 -0.10967814883E+04  0.10967814883E+04  0.25500000920E-02 0. -1.
    10030    2    1    2    0    0  0.00000000000E+00  0.00000000000E+00  0.10968308595E+03  0.23032460625E+04  0.23006329662E+04 0.  0.
        4    1    3    3  502    0 -0.15658720396E+03 -0.10929558352E+04 -0.26825460844E+03  0.11362368407E+04  0.12699999809E+01 0. -1.
       -4    1    3    3    0  502  0.15658720396E+03  0.10929558352E+04  0.37793769439E+03  0.11670092219E+04  0.12699999809E+01 0.  1.
</event>
<event>
 5   0  0.1371753E-05  0.2290220E+04  0.7818609E-02  0.8481787E-01
       -1   -1    0    0    0  501  0.00000000000E+00  0.00000000000E+00  0.17165271692E+04  0.17165271692E+04  0.50400001928E-02 0.  1.
        1   -1    0    0  501    0  0.00000000000E+00  0.00000000000E+00 -0.76391279553E+03  0.76391279555E+03  0.50400001928E-02 0. -1.
    10030    2    1    2    0    0  0.00000000000E+00  0.00000000000E+00  0.95261437369E+03  0.24804399648E+04  0.22902201366E+04 0.  0.
        3    1    3    3  502    0  0.15733524232E+03 -0.10629573192E+04  0.90496323142E+03  0.14048455791E+04  0.10100000352E+00 0.  1.
       -3    1    3    3    0  502 -0.15733524232E+03  0.10629573192E+04  0.47651142268E+02  0.10755943856E+04  0.10100000352E+00 0. -1.
</event>
<event>
 5   0  0.2994157E-05  0.2297927E+04  0.7818609E-02  0.8478739E-01
       -2   -1    0    0    0  501  0.00000000000E+00  0.00000000000E+00  0.70079605691E+03  0.70079605691E+03  0.25500000920E-02 0.  1.
        2   -1    0    0  501    0  0.00000000000E+00  0.00000000000E+00 -0.18837399964E+04  0.18837399964E+04  0.25500000920E-02 0. -1.
    10030    2    1    2    0    0  0.00000000000E+00  0.00000000000E+00 -0.11829439395E+04  0.25845360533E+04  0.22979273807E+04 0.  0.
        4    1    3    3  502    0 -0.87389446533E+03 -0.54184649929E+03 -0.14863383844E+02  0.10283538780E+04  0.12699999809E+01 0.  1.
       -4    1    3    3    0  502  0.87389446533E+03  0.54184649929E+03 -0.11680805556E+04  0.15561821753E+04  0.12699999809E+01 0. -1.
</event>
<event>
 5   0  0.2871888E-05  0.2298223E+04  0.7818609E-02  0.8478622E-01
        2   -1    0    0  501    0  0.00000000000E+00  0.00000000000E+00  0.15152933941E+04  0.15152933941E+04  0.25500000920E-02 0.  1.
       -2   -1    0    0    0  501  0.00000000000E+00  0.00000000000E+00 -0.87142020143E+03  0.87142020143E+03  0.25500000920E-02 0. -1.
    10030    2    1    2    0    0  0.00000000000E+00  0.00000000000E+00  0.64387319266E+03  0.23867135955E+04  0.22982230307E+04 0.  0.
        3    1    3    3  502    0  0.25757127721E+03 -0.78153592554E+03  0.11548891747E+04  0.14180657184E+04  0.10100000352E+00 0.  1.
       -3    1    3    3    0  502 -0.25757127721E+03  0.78153592554E+03 -0.51101598202E+03  0.96864787711E+03  0.10100000352E+00 0. -1.
</event>
<event>
 5   0  0.2816178E-05  0.2318961E+04  0.7818609E-02  0.8470482E-01
       -2   -1    0    0    0  501  0.00000000000E+00  0.00000000000E+00  0.11062339574E+04  0.11062339574E+04  0.25500000920E-02 0. -1.
        2   -1    0    0  501    0  0.00000000000E+00  0.00000000000E+00 -0.12152902020E+04  0.12152902020E+04  0.25500000920E-02 0.  1.
    10030    2    1    2    0    0  0.00000000000E+00  0.00000000000E+00 -0.10905624458E+03  0.23215241594E+04  0.23189612240E+04 0.  0.
        1    1    3    3  502    0  0.84757705813E+03 -0.13613496863E+03 -0.83479679840E+03  0.11974160905E+04  0.50400001928E-02 0.  1.
       -1    1    3    3    0  502 -0.84757705813E+03  0.13613496863E+03  0.72574055382E+03  0.11241080689E+04  0.50400001928E-02 0. -1.
</event>
<event>
 5   0  0.2994157E-05  0.2312451E+04  0.7818609E-02  0.8473028E-01
       -2   -1    0    0    0  501  0.00000000000E+00  0.00000000000E+00  0.15565042449E+04  0.15565042449E+04  0.25500000920E-02 0.  1.
        2   -1    0    0  501    0  0.00000000000E+00  0.00000000000E+00 -0.85888462692E+03  0.85888462692E+03  0.25500000920E-02 0. -1.
    10030    2    1    2    0    0  0.00000000000E+00  0.00000000000E+00  0.69761961802E+03  0.24153888719E+04  0.23124511391E+04 0.  0.
        4    1    3    3  502    0  0.53308800669E+03 -0.10229694984E+04  0.26652130268E+03  0.11839276309E+04  0.12699999809E+01 0. -1.
       -4    1    3    3    0  502 -0.53308800669E+03  0.10229694984E+04  0.43109831534E+03  0.12314612410E+04  0.12699999809E+01 0.  1.
</event>
<event>
 5   0  0.1371753E-05  0.2299438E+04  0.7818609E-02  0.8478143E-01
        1   -1    0    0  501    0  0.00000000000E+00  0.00000000000E+00  0.21940316931E+04  0.21940316931E+04  0.50400001928E-02 0. -1.
       -1   -1    0    0    0  501  0.00000000000E+00  0.00000000000E+00 -0.60247705573E+03  0.60247705575E+03  0.50400001928E-02 0.  1.
    10030    2    1    2    0    0  0.00000000000E+00  0.00000000000E+00  0.15915546373E+04  0.27965087488E+04  0.22994379789E+04 0.  0.
        3    1    3    3  502    0  0.62270886100E+03  0.11662268588E+03 -0.37104092260E+03  0.73419244949E+03  0.10100000352E+00 0.  1.
       -3    1    3    3    0  502 -0.62270886100E+03 -0.11662268588E+03  0.19625955599E+04  0.20623162993E+04  0.10100000352E+00 0. -1.
</event>
<event>
 5   0  0.2871888E-05  0.2294947E+04  0.7818609E-02  0.8479916E-01
        2   -1    0    0  501    0  0.00000000000E+00  0.00000000000E+00  0.10484901756E+04  0.10484901756E+04  0.25500000920E-02 0.  1.
       -2   -1    0    0    0  501  0.00000000000E+00  0.00000000000E+00 -0.12558010856E+04  0.12558010856E+04  0.25500000920E-02 0. -1.
    10030    2    1    2    0    0  0.00000000000E+00  0.00000000000E+00 -0.20731090997E+03  0.23042912612E+04  0.22949467103E+04 0.  0.
        3    1    3    3  502    0  0.99934126491E+03  0.46244066110E+03  0.22039813794E+03  0.11229913972E+04  0.10100000352E+00 0.  1.
       -3    1    3    3    0  502 -0.99934126491E+03 -0.46244066110E+03 -0.42770904791E+03  0.11812998640E+04  0.10100000352E+00 0. -1.
</event>
<event>
 5   0  0.1371753E-05  0.2288189E+04  0.7818609E-02  0.8482593E-01
        1   -1    0    0  501    0  0.00000000000E+00  0.00000000000E+00  0.87157245445E+03  0.87157245447E+03  0.50400001928E-02 0. -1.
       -1   -1    0    0    0  501  0.00000000000E+00  0.00000000000E+00 -0.15018286513E+04  0.15018286513E+04  0.50400001928E-02 0.  1.
    10030    2    1    2    0    0  0.00000000000E+00  0.00000000000E+00 -0.63025619683E+03  0.23734011058E+04  0.22881892263E+04 0.  0.
        3    1    3    3  502    0 -0.81930583890E+03 -0.61394481289E+03  0.21453718429E+03  0.10460480412E+04  0.10100000352E+00 0. -1.
       -3    1    3    3    0  502  0.81930583890E+03  0.61394481289E+03 -0.84479338112E+03  0.13273530645E+04  0.10100000352E+00 0.  1.
</event>
<event>
 5   0  0.2994157E-05  0.2291024E+04  0.7818609E-02  0.8481469E-01
        2   -1    0    0  501    0  0.00000000000E+00  0.00000000000E+00  0.15284733932E+04  0.15284733932E+04  0.25500000920E-02 0.  1.
       -2   -1    0    0    0  501  0.00000000000E+00  0.00000000000E+00 -0.85850197692E+03  0.85850197692E+03  0.25500000920E-02 0. -1.
    10030    2    1    2    0    0  0.00000000000E+00  0.00000000000E+00  0.66997141628E+03  0.23869753701E+04  0.22910237273E+04 0.  0.
        4    1    3    3  502    0  0.67442423607E+03 -0.91185558695E+03  0.50255432508E+03  0.12405205054E+04  0.12699999809E+01 0. -1.
       -4    1    3    3    0  502 -0.67442423607E+03  0.91185558695E+03  0.16741709121E+03  0.11464548648E+04  0.12699999809E+01 0.  1.
</event>
<event>
 5   0  0.2938972E-05  0.2302505E+04  0.7818609E-02  0.8476934E-01
       -2   -1    0    0    0  501  0.00000000000E+00  0.00000000000E+00  0.17514392975E+04  0.17514392975E+04  0.25500000920E-02 0. -1.
        2   -1    0    0  501    0  0.00000000000E+00  0.00000000000E+00 -0.75673886635E+03  0.75673886635E+03  0.25500000920E-02 0.  1.
    10030    2    1    2    0    0  0.00000000000E+00  0.00000000000E+00  0.99470043119E+03  0.25081781639E+04  0.23025048869E+04 0.  0.
        2    1    3    3  502    0  0.79478348252E+03 -0.68078431102E+03 -0.25337953988E+02  0.10467999208E+04  0.25500000920E-02 0.  1.
       -2    1    3    3    0  502 -0.79478348252E+03  0.68078431102E+03  0.10200383852E+04  0.14613782431E+04  0.25500000920E-02 0. -1.
</event>
<event>
 5   0  0.2816178E-05  0.2259796E+04  0.7818609E-02  0.8493944E-01
        2   -1    0    0  501    0  0.00000000000E+00  0.00000000000E+00  0.15268654733E+04  0.15268654733E+04  0.25500000920E-02 0. -1.
       -2   -1    0    0    0  501  0.00000000000E+00  0.00000000000E+00 -0.83613746294E+03  0.83613746294E+03  0.25500000920E-02 0.  1.
    10030    2    1    2    0    0  0.00000000000E+00  0.00000000000E+00  0.69072801034E+03  0.23630029362E+04  0.22597959404E+04 0.  0.
        1    1    3    3  502    0  0.45798093967E+03  0.10329157255E+04  0.34240901026E+03  0.11806376953E+04  0.50400001928E-02 0. -1.
       -1    1    3    3    0  502 -0.45798093967E+03 -0.10329157255E+04  0.34831900008E+03  0.11823652410E+04  0.50400001928E-02 0.  1.
</event>
<event>
 5   0  0.2871888E-05  0.2269012E+04  0.7818609E-02  0.8490240E-01
        2   -1    0    0  501    0  0.00000000000E+00  0.00000000000E+00  0.14172573530E+04  0.14172573530E+04  0.25500000920E-02 0. -1.
       -2   -1    0    0    0  501  0.00000000000E+00  0.00000000000E+00 -0.90816516003E+03  0.90816516004E+03  0.25500000920E-02 0.  1.
    10030    2    1    2    0    0  0.00000000000E+00  0.00000000000E+00  0.50909219297E+03  0.23254225130E+04  0.22690119002E+04 0.  0.
        3    1    3    3  502    0  0.11342368310E+04  0.51015611296E+01  0.22976805489E+03  0.11572867337E+04  0.10100000352E+00 0.  1.
       -3    1    3    3    0  502 -0.11342368310E+04 -0.51015611296E+01  0.27932413808E+03  0.11681357794E+04  0.10100000352E+00 0. -1.
</event>
<event>
 5   0  0.2938972E-05  0.2278497E+04  0.7818609E-02  0.8486448E-01
        2   -1    0    0  501    0  0.00000000000E+00  0.00000000000E+00  0.18406161159E+04  0.18406161159E+04  0.25500000920E-02 0.  1.
       -2   -1    0    0    0  501  0.00000000000E+00  0.00000000000E+00 -0.70513727207E+03  0.70513727208E+03  0.25500000920E-02 0. -1.
    10030    2    1    2    0    0  0.00000000000E+00  0.00000000000E+00  0.11354788438E+04  0.25457533880E+04  0.22784968965E+04 0.  0.
        2    1    3    3  502    0 -0.33911057875E+03  0.16747629505E+03 -0.63294620523E+03  0.73733655324E+03  0.25500000920E-02 0. -1.
       -2    1    3    3    0  502  0.33911057875E+03 -0.16747629505E+03  0.17684250490E+04  0.18084168347E+04  0.25500000920E-02 0.  1.
</event>
<event>
 5   0  0.1303224E-05  0.2289981E+04  0.7818609E-02  0.8481882E-01
       -1   -1    0    0    0  501  0.00000000000E+00  0.00000000000E+00  0.11481731172E+04  0.11481731172E+04  0.50400001928E-02 0. -1.
        1   -1    0    0  501    0  0.00000000000E+00  0.00000000000E+00 -0.11418166020E+04  0.11418166020E+04  0.50400001928E-02 0.  1.
    10030    2    1    2    0    0  0.00000000000E+00  0.00000000000E+00  0.63565151922E+01  0.22899897192E+04  0.22899808970E+04 0.  0.
        2    1    3    3  502    0 -0.25096298605E+03  0.33234229679E+03  0.10697513069E+04  0.11479554352E+04  0.25500000920E-02 0. -1.
       -2    1    3    3    0  502  0.25096298605E+03 -0.33234229679E+03 -0.10633947917E+04  0.11420342839E+04  0.25500000920E-02 0.  1.
</event>
<event>
 5   0  0.1303224E-05  0.2249685E+04  0.7818609E-02  0.8498028E-01
        1   -1    0    0  501    0  0.00000000000E+00  0.00000000000E+00  0.13355478967E+04  0.13355478967E+04  0.50400001928E-02 0.  1.
       -1   -1    0    0    0  501  0.00000000000E+00  0.00000000000E+00 -0.94737943266E+03  0.94737943267E+03  0.50400001928E-02 0. -1.
    10030    2    1    2    0    0  0.00000000000E+00  0.00000000000E+00  0.38816846406E+03  0.22829273294E+04  0.22496849635E+04 0.  0.
        2    1    3    3  502    0  0.10990545478E+04  0.90165125872E+02  0.41921819110E+03  0.11797434216E+04  0.25500000920E-02 0. -1.
       -2    1    3    3    0  502 -0.10990545478E+04 -0.90165125872E+02 -0.31049727048E+02  0.11031839078E+04  0.25500000920E-02 0.  1.
</event>
<event>
 5   0  0.1284837E-05  0.2273884E+04  0.7818609E-02  0.8488290E-01
        1   -1    0    0  501    0  0.00000000000E+00  0.00000000000E+00  0.16915389636E+04  0.16915389636E+04  0.50400001928E-02 0. -1.
       -1   -1    0    0    0  501  0.00000000000E+00  0.00000000000E+00 -0.76417789565E+03  0.76417789567E+03  0.50400001928E-02 0.  1.
    10030    2    1    2    0    0  0.00000000000E+00  0.00000000000E+00  0.92736106799E+03  0.24557168593E+04  0.22738836256E+04 0.  0.
        4    1    3    3  502    0  0.45979405098E+03 -0.17258496431E+03 -0.64371325845E+03  0.80966938390E+03  0.12699999809E+01 0.  1.
       -4    1    3    3    0  502 -0.45979405098E+03  0.17258496431E+03  0.15710743264E+04  0.16460474754E+04  0.12699999809E+01 0. -1.
</event>
<event>
 5   0  0.1308224E-05  0.2286358E+04  0.7818609E-02  0.8483319E-01
       -1   -1    0    0    0  501  0.00000000000E+00  0.00000000000E+00  0.10989851693E+04  0.10989851693E+04  0.50400001928E-02 0.  1.
        1   -1    0    0  501    0  0.00000000000E+00  0.00000000000E+00 -0.11891504870E+04  0.11891504870E+04  0.50400001928E-02 0. -1.
    10030    2    1    2    0    0  0.00000000000E+00  0.00000000000E+00 -0.90165317718E+02  0.22881356564E+04  0.22863584578E+04 0.  0.
        5    1    3    3  502    0 -0.84734060511E+03  0.53377734257E+03 -0.59681174718E+03  0.11658090341E+04  0.46999998093E+01 0. -1.
       -5    1    3    3    0  502  0.84734060511E+03 -0.53377734257E+03  0.50664642946E+03  0.11223266222E+04  0.46999998093E+01 0.  1.
</event>
<event>
 5   0  0.1308224E-05  0.2293129E+04  0.7818609E-02  0.8480635E-01
       -1   -1    0    0    0  501  0.00000000000E+00  0.00000000000E+00  0.72829194014E+03  0.72829194016E+03  0.50400001928E-02 0.  1.
        1   -1    0    0  501    0  0.00000000000E+00  0.00000000000E+00 -0.18050597464E+04  0.18050597464E+04  0.50400001928E-02 0. -1.
    10030    2    1    2    0    0  0.00000000000E+00  0.00000000000E+00 -0.10767678063E+04  0.25333516866E+04  0.22931292722E+04 0.  0.
        5    1    3    3  502    0  0.70784459533E+02  0.17098172466E+03  0.71167403621E+03  0.73535516160E+03  0.46999998093E+01 0.  1.
       -5    1    3    3    0  502 -0.70784459533E+02 -0.17098172466E+03 -0.17884418425E+04  0.17979965250E+04  0.46999998093E+01 0. -1.
</event>
<event>
 5   0  0.2871888E-05  0.2295060E+04  0.7818609E-02  0.8479871E-01
       -2   -1    0    0    0  501  0.00000000000E+00  0.00000000000E+00  0.87119466301E+03  0.87119466301E+03  0.25500000920E-02 0.  1.
        2   -1    0    0  501    0  0.00000000000E+00  0.00000000000E+00 -0.15115165698E+04  0.15115165698E+04  0.25500000920E-02 0. -1.
    10030    2    1    2    0    0  0.00000000000E+00  0.00000000000E+00 -0.64032190675E+03  0.23827112328E+04  0.22950600590E+04 0.  0.
        3    1    3    3  502    0  0.96906496622E+03  0.60715750886E+03 -0.41918725075E+03  0.12179676148E+04  0.10100000352E+00 0. -1.
       -3    1    3    3    0  502 -0.96906496622E+03 -0.60715750886E+03 -0.22113465600E+03  0.11647436180E+04  0.10100000352E+00 0.  1.
</event>
<event>
 5   0  0.2871888E-05  0.2282516E+04  0.7818609E-02  0.8484847E-01
        2   -1    0    0  501    0  0.00000000000E+00  0.00000000000E+00  0.25772020949E+04  0.25772020949E+04  0.25500000920E-02 0.  1.
       -2   -1    0    0    0  501  0.00000000000E+00  0.00000000000E+00 -0.50538139960E+03  0.50538139961E+03  0.25500000920E-02 0. -1.
    10030    2    1    2    0    0  0.00000000000E+00  0.00000000000E+00  0.20718206953E+04  0.30825834946E+04  0.22825161571E+04 0.  0.
        3    1    3    3  502    0  0.47367577024E+03 -0.61556863912E+03 -0.93350839870E+02  0.78230932136E+03  0.10100000352E+00 0. -1.
       -3    1    3    3    0  502 -0.47367577024E+03  0.61556863912E+03  0.21651715352E+04  0.23002741732E+04  0.10100000352E+00 0.  1.
</event>
<event>
 5   0  0.1017200E-05  0.2071320E+04  0.7818609E-02  0.8573984E-01
        3   -1    0    0  501    0  0.00000000000E+00  0.00000000000E+00  0.92079802887E+03  0.92079803441E+03  0.10100000352E+00 0.  1.
       -3   -1    0    0    0  501  0.00000000000E+00  0.00000000000E+00 -0.11648495245E+04  0.11648495289E+04  0.10100000352E+00 0. -1.
    10030    2    1    2    0    0  0.00000000000E+00  0.00000000000E+00 -0.24405149562E+03  0.20856475633E+04  0.20713195373E+04 0.  0.
        2    1    3    3  502    0  0.61238191280E+03  0.14848698597E+03  0.70556669331E+03  0.94598327197E+03  0.25500000920E-02 0.  1.
       -2    1    3    3    0  502 -0.61238191280E+03 -0.14848698597E+03 -0.94961818893E+03  0.11396642913E+04  0.25500000920E-02 0. -1.
</event>
<event>
 5   0  0.2816178E-05  0.2246027E+04  0.7818609E-02  0.8499511E-01
       -2   -1    0    0    0  501  0.00000000000E+00  0.00000000000E+00  0.15007594854E+04  0.15007594854E+04  0.25500000920E-02 0.  1.
        2   -1    0    0  501    0  0.00000000000E+00  0.00000000000E+00 -0.84034746054E+03  0.84034746055E+03  0.25500000920E-02 0. -1.
    10030    2    1    2    0    0  0.00000000000E+00  0.00000000000E+00  0.66041202485E+03  0.23411069459E+04  0.22460270902E+04 0.  0.
        1    1    3    3  502    0  0.11930144309E+03  0.95439402097E+03  0.93445202982E+03  0.13410075979E+04  0.50400001928E-02 0.  1.
       -1    1    3    3    0  502 -0.11930144309E+03 -0.95439402097E+03 -0.27404000497E+03  0.10000993480E+04  0.50400001928E-02 0. -1.
</event>
<event>
 5   0  0.1303224E-05  0.2256188E+04  0.7818609E-02  0.8495399E-01
       -1   -1    0    0    0  501  0.00000000000E+00  0.00000000000E+00  0.85373313290E+03  0.85373313291E+03  0.50400001928E-02 0.  1.
        1   -1    0    0  501    0  0.00000000000E+00  0.00000000000E+00 -0.14906247766E+04  0.14906247767E+04  0.50400001928E-02 0. -1.
    10030    2    1    2    0    0  0.00000000000E+00  0.00000000000E+00 -0.63689164375E+03  0.23443579096E+04  0.22561877232E+04 0.  0.
        2    1    3    3  502    0  0.72210551511E+03  0.83960373249E+03 -0.54184776509E+03  0.12328705541E+04  0.25500000920E-02 0. -1.
       -2    1    3    3    0  502 -0.72210551511E+03 -0.83960373249E+03 -0.95043878659E+02  0.11114873555E+04  0.25500000920E-02 0.  1.
</event>
<event>
 5   0  0.2871888E-05  0.2268405E+04  0.7818609E-02  0.8490484E-01
       -2   -1    0    0    0  501  0.00000000000E+00  0.00000000000E+00  0.54604383502E+03  0.54604383503E+03  0.25500000920E-02 0.  1.
        2   -1    0    0  501    0  0.00000000000E+00  0.00000000000E+00 -0.23558822258E+04  0.23558822258E+04  0.25500000920E-02 0. -1.
    10030    2    1    2    0    0  0.00000000000E+00  0.00000000000E+00 -0.18098383908E+04  0.29019260608E+04  0.22684046953E+04 0.  0.
        3    1    3    3  502    0  0.72939837267E+03  0.86814094551E+03 -0.87049090747E+03  0.14294912093E+04  0.10100000352E+00 0.  1.
       -3    1    3    3    0  502 -0.72939837267E+03 -0.86814094551E+03 -0.93934748331E+03  0.14724348515E+04  0.10100000352E+00 0. -1.
</event>
<event>
 5   0  0.2994157E-05  0.2295917E+04  0.7818609E-02  0.8479533E-01
        2   -1    0    0  501    0  0.00000000000E+00  0.00000000000E+00  0.11149125819E+04  0.11149125819E+04  0.25500000920E-02 0. -1.
       -2   -1    0    0    0  501  0.00000000000E+00  0.00000000000E+00 -0.11819843279E+04  0.11819843279E+04  0.25500000920E-02 0.  1.
    10030    2    1    2    0    0  0.00000000000E+00  0.00000000000E+00 -0.67071745964E+02  0.22968969099E+04  0.22959174191E+04 0.  0.
        4    1    3    3  502    0  0.73219815674E+03  0.39793358120E+03  0.75632125823E+03  0.11253838164E+04  0.12699999809E+01 0.  1.
       -4    1    3    3    0  502 -0.73219815674E+03 -0.39793358120E+03 -0.82339300419E+03  0.11715130934E+04  0.12699999809E+01 0. -1.
</event>
<event>
 5   0  0.2910126E-05  0.2289752E+04  0.7818609E-02  0.8481973E-01
       -2   -1    0    0    0  501  0.00000000000E+00  0.00000000000E+00  0.11624468933E+04  0.11624468933E+04  0.25500000920E-02 0.  1.
        2   -1    0    0  501    0  0.00000000000E+00  0.00000000000E+00 -0.11275709832E+04  0.11275709832E+04  0.25500000920E-02 0. -1.
    10030    2    1    2    0    0  0.00000000000E+00  0.00000000000E+00  0.34875910087E+02  0.22900178764E+04  0.22897522891E+04 0.  0.
        5    1    3    3  502    0 -0.57722454523E+03 -0.65820050157E+03  0.75529261196E+03  0.11562461224E+04  0.46999998093E+01 0.  1.
       -5    1    3    3    0  502  0.57722454523E+03  0.65820050157E+03 -0.72041670187E+03  0.11337717540E+04  0.46999998093E+01 0. -1.
</event>
<event>
 5   0  0.1327820E-05  0.2298401E+04  0.7818609E-02  0.8478552E-01
       -1   -1    0    0    0  501  0.00000000000E+00  0.00000000000E+00  0.78531281054E+03  0.78531281056E+03  0.50400001928E-02 0.  1.
        1   -1    0    0  501    0  0.00000000000E+00  0.00000000000E+00 -0.16817017824E+04  0.16817017824E+04  0.50400001928E-02 0. -1.
    10030    2    1    2    0    0  0.00000000000E+00  0.00000000000E+00 -0.89638897190E+03  0.24670145930E+04  0.22984011428E+04 0.  0.
        1    1    3    3  502    0  0.32661386669E+03  0.10253396470E+04 -0.15290546331E+02  0.10762117870E+04  0.50400001928E-02 0.  1.
       -1    1    3    3    0  502 -0.32661386669E+03 -0.10253396470E+04 -0.88109842557E+03  0.13908028060E+04  0.50400001928E-02 0. -1.
</event>
<event>
 5   0  0.1371753E-05  0.2270141E+04  0.7818609E-02  0.8489788E-01
       -1   -1    0    0    0  501  0.00000000000E+00  0.00000000000E+00  0.87199837544E+03  0.87199837546E+03  0.50400001928E-02 0.  1.
        1   -1    0    0  501    0  0.00000000000E+00  0.00000000000E+00 -0.14775084489E+04  0.14775084489E+04  0.50400001928E-02 0. -1.
    10030    2    1    2    0    0  0.00000000000E+00  0.00000000000E+00 -0.60551007345E+03  0.23495068244E+04  0.22701409359E+04 0.  0.
        3    1    3    3  502    0  0.62456467706E+03 -0.72261879098E+03 -0.93748729533E+03  0.13383353063E+04  0.10100000352E+00 0. -1.
       -3    1    3    3    0  502 -0.62456467706E+03  0.72261879098E+03  0.33197722188E+03  0.10111715181E+04  0.10100000352E+00 0.  1.
</event>
<event>
 5   0  0.1284837E-05  0.2289322E+04  0.7818609E-02  0.8482143E-01
       -1   -1    0    0    0  501  0.00000000000E+00  0.00000000000E+00  0.49993985930E+03  0.49993985933E+03  0.50400001928E-02 0.  1.
        1   -1    0    0  501    0  0.00000000000E+00  0.00000000000E+00 -0.26208122770E+04  0.26208122770E+04  0.50400001928E-02 0. -1.
    10030    2    1    2    0    0  0.00000000000E+00  0.00000000000E+00 -0.21208724177E+04  0.31207521363E+04  0.22893217520E+04 0.  0.
        4    1    3    3  502    0 -0.10375498711E+04  0.46798226922E+03 -0.89499244251E+03  0.14479399933E+04  0.12699999809E+01 0.  1.
       -4    1    3    3    0  502  0.10375498711E+04 -0.46798226922E+03 -0.12258799752E+04  0.16728121430E+04  0.12699999809E+01 0. -1.
</event>
<event>
 5   0  0.1308224E-05  0.2296285E+04  0.7818609E-02  0.8479387E-01
       -1   -1    0    0    0  501  0.00000000000E+00  0.00000000000E+00  0.93950588459E+03  0.93950588460E+03  0.50400001928E-02 0. -1.
        1   -1    0    0  501    0  0.00000000000E+00  0.00000000000E+00 -0.14031113040E+04  0.14031113041E+04  0.50400001928E-02 0.  1.
    10030    2    1    2    0    0  0.00000000000E+00  0.00000000000E+00 -0.46360541945E+03  0.23426171887E+04  0.22962851103E+04 0.  0.
        5    1    3    3  502    0 -0.53171815115E+03  0.73217704200E+03 -0.95274512611E+03  0.13139835533E+04  0.46999998093E+01 0.  1.
       -5    1    3    3    0  502  0.53171815115E+03 -0.73217704200E+03  0.48913970666E+03  0.10286336353E+04  0.46999998093E+01 0. -1.
</event>
<event>
 5   0  0.2871888E-05  0.2304121E+04  0.7818609E-02  0.8476298E-01
       -2   -1    0    0    0  501  0.00000000000E+00  0.00000000000E+00  0.62207299068E+03  0.62207299069E+03  0.25500000920E-02 0.  1.
        2   -1    0    0  501    0  0.00000000000E+00  0.00000000000E+00 -0.21335814201E+04  0.21335814201E+04  0.25500000920E-02 0. -1.
    10030    2    1    2    0    0  0.00000000000E+00  0.00000000000E+00 -0.15115084294E+04  0.27556544108E+04  0.23041209819E+04 0.  0.
        3    1    3    3  502    0 -0.11283321160E+04 -0.23239414657E+03 -0.76788968341E+03  0.13844836508E+04  0.10100000352E+00 0. -1.
       -3    1    3    3    0  502  0.11283321160E+04  0.23239414657E+03 -0.74361874597E+03  0.13711707599E+04  0.10100000352E+00 0.  1.
</event>
<event>
 5   0  0.1303224E-05  0.2307594E+04  0.7818609E-02  0.8474933E-01
       -1   -1    0    0    0  501  0.00000000000E+00  0.00000000000E+00  0.97249869638E+03  0.97249869639E+03  0.50400001928E-02 0. -1.
        1   -1    0    0  501    0  0.00000000000E+00  0.00000000000E+00 -0.13688937511E+04  0.13688937511E+04  0.50400001928E-02 0.  1.
    10030    2    1    2    0    0  0.00000000000E+00  0.00000000000E+00 -0.39639505471E+03  0.23413924475E+04  0.23075938884E+04 0.  0.
        2    1    3    3  502    0 -0.10307184814E+04 -0.38987613626E+03  0.14866236867E+03  0.11119732414E+04  0.25500000920E-02 0. -1.
       -2    1    3    3    0  502  0.10307184814E+04  0.38987613626E+03 -0.54505742339E+03  0.12294192061E+04  0.25500000920E-02 0.  1.
</event>
<event>
 5   0  0.1284837E-05  0.2227985E+04  0.7818609E-02  0.8506870E-01
       -1   -1    0    0    0  501  0.00000000000E+00  0.00000000000E+00  0.70200713930E+03  0.70200713931E+03  0.50400001928E-02 0.  1.
        1   -1    0    0  501    0  0.00000000000E+00  0.00000000000E+00 -0.17677588362E+04  0.17677588362E+04  0.50400001928E-02 0. -1.
    10030    2    1    2    0    0  0.00000000000E+00  0.00000000000E+00 -0.10657516969E+04  0.24697659755E+04  0.22279850301E+04 0.  0.
        4    1    3    3  502    0  0.25683713594E+03 -0.84637708630E+03 -0.12836133789E+04  0.15588407250E+04  0.12699999809E+01 0. -1.
       -4    1    3    3    0  502 -0.25683713594E+03  0.84637708630E+03  0.21786168199E+03  0.91092525049E+03  0.12699999809E+01 0.  1.
</event>
<event>
 5   0  0.1371753E-05  0.2286965E+04  0.7818609E-02  0.8483078E-01
       -1   -1    0    0    0  501  0.00000000000E+00  0.00000000000E+00  0.13100174604E+04  0.13100174605E+04  0.50400001928E-02 0. -1.
        1   -1    0    0  501    0  0.00000000000E+00  0.00000000000E+00 -0.99811810316E+03  0.99811810317E+03  0.50400001928E-02 0.  1.
    10030    2    1    2    0    0  0.00000000000E+00  0.00000000000E+00  0.31189935728E+03  0.23081355636E+04  0.22869649256E+04 0.  0.
        3    1    3    3  502    0 -0.52766189639E+03 -0.93937010094E+03  0.54252132176E+03  0.12063053752E+04  0.10100000352E+00 0. -1.
       -3    1    3    3    0  502  0.52766189639E+03  0.93937010094E+03 -0.23062196448E+03  0.11018301884E+04  0.10100000352E+00 0.  1.
</event>
<event>
 5   0  0.1284837E-05  0.2298037E+04  0.7818609E-02  0.8478696E-01
       -1   -1    0    0    0  501  0.00000000000E+00  0.00000000000E+00  0.13762795753E+04  0.13762795753E+04  0.50400001928E-02 0.  1.
        1   -1    0    0  501    0  0.00000000000E+00  0.00000000000E+00 -0.95928432760E+03  0.95928432762E+03  0.50400001928E-02 0. -1.
    10030    2    1    2    0    0  0.00000000000E+00  0.00000000000E+00  0.41699524766E+03  0.23355639029E+04  0.22980369248E+04 0.  0.
        4    1    3    3  502    0 -0.28508270492E+03 -0.10861950776E+04  0.45567677045E+03  0.12119137045E+04  0.12699999809E+01 0.  1.
       -4    1    3    3    0  502  0.28508270492E+03  0.10861950776E+04 -0.38681522791E+02  0.11236501984E+04  0.12699999809E+01 0. -1.
</event>
<event>
 5   0  0.2938972E-05  0.2292183E+04  0.7818609E-02  0.8481009E-01
        2   -1    0    0  501    0  0.00000000000E+00  0.00000000000E+00  0.78772176207E+03  0.78772176208E+03  0.25500000920E-02 0. -1.
       -2   -1    0    0    0  501  0.00000000000E+00  0.00000000000E+00 -0.16675001818E+04  0.16675001818E+04  0.25500000920E-02 0.  1.
    10030    2    1    2    0    0  0.00000000000E+00  0.00000000000E+00 -0.87977841975E+03  0.24552219439E+04  0.22921833971E+04 0.  0.
        2    1    3    3  502    0 -0.25792130093E+03  0.86907036146E+03 -0.11909932640E+04  0.14967537024E+04  0.25500000920E-02 0. -1.
       -2    1    3    3    0  502  0.25792130093E+03 -0.86907036146E+03  0.31121484429E+03  0.95846824150E+03  0.25500000920E-02 0.  1.
</event>
<event>
 5   0  0.2910126E-05  0.2302997E+04  0.7818609E-02  0.8476741E-01
       -2   -1    0    0    0  501  0.00000000000E+00  0.00000000000E+00  0.79674505307E+03  0.79674505307E+03  0.25500000920E-02 0.  1.
        2   -1    0    0  501    0  0.00000000000E+00  0.00000000000E+00 -0.16642065952E+04  0.16642065952E+04  0.25500000920E-02 0. -1.
    10030    2    1    2    0    0  0.00000000000E+00  0.00000000000E+00 -0.86746154211E+03  0.24609516483E+04  0.23029966322E+04 0.  0.
        5    1    3    3  502    0 -0.50093970089E+03  0.55634052033E+03 -0.13686500757E+04  0.15600257941E+04  0.46999998093E+01 0. -1.
       -5    1    3    3    0  502  0.50093970089E+03 -0.55634052033E+03  0.50118853360E+03  0.90092585416E+03  0.46999998093E+01 0.  1.
</event>
<event>
 5   0  0.2871888E-05  0.2325140E+04  0.7818609E-02  0.8468074E-01
       -2   -1    0    0    0  501  0.00000000000E+00  0.00000000000E+00  0.58364911492E+03  0.58364911492E+03  0.25500000920E-02 0. -1.
        2   -1    0    0  501    0  0.00000000000E+00  0.00000000000E+00 -0.23157227454E+04  0.23157227454E+04  0.25500000920E-02 0.  1.
    10030    2    1    2    0    0  0.00000000000E+00  0.00000000000E+00 -0.17320736305E+04  0.28993718604E+04  0.23251404523E+04 0.  0.
        3    1    3    3  502    0  0.75682144860E+03 -0.58798748424E+03 -0.45440556719E+02  0.95946487225E+03  0.10100000352E+00 0. -1.
       -3    1    3    3    0  502 -0.75682144860E+03  0.58798748424E+03 -0.16866330738E+04  0.19399069881E+04  0.10100000352E+00 0.  1.
</event>
<event>
 5   0  0.2910126E-05  0.2307181E+04  0.7818609E-02  0.8475095E-01
       -2   -1    0    0    0  501  0.00000000000E+00  0.00000000000E+00  0.10699972357E+04  0.10699972357E+04  0.25500000920E-02 0. -1.
        2   -1    0    0  501    0  0.00000000000E+00  0.00000000000E+00 -0.12437140221E+04  0.12437140221E+04  0.25500000920E-02 0.  1.
    10030    2    1    2    0    0  0.00000000000E+00  0.00000000000E+00 -0.17371678645E+03  0.23137112578E+04  0.23071805873E+04 0.  0.
        5    1    3    3  502    0  0.10760819784E+04 -0.66371169375E+01  0.32995255021E+03  0.11255608606E+04  0.46999998093E+01 0. -1.
       -5    1    3    3    0  502 -0.10760819784E+04  0.66371169375E+01 -0.50366933666E+03  0.11881503972E+04  0.46999998093E+01 0.  1.
</event>
<event>
 5   0  0.1284837E-05  0.2347928E+04  0.7818609E-02  0.8459260E-01
        1   -1    0    0  501    0  0.00000000000E+00  0.00000000000E+00  0.17225989607E+04  0.17225989607E+04  0.50400001928E-02 0.  1.
       -1   -1    0    0    0  501  0.00000000000E+00  0.00000000000E+00 -0.80006495793E+03  0.80006495795E+03  0.50400001928E-02 0. -1.
    10030    2    1    2    0    0  0.00000000000E+00  0.00000000000E+00  0.92253400277E+03  0.25226639187E+04  0.23479276523E+04 0.  0.
        4    1    3    3  502    0 -0.23906604882E+03 -0.92617322653E+03  0.11925369489E+04  0.15287561639E+04  0.12699999809E+01 0.  1.
       -4    1    3    3    0  502  0.23906604882E+03  0.92617322653E+03 -0.27000294610E+03  0.99390775480E+03  0.12699999809E+01 0. -1.
</event>
<event>
 5   0  0.1308224E-05  0.2172522E+04  0.7818609E-02  0.8529953E-01
        1   -1    0    0  501    0  0.00000000000E+00  0.00000000000E+00  0.10595046515E+04  0.10595046515E+04  0.50400001928E-02 0. -1.
       -1   -1    0    0    0  501  0.00000000000E+00  0.00000000000E+00 -0.11136931237E+04  0.11136931237E+04  0.50400001928E-02 0.  1.
    10030    2    1    2    0    0  0.00000000000E+00  0.00000000000E+00 -0.54188472209E+02  0.21731977752E+04  0.21725220780E+04 0.  0.
        5    1    3    3  502    0  0.16158166872E+03 -0.50030802629E+03 -0.97792877117E+03  0.11103078529E+04  0.46999998093E+01 0.  1.
       -5    1    3    3    0  502 -0.16158166872E+03  0.50030802629E+03  0.92374029896E+03  0.10628899222E+04  0.46999998093E+01 0. -1.
</event>
<event>
 5   0  0.1371753E-05  0.2296662E+04  0.7818609E-02  0.8479238E-01
       -1   -1    0    0    0  501  0.00000000000E+00  0.00000000000E+00  0.13226482535E+04  0.13226482535E+04  0.50400001928E-02 0.  1.
        1   -1    0    0  501    0  0.00000000000E+00  0.00000000000E+00 -0.99698780643E+03  0.99698780645E+03  0.50400001928E-02 0. -1.
    10030    2    1    2    0    0  0.00000000000E+00  0.00000000000E+00  0.32566044708E+03  0.23196360600E+04  0.22966620831E+04 0.  0.
        3    1    3    3  502    0  0.26859760260E+03 -0.76899696009E+03 -0.65468808983E+03  0.10450442583E+04  0.10100000352E+00 0. -1.
       -3    1    3    3    0  502 -0.26859760260E+03  0.76899696009E+03  0.98034853690E+03  0.12745918016E+04  0.10100000352E+00 0.  1.
</event>
<event>
 5   0  0.1308224E-05  0.2238305E+04  0.7818609E-02  0.8502652E-01
       -1   -1    0    0    0  501  0.00000000000E+00  0.00000000000E+00  0.74295000629E+03  0.74295000630E+03  0.50400001928E-02 0. -1.
        1   -1    0    0  501    0  0.00000000000E+00  0.00000000000E+00 -0.16858504216E+04  0.16858504216E+04  0.50400001928E-02 0.  1.
    10030    2    1    2    0    0  0.00000000000E+00  0.00000000000E+00 -0.94290041530E+03  0.24288004279E+04  0.22383052351E+04 0.  0.
        5    1    3    3  502    0 -0.61558349361E+03 -0.41529052100E+03 -0.13800101705E+04  0.15671181880E+04  0.46999998093E+01 0.  1.
       -5    1    3    3    0  502  0.61558349361E+03  0.41529052100E+03  0.43710975522E+03  0.86168223989E+03  0.46999998093E+01 0. -1.
</event>
<event>
 5   0  0.2938972E-05  0.2275060E+04  0.7818609E-02  0.8487820E-01
        2   -1    0    0  501    0  0.00000000000E+00  0.00000000000E+00  0.12558760117E+04  0.12558760117E+04  0.25500000920E-02 0.  1.
       -2   -1    0    0    0  501  0.00000000000E+00  0.00000000000E+00 -0.10303360367E+04  0.10303360367E+04  0.25500000920E-02 0. -1.
    10030    2    1    2    0    0  0.00000000000E+00  0.00000000000E+00  0.22553997506E+03  0.22862120484E+04  0.22750598343E+04 0.  0.
        2    1    3    3  502    0  0.90840793749E+03  0.10674819835E+03  0.79237957265E+03  0.12101510426E+04  0.25500000920E-02 0.  1.
       -2    1    3    3    0  502 -0.90840793749E+03 -0.10674819835E+03 -0.56683959759E+03  0.10760610058E+04  0.25500000920E-02 0. -1.
</event>
<event>
 5   0  0.2871888E-05  0.2270848E+04  0.7818609E-02  0.8489505E-01
       -2   -1    0    0    0  501  0.00000000000E+00  0.00000000000E+00  0.55824504496E+03  0.55824504496E+03  0.25500000920E-02 0. -1.
        2   -1    0    0  501    0  0.00000000000E+00  0.00000000000E+00 -0.23093587844E+04  0.23093587844E+04  0.25500000920E-02 0.  1.
    10030    2    1    2    0    0  0.00000000000E+00  0.00000000000E+00 -0.17511137395E+04  0.28676038294E+04  0.22708483863E+04 0.  0.
        3    1    3    3  502    0  0.13068654755E+03  0.10889573164E+04 -0.50462957484E+03  0.12072936796E+04  0.10100000352E+00 0.  1.
       -3    1    3    3    0  502 -0.13068654755E+03 -0.10889573164E+04 -0.12464841646E+04  0.16603101498E+04  0.10100000352E+00 0. -1.
</event>
<event>
 5   0  0.2871888E-05  0.2299767E+04  0.7818609E-02  0.8478013E-01
       -2   -1    0    0    0  501  0.00000000000E+00  0.00000000000E+00  0.10252972737E+04  0.10252972737E+04  0.25500000920E-02 0.  1.
        2   -1    0    0  501    0  0.00000000000E+00  0.00000000000E+00 -0.12896089662E+04  0.12896089662E+04  0.25500000920E-02 0. -1.
    10030    2    1    2    0    0  0.00000000000E+00  0.00000000000E+00 -0.26431169247E+03  0.23149062399E+04  0.22997674293E+04 0.  0.
        3    1    3    3  502    0 -0.45875757373E+03  0.10475974923E+04 -0.25258256646E+03  0.11712032191E+04  0.10100000352E+00 0.  1.
       -3    1    3    3    0  502  0.45875757373E+03 -0.10475974923E+04 -0.11729126011E+02  0.11437030209E+04  0.10100000352E+00 0. -1.
</event>
<event>
 5   0  0.1303224E-05  0.2200930E+04  0.7818609E-02  0.8518041E-01
       -1   -1    0    0    0  501  0.00000000000E+00  0.00000000000E+00  0.84218212220E+03  0.84218212222E+03  0.50400001928E-02 0.  1.
        1   -1    0    0  501    0  0.00000000000E+00  0.00000000000E+00 -0.14379592662E+04  0.14379592662E+04  0.50400001928E-02 0. -1.
    10030    2    1    2    0    0  0.00000000000E+00  0.00000000000E+00 -0.59577714395E+03  0.22801413884E+04  0.22009303364E+04 0.  0.
        2    1    3    3  502    0  0.10266293666E+04 -0.35021885689E+03 -0.10573415506E+03  0.10898627508E+04  0.25500000920E-02 0. -1.
       -2    1    3    3    0  502 -0.10266293666E+04  0.35021885689E+03 -0.49004298889E+03  0.11902786376E+04  0.25500000920E-02 0.  1.
</event>
<event>
 5   0  0.2994157E-05  0.2307820E+04  0.7818609E-02  0.8474844E-01
       -2   -1    0    0    0  501  0.00000000000E+00  0.00000000000E+00  0.12020227839E+04  0.12020227839E+04  0.25500000920E-02 0.  1.
        2   -1    0    0  501    0  0.00000000000E+00  0.00000000000E+00 -0.11077232959E+04  0.11077232959E+04  0.25500000920E-02 0. -1.
    10030    2    1    2    0    0  0.00000000000E+00  0.00000000000E+00  0.94299488070E+02  0.23097460798E+04  0.23078203049E+04 0.  0.
        4    1    3    3  502    0 -0.51329844045E+03  0.29195423617E+03  0.10393368958E+04  0.11953808435E+04  0.12699999809E+01 0.  1.
       -4    1    3    3    0  502  0.51329844045E+03 -0.29195423617E+03 -0.94503740777E+03  0.11143652363E+04  0.12699999809E+01 0. -1.
</event>
<event>
 5   0  0.2871888E-05  0.2304360E+04  0.7818609E-02  0.8476204E-01
        2   -1    0    0  501    0  0.00000000000E+00  0.00000000000E+00  0.89216311179E+03  0.89216311179E+03  0.25500000920E-02 0.  1.
       -2   -1    0    0    0  501  0.00000000000E+00  0.00000000000E+00 -0.14879777035E+04  0.14879777035E+04  0.25500000920E-02 0. -1.
    10030    2    1    2    0    0  0.00000000000E+00  0.00000000000E+00 -0.59581459172E+03  0.23801408153E+04  0.23043600571E+04 0.  0.
        3    1    3    3  502    0 -0.93268156754E+03  0.48242667362E+03 -0.78772654289E+03  0.13126856129E+04  0.10100000352E+00 0. -1.
       -3    1    3    3    0  502  0.93268156754E+03 -0.48242667362E+03  0.19191195117E+03  0.10674552024E+04  0.10100000352E+00 0.  1.
</event>
<event>
 5   0  0.2871888E-05  0.2337068E+04  0.7818609E-02  0.8463447E-01
        2   -1    0    0  501    0  0.00000000000E+00  0.00000000000E+00  0.12598960461E+04  0.12598960461E+04  0.25500000920E-02 0.  1.
       -2   -1    0    0    0  501  0.00000000000E+00  0.00000000000E+00 -0.10837972457E+04  0.10837972457E+04  0.25500000920E-02 0. -1.
    10030    2    1    2    0    0  0.00000000000E+00  0.00000000000E+00  0.17609880038E+03  0.23436932918E+04  0.23370681330E+04 0.  0.
        3    1    3    3  502    0  0.10152809936E+04  0.55292258680E+03 -0.82588686851E+02  0.11590253597E+04  0.10100000352E+00 0. -1.
       -3    1    3    3    0  502 -0.10152809936E+04 -0.55292258680E+03  0.25868748723E+03  0.11846679321E+04  0.10100000352E+00 0.  1.
</event>
<event>
 5   0  0.2871888E-05  0.2342599E+04  0.7818609E-02  0.8461312E-01
        2   -1    0    0  501    0  0.00000000000E+00  0.00000000000E+00  0.10828142575E+04  0.10828142575E+04  0.25500000920E-02 0. -1.
       -2   -1    0    0    0  501  0.00000000000E+00  0.00000000000E+00 -0.12670157325E+04  0.12670157325E+04  0.25500000920E-02 0.  1.
    10030    2    1    2    0    0  0.00000000000E+00  0.00000000000E+00 -0.18420147498E+03  0.23498299900E+04  0.23425991545E+04 0.  0.
        3    1    3    3  502    0  0.10911151962E+04 -0.26066341087E+03 -0.42998598914E+03  0.12014015757E+04  0.10100000352E+00 0.  1.
       -3    1    3    3    0  502 -0.10911151962E+04  0.26066341087E+03  0.24578451417E+03  0.11484284143E+04  0.10100000352E+00 0. -1.
</event>
<event>
 5   0  0.2910126E-05  0.2321737E+04  0.7818609E-02  0.8469399E-01
       -2   -1    0    0    0  501  0.00000000000E+00  0.00000000000E+00  0.71789631019E+03  0.71789631020E+03  0.25500000920E-02 0. -1.
        2   -1    0    0  501    0  0.00000000000E+00  0.00000000000E+00 -0.18771737459E+04  0.18771737459E+04  0.25500000920E-02 0.  1.
    10030    2    1    2    0    0  0.00000000000E+00  0.00000000000E+00 -0.11592774357E+04  0.25950700561E+04  0.23217373717E+04 0.  0.
        5    1    3    3  502    0 -0.62960655948E+02  0.11293098392E+04 -0.28755174088E+03  0.11670530625E+04  0.46999998093E+01 0. -1.
       -5    1    3    3    0  502  0.62960655948E+02 -0.11293098392E+04 -0.87172569484E+03  0.14280169936E+04  0.46999998093E+01 0.  1.
</event>
<event>
 5   0  0.1371753E-05  0.2269877E+04  0.7818609E-02  0.8489894E-01
        1   -1    0    0  501    0  0.00000000000E+00  0.00000000000E+00  0.68077766664E+03  0.68077766666E+03  0.50400001928E-02 0. -1.
       -1   -1    0    0    0  501  0.00000000000E+00  0.00000000000E+00 -0.18920794356E+04  0.18920794356E+04  0.50400001928E-02 0.  1.
    10030    2    1    2    0    0  0.00000000000E+00  0.00000000000E+00 -0.12113017690E+04  0.25728571023E+04  0.22698770216E+04 0.  0.
        3    1    3    3  502    0  0.52964508990E+01 -0.11331950976E+04 -0.67667425757E+03  0.13198663730E+04  0.10100000352E+00 0. -1.
       -3    1    3    3    0  502 -0.52964508990E+01  0.11331950976E+04 -0.53462751139E+03  0.12529907293E+04  0.10100000352E+00 0.  1.
</event>
<event>
 5   0  0.1303224E-05  0.2300399E+04  0.7818609E-02  0.8477764E-01
       -1   -1    0    0    0  501  0.00000000000E+00  0.00000000000E+00  0.10866133908E+04  0.10866133908E+04  0.50400001928E-02 0.  1.
        1   -1    0    0  501    0  0.00000000000E+00  0.00000000000E+00 -0.12175065644E+04  0.12175065644E+04  0.50400001928E-02 0. -1.
    10030    2    1    2    0    0  0.00000000000E+00  0.00000000000E+00 -0.13089317357E+03  0.23041199552E+04  0.23003990404E+04 0.  0.
        2    1    3    3  502    0  0.65157963616E+02 -0.27138992249E+03 -0.11830744034E+04  0.12155505313E+04  0.25500000920E-02 0. -1.
       -2    1    3    3    0  502 -0.65157963616E+02  0.27138992249E+03  0.10521812298E+04  0.10885694239E+04  0.25500000920E-02 0.  1.
</event>
<event>
 5   0  0.1284837E-05  0.2304285E+04  0.7818609E-02  0.8476233E-01
       -1   -1    0    0    0  501  0.00000000000E+00  0.00000000000E+00  0.13122053072E+04  0.13122053072E+04  0.50400001928E-02 0. -1.
        1   -1    0    0  501    0  0.00000000000E+00  0.00000000000E+00 -0.10116043680E+04  0.10116043680E+04  0.50400001928E-02 0.  1.
    10030    2    1    2    0    0  0.00000000000E+00  0.00000000000E+00  0.30060093922E+03  0.23238096752E+04  0.23042852432E+04 0.  0.
        4    1    3    3  502    0 -0.12238485697E+03  0.48478693767E+03  0.11970909678E+04  0.12973144670E+04  0.12699999809E+01 0. -1.
       -4    1    3    3    0  502  0.12238485697E+03 -0.48478693767E+03 -0.89649002862E+03  0.10264952082E+04  0.12699999809E+01 0.  1.
</event>
<event>
 5   0  0.2871888E-05  0.2291868E+04  0.7818609E-02  0.8481135E-01
        2   -1    0    0  501    0  0.00000000000E+00  0.00000000000E+00  0.16621268538E+04  0.16621268538E+04  0.25500000920E-02 0.  1.
       -2   -1    0    0    0  501  0.00000000000E+00  0.00000000000E+00 -0.79005052621E+03  0.79005052621E+03  0.25500000920E-02 0. -1.
    10030    2    1    2    0    0  0.00000000000E+00  0.00000000000E+00  0.87207632759E+03  0.24521773800E+04  0.22918675315E+04 0.  0.
        3    1    3    3  502    0  0.10292261231E+04  0.24995515610E+02  0.97445981727E+03  0.14175694459E+04  0.10100000352E+00 0. -1.
       -3    1    3    3    0  502 -0.10292261231E+04 -0.24995515610E+02 -0.10238348968E+03  0.10346079341E+04  0.10100000352E+00 0.  1.
</event>
<event>
 5   0  0.2871888E-05  0.2287291E+04  0.7818609E-02  0.8482949E-01
       -2   -1    0    0    0  501  0.00000000000E+00  0.00000000000E+00  0.10499423885E+04  0.10499423885E+04  0.25500000920E-02 0. -1.
        2   -1    0    0  501    0  0.00000000000E+00  0.00000000000E+00 -0.12457111113E+04  0.12457111113E+04  0.25500000920E-02 0.  1.
    10030    2    1    2    0    0  0.00000000000E+00  0.00000000000E+00 -0.19576872285E+03  0.22956534998E+04  0.22872908863E+04 0.  0.
        3    1    3    3  502    0  0.55637695514E+02 -0.50259482006E+03 -0.11274162909E+04  0.12356231665E+04  0.10100000352E+00 0.  1.
       -3    1    3    3    0  502 -0.55637695514E+02  0.50259482006E+03  0.93164756806E+03  0.10600303333E+04  0.10100000352E+00 0. -1.
</event>
<event>
 5   0  0.2816178E-05  0.2312872E+04  0.7818609E-02  0.8472863E-01
       -2   -1    0    0    0  501  0.00000000000E+00  0.00000000000E+00  0.10948974764E+04  0.10948974764E+04  0.25500000920E-02 0. -1.
        2   -1    0    0  501    0  0.00000000000E+00  0.00000000000E+00 -0.12214336073E+04  0.12214336073E+04  0.25500000920E-02 0.  1.
    10030    2    1    2    0    0  0.00000000000E+00  0.00000000000E+00 -0.12653613093E+03  0.23163310838E+04  0.23128723046E+04 0.  0.
        1    1    3    3  502    0 -0.33329897675E+03 -0.82274243107E+03 -0.80555880299E+03  0.11987152710E+04  0.50400001928E-02 0.  1.
       -1    1    3    3    0  502  0.33329897675E+03  0.82274243107E+03  0.67902267206E+03  0.11176158128E+04  0.50400001928E-02 0. -1.
</event>
<event>
 5   0  0.1327820E-05  0.2313649E+04  0.7818609E-02  0.8472559E-01
        1   -1    0    0  501    0  0.00000000000E+00  0.00000000000E+00  0.15903086107E+04  0.15903086107E+04  0.50400001928E-02 0.  1.
       -1   -1    0    0    0  501  0.00000000000E+00  0.00000000000E+00 -0.84149868791E+03  0.84149868792E+03  0.50400001928E-02 0. -1.
    10030    2    1    2    0    0  0.00000000000E+00  0.00000000000E+00  0.74880992281E+03  0.24318072987E+04  0.23136487282E+04 0.  0.
        1    1    3    3  502    0 -0.74945150696E+03 -0.68006666486E+03 -0.21463938258E+03  0.10345232209E+04  0.50400001928E-02 0. -1.
       -1    1    3    3    0  502  0.74945150696E+03  0.68006666486E+03  0.96344930539E+03  0.13972840778E+04  0.50400001928E-02 0.  1.
</event>
<event>
 5   0  0.2938972E-05  0.2311150E+04  0.7818609E-02  0.8473538E-01
       -2   -1    0    0    0  501  0.00000000000E+00  0.00000000000E+00  0.60651951396E+03  0.60651951396E+03  0.25500000920E-02 0.  1.
        2   -1    0    0  501    0  0.00000000000E+00  0.00000000000E+00 -0.22016664057E+04  0.22016664057E+04  0.25500000920E-02 0. -1.
    10030    2    1    2    0    0  0.00000000000E+00  0.00000000000E+00 -0.15951468917E+04  0.28081859196E+04  0.23111500499E+04 0.  0.
        2    1    3    3  502    0  0.58670580429E+03  0.19681135330E+03  0.38821255889E+03  0.73052542766E+03  0.25500000920E-02 0.  1.
       -2    1    3    3    0  502 -0.58670580429E+03 -0.19681135330E+03 -0.19833594506E+04  0.20776604920E+04  0.25500000920E-02 0. -1.
</event>
<event>
 5   0  0.2871888E-05  0.2285365E+04  0.7818609E-02  0.8483714E-01
        2   -1    0    0  501    0  0.00000000000E+00  0.00000000000E+00  0.10645102707E+04  0.10645102707E+04  0.25500000920E-02 0. -1.
       -2   -1    0    0    0  501  0.00000000000E+00  0.00000000000E+00 -0.12265954003E+04  0.12265954003E+04  0.25500000920E-02 0.  1.
    10030    2    1    2    0    0  0.00000000000E+00  0.00000000000E+00 -0.16208512958E+03  0.22911056711E+04  0.22853650927E+04 0.  0.
        3    1    3    3  502    0  0.99477326927E+03 -0.99614870725E+02  0.47372473425E+03  0.11063056150E+04  0.10100000352E+00 0. -1.
       -3    1    3    3    0  502 -0.99477326927E+03  0.99614870725E+02 -0.63580986382E+03  0.11848000561E+04  0.10100000352E+00 0.  1.
</event>
<event>
 5   0  0.1327820E-05  0.2302933E+04  0.7818609E-02  0.8476765E-01
        1   -1    0    0  501    0  0.00000000000E+00  0.00000000000E+00  0.12692415063E+04  0.12692415063E+04  0.50400001928E-02 0.  1.
       -1   -1    0    0    0  501  0.00000000000E+00  0.00000000000E+00 -0.10446203072E+04  0.10446203072E+04  0.50400001928E-02 0. -1.
    10030    2    1    2    0    0  0.00000000000E+00  0.00000000000E+00  0.22462119912E+03  0.23138618135E+04  0.23029333053E+04 0.  0.
        1    1    3    3  502    0  0.97534453974E+03 -0.41149863835E+03  0.56750282850E+03  0.12011192951E+04  0.50400001928E-02 0.  1.
       -1    1    3    3    0  502 -0.97534453974E+03  0.41149863835E+03 -0.34288162939E+03  0.11127425184E+04  0.50400001928E-02 0. -1.
</event>
<event>
 5   0  0.2994157E-05  0.2278998E+04  0.7818609E-02  0.8486248E-01
       -2   -1    0    0    0  501  0.00000000000E+00  0.00000000000E+00  0.69520314315E+03  0.69520314315E+03  0.25500000920E-02 0.  1.
        2   -1    0    0  501    0  0.00000000000E+00  0.00000000000E+00 -0.18677385178E+04  0.18677385178E+04  0.25500000920E-02 0. -1.
    10030    2    1    2    0    0  0.00000000000E+00  0.00000000000E+00 -0.11725353746E+04  0.25629416609E+04  0.22789977518E+04 0.  0.
        4    1    3    3  502    0  0.11241805181E+04  0.82278872098E+02 -0.39840896525E+03  0.11955262300E+04  0.12699999809E+01 0.  1.
       -4    1    3    3    0  502 -0.11241805181E+04 -0.82278872098E+02 -0.77412640937E+03  0.13674154309E+04  0.12699999809E+01 0. -1.
</event>
<event>
 5   0  0.1017200E-05  0.2306852E+04  0.7818609E-02  0.8475224E-01
       -3   -1    0    0    0  501  0.00000000000E+00  0.00000000000E+00  0.14746750146E+04  0.14746750180E+04  0.10100000352E+00 0.  1.
        3   -1    0    0  501    0  0.00000000000E+00  0.00000000000E+00 -0.90215940534E+03  0.90215941100E+03  0.10100000352E+00 0. -1.
    10030    2    1    2    0    0  0.00000000000E+00  0.00000000000E+00  0.57251560921E+03  0.23768344290E+04  0.23068523533E+04 0.  0.
        4    1    3    3  502    0  0.56385230874E+03  0.36826658979E+03 -0.67854701018E+03  0.95602163425E+03  0.12699999809E+01 0. -1.
       -4    1    3    3    0  502 -0.56385230874E+03 -0.36826658979E+03  0.12510626194E+04  0.14208127948E+04  0.12699999809E+01 0.  1.
</event>
<event>
 5   0  0.2910126E-05  0.2290812E+04  0.7818609E-02  0.8481553E-01
        2   -1    0    0  501    0  0.00000000000E+00  0.00000000000E+00  0.22517312267E+04  0.22517312267E+04  0.25500000920E-02 0. -1.
       -2   -1    0    0    0  501  0.00000000000E+00  0.00000000000E+00 -0.58264278733E+03  0.58264278734E+03  0.25500000920E-02 0.  1.
    10030    2    1    2    0    0  0.00000000000E+00  0.00000000000E+00  0.16690884394E+04  0.28343740141E+04  0.22908120467E+04 0.  0.
        5    1    3    3  502    0  0.44409589832E+03 -0.10546983437E+04  0.77490909572E+03  0.13820694483E+04  0.46999998093E+01 0. -1.
       -5    1    3    3    0  502 -0.44409589832E+03  0.10546983437E+04  0.89417934366E+03  0.14523045658E+04  0.46999998093E+01 0.  1.
</event>
<event>
 5   0  0.2994157E-05  0.2286811E+04  0.7818609E-02  0.8483139E-01
        2   -1    0    0  501    0  0.00000000000E+00  0.00000000000E+00  0.96380988193E+03  0.96380988193E+03  0.25500000920E-02 0. -1.
       -2   -1    0    0    0  501  0.00000000000E+00  0.00000000000E+00 -0.13564672468E+04  0.13564672468E+04  0.25500000920E-02 0.  1.
    10030    2    1    2    0    0  0.00000000000E+00  0.00000000000E+00 -0.39265736483E+03  0.23202771287E+04  0.22868113494E+04 0.  0.
        4    1    3    3  502    0  0.58954014745E+03 -0.56549235564E+02 -0.11887112803E+04  0.13280781311E+04  0.12699999809E+01 0.  1.
       -4    1    3    3    0  502 -0.58954014745E+03  0.56549235564E+02  0.79605391549E+03  0.99219899757E+03  0.12699999809E+01 0. -1.
</event>
<event>
 5   0  0.2871888E-05  0.2324184E+04  0.7818609E-02  0.8468446E-01
       -2   -1    0    0    0  501  0.00000000000E+00  0.00000000000E+00  0.13601721381E+04  0.13601721381E+04  0.25500000920E-02 0. -1.
        2   -1    0    0  501    0  0.00000000000E+00  0.00000000000E+00 -0.99285817581E+03  0.99285817581E+03  0.25500000920E-02 0.  1.
    10030    2    1    2    0    0  0.00000000000E+00  0.00000000000E+00  0.36731396226E+03  0.23530303139E+04  0.23241841819E+04 0.  0.
        3    1    3    3  502    0  0.34744961780E+03 -0.69837780764E+03 -0.68843132071E+03  0.10403799751E+04  0.10100000352E+00 0.  1.
       -3    1    3    3    0  502 -0.34744961780E+03  0.69837780764E+03  0.10557452830E+04  0.13126503388E+04  0.10100000352E+00 0. -1.
</event>
<event>
 5   0  0.2871888E-05  0.2291820E+04  0.7818609E-02  0.8481153E-01
       -2   -1    0    0    0  501  0.00000000000E+00  0.00000000000E+00  0.17557779411E+04  0.17557779411E+04  0.25500000920E-02 0. -1.
        2   -1    0    0  501    0  0.00000000000E+00  0.00000000000E+00 -0.74787907888E+03  0.74787907888E+03  0.25500000920E-02 0.  1.
    10030    2    1    2    0    0  0.00000000000E+00  0.00000000000E+00  0.10078988622E+04  0.25036570200E+04  0.22918198789E+04 0.  0.
        3    1    3    3  502    0  0.17556114576E+03 -0.11230192166E+04  0.34520550470E+03  0.11879228626E+04  0.10100000352E+00 0. -1.
       -3    1    3    3    0  502 -0.17556114576E+03  0.11230192166E+04  0.66269335750E+03  0.13157341574E+04  0.10100000352E+00 0.  1.
</event>
<event>
 5   0  0.2994157E-05  0.2299508E+04  0.7818609E-02  0.8478115E-01
       -2   -1    0    0    0  501  0.00000000000E+00  0.00000000000E+00  0.89628429604E+03  0.89628429604E+03  0.25500000920E-02 0.  1.
        2   -1    0    0  501    0  0.00000000000E+00  0.00000000000E+00 -0.14749051104E+04  0.14749051104E+04  0.25500000920E-02 0. -1.
    10030    2    1    2    0    0  0.00000000000E+00  0.00000000000E+00 -0.57862081439E+03  0.23711894065E+04  0.22995080245E+04 0.  0.
        4    1    3    3  502    0 -0.58750885533E+03  0.97472585763E+03 -0.12089268517E+03  0.11444971852E+04  0.12699999809E+01 0. -1.
       -4    1    3    3    0  502  0.58750885533E+03 -0.97472585763E+03 -0.45772812922E+03  0.12266922213E+04  0.12699999809E+01 0.  1.
</event>
<event>
 5   0  0.2871888E-05  0.2278940E+04  0.7818609E-02  0.8486271E-01
        2   -1    0    0  501    0  0.00000000000E+00  0.00000000000E+00  0.21730809946E+04  0.21730809946E+04  0.25500000920E-02 0.  1.
       -2   -1    0    0    0  501  0.00000000000E+00  0.00000000000E+00 -0.59748901235E+03  0.59748901236E+03  0.25500000920E-02 0. -1.
    10030    2    1    2    0    0  0.00000000000E+00  0.00000000000E+00  0.15755919823E+04  0.27705700070E+04  0.22789401197E+04 0.  0.
        3    1    3    3  502    0 -0.40749971123E+03  0.31771494814E+03 -0.44686676329E+03  0.68314619026E+03  0.10100000352E+00 0. -1.
       -3    1    3    3    0  502  0.40749971123E+03 -0.31771494814E+03  0.20224587456E+04  0.20874238167E+04  0.10100000352E+00 0.  1.
</event>
<event>
 5   0  0.1308224E-05  0.2299799E+04  0.7818609E-02  0.8478000E-01
        1   -1    0    0  501    0  0.00000000000E+00  0.00000000000E+00  0.20496665807E+04  0.20496665807E+04  0.50400001928E-02 0. -1.
       -1   -1    0    0    0  501  0.00000000000E+00  0.00000000000E+00 -0.64511396614E+03  0.64511396616E+03  0.50400001928E-02 0.  1.
    10030    2    1    2    0    0  0.00000000000E+00  0.00000000000E+00  0.14045526146E+04  0.26947805469E+04  0.22997987192E+04 0.  0.
        5    1    3    3  502    0  0.67213680660E+02  0.45397233868E+03  0.19376980638E+04  0.19913072188E+04  0.46999998093E+01 0. -1.
       -5    1    3    3    0  502 -0.67213680660E+02 -0.45397233868E+03 -0.53314544929E+03  0.70347332803E+03  0.46999998093E+01 0.  1.
</event>
<event>
 5   0  0.2816178E-05  0.2312226E+04  0.7818609E-02  0.8473116E-01
        2   -1    0    0  501    0  0.00000000000E+00  0.00000000000E+00  0.11249879018E+04  0.11249879018E+04  0.25500000920E-02 0.  1.
       -2   -1    0    0    0  501  0.00000000000E+00  0.00000000000E+00 -0.11880992487E+04  0.11880992487E+04  0.25500000920E-02 0. -1.
    10030    2    1    2    0    0  0.00000000000E+00  0.00000000000E+00 -0.63111346908E+02  0.23130871505E+04  0.23122260105E+04 0.  0.
        1    1    3    3  502    0  0.63938500477E+03  0.36816718053E+03  0.85885279334E+03  0.11322492560E+04  0.50400001928E-02 0.  1.
       -1    1    3    3    0  502 -0.63938500477E+03 -0.36816718053E+03 -0.92196414025E+03  0.11808378945E+04  0.50400001928E-02 0. -1.
</event>
<event>
 5   0  0.1371753E-05  0.2326188E+04  0.7818609E-02  0.8467667E-01
        1   -1    0    0  501    0  0.00000000000E+00  0.00000000000E+00  0.19645580201E+04  0.19645580201E+04  0.50400001928E-02 0.  1.
       -1   -1    0    0    0  501  0.00000000000E+00  0.00000000000E+00 -0.68859619949E+03  0.68859619951E+03  0.50400001928E-02 0. -1.
    10030    2    1    2    0    0  0.00000000000E+00  0.00000000000E+00  0.12759618206E+04  0.26531542196E+04  0.23261875989E+04 0.  0.
        3    1    3    3  502    0  0.84992667346E+03  0.73190632398E+03  0.98901554762E+03  0.14953975996E+04  0.10100000352E+00 0.  1.
       -3    1    3    3    0  502 -0.84992667346E+03 -0.73190632398E+03  0.28694627299E+03  0.11577566200E+04  0.10100000352E+00 0. -1.
</event>
<event>
 5   0  0.2994157E-05  0.2313986E+04  0.7818609E-02  0.8472427E-01
       -2   -1    0    0    0  501  0.00000000000E+00  0.00000000000E+00  0.10898067477E+04  0.10898067477E+04  0.25500000920E-02 0.  1.
        2   -1    0    0  501    0  0.00000000000E+00  0.00000000000E+00 -0.12283209910E+04  0.12283209910E+04  0.25500000920E-02 0. -1.
    10030    2    1    2    0    0  0.00000000000E+00  0.00000000000E+00 -0.13851424332E+03  0.23181277387E+04  0.23139857427E+04 0.  0.
        4    1    3    3  502    0  0.79582565831E+03 -0.46699785179E+03 -0.76850754865E+03  0.12008459257E+04  0.12699999809E+01 0. -1.
       -4    1    3    3    0  502 -0.79582565831E+03  0.46699785179E+03  0.62999330534E+03  0.11172818130E+04  0.12699999809E+01 0.  1.
</event>
<event>
 5   0  0.2994157E-05  0.2296293E+04  0.7818609E-02  0.8479384E-01
       -2   -1    0    0    0  501  0.00000000000E+00  0.00000000000E+00  0.10322631825E+04  0.10322631825E+04  0.25500000920E-02 0. -1.
        2   -1    0    0  501    0  0.00000000000E+00  0.00000000000E+00 -0.12770387074E+04  0.12770387074E+04  0.25500000920E-02 0.  1.
    10030    2    1    2    0    0  0.00000000000E+00  0.00000000000E+00 -0.24477552493E+03  0.23093018899E+04  0.22962926994E+04 0.  0.
        4    1    3    3  502    0 -0.19994198195E+03  0.35288934842E+03  0.95781603026E+03  0.10401542429E+04  0.12699999809E+01 0. -1.
       -4    1    3    3    0  502  0.19994198195E+03 -0.35288934842E+03 -0.12025915552E+04  0.12691476470E+04  0.12699999809E+01 0.  1.
</event>
<event>
 5   0  0.2994157E-05  0.2263598E+04  0.7818609E-02  0.8492414E-01
        2   -1    0    0  501    0  0.00000000000E+00  0.00000000000E+00  0.10566827034E+04  0.10566827034E+04  0.25500000920E-02 0. -1.
       -2   -1    0    0    0  501  0.00000000000E+00  0.00000000000E+00 -0.12122553833E+04  0.12122553833E+04  0.25500000920E-02 0.  1.
    10030    2    1    2    0    0  0.00000000000E+00  0.00000000000E+00 -0.15557267987E+03  0.22689380867E+04  0.22635982820E+04 0.  0.
        4    1    3    3  502    0 -0.70840177301E+03  0.77244601614E+03 -0.50594942686E+03  0.11638266002E+04  0.12699999809E+01 0.  1.
       -4    1    3    3    0  502  0.70840177301E+03 -0.77244601614E+03  0.35037674700E+03  0.11051114865E+04  0.12699999809E+01 0. -1.
</event>
<event>
 5   0  0.2816178E-05  0.2216427E+04  0.7818609E-02  0.8511622E-01
        2   -1    0    0  501    0  0.00000000000E+00  0.00000000000E+00  0.13580503469E+04  0.13580503469E+04  0.25500000920E-02 0.  1.
       -2   -1    0    0    0  501  0.00000000000E+00  0.00000000000E+00 -0.90433875247E+03  0.90433875248E+03  0.25500000920E-02 0. -1.
    10030    2    1    2    0    0  0.00000000000E+00  0.00000000000E+00  0.45371159447E+03  0.22623890994E+04  0.22164273564E+04 0.  0.
        1    1    3    3  502    0 -0.72149939712E+01  0.43872649678E+02  0.13571395694E+04  0.13578676948E+04  0.50400001928E-02 0.  1.
       -1    1    3    3    0  502  0.72149939712E+01 -0.43872649678E+02 -0.90342797496E+03  0.90452140466E+03  0.50400001928E-02 0. -1.
</event>
<event>
 5   0  0.1284837E-05  0.2348958E+04  0.7818609E-02  0.8458864E-01
       -1   -1    0    0    0  501  0.00000000000E+00  0.00000000000E+00  0.90148486976E+03  0.90148486978E+03  0.50400001928E-02 0. -1.
        1   -1    0    0  501    0  0.00000000000E+00  0.00000000000E+00 -0.15301426498E+04  0.15301426498E+04  0.50400001928E-02 0.  1.
    10030    2    1    2    0    0  0.00000000000E+00  0.00000000000E+00 -0.62865778006E+03  0.24316275196E+04  0.23489575964E+04 0.  0.
        4    1    3    3  502    0 -0.15672917814E+03 -0.93438783333E+03 -0.10328418681E+04  0.14015736141E+04  0.12699999809E+01 0.  1.
       -4    1    3    3    0  502  0.15672917814E+03  0.93438783333E+03  0.40418408802E+03  0.10300539055E+04  0.12699999809E+01 0. -1.
</event>
<event>
 5   0  0.1308224E-05  0.2284176E+04  0.7818609E-02  0.8484186E-01
        1   -1    0    0  501    0  0.00000000000E+00  0.00000000000E+00  0.10400548048E+04  0.10400548048E+04  0.50400001928E-02 0. -1.
       -1   -1    0    0    0  501  0.00000000000E+00  0.00000000000E+00 -0.12541314084E+04  0.12541314084E+04  0.50400001928E-02 0.  1.
    10030    2    1    2    0    0  0.00000000000E+00  0.00000000000E+00 -0.21407660361E+03  0.22941862132E+04  0.22841763480E+04 0.  0.
        5    1    3    3  502    0 -0.41899729666E+03  0.10624386745E+04 -0.10998981319E+03  0.11473685200E+04  0.46999998093E+01 0. -1.
       -5    1    3    3    0  502  0.41899729666E+03 -0.10624386745E+04 -0.10408679042E+03  0.11468176932E+04  0.46999998093E+01 0.  1.
</event>
<event>
 5   0  0.2994157E-05  0.2312735E+04  0.7818609E-02  0.8472917E-01
       -2   -1    0    0    0  501  0.00000000000E+00  0.00000000000E+00  0.13741740349E+04  0.13741740349E+04  0.25500000920E-02 0. -1.
        2   -1    0    0  501    0  0.00000000000E+00  0.00000000000E+00 -0.97308359550E+03  0.97308359550E+03  0.25500000920E-02 0.  1.
    10030    2    1    2    0    0  0.00000000000E+00  0.00000000000E+00  0.40109043936E+03  0.23472576304E+04  0.23127353594E+04 0.  0.
        4    1    3    3  502    0 -0.84153112811E+03 -0.66453094487E+03  0.63991436556E+03  0.12487065406E+04  0.12699999809E+01 0. -1.
       -4    1    3    3    0  502  0.84153112811E+03  0.66453094487E+03 -0.23882392620E+03  0.10985510898E+04  0.12699999809E+01 0.  1.
</event>
<event>
 5   0  0.2816178E-05  0.2306305E+04  0.7818609E-02  0.8475439E-01
       -2   -1    0    0    0  501  0.00000000000E+00  0.00000000000E+00  0.10161408267E+04  0.10161408267E+04  0.25500000920E-02 0.  1.
        2   -1    0    0  501    0  0.00000000000E+00  0.00000000000E+00 -0.13086384548E+04  0.13086384549E+04  0.25500000920E-02 0. -1.
    10030    2    1    2    0    0  0.00000000000E+00  0.00000000000E+00 -0.29249762816E+03  0.23247792815E+04  0.23063052368E+04 0.  0.
        1    1    3    3  502    0  0.73212029573E+03 -0.89019174682E+03 -0.18286453857E+03  0.11669965351E+04  0.50400001928E-02 0.  1.
       -1    1    3    3    0  502 -0.73212029573E+03  0.89019174682E+03 -0.10963308959E+03  0.11577827464E+04  0.50400001928E-02 0. -1.
</event>
<event>
 5   0  0.2938972E-05  0.2290966E+04  0.7818609E-02  0.8481491E-01
        2   -1    0    0  501    0  0.00000000000E+00  0.00000000000E+00  0.12517695451E+04  0.12517695451E+04  0.25500000920E-02 0.  1.
       -2   -1    0    0    0  501  0.00000000000E+00  0.00000000000E+00 -0.10482215115E+04  0.10482215115E+04  0.25500000920E-02 0. -1.
    10030    2    1    2    0    0  0.00000000000E+00  0.00000000000E+00  0.20354803361E+03  0.22999910566E+04  0.22909664027E+04 0.  0.
        2    1    3    3  502    0 -0.23029051317E+03  0.28258897069E+03 -0.98843258492E+03  0.10535128009E+04  0.25500000920E-02 0. -1.
       -2    1    3    3    0  502  0.23029051317E+03 -0.28258897069E+03  0.11919806185E+04  0.12464782556E+04  0.25500000920E-02 0.  1.
</event>
<event>
 5   0  0.2910126E-05  0.2294602E+04  0.7818609E-02  0.8480053E-01
       -2   -1    0    0    0  501  0.00000000000E+00  0.00000000000E+00  0.83042669331E+03  0.83042669332E+03  0.25500000920E-02 0. -1.
        2   -1    0    0  501    0  0.00000000000E+00  0.00000000000E+00 -0.15850876328E+04  0.15850876328E+04  0.25500000920E-02 0.  1.
    10030    2    1    2    0    0  0.00000000000E+00  0.00000000000E+00 -0.75466093948E+03  0.24155143261E+04  0.22946015615E+04 0.  0.
        5    1    3    3  502    0 -0.56357261892E+03  0.93460899753E+03 -0.48953911659E+01  0.10914000778E+04  0.46999998093E+01 0. -1.
       -5    1    3    3    0  502  0.56357261892E+03 -0.93460899753E+03 -0.74976554832E+03  0.13241142483E+04  0.46999998093E+01 0.  1.
</event>
<event>
 5   0  0.2938972E-05  0.2301854E+04  0.7818609E-02  0.8477191E-01
        2   -1    0    0  501    0  0.00000000000E+00  0.00000000000E+00  0.12815946125E+04  0.12815946125E+04  0.25500000920E-02 0. -1.
       -2   -1    0    0    0  501  0.00000000000E+00  0.00000000000E+00 -0.10335816737E+04  0.10335816737E+04  0.25500000920E-02 0.  1.
    10030    2    1    2    0    0  0.00000000000E+00  0.00000000000E+00  0.24801293878E+03  0.23151762863E+04  0.23018537787E+04 0.  0.
        2    1    3    3  502    0  0.23466403527E+03  0.10181576751E+04  0.60941805492E+03  0.12095877920E+04  0.25500000920E-02 0. -1.
       -2    1    3    3    0  502 -0.23466403527E+03 -0.10181576751E+04 -0.36140511613E+03  0.11055884943E+04  0.25500000920E-02 0.  1.
</event>
<event>
 5   0  0.1371753E-05  0.2285986E+04  0.7818609E-02  0.8483467E-01
        1   -1    0    0  501    0  0.00000000000E+00  0.00000000000E+00  0.84768310300E+03  0.84768310302E+03  0.50400001928E-02 0.  1.
       -1   -1    0    0    0  501  0.00000000000E+00  0.00000000000E+00 -0.15411811853E+04  0.15411811853E+04  0.50400001928E-02 0. -1.
    10030    2    1    2    0    0  0.00000000000E+00  0.00000000000E+00 -0.69349808228E+03  0.23888642883E+04  0.22859862200E+04 0.  0.
        3    1    3    3  502    0 -0.82586235556E+03  0.58408773975E+03 -0.90288954032E+03  0.13558822406E+04  0.10100000352E+00 0. -1.
       -3    1    3    3    0  502  0.82586235556E+03 -0.58408773975E+03  0.20939145804E+03  0.10329820477E+04  0.10100000352E+00 0.  1.
</event>
<event>
 5   0  0.2816178E-05  0.2298056E+04  0.7818609E-02  0.8478688E-01
       -2   -1    0    0    0  501  0.00000000000E+00  0.00000000000E+00  0.91896964992E+03  0.91896964992E+03  0.25500000920E-02 0.  1.
        2   -1    0    0  501    0  0.00000000000E+00  0.00000000000E+00 -0.14366800397E+04  0.14366800397E+04  0.25500000920E-02 0. -1.
    10030    2    1    2    0    0  0.00000000000E+00  0.00000000000E+00 -0.51771038977E+03  0.23556496896E+04  0.22980560073E+04 0.  0.
        1    1    3    3  502    0 -0.10566025284E+04  0.55529855285E+02 -0.71816173321E+03  0.12787684478E+04  0.50400001928E-02 0. -1.
       -1    1    3    3    0  502  0.10566025284E+04 -0.55529855285E+02  0.20045134344E+03  0.10768812418E+04  0.50400001928E-02 0.  1.
</event>
<event>
 5   0  0.1303224E-05  0.2334252E+04  0.7818609E-02  0.8464537E-01
        1   -1    0    0  501    0  0.00000000000E+00  0.00000000000E+00  0.76236195086E+03  0.76236195088E+03  0.50400001928E-02 0. -1.
       -1   -1    0    0    0  501  0.00000000000E+00  0.00000000000E+00 -0.17867925327E+04  0.17867925327E+04  0.50400001928E-02 0.  1.
    10030    2    1    2    0    0  0.00000000000E+00  0.00000000000E+00 -0.10244305819E+04  0.25491544836E+04  0.23342516069E+04 0.  0.
        2    1    3    3  502    0  0.35078667919E+03  0.43023037516E+03  0.60896544775E+03  0.82400751609E+03  0.25500000920E-02 0. -1.
       -2    1    3    3    0  502 -0.35078667919E+03 -0.43023037516E+03 -0.16333960296E+04  0.17251469675E+04  0.25500000920E-02 0.  1.
</event>
<event>
 5   0  0.1284837E-05  0.2269519E+04  0.7818609E-02  0.8490037E-01
        1   -1    0    0  501    0  0.00000000000E+00  0.00000000000E+00  0.13087671283E+04  0.13087671283E+04  0.50400001928E-02 0. -1.
       -1   -1    0    0    0  501  0.00000000000E+00  0.00000000000E+00 -0.98388748058E+03  0.98388748059E+03  0.50400001928E-02 0.  1.
    10030    2    1    2    0    0  0.00000000000E+00  0.00000000000E+00  0.32487964771E+03  0.22926546089E+04  0.22695194139E+04 0.  0.
        4    1    3    3  502    0 -0.37622877143E+03  0.49838469383E+03 -0.79471158882E+03  0.10106945700E+04  0.12699999809E+01 0.  1.
       -4    1    3    3    0  502  0.37622877143E+03 -0.49838469383E+03  0.11195912365E+04  0.12819600389E+04  0.12699999809E+01 0. -1.
</event>
<event>
 5   0  0.2871888E-05  0.2324121E+04  0.7818609E-02  0.8468471E-01
       -2   -1    0    0    0  501  0.00000000000E+00  0.00000000000E+00  0.51077690925E+03  0.51077690925E+03  0.25500000920E-02 0. -1.
        2   -1    0    0  501    0  0.00000000000E+00  0.00000000000E+00 -0.26437855822E+04  0.26437855822E+04  0.25500000920E-02 0.  1.
    10030    2    1    2    0    0  0.00000000000E+00  0.00000000000E+00 -0.21330086729E+04  0.31545624914E+04  0.23241210196E+04 0.  0.
        3    1    3    3  502    0  0.10097026903E+04 -0.56639510541E+03 -0.12027889575E+04  0.16694323061E+04  0.10100000352E+00 0.  1.
       -3    1    3    3    0  502 -0.10097026903E+04  0.56639510541E+03 -0.93021971540E+03  0.14851301853E+04  0.10100000352E+00 0. -1.
</event>
<event>
 5   0  0.2910126E-05  0.2274722E+04  0.7818609E-02  0.8487955E-01
        2   -1    0    0  501    0  0.00000000000E+00  0.00000000000E+00  0.13987948584E+04  0.13987948584E+04  0.25500000920E-02 0. -1.
       -2   -1    0    0    0  501  0.00000000000E+00  0.00000000000E+00 -0.92478890853E+03  0.92478890853E+03  0.25500000920E-02 0.  1.
    10030    2    1    2    0    0  0.00000000000E+00  0.00000000000E+00  0.47400594991E+03  0.23235837670E+04  0.22747219350E+04 0.  0.
        5    1    3    3  502    0  0.30323060226E+02 -0.11222281261E+04  0.42327244668E+03  0.11997904438E+04  0.46999998093E+01 0.  1.
       -5    1    3    3    0  502 -0.30323060226E+02  0.11222281261E+04  0.50733503227E+02  0.11237933232E+04  0.46999998093E+01 0. -1.
</event>
<event>
 5   0  0.2910126E-05  0.2326760E+04  0.7818609E-02  0.8467444E-01
       -2   -1    0    0    0  501  0.00000000000E+00  0.00000000000E+00  0.96442580228E+03  0.96442580228E+03  0.25500000920E-02 0.  1.
        2   -1    0    0  501    0  0.00000000000E+00  0.00000000000E+00 -0.14033769082E+04  0.14033769082E+04  0.25500000920E-02 0. -1.
    10030    2    1    2    0    0  0.00000000000E+00  0.00000000000E+00 -0.43895110588E+03  0.23678027104E+04  0.23267598935E+04 0.  0.
        5    1    3    3  502    0  0.11238728021E+04 -0.72400961386E+02 -0.51633833559E+03  0.12389347607E+04  0.46999998093E+01 0. -1.
       -5    1    3    3    0  502 -0.11238728021E+04  0.72400961386E+02  0.77387229706E+02  0.11288679497E+04  0.46999998093E+01 0.  1.
</event>
<event>
 5   0  0.2816178E-05  0.2298360E+04  0.7818609E-02  0.8478568E-01
       -2   -1    0    0    0  501  0.00000000000E+00  0.00000000000E+00  0.67820513317E+03  0.67820513317E+03  0.25500000920E-02 0. -1.
        2   -1    0    0  501    0  0.00000000000E+00  0.00000000000E+00 -0.19472202958E+04  0.19472202958E+04  0.25500000920E-02 0.  1.
    10030    2    1    2    0    0  0.00000000000E+00  0.00000000000E+00 -0.12690151626E+04  0.26254254290E+04  0.22983601111E+04 0.  0.
        1    1    3    3  502    0  0.88648399883E+03  0.52916882257E+03 -0.12110500090E+04  0.15913879625E+04  0.50400001928E-02 0.  1.
       -1    1    3    3    0  502 -0.88648399883E+03 -0.52916882257E+03 -0.57965153642E+02  0.10340374665E+04  0.50400001928E-02 0. -1.
</event>
<event>
 5   0  0.1284837E-05  0.2307167E+04  0.7818609E-02  0.8475101E-01
       -1   -1    0    0    0  501  0.00000000000E+00  0.00000000000E+00  0.23694844948E+04  0.23694844949E+04  0.50400001928E-02 0.  1.
        1   -1    0    0  501    0  0.00000000000E+00  0.00000000000E+00 -0.56162187907E+03  0.56162187909E+03  0.50400001928E-02 0. -1.
    10030    2    1    2    0    0  0.00000000000E+00  0.00000000000E+00  0.18078626158E+04  0.29311063739E+04  0.23071665171E+04 0.  0.
        4    1    3    3  502    0  0.31833938175E+03  0.18025556564E+03  0.22938369784E+04  0.23228262370E+04  0.12699999809E+01 0.  1.
       -4    1    3    3    0  502 -0.31833938175E+03 -0.18025556564E+03 -0.48597436265E+03  0.60828013691E+03  0.12699999809E+01 0. -1.
</event>
<event>
 5   0  0.1017200E-05  0.2302770E+04  0.7818609E-02  0.8476830E-01
        3   -1    0    0  501    0  0.00000000000E+00  0.00000000000E+00  0.94924817200E+03  0.94924817737E+03  0.10100000352E+00 0.  1.
       -3   -1    0    0    0  501  0.00000000000E+00  0.00000000000E+00 -0.13965660803E+04  0.13965660840E+04  0.10100000352E+00 0. -1.
    10030    2    1    2    0    0  0.00000000000E+00  0.00000000000E+00 -0.44731790832E+03  0.23458142613E+04  0.23027703397E+04 0.  0.
        4    1    3    3  502    0 -0.87130710960E+03 -0.75228721623E+03 -0.19925151407E+03  0.11682529322E+04  0.12699999809E+01 0. -1.
       -4    1    3    3    0  502  0.87130710960E+03  0.75228721623E+03 -0.24806639425E+03  0.11775613291E+04  0.12699999809E+01 0.  1.
</event>
<event>
 5   0  0.2910126E-05  0.2305730E+04  0.7818609E-02  0.8475665E-01
        2   -1    0    0  501    0  0.00000000000E+00  0.00000000000E+00  0.13050467403E+04  0.13050467403E+04  0.25500000920E-02 0. -1.
       -2   -1    0    0    0  501  0.00000000000E+00  0.00000000000E+00 -0.10184289715E+04  0.10184289715E+04  0.25500000920E-02 0.  1.
    10030    2    1    2    0    0  0.00000000000E+00  0.00000000000E+00  0.28661776875E+03  0.23234757118E+04  0.23057297408E+04 0.  0.
        5    1    3    3  502    0  0.89413626959E+03  0.70414091069E+03 -0.41902405689E+02  0.11388906850E+04  0.46999998093E+01 0.  1.
       -5    1    3    3    0  502 -0.89413626959E+03 -0.70414091069E+03  0.32852017444E+03  0.11845850268E+04  0.46999998093E+01 0. -1.
</event>
<event>
 5   0  0.2938972E-05  0.2279363E+04  0.7818609E-02  0.8486103E-01
        2   -1    0    0  501    0  0.00000000000E+00  0.00000000000E+00  0.12851560834E+04  0.12851560834E+04  0.25500000920E-02 0. -1.
       -2   -1    0    0    0  501  0.00000000000E+00  0.00000000000E+00 -0.10106736574E+04  0.10106736575E+04  0.25500000920E-02 0.  1.
    10030    2    1    2    0    0  0.00000000000E+00  0.00000000000E+00  0.27448242598E+03  0.22958297409E+04  0.22793625418E+04 0.  0.
        2    1    3    3  502    0  0.55734644914E+03 -0.45281219446E+03  0.10286203353E+04  0.12544854491E+04  0.25500000920E-02 0. -1.
       -2    1    3    3    0  502 -0.55734644914E+03  0.45281219446E+03 -0.75413790929E+03  0.10413442918E+04  0.25500000920E-02 0.  1.
</event>
<event>
 5   0  0.2871888E-05  0.2284198E+04  0.7818609E-02  0.8484178E-01
       -2   -1    0    0    0  501  0.00000000000E+00  0.00000000000E+00  0.69789906999E+03  0.69789907000E+03  0.25500000920E-02 0.  1.
        2   -1    0    0  501    0  0.00000000000E+00  0.00000000000E+00 -0.18690238052E+04  0.18690238052E+04  0.25500000920E-02 0. -1.
    10030    2    1    2    0    0  0.00000000000E+00  0.00000000000E+00 -0.11711247352E+04  0.25669228752E+04  0.22841978683E+04 0.  0.
        3    1    3    3  502    0  0.16912773467E+03 -0.42292828793E+03 -0.17625341980E+04  0.18204393252E+04  0.10100000352E+00 0. -1.
       -3    1    3    3    0  502 -0.16912773467E+03  0.42292828793E+03  0.59140946286E+03  0.74648354994E+03  0.10100000352E+00 0.  1.
</event>
<event>
 5   0  0.1327820E-05  0.2408650E+04  0.7818609E-02  0.8436272E-01
       -1   -1    0    0    0  501  0.00000000000E+00  0.00000000000E+00  0.63466121162E+03  0.63466121164E+03  0.50400001928E-02 0. -1.
        1   -1    0    0  501    0  0.00000000000E+00  0.00000000000E+00 -0.22853118658E+04  0.22853118658E+04  0.50400001928E-02 0.  1.
    10030    2    1    2    0    0  0.00000000000E+00  0.00000000000E+00 -0.16506506542E+04  0.29199730774E+04  0.24086500764E+04 0.  0.
        1    1    3    3  502    0 -0.12153486325E+03 -0.35348835347E+03 -0.22132071502E+04  0.22445513201E+04  0.50400001928E-02 0.  1.
       -1    1    3    3    0  502  0.12153486325E+03  0.35348835347E+03  0.56255649601E+03  0.67542175731E+03  0.50400001928E-02 0. -1.
</event>
<event>
 5   0  0.2871888E-05  0.2300387E+04  0.7818609E-02  0.8477769E-01
       -2   -1    0    0    0  501  0.00000000000E+00  0.00000000000E+00  0.84224276659E+03  0.84224276659E+03  0.25500000920E-02 0. -1.
        2   -1    0    0  501    0  0.00000000000E+00  0.00000000000E+00 -0.15707405666E+04  0.15707405666E+04  0.25500000920E-02 0.  1.
    10030    2    1    2    0    0  0.00000000000E+00  0.00000000000E+00 -0.72849780006E+03  0.24129833332E+04  0.23003868200E+04 0.  0.
        3    1    3    3  502    0  0.89092843470E+03  0.19784728038E+03 -0.10985474909E+04  0.14281819289E+04  0.10100000352E+00 0.  1.
       -3    1    3    3    0  502 -0.89092843470E+03 -0.19784728038E+03  0.37004969082E+03  0.98480140434E+03  0.10100000352E+00 0. -1.
</event>
<event>
 5   0  0.2910126E-05  0.2299984E+04  0.7818609E-02  0.8477928E-01
        2   -1    0    0  501    0  0.00000000000E+00  0.00000000000E+00  0.19377703921E+04  0.19377703921E+04  0.25500000920E-02 0. -1.
       -2   -1    0    0    0  501  0.00000000000E+00  0.00000000000E+00 -0.68247576078E+03  0.68247576078E+03  0.25500000920E-02 0.  1.
    10030    2    1    2    0    0  0.00000000000E+00  0.00000000000E+00  0.12552946314E+04  0.26202461529E+04  0.22999837587E+04 0.  0.
        5    1    3    3  502    0  0.32858466057E+03  0.10729179644E+04  0.34093202822E+03  0.11727649276E+04  0.46999998093E+01 0.  1.
       -5    1    3    3    0  502 -0.32858466057E+03 -0.10729179644E+04  0.91436260314E+03  0.14474812253E+04  0.46999998093E+01 0. -1.
</event>
<event>
 5   0  0.1327820E-05  0.2286990E+04  0.7818609E-02  0.8483069E-01
       -1   -1    0    0    0  501  0.00000000000E+00  0.00000000000E+00  0.14161164971E+04  0.14161164971E+04  0.50400001928E-02 0. -1.
        1   -1    0    0  501    0  0.00000000000E+00  0.00000000000E+00 -0.92335649823E+03  0.92335649824E+03  0.50400001928E-02 0.  1.
    10030    2    1    2    0    0  0.00000000000E+00  0.00000000000E+00  0.49275999888E+03  0.23394729954E+04  0.22869896107E+04 0.  0.
        1    1    3    3  502    0  0.18102283778E+02 -0.27930057774E+03  0.13805361946E+04  0.14086222666E+04  0.50400001928E-02 0. -1.
       -1    1    3    3    0  502 -0.18102283778E+02  0.27930057774E+03 -0.88777619574E+03  0.93085072872E+03  0.50400001928E-02 0.  1.
</event>
<event>
 5   0  0.1303224E-05  0.2303502E+04  0.7818609E-02  0.8476542E-01
        1   -1    0    0  501    0  0.00000000000E+00  0.00000000000E+00  0.13468440872E+04  0.13468440872E+04  0.50400001928E-02 0.  1.
       -1   -1    0    0    0  501  0.00000000000E+00  0.00000000000E+00 -0.98491771081E+03  0.98491771082E+03  0.50400001928E-02 0. -1.
    10030    2    1    2    0    0  0.00000000000E+00  0.00000000000E+00  0.36192637634E+03  0.23317617980E+04  0.23035021990E+04 0.  0.
        2    1    3    3  502    0  0.88842727353E+03  0.55378783320E+03 -0.30508006898E+03  0.10904392844E+04  0.25500000920E-02 0.  1.
       -2    1    3    3    0  502 -0.88842727353E+03 -0.55378783320E+03  0.66700644532E+03  0.12413225136E+04  0.25500000920E-02 0. -1.
</event>
<event>
 5   0  0.2994157E-05  0.2325704E+04  0.7818609E-02  0.8467855E-01
        2   -1    0    0  501    0  0.00000000000E+00  0.00000000000E+00  0.21322500432E+04  0.21322500432E+04  0.25500000920E-02 0.  1.
       -2   -1    0    0    0  501  0.00000000000E+00  0.00000000000E+00 -0.63417745751E+03  0.63417745752E+03  0.25500000920E-02 0. -1.
    10030    2    1    2    0    0  0.00000000000E+00  0.00000000000E+00  0.14980725857E+04  0.27664275007E+04  0.23257041181E+04 0.  0.
        4    1    3    3  502    0 -0.51131868511E+03 -0.50773609083E+03  0.18346673654E+04  0.19711034194E+04  0.12699999809E+01 0.  1.
       -4    1    3    3    0  502  0.51131868511E+03  0.50773609083E+03 -0.33659477968E+03  0.79532408129E+03  0.12699999809E+01 0. -1.
</event>
<event>
 5   0  0.2994157E-05  0.2311852E+04  0.7818609E-02  0.8473263E-01
       -2   -1    0    0    0  501  0.00000000000E+00  0.00000000000E+00  0.20936149767E+04  0.20936149767E+04  0.25500000920E-02 0. -1.
        2   -1    0    0  501    0  0.00000000000E+00  0.00000000000E+00 -0.63820924608E+03  0.63820924608E+03  0.25500000920E-02 0.  1.
    10030    2    1    2    0    0  0.00000000000E+00  0.00000000000E+00  0.14554057307E+04  0.27318242228E+04  0.23118515834E+04 0.  0.
        4    1    3    3  502    0  0.98970679245E+02 -0.38588085611E+03  0.20099346718E+04  0.20490334863E+04  0.12699999809E+01 0. -1.
       -4    1    3    3    0  502 -0.98970679245E+02  0.38588085611E+03 -0.55452894109E+03  0.68279073651E+03  0.12699999809E+01 0.  1.
</event>
<event>
 5   0  0.2938972E-05  0.2273872E+04  0.7818609E-02  0.8488295E-01
        2   -1    0    0  501    0  0.00000000000E+00  0.00000000000E+00  0.17559562545E+04  0.17559562545E+04  0.25500000920E-02 0.  1.
       -2   -1    0    0    0  501  0.00000000000E+00  0.00000000000E+00 -0.73613643718E+03  0.73613643719E+03  0.25500000920E-02 0. -1.
    10030    2    1    2    0    0  0.00000000000E+00  0.00000000000E+00  0.10198198173E+04  0.24920926917E+04  0.22738719234E+04 0.  0.
        2    1    3    3  502    0  0.14949809548E+03 -0.10433703897E+04  0.42800945446E+02  0.10548949576E+04  0.25500000920E-02 0. -1.
       -2    1    3    3    0  502 -0.14949809548E+03  0.10433703897E+04  0.97701887187E+03  0.14371977340E+04  0.25500000920E-02 0.  1.
</event>
<event>
 5   0  0.2816178E-05  0.2306837E+04  0.7818609E-02  0.8475230E-01
       -2   -1    0    0    0  501  0.00000000000E+00  0.00000000000E+00  0.10166937366E+04  0.10166937366E+04  0.25500000920E-02 0. -1.
        2   -1    0    0  501    0  0.00000000000E+00  0.00000000000E+00 -0.13085298095E+04  0.13085298095E+04  0.25500000920E-02 0.  1.
    10030    2    1    2    0    0  0.00000000000E+00  0.00000000000E+00 -0.29183607292E+03  0.23252235461E+04  0.23068368485E+04 0.  0.
        1    1    3    3  502    0 -0.10741032709E+04  0.31341425988E+03 -0.42823567529E+03  0.11980451279E+04  0.50400001928E-02 0.  1.
       -1    1    3    3    0  502  0.10741032709E+04 -0.31341425988E+03  0.13639960238E+03  0.11271784182E+04  0.50400001928E-02 0. -1.
</event>
<event>
 5   0  0.2994157E-05  0.2295115E+04  0.7818609E-02  0.8479849E-01
       -2   -1    0    0    0  501  0.00000000000E+00  0.00000000000E+00  0.74481748892E+03  0.74481748893E+03  0.25500000920E-02 0. -1.
        2   -1    0    0  501    0  0.00000000000E+00  0.00000000000E+00 -0.17680690991E+04  0.17680690991E+04  0.25500000920E-02 0.  1.
    10030    2    1    2    0    0  0.00000000000E+00  0.00000000000E+00 -0.10232516102E+04  0.25128865881E+04  0.22951154975E+04 0.  0.
        4    1    3    3  502    0  0.20765731085E+03  0.32079528355E+03 -0.16963577149E+04  0.17388681039E+04  0.12699999809E+01 0.  1.
       -4    1    3    3    0  502 -0.20765731085E+03 -0.32079528355E+03  0.67310610475E+03  0.77401848418E+03  0.12699999809E+01 0. -1.
</event>
<event>
 5   0  0.2871888E-05  0.2287632E+04  0.7818609E-02  0.8482814E-01
        2   -1    0    0  501    0  0.00000000000E+00  0.00000000000E+00  0.19724019551E+04  0.19724019551E+04  0.25500000920E-02 0.  1.
       -2   -1    0    0    0  501  0.00000000000E+00  0.00000000000E+00 -0.66331039977E+03  0.66331039978E+03  0.25500000920E-02 0. -1.
    10030    2    1    2    0    0  0.00000000000E+00  0.00000000000E+00  0.13090915554E+04  0.26357123549E+04  0.22876317268E+04 0.  0.
        3    1    3    3  502    0 -0.17405853034E+03  0.99895578790E+03  0.44766221560E+02  0.10149941197E+04  0.10100000352E+00 0. -1.
       -3    1    3    3    0  502  0.17405853034E+03 -0.99895578790E+03  0.12643253338E+04  0.16207182352E+04  0.10100000352E+00 0.  1.
</event>
<event>
 5   0  0.1371753E-05  0.2300818E+04  0.7818609E-02  0.8477599E-01
       -1   -1    0    0    0  501  0.00000000000E+00  0.00000000000E+00  0.11113631294E+04  0.11113631294E+04  0.50400001928E-02 0.  1.
        1   -1    0    0  501    0  0.00000000000E+00  0.00000000000E+00 -0.11908269613E+04  0.11908269613E+04  0.50400001928E-02 0. -1.
    10030    2    1    2    0    0  0.00000000000E+00  0.00000000000E+00 -0.79463831880E+02  0.23021900908E+04  0.23008182704E+04 0.  0.
        3    1    3    3  502    0 -0.10688197904E+04 -0.28577263976E+03  0.27573280083E+03  0.11402062681E+04  0.10100000352E+00 0. -1.
       -3    1    3    3    0  502  0.10688197904E+04  0.28577263976E+03 -0.35519663271E+03  0.11619838227E+04  0.10100000352E+00 0.  1.
</event>
<event>
 5   0  0.1371753E-05  0.2289063E+04  0.7818609E-02  0.8482246E-01
       -1   -1    0    0    0  501  0.00000000000E+00  0.00000000000E+00  0.76933025453E+03  0.76933025455E+03  0.50400001928E-02 0. -1.
        1   -1    0    0  501    0  0.00000000000E+00  0.00000000000E+00 -0.17027180552E+04  0.17027180552E+04  0.50400001928E-02 0.  1.
    10030    2    1    2    0    0  0.00000000000E+00  0.00000000000E+00 -0.93338780064E+03  0.24720483097E+04  0.22890631401E+04 0.  0.
        3    1    3    3  502    0  0.22485485320E+02  0.61949014393E+03  0.57233913656E+03  0.84370950742E+03  0.10100000352E+00 0. -1.
       -3    1    3    3    0  502 -0.22485485320E+02 -0.61949014393E+03 -0.15057269372E+04  0.16283388023E+04  0.10100000352E+00 0.  1.
</event>
<event>
 5   0  0.1284837E-05  0.2305357E+04  0.7818609E-02  0.8475812E-01
        1   -1    0    0  501    0  0.00000000000E+00  0.00000000000E+00  0.12914495074E+04  0.12914495074E+04  0.50400001928E-02 0.  1.
       -1   -1    0    0    0  501  0.00000000000E+00  0.00000000000E+00 -0.10288190353E+04  0.10288190353E+04  0.50400001928E-02 0. -1.
    10030    2    1    2    0    0  0.00000000000E+00  0.00000000000E+00  0.26263047208E+03  0.23202685428E+04  0.23053570972E+04 0.  0.
        4    1    3    3  502    0  0.44235363108E+03 -0.69297375595E+03  0.94448724625E+03  0.12521769574E+04  0.12699999809E+01 0.  1.
       -4    1    3    3    0  502 -0.44235363108E+03  0.69297375595E+03 -0.68185677417E+03  0.10680915854E+04  0.12699999809E+01 0. -1.
</event>
<event>
 5   0  0.1327820E-05  0.2277841E+04  0.7818609E-02  0.8486710E-01
       -1   -1    0    0    0  501  0.00000000000E+00  0.00000000000E+00  0.91927049237E+03  0.91927049238E+03  0.50400001928E-02 0. -1.
        1   -1    0    0  501    0  0.00000000000E+00  0.00000000000E+00 -0.14110536824E+04  0.14110536824E+04  0.50400001928E-02 0.  1.
    10030    2    1    2    0    0  0.00000000000E+00  0.00000000000E+00 -0.49178319002E+03  0.23303241748E+04  0.22778410949E+04 0.  0.
        1    1    3    3  502    0  0.68358789789E+03 -0.88367297789E+03 -0.47228120627E+03  0.12129385326E+04  0.50400001928E-02 0. -1.
       -1    1    3    3    0  502 -0.68358789789E+03  0.88367297789E+03 -0.19501983755E+02  0.11173856422E+04  0.50400001928E-02 0.  1.
</event>
<event>
 5   0  0.2816178E-05  0.2300021E+04  0.7818609E-02  0.8477913E-01
       -2   -1    0    0    0  501  0.00000000000E+00  0.00000000000E+00  0.10923614757E+04  0.10923614757E+04  0.25500000920E-02 0.  1.
        2   -1    0    0  501    0  0.00000000000E+00  0.00000000000E+00 -0.12107016644E+04  0.12107016644E+04  0.25500000920E-02 0. -1.
    10030    2    1    2    0    0  0.00000000000E+00  0.00000000000E+00 -0.11834018875E+03  0.23030631401E+04  0.23000207449E+04 0.  0.
        1    1    3    3  502    0  0.10397923366E+04 -0.72485432727E+02 -0.54571571832E+03  0.11765321443E+04  0.50400001928E-02 0.  1.
       -1    1    3    3    0  502 -0.10397923366E+04  0.72485432727E+02  0.42737552957E+03  0.11265309958E+04  0.50400001928E-02 0. -1.
</event>
<event>
 5   0  0.2994157E-05  0.2237894E+04  0.7818609E-02  0.8502819E-01
       -2   -1    0    0    0  501  0.00000000000E+00  0.00000000000E+00  0.55986543349E+03  0.55986543349E+03  0.25500000920E-02 0. -1.
        2   -1    0    0  501    0  0.00000000000E+00  0.00000000000E+00 -0.22363277204E+04  0.22363277204E+04  0.25500000920E-02 0.  1.
    10030    2    1    2    0    0  0.00000000000E+00  0.00000000000E+00 -0.16764622869E+04  0.27961931539E+04  0.22378941786E+04 0.  0.
        4    1    3    3  502    0 -0.14347968961E+03  0.45947837908E+03 -0.21003458804E+04  0.21547995806E+04  0.12699999809E+01 0.  1.
       -4    1    3    3    0  502  0.14347968961E+03 -0.45947837908E+03  0.42388359350E+03  0.64139357333E+03  0.12699999809E+01 0. -1.
</event>
<event>
 5   0  0.2938972E-05  0.2287602E+04  0.7818609E-02  0.8482826E-01
        2   -1    0    0  501    0  0.00000000000E+00  0.00000000000E+00  0.17134801246E+04  0.17134801246E+04  0.25500000920E-02 0. -1.
       -2   -1    0    0    0  501  0.00000000000E+00  0.00000000000E+00 -0.76352229388E+03  0.76352229388E+03  0.25500000920E-02 0.  1.
    10030    2    1    2    0    0  0.00000000000E+00  0.00000000000E+00  0.94995783068E+03  0.24770024184E+04  0.22876016045E+04 0.  0.
        2    1    3    3  502    0 -0.78469280942E+03  0.68643835985E+03  0.98439873996E+03  0.14338693477E+04  0.25500000920E-02 0. -1.
       -2    1    3    3    0  502  0.78469280942E+03 -0.68643835985E+03 -0.34440909281E+02  0.10431330707E+04  0.25500000920E-02 0.  1.
</event>
<event>
 5   0  0.1308224E-05  0.2296241E+04  0.7818609E-02  0.8479405E-01
        1   -1    0    0  501    0  0.00000000000E+00  0.00000000000E+00  0.13495528940E+04  0.13495528941E+04  0.50400001928E-02 0.  1.
       -1   -1    0    0    0  501  0.00000000000E+00  0.00000000000E+00 -0.97675354660E+03  0.97675354661E+03  0.50400001928E-02 0. -1.
    10030    2    1    2    0    0  0.00000000000E+00  0.00000000000E+00  0.37279934744E+03  0.23263064407E+04  0.22962409069E+04 0.  0.
        5    1    3    3  502    0 -0.52212352628E+03  0.19212297300E+03  0.12038573062E+04  0.13262046287E+04  0.46999998093E+01 0.  1.
       -5    1    3    3    0  502  0.52212352628E+03 -0.19212297300E+03 -0.83105795878E+03  0.10001018120E+04  0.46999998093E+01 0. -1.
</event>
<event>
 5   0  0.1371753E-05  0.2288986E+04  0.7818609E-02  0.8482276E-01
        1   -1    0    0  501    0  0.00000000000E+00  0.00000000000E+00  0.21939343545E+04  0.21939343545E+04  0.50400001928E-02 0. -1.
       -1   -1    0    0    0  501  0.00000000000E+00  0.00000000000E+00 -0.59703900612E+03  0.59703900614E+03  0.50400001928E-02 0.  1.
    10030    2    1    2    0    0  0.00000000000E+00  0.00000000000E+00  0.15968953484E+04  0.27909733607E+04  0.22889861394E+04 0.  0.
        3    1    3    3  502    0 -0.23110713598E+03 -0.11076471776E+04  0.10081242545E+04  0.15154561363E+04  0.10100000352E+00 0. -1.
       -3    1    3    3    0  502  0.23110713598E+03  0.11076471776E+04  0.58877109391E+03  0.12755172244E+04  0.10100000352E+00 0.  1.
</event>
<event>
 5   0  0.2816178E-05  0.2334836E+04  0.7818609E-02  0.8464311E-01
       -2   -1    0    0    0  501  0.00000000000E+00  0.00000000000E+00  0.10021593210E+04  0.10021593211E+04  0.25500000920E-02 0.  1.
        2   -1    0    0  501    0  0.00000000000E+00  0.00000000000E+00 -0.13599287392E+04  0.13599287392E+04  0.25500000920E-02 0. -1.
    10030    2    1    2    0    0  0.00000000000E+00  0.00000000000E+00 -0.35776941819E+03  0.23620880603E+04  0.23348364071E+04 0.  0.
        1    1    3    3  502    0 -0.98106390642E+03 -0.48828615792E+03 -0.58601881057E+03  0.12427098643E+04  0.50400001928E-02 0. -1.
       -1    1    3    3    0  502  0.98106390642E+03  0.48828615792E+03  0.22824939238E+03  0.11193781960E+04  0.50400001928E-02 0.  1.
</event>
<event>
 5   0  0.1284837E-05  0.2340146E+04  0.7818609E-02  0.8462258E-01
       -1   -1    0    0    0  501  0.00000000000E+00  0.00000000000E+00  0.69057745901E+03  0.69057745903E+03  0.50400001928E-02 0.  1.
        1   -1    0    0  501    0  0.00000000000E+00  0.00000000000E+00 -0.19825018454E+04  0.19825018454E+04  0.50400001928E-02 0. -1.
    10030    2    1    2    0    0  0.00000000000E+00  0.00000000000E+00 -0.12919243864E+04  0.26730793044E+04  0.23401462236E+04 0.  0.
        4    1    3    3  502    0 -0.68192518528E+03 -0.51207492584E+03  0.26915721780E+03  0.89425382794E+03  0.12699999809E+01 0.  1.
       -4    1    3    3    0  502  0.68192518528E+03  0.51207492584E+03 -0.15610816042E+04  0.17788254765E+04  0.12699999809E+01 0. -1.
</event>
<event>
 5   0  0.1371753E-05  0.2275541E+04  0.7818609E-02  0.8487628E-01
        1   -1    0    0  501    0  0.00000000000E+00  0.00000000000E+00  0.13541115208E+04  0.13541115208E+04  0.50400001928E-02 0.  1.
       -1   -1    0    0    0  501  0.00000000000E+00  0.00000000000E+00 -0.95599337515E+03  0.95599337516E+03  0.50400001928E-02 0. -1.
    10030    2    1    2    0    0  0.00000000000E+00  0.00000000000E+00  0.39811814563E+03  0.23101048960E+04  0.22755409406E+04 0.  0.
        3    1    3    3  502    0  0.95691613156E+03  0.61470990564E+03  0.16752470390E+03  0.11496178876E+04  0.10100000352E+00 0.  1.
       -3    1    3    3    0  502 -0.95691613156E+03 -0.61470990564E+03  0.23059344174E+03  0.11604870083E+04  0.10100000352E+00 0. -1.
</event>
<event>
 5   0  0.1327820E-05  0.2296210E+04  0.7818609E-02  0.8479417E-01
        1   -1    0    0  501    0  0.00000000000E+00  0.00000000000E+00  0.14711416655E+04  0.14711416655E+04  0.50400001928E-02 0.  1.
       -1   -1    0    0    0  501  0.00000000000E+00  0.00000000000E+00 -0.89600139243E+03  0.89600139245E+03  0.50400001928E-02 0. -1.
    10030    2    1    2    0    0  0.00000000000E+00  0.00000000000E+00  0.57514027308E+03  0.23671430580E+04  0.22962099040E+04 0.  0.
        1    1    3    3  502    0  0.34979756194E+03  0.13790948475E+03  0.14058700066E+04  0.14552827340E+04  0.50400001928E-02 0.  1.
       -1    1    3    3    0  502 -0.34979756194E+03 -0.13790948475E+03 -0.83072973351E+03  0.91186032400E+03  0.50400001928E-02 0. -1.
</event>
<event>
 5   0  0.1308224E-05  0.2308005E+04  0.7818609E-02  0.8474771E-01
        1   -1    0    0  501    0  0.00000000000E+00  0.00000000000E+00  0.98180709926E+03  0.98180709927E+03  0.50400001928E-02 0. -1.
       -1   -1    0    0    0  501  0.00000000000E+00  0.00000000000E+00 -0.13563990334E+04  0.13563990334E+04  0.50400001928E-02 0.  1.
    10030    2    1    2    0    0  0.00000000000E+00  0.00000000000E+00 -0.37459193412E+03  0.23382061327E+04  0.23080053730E+04 0.  0.
        5    1    3    3  502    0 -0.43647756719E+03 -0.31064358962E+03 -0.12227701699E+04  0.13349910430E+04  0.46999998093E+01 0.  1.
       -5    1    3    3    0  502  0.43647756719E+03  0.31064358962E+03  0.84817823580E+03  0.10032150897E+04  0.46999998093E+01 0. -1.
</event>
<event>
 5   0  0.1371753E-05  0.2302030E+04  0.7818609E-02  0.8477121E-01
        1   -1    0    0  501    0  0.00000000000E+00  0.00000000000E+00  0.16775538748E+04  0.16775538749E+04  0.50400001928E-02 0. -1.
       -1   -1    0    0    0  501  0.00000000000E+00  0.00000000000E+00 -0.78974247196E+03  0.78974247197E+03  0.50400001928E-02 0.  1.
    10030    2    1    2    0    0  0.00000000000E+00  0.00000000000E+00  0.88781140289E+03  0.24672963468E+04  0.23020300120E+04 0.  0.
        3    1    3    3  502    0 -0.10897773269E+03  0.11433804971E+04  0.52440022007E+03  0.12626126517E+04  0.10100000352E+00 0. -1.
       -3    1    3    3    0  502  0.10897773269E+03 -0.11433804971E+04  0.36341118282E+03  0.12046836951E+04  0.10100000352E+00 0.  1.
</event>
<event>
 5   0  0.2994157E-05  0.2335285E+04  0.7818609E-02  0.8464137E-01
        2   -1    0    0  501    0  0.00000000000E+00  0.00000000000E+00  0.96299698501E+03  0.96299698501E+03  0.25500000920E-02 0.  1.
       -2   -1    0    0    0  501  0.00000000000E+00  0.00000000000E+00 -0.14157766855E+04  0.14157766855E+04  0.25500000920E-02 0. -1.
    10030    2    1    2    0    0  0.00000000000E+00  0.00000000000E+00 -0.45277970048E+03  0.23787736705E+04  0.23352847189E+04 0.  0.
        4    1    3    3  502    0  0.67561621648E+03 -0.51075956656E+03 -0.10451333213E+04  0.13452278168E+04  0.12699999809E+01 0. -1.
       -4    1    3    3    0  502 -0.67561621648E+03  0.51075956656E+03  0.59235362082E+03  0.10335458537E+04  0.12699999809E+01 0.  1.
</event>
<event>
 5   0  0.2816178E-05  0.2294915E+04  0.7818609E-02  0.8479929E-01
       -2   -1    0    0    0  501  0.00000000000E+00  0.00000000000E+00  0.11614803222E+04  0.11614803222E+04  0.25500000920E-02 0. -1.
        2   -1    0    0  501    0  0.00000000000E+00  0.00000000000E+00 -0.11336043626E+04  0.11336043626E+04  0.25500000920E-02 0.  1.
    10030    2    1    2    0    0  0.00000000000E+00  0.00000000000E+00  0.27875959672E+02  0.22950846848E+04  0.22949153887E+04 0.  0.
        1    1    3    3  502    0 -0.68508947352E+03 -0.27258949893E+01 -0.90662117583E+03  0.11363612866E+04  0.50400001928E-02 0.  1.
       -1    1    3    3    0  502  0.68508947352E+03  0.27258949893E+01  0.93449713551E+03  0.11587233982E+04  0.50400001928E-02 0. -1.
</event>
<event>
 5   0  0.1284837E-05  0.2359836E+04  0.7818609E-02  0.8454695E-01
       -1   -1    0    0    0  501  0.00000000000E+00  0.00000000000E+00  0.94033108158E+03  0.94033108160E+03  0.50400001928E-02 0. -1.
        1   -1    0    0  501    0  0.00000000000E+00  0.00000000000E+00 -0.14805493070E+04  0.14805493070E+04  0.50400001928E-02 0.  1.
    10030    2    1    2    0    0  0.00000000000E+00  0.00000000000E+00 -0.54021822545E+03  0.24208803886E+04  0.23598360377E+04 0.  0.
        4    1    3    3  502    0 -0.67282881725E+03  0.86777252462E+03 -0.71310970892E+03  0.13092955517E+04  0.12699999809E+01 0. -1.
       -4    1    3    3    0  502  0.67282881725E+03 -0.86777252462E+03  0.17289148347E+03  0.11115848370E+04  0.12699999809E+01 0.  1.
</event>
<event>
 5   0  0.2910126E-05  0.2297944E+04  0.7818609E-02  0.8478732E-01
        2   -1    0    0  501    0  0.00000000000E+00  0.00000000000E+00  0.17571667015E+04  0.17571667015E+04  0.25500000920E-02 0.  1.
       -2   -1    0    0    0  501  0.00000000000E+00  0.00000000000E+00 -0.75128740948E+03  0.75128740948E+03  0.25500000920E-02 0. -1.
    10030    2    1    2    0    0  0.00000000000E+00  0.00000000000E+00  0.10058792920E+04  0.25084541110E+04  0.22979444895E+04 0.  0.
        5    1    3    3  502    0 -0.10621507969E+04  0.24936385844E+03  0.89617380434E+03  0.14119122589E+04  0.46999998093E+01 0.  1.
       -5    1    3    3    0  502  0.10621507969E+04 -0.24936385844E+03  0.10970548765E+03  0.10965418520E+04  0.46999998093E+01 0. -1.
</event>
<event>
 5   0  0.1284837E-05  0.2304619E+04  0.7818609E-02  0.8476102E-01
       -1   -1    0    0    0  501  0.00000000000E+00  0.00000000000E+00  0.91148625209E+03  0.91148625211E+03  0.50400001928E-02 0. -1.
        1   -1    0    0  501    0  0.00000000000E+00  0.00000000000E+00 -0.14567598876E+04  0.14567598876E+04  0.50400001928E-02 0.  1.
    10030    2    1    2    0    0  0.00000000000E+00  0.00000000000E+00 -0.54527363551E+03  0.23682461397E+04  0.23046185022E+04 0.  0.
        4    1    3    3  502    0 -0.52091007941E+03 -0.81233010726E+02  0.78028306342E+03  0.94169495317E+03  0.12699999809E+01 0. -1.
       -4    1    3    3    0  502  0.52091007941E+03  0.81233010726E+02 -0.13255566989E+04  0.14265511865E+04  0.12699999809E+01 0.  1.
</event>
<event>
 5   0  0.1327820E-05  0.2329268E+04  0.7818609E-02  0.8466470E-01
       -1   -1    0    0    0  501  0.00000000000E+00  0.00000000000E+00  0.72295175161E+03  0.72295175163E+03  0.50400001928E-02 0. -1.
        1   -1    0    0  501    0  0.00000000000E+00  0.00000000000E+00 -0.18761590115E+04  0.18761590115E+04  0.50400001928E-02 0.  1.
    10030    2    1    2    0    0  0.00000000000E+00  0.00000000000E+00 -0.11532072599E+04  0.25991107632E+04  0.23292680771E+04 0.  0.
        1    1    3    3  502    0  0.41703822815E+03  0.55445825577E+02 -0.17884057251E+04  0.18372234923E+04  0.50400001928E-02 0.  1.
       -1    1    3    3    0  502 -0.41703822815E+03 -0.55445825577E+02  0.63519846515E+03  0.76188727084E+03  0.50400001928E-02 0. -1.
</event>
<event>
 5   0  0.1327820E-05  0.2287002E+04  0.7818609E-02  0.8483064E-01
       -1   -1    0    0    0  501  0.00000000000E+00  0.00000000000E+00  0.90165337516E+03  0.90165337518E+03  0.50400001928E-02 0. -1.
        1   -1    0    0  501    0  0.00000000000E+00  0.00000000000E+00 -0.14502182122E+04  0.14502182122E+04  0.50400001928E-02 0.  1.
    10030    2    1    2    0    0  0.00000000000E+00  0.00000000000E+00 -0.54856483706E+03  0.23518715874E+04  0.22870016579E+04 0.  0.
        1    1    3    3  502    0 -0.81235889472E+02 -0.10988272184E+04 -0.58885715520E+03  0.12493091191E+04  0.50400001928E-02 0.  1.
       -1    1    3    3    0  502  0.81235889472E+02  0.10988272184E+04  0.40292318137E+02  0.11025624684E+04  0.50400001928E-02 0. -1.
</event>
<event>
 5   0  0.1371753E-05  0.2301364E+04  0.7818609E-02  0.8477383E-01
       -1   -1    0    0    0  501  0.00000000000E+00  0.00000000000E+00  0.10336778411E+04  0.10336778412E+04  0.50400001928E-02 0. -1.
        1   -1    0    0  501    0  0.00000000000E+00  0.00000000000E+00 -0.12809306105E+04  0.12809306105E+04  0.50400001928E-02 0.  1.
    10030    2    1    2    0    0  0.00000000000E+00  0.00000000000E+00 -0.24725276939E+03  0.23146084517E+04  0.23013644546E+04 0.  0.
        3    1    3    3  502    0 -0.55375319314E+02 -0.36030400996E+03 -0.12213211439E+04  0.12745629652E+04  0.10100000352E+00 0.  1.
       -3    1    3    3    0  502  0.55375319314E+02  0.36030400996E+03  0.97406837449E+03  0.10400454865E+04  0.10100000352E+00 0. -1.
</event>
<event>
 5   0  0.2910126E-05  0.2298752E+04  0.7818609E-02  0.8478414E-01
       -2   -1    0    0    0  501  0.00000000000E+00  0.00000000000E+00  0.61021772209E+03  0.61021772210E+03  0.25500000920E-02 0.  1.
        2   -1    0    0  501    0  0.00000000000E+00  0.00000000000E+00 -0.21649070086E+04  0.21649070086E+04  0.25500000920E-02 0. -1.
    10030    2    1    2    0    0  0.00000000000E+00  0.00000000000E+00 -0.15546892865E+04  0.27751247307E+04  0.22987515076E+04 0.  0.
        5    1    3    3  502    0  0.40028069081E+03  0.98206816007E+03 -0.13122993667E+04  0.16872564181E+04  0.46999998093E+01 0. -1.
       -5    1    3    3    0  502 -0.40028069081E+03 -0.98206816007E+03 -0.24238991983E+03  0.10878683127E+04  0.46999998093E+01 0.  1.
</event>
<event>
 5   0  0.2816178E-05  0.2271786E+04  0.7818609E-02  0.8489129E-01
        2   -1    0    0  501    0  0.00000000000E+00  0.00000000000E+00  0.12136876256E+04  0.12136876256E+04  0.25500000920E-02 0.  1.
       -2   -1    0    0    0  501  0.00000000000E+00  0.00000000000E+00 -0.10630852073E+04  0.10630852073E+04  0.25500000920E-02 0. -1.
    10030    2    1    2    0    0  0.00000000000E+00  0.00000000000E+00  0.15060241827E+03  0.22767728329E+04  0.22717863993E+04 0.  0.
        1    1    3    3  502    0 -0.94485294928E+03 -0.92464912476E+02  0.70033388914E+03  0.11797306524E+04  0.50400001928E-02 0.  1.
       -1    1    3    3    0  502  0.94485294928E+03  0.92464912476E+02 -0.54973147087E+03  0.10970421805E+04  0.50400001928E-02 0. -1.
</event>
<event>
 5   0  0.1284837E-05  0.2253841E+04  0.7818609E-02  0.8496347E-01
        1   -1    0    0  501    0  0.00000000000E+00  0.00000000000E+00  0.14819124300E+04  0.14819124300E+04  0.50400001928E-02 0.  1.
       -1   -1    0    0    0  501  0.00000000000E+00  0.00000000000E+00 -0.85696664468E+03  0.85696664469E+03  0.50400001928E-02 0. -1.
    10030    2    1    2    0    0  0.00000000000E+00  0.00000000000E+00  0.62494578536E+03  0.23388790747E+04  0.22538407423E+04 0.  0.
        4    1    3    3  502    0 -0.10750726308E+04  0.36147038745E+02  0.66109492943E+03  0.12625909426E+04  0.12699999809E+01 0.  1.
       -4    1    3    3    0  502  0.10750726308E+04 -0.36147038745E+02 -0.36149144064E+02  0.10762881321E+04  0.12699999809E+01 0. -1.
</event>
<event>
 5   0  0.1371753E-05  0.2200064E+04  0.7818609E-02  0.8518402E-01
        1   -1    0    0  501    0  0.00000000000E+00  0.00000000000E+00  0.18182732640E+04  0.18182732640E+04  0.50400001928E-02 0.  1.
       -1   -1    0    0    0  501  0.00000000000E+00  0.00000000000E+00 -0.66550508716E+03  0.66550508718E+03  0.50400001928E-02 0. -1.
    10030    2    1    2    0    0  0.00000000000E+00  0.00000000000E+00  0.11527681768E+04  0.24837783512E+04  0.22000637328E+04 0.  0.
        3    1    3    3  502    0  0.25772295676E+03  0.38958466877E+02 -0.63013882902E+03  0.68191923174E+03  0.10100000352E+00 0. -1.
       -3    1    3    3    0  502 -0.25772295676E+03 -0.38958466877E+02  0.17829070059E+04  0.18018591194E+04  0.10100000352E+00 0.  1.
</event>
<event>
 5   0  0.2910126E-05  0.2280908E+04  0.7818609E-02  0.8485487E-01
        2   -1    0    0  501    0  0.00000000000E+00  0.00000000000E+00  0.10548192500E+04  0.10548192500E+04  0.25500000920E-02 0.  1.
       -2   -1    0    0    0  501  0.00000000000E+00  0.00000000000E+00 -0.12330406186E+04  0.12330406186E+04  0.25500000920E-02 0. -1.
    10030    2    1    2    0    0  0.00000000000E+00  0.00000000000E+00 -0.17822136856E+03  0.22878598686E+04  0.22809076970E+04 0.  0.
        5    1    3    3  502    0  0.94215131753E+03 -0.58856659054E+03 -0.34787597991E+03  0.11640874211E+04  0.46999998093E+01 0. -1.
       -5    1    3    3    0  502 -0.94215131753E+03  0.58856659054E+03  0.16965461134E+03  0.11237724475E+04  0.46999998093E+01 0.  1.
</event>
<event>
 5   0  0.1371753E-05  0.2303701E+04  0.7818609E-02  0.8476463E-01
        1   -1    0    0  501    0  0.00000000000E+00  0.00000000000E+00  0.11564918807E+04  0.11564918807E+04  0.50400001928E-02 0.  1.
       -1   -1    0    0    0  501  0.00000000000E+00  0.00000000000E+00 -0.11472272691E+04  0.11472272691E+04  0.50400001928E-02 0. -1.
    10030    2    1    2    0    0  0.00000000000E+00  0.00000000000E+00  0.92646116707E+01  0.23037191498E+04  0.23037005205E+04 0.  0.
        3    1    3    3  502    0 -0.39525574986E+03  0.12505682687E+03 -0.10700357232E+04  0.11475377017E+04  0.10100000352E+00 0. -1.
       -3    1    3    3    0  502  0.39525574986E+03 -0.12505682687E+03  0.10793003349E+04  0.11561814481E+04  0.10100000352E+00 0.  1.
</event>
<event>
 5   0  0.1371753E-05  0.2304879E+04  0.7818609E-02  0.8476000E-01
        1   -1    0    0  501    0  0.00000000000E+00  0.00000000000E+00  0.14644189372E+04  0.14644189372E+04  0.50400001928E-02 0. -1.
       -1   -1    0    0    0  501  0.00000000000E+00  0.00000000000E+00 -0.90692432935E+03  0.90692432936E+03  0.50400001928E-02 0.  1.
    10030    2    1    2    0    0  0.00000000000E+00  0.00000000000E+00  0.55749460782E+03  0.23713432665E+04  0.23048793135E+04 0.  0.
        3    1    3    3  502    0 -0.10011051120E+04 -0.12668615972E+03  0.85144629407E+03  0.13203111869E+04  0.10100000352E+00 0. -1.
       -3    1    3    3    0  502  0.10011051120E+04  0.12668615972E+03 -0.29395168625E+03  0.10510320796E+04  0.10100000352E+00 0.  1.
</event>
<event>
 5   0  0.2994157E-05  0.2301015E+04  0.7818609E-02  0.8477521E-01
       -2   -1    0    0    0  501  0.00000000000E+00  0.00000000000E+00  0.10178057582E+04  0.10178057582E+04  0.25500000920E-02 0.  1.
        2   -1    0    0  501    0  0.00000000000E+00  0.00000000000E+00 -0.13005110570E+04  0.13005110570E+04  0.25500000920E-02 0. -1.
    10030    2    1    2    0    0  0.00000000000E+00  0.00000000000E+00 -0.28270529882E+03  0.23183168152E+04  0.23010151172E+04 0.  0.
        4    1    3    3  502    0  0.18411779179E+03 -0.73386485116E+03 -0.10145928457E+04  0.12656449883E+04  0.12699999809E+01 0. -1.
       -4    1    3    3    0  502 -0.18411779179E+03  0.73386485116E+03  0.73188754684E+03  0.10526718269E+04  0.12699999809E+01 0.  1.
</event>
<event>
 5   0  0.2938972E-05  0.2304029E+04  0.7818609E-02  0.8476334E-01
        2   -1    0    0  501    0  0.00000000000E+00  0.00000000000E+00  0.13647847311E+04  0.13647847311E+04  0.25500000920E-02 0.  1.
       -2   -1    0    0    0  501  0.00000000000E+00  0.00000000000E+00 -0.97241497089E+03  0.97241497089E+03  0.25500000920E-02 0. -1.
    10030    2    1    2    0    0  0.00000000000E+00  0.00000000000E+00  0.39236976019E+03  0.23371997020E+04  0.23040287364E+04 0.  0.
        2    1    3    3  502    0 -0.54036600107E+03 -0.10099032075E+03  0.12231547744E+04  0.13410078531E+04  0.25500000920E-02 0.  1.
       -2    1    3    3    0  502  0.54036600107E+03  0.10099032075E+03 -0.83078501417E+03  0.99619184888E+03  0.25500000920E-02 0. -1.
</event>
<event>
 5   0  0.1303224E-05  0.2266220E+04  0.7818609E-02  0.8491360E-01
       -1   -1    0    0    0  501  0.00000000000E+00  0.00000000000E+00  0.44017797730E+03  0.44017797733E+03  0.50400001928E-02 0. -1.
        1   -1    0    0  501    0  0.00000000000E+00  0.00000000000E+00 -0.29168618845E+04  0.29168618845E+04  0.50400001928E-02 0.  1.
    10030    2    1    2    0    0  0.00000000000E+00  0.00000000000E+00 -0.24766839072E+04  0.33570398618E+04  0.22662200815E+04 0.  0.
        2    1    3    3  502    0  0.52868373158E+02 -0.89209418542E+03 -0.22703060794E+04  0.24398599949E+04  0.25500000920E-02 0.  1.
       -2    1    3    3    0  502 -0.52868373158E+02  0.89209418542E+03 -0.20637782784E+03  0.91717986697E+03  0.25500000920E-02 0. -1.
</event>
<event>
 5   0  0.2938972E-05  0.2283972E+04  0.7818609E-02  0.8484268E-01
        2   -1    0    0  501    0  0.00000000000E+00  0.00000000000E+00  0.12623565423E+04  0.12623565423E+04  0.25500000920E-02 0.  1.
       -2   -1    0    0    0  501  0.00000000000E+00  0.00000000000E+00 -0.10330931255E+04  0.10330931255E+04  0.25500000920E-02 0. -1.
    10030    2    1    2    0    0  0.00000000000E+00  0.00000000000E+00  0.22926341684E+03  0.22954496678E+04  0.22839718613E+04 0.  0.
        2    1    3    3  502    0 -0.93437475392E+03 -0.25914584753E+03 -0.49165697083E+03  0.10871703307E+04  0.25500000920E-02 0. -1.
       -2    1    3    3    0  502  0.93437475392E+03  0.25914584753E+03  0.72092038767E+03  0.12082793371E+04  0.25500000920E-02 0.  1.
</event>
<event>
 5   0  0.1303224E-05  0.2326865E+04  0.7818609E-02  0.8467403E-01
       -1   -1    0    0    0  501  0.00000000000E+00  0.00000000000E+00  0.10455679470E+04  0.10455679470E+04  0.50400001928E-02 0. -1.
        1   -1    0    0  501    0  0.00000000000E+00  0.00000000000E+00 -0.12945836574E+04  0.12945836574E+04  0.50400001928E-02 0.  1.
    10030    2    1    2    0    0  0.00000000000E+00  0.00000000000E+00 -0.24901571044E+03  0.23401516044E+04  0.23268649955E+04 0.  0.
        2    1    3    3  502    0 -0.63645618525E+03  0.94394787580E+03 -0.36558709242E+03  0.11957290622E+04  0.25500000920E-02 0.  1.
       -2    1    3    3    0  502  0.63645618525E+03 -0.94394787580E+03  0.11657138198E+03  0.11444225422E+04  0.25500000920E-02 0. -1.
</event>
<event>
 5   0  0.1327820E-05  0.2299480E+04  0.7818609E-02  0.8478126E-01
        1   -1    0    0  501    0  0.00000000000E+00  0.00000000000E+00  0.18485117786E+04  0.18485117786E+04  0.50400001928E-02 0. -1.
       -1   -1    0    0    0  501  0.00000000000E+00  0.00000000000E+00 -0.71511676033E+03  0.71511676035E+03  0.50400001928E-02 0.  1.
    10030    2    1    2    0    0  0.00000000000E+00  0.00000000000E+00  0.11333950183E+04  0.25636285390E+04  0.22994797278E+04 0.  0.
        1    1    3    3  502    0 -0.22890933237E+03 -0.36547822401E+03 -0.62153355860E+03  0.75649043560E+03  0.50400001928E-02 0.  1.
       -1    1    3    3    0  502  0.22890933237E+03  0.36547822401E+03  0.17549285769E+04  0.18071381034E+04  0.50400001928E-02 0. -1.
</event>
<event>
 5   0  0.2938972E-05  0.2304363E+04  0.7818609E-02  0.8476203E-01
        2   -1    0    0  501    0  0.00000000000E+00  0.00000000000E+00  0.12688290131E+04  0.12688290131E+04  0.25500000920E-02 0. -1.
       -2   -1    0    0    0  501  0.00000000000E+00  0.00000000000E+00 -0.10462579116E+04  0.10462579116E+04  0.25500000920E-02 0.  1.
    10030    2    1    2    0    0  0.00000000000E+00  0.00000000000E+00  0.22257110152E+03  0.23150869248E+04  0.23043631602E+04 0.  0.
        2    1    3    3  502    0 -0.43041727394E+03 -0.69474338921E+03  0.92721959050E+03  0.12359868833E+04  0.25500000920E-02 0. -1.
       -2    1    3    3    0  502  0.43041727394E+03  0.69474338921E+03 -0.70464848898E+03  0.10791000415E+04  0.25500000920E-02 0.  1.
</event>
<event>
 5   0  0.2994157E-05  0.2242348E+04  0.7818609E-02  0.8501006E-01
        2   -1    0    0  501    0  0.00000000000E+00  0.00000000000E+00  0.20090198212E+04  0.20090198212E+04  0.25500000920E-02 0. -1.
       -2   -1    0    0    0  501  0.00000000000E+00  0.00000000000E+00 -0.62569353526E+03  0.62569353526E+03  0.25500000920E-02 0.  1.
    10030    2    1    2    0    0  0.00000000000E+00  0.00000000000E+00  0.13833262859E+04  0.26347133564E+04  0.22423476219E+04 0.  0.
        4    1    3    3  502    0  0.43065501227E+03 -0.19009710567E+03  0.18872757342E+04  0.19450994728E+04  0.12699999809E+01 0. -1.
       -4    1    3    3    0  502 -0.43065501227E+03  0.19009710567E+03 -0.50394944830E+03  0.68961388365E+03  0.12699999809E+01 0.  1.
</event>
<event>
 5   0  0.2816178E-05  0.2269229E+04  0.7818609E-02  0.8490153E-01
       -2   -1    0    0    0  501  0.00000000000E+00  0.00000000000E+00  0.52958384602E+03  0.52958384603E+03  0.25500000920E-02 0.  1.
        2   -1    0    0  501    0  0.00000000000E+00  0.00000000000E+00 -0.24308710404E+04  0.24308710404E+04  0.25500000920E-02 0. -1.
    10030    2    1    2    0    0  0.00000000000E+00  0.00000000000E+00 -0.19012871944E+04  0.29604548864E+04  0.22692289746E+04 0.  0.
        1    1    3    3  502    0 -0.53622125725E+03 -0.87351041599E+03 -0.31579870433E+03  0.10725122401E+04  0.50400001928E-02 0.  1.
       -1    1    3    3    0  502  0.53622125725E+03  0.87351041599E+03 -0.15854884901E+04  0.18879426463E+04  0.50400001928E-02 0. -1.
</event>
<event>
 5   0  0.2816178E-05  0.2300451E+04  0.7818609E-02  0.8477743E-01
        2   -1    0    0  501    0  0.00000000000E+00  0.00000000000E+00  0.12990348799E+04  0.12990348799E+04  0.25500000920E-02 0. -1.
       -2   -1    0    0    0  501  0.00000000000E+00  0.00000000000E+00 -0.10184626391E+04  0.10184626391E+04  0.25500000920E-02 0.  1.
    10030    2    1    2    0    0  0.00000000000E+00  0.00000000000E+00  0.28057224081E+03  0.23174975190E+04  0.23004508185E+04 0.  0.
        1    1    3    3  502    0  0.98913747349E+03  0.17364420915E+03  0.70522071745E+03  0.12271436400E+04  0.50400001928E-02 0. -1.
       -1    1    3    3    0  502 -0.98913747349E+03 -0.17364420915E+03 -0.42464847664E+03  0.10903538791E+04  0.50400001928E-02 0.  1.
</event>
<event>
 5   0  0.1303224E-05  0.2356338E+04  0.7818609E-02  0.8456033E-01
        1   -1    0    0  501    0  0.00000000000E+00  0.00000000000E+00  0.10394018920E+04  0.10394018920E+04  0.50400001928E-02 0.  1.
       -1   -1    0    0    0  501  0.00000000000E+00  0.00000000000E+00 -0.13354620896E+04  0.13354620896E+04  0.50400001928E-02 0. -1.
    10030    2    1    2    0    0  0.00000000000E+00  0.00000000000E+00 -0.29606019763E+03  0.23748639816E+04  0.23563376860E+04 0.  0.
        2    1    3    3  502    0 -0.93033273301E+03  0.55276258223E+03  0.32148271043E+03  0.11289006154E+04  0.25500000920E-02 0.  1.
       -2    1    3    3    0  502  0.93033273301E+03 -0.55276258223E+03 -0.61754290806E+03  0.12459633661E+04  0.25500000920E-02 0. -1.
</event>
<event>
 5   0  0.1017200E-05  0.2291174E+04  0.7818609E-02  0.8481409E-01
        4   -1    0    0  501    0  0.00000000000E+00  0.00000000000E+00  0.77658151920E+03  0.77658255766E+03  0.12699999809E+01 0.  1.
       -4   -1    0    0    0  501  0.00000000000E+00  0.00000000000E+00 -0.16899288349E+04  0.16899293121E+04  0.12699999809E+01 0. -1.
    10030    2    1    2    0    0  0.00000000000E+00  0.00000000000E+00 -0.91334731571E+03  0.24665118698E+04  0.22911738224E+04 0.  0.
        1    1    3    3  502    0  0.51284065778E+03  0.20961221572E+03  0.62277091152E+03  0.83353849911E+03  0.50400001928E-02 0.  1.
       -1    1    3    3    0  502 -0.51284065778E+03 -0.20961221572E+03 -0.15361182272E+04  0.16329733707E+04  0.50400001928E-02 0. -1.
</event>
<event>
 5   0  0.2816178E-05  0.2289104E+04  0.7818609E-02  0.8482230E-01
        2   -1    0    0  501    0  0.00000000000E+00  0.00000000000E+00  0.27767890018E+04  0.27767890018E+04  0.25500000920E-02 0. -1.
       -2   -1    0    0    0  501  0.00000000000E+00  0.00000000000E+00 -0.47176774321E+03  0.47176774322E+03  0.25500000920E-02 0.  1.
    10030    2    1    2    0    0  0.00000000000E+00  0.00000000000E+00  0.23050212586E+04  0.32485567450E+04  0.22891041748E+04 0.  0.
        1    1    3    3  502    0 -0.15178495438E+03  0.34308698501E+03 -0.38203209554E+03  0.53543988804E+03  0.50400001928E-02 0.  1.
       -1    1    3    3    0  502  0.15178495438E+03 -0.34308698501E+03  0.26870533542E+04  0.27131168570E+04  0.50400001928E-02 0. -1.
</event>
<event>
 5   0  0.2910126E-05  0.2294152E+04  0.7818609E-02  0.8480231E-01
       -2   -1    0    0    0  501  0.00000000000E+00  0.00000000000E+00  0.49218664123E+03  0.49218664124E+03  0.25500000920E-02 0.  1.
        2   -1    0    0  501    0  0.00000000000E+00  0.00000000000E+00 -0.26733415300E+04  0.26733415300E+04  0.25500000920E-02 0. -1.
    10030    2    1    2    0    0  0.00000000000E+00  0.00000000000E+00 -0.21811548888E+04  0.31655281712E+04  0.22941516851E+04 0.  0.
        5    1    3    3  502    0 -0.34111233010E+03  0.10332929209E+04 -0.15913399536E+04  0.19278062195E+04  0.46999998093E+01 0. -1.
       -5    1    3    3    0  502  0.34111233010E+03 -0.10332929209E+04 -0.58981493518E+03  0.12377219517E+04  0.46999998093E+01 0.  1.
</event>
<event>
 5   0  0.2994157E-05  0.2301512E+04  0.7818609E-02  0.8477325E-01
       -2   -1    0    0    0  501  0.00000000000E+00  0.00000000000E+00  0.61355101507E+03  0.61355101507E+03  0.25500000920E-02 0. -1.
        2   -1    0    0  501    0  0.00000000000E+00  0.00000000000E+00 -0.21583202864E+04  0.21583202864E+04  0.25500000920E-02 0.  1.
    10030    2    1    2    0    0  0.00000000000E+00  0.00000000000E+00 -0.15447692713E+04  0.27718713015E+04  0.23015122008E+04 0.  0.
        4    1    3    3  502    0  0.11350854503E+04 -0.12216364010E+03 -0.94647772938E+03  0.14829580707E+04  0.12699999809E+01 0.  1.
       -4    1    3    3    0  502 -0.11350854503E+04  0.12216364010E+03 -0.59829154197E+03  0.12889132308E+04  0.12699999809E+01 0. -1.
</event>
<event>
 5   0  0.1327820E-05  0.2294707E+04  0.7818609E-02  0.8480011E-01
        1   -1    0    0  501    0  0.00000000000E+00  0.00000000000E+00  0.12214239606E+04  0.12214239606E+04  0.50400001928E-02 0.  1.
       -1   -1    0    0    0  501  0.00000000000E+00  0.00000000000E+00 -0.10777750593E+04  0.10777750593E+04  0.50400001928E-02 0. -1.
    10030    2    1    2    0    0  0.00000000000E+00  0.00000000000E+00  0.14364890130E+03  0.22991990199E+04  0.22947071984E+04 0.  0.
        1    1    3    3  502    0  0.21382358878E+03 -0.27497352424E+03 -0.10235168654E+04  0.10811649920E+04  0.50400001928E-02 0. -1.
       -1    1    3    3    0  502 -0.21382358878E+03  0.27497352424E+03  0.11671657667E+04  0.12180340279E+04  0.50400001928E-02 0.  1.
</event>
<event>
 5   0  0.2871888E-05  0.2321969E+04  0.7818609E-02  0.8469309E-01
       -2   -1    0    0    0  501  0.00000000000E+00  0.00000000000E+00  0.11728662960E+04  0.11728662960E+04  0.25500000920E-02 0. -1.
        2   -1    0    0  501    0  0.00000000000E+00  0.00000000000E+00 -0.11492230000E+04  0.11492230000E+04  0.25500000920E-02 0.  1.
    10030    2    1    2    0    0  0.00000000000E+00  0.00000000000E+00  0.23643295986E+02  0.23220892960E+04  0.23219689259E+04 0.  0.
        3    1    3    3  502    0  0.38414868434E+03 -0.23993113710E+03 -0.10572275712E+04  0.11501596888E+04  0.10100000352E+00 0.  1.
       -3    1    3    3    0  502 -0.38414868434E+03  0.23993113710E+03  0.10808708672E+04  0.11719296071E+04  0.10100000352E+00 0. -1.
</event>
<event>
 5   0  0.2816178E-05  0.2318942E+04  0.7818609E-02  0.8470490E-01
       -2   -1    0    0    0  501  0.00000000000E+00  0.00000000000E+00  0.75749006087E+03  0.75749006087E+03  0.25500000920E-02 0. -1.
        2   -1    0    0  501    0  0.00000000000E+00  0.00000000000E+00 -0.17747736888E+04  0.17747736888E+04  0.25500000920E-02 0.  1.
    10030    2    1    2    0    0  0.00000000000E+00  0.00000000000E+00 -0.10172836279E+04  0.25322637496E+04  0.23189423706E+04 0.  0.
        1    1    3    3  502    0  0.53145787661E+03  0.10186052241E+04 -0.67910907213E+03  0.13346135055E+04  0.50400001928E-02 0. -1.
       -1    1    3    3    0  502 -0.53145787661E+03 -0.10186052241E+04 -0.33817455577E+03  0.11976502442E+04  0.50400001928E-02 0.  1.
</event>
<event>
 5   0  0.1284837E-05  0.2309938E+04  0.7818609E-02  0.8474013E-01
        1   -1    0    0  501    0  0.00000000000E+00  0.00000000000E+00  0.10739980815E+04  0.10739980815E+04  0.50400001928E-02 0.  1.
       -1   -1    0    0    0  501  0.00000000000E+00  0.00000000000E+00 -0.12420444252E+04  0.12420444252E+04  0.50400001928E-02 0. -1.
    10030    2    1    2    0    0  0.00000000000E+00  0.00000000000E+00 -0.16804634369E+03  0.23160425067E+04  0.23099379470E+04 0.  0.
        4    1    3    3  502    0  0.43071575248E+03  0.88747086247E+03  0.51825650542E+03  0.11143213224E+04  0.12699999809E+01 0.  1.
       -4    1    3    3    0  502 -0.43071575248E+03 -0.88747086247E+03 -0.68630284911E+03  0.12017211843E+04  0.12699999809E+01 0. -1.
</event>
<event>
 5   0  0.2871888E-05  0.2277669E+04  0.7818609E-02  0.8486778E-01
       -2   -1    0    0    0  501  0.00000000000E+00  0.00000000000E+00  0.60747557298E+03  0.60747557299E+03  0.25500000920E-02 0.  1.
        2   -1    0    0  501    0  0.00000000000E+00  0.00000000000E+00 -0.21349733719E+04  0.21349733719E+04  0.25500000920E-02 0. -1.
    10030    2    1    2    0    0  0.00000000000E+00  0.00000000000E+00 -0.15274977989E+04  0.27424489449E+04  0.22776691352E+04 0.  0.
        3    1    3    3  502    0 -0.60323291640E+03  0.40016145115E+02  0.39831060877E+03  0.72397692957E+03  0.10100000352E+00 0.  1.
       -3    1    3    3    0  502  0.60323291640E+03 -0.40016145115E+02 -0.19258084077E+04  0.20184720153E+04  0.10100000352E+00 0. -1.
</event>
<event>
 5   0  0.2816178E-05  0.2303024E+04  0.7818609E-02  0.8476730E-01
        2   -1    0    0  501    0  0.00000000000E+00  0.00000000000E+00  0.16104852593E+04  0.16104852593E+04  0.25500000920E-02 0.  1.
       -2   -1    0    0    0  501  0.00000000000E+00  0.00000000000E+00 -0.82334151097E+03  0.82334151098E+03  0.25500000920E-02 0. -1.
    10030    2    1    2    0    0  0.00000000000E+00  0.00000000000E+00  0.78714374836E+03  0.24338267703E+04  0.23030235490E+04 0.  0.
        1    1    3    3  502    0 -0.70362648698E+03 -0.77482304559E+03  0.90098641094E+03  0.13810204553E+04  0.50400001928E-02 0. -1.
       -1    1    3    3    0  502  0.70362648698E+03  0.77482304559E+03 -0.11384266258E+03  0.10528063150E+04  0.50400001928E-02 0.  1.
</event>
<event>
 5   0  0.1303224E-05  0.2328645E+04  0.7818609E-02  0.8466712E-01
        1   -1    0    0  501    0  0.00000000000E+00  0.00000000000E+00  0.16678871496E+04  0.16678871496E+04  0.50400001928E-02 0. -1.
       -1   -1    0    0    0  501  0.00000000000E+00  0.00000000000E+00 -0.81279323779E+03  0.81279323781E+03  0.50400001928E-02 0.  1.
    10030    2    1    2    0    0  0.00000000000E+00  0.00000000000E+00  0.85509391181E+03  0.24806803874E+04  0.23286454403E+04 0.  0.
        2    1    3    3  502    0  0.64239532887E+03 -0.78957623608E+03 -0.17464293710E+03  0.10327645165E+04  0.25500000920E-02 0.  1.
       -2    1    3    3    0  502 -0.64239532887E+03  0.78957623608E+03  0.10297368489E+04  0.14479158709E+04  0.25500000920E-02 0. -1.
</event>
<event>
 5   0  0.2910126E-05  0.2310417E+04  0.7818609E-02  0.8473825E-01
        2   -1    0    0  501    0  0.00000000000E+00  0.00000000000E+00  0.16040529511E+04  0.16040529511E+04  0.25500000920E-02 0.  1.
       -2   -1    0    0    0  501  0.00000000000E+00  0.00000000000E+00 -0.83195908659E+03  0.83195908659E+03  0.25500000920E-02 0. -1.
    10030    2    1    2    0    0  0.00000000000E+00  0.00000000000E+00  0.77209386453E+03  0.24360120377E+04  0.23104167832E+04 0.  0.
        5    1    3    3  502    0  0.10012676526E+04 -0.44172238314E+03 -0.39649138574E+01  0.10943917884E+04  0.46999998093E+01 0. -1.
       -5    1    3    3    0  502 -0.10012676526E+04  0.44172238314E+03  0.77605877839E+03  0.13416202493E+04  0.46999998093E+01 0.  1.
</event>
<event>
 5   0  0.1327820E-05  0.2389557E+04  0.7818609E-02  0.8443424E-01
        1   -1    0    0  501    0  0.00000000000E+00  0.00000000000E+00  0.97881853672E+03  0.97881853673E+03  0.50400001928E-02 0.  1.
       -1   -1    0    0    0  501  0.00000000000E+00  0.00000000000E+00 -0.14583864470E+04  0.14583864470E+04  0.50400001928E-02 0. -1.
    10030    2    1    2    0    0  0.00000000000E+00  0.00000000000E+00 -0.47956791028E+03  0.24372049837E+04  0.23895570201E+04 0.  0.
        1    1    3    3  502    0  0.11779775247E+04 -0.19857509856E+03 -0.26099698129E+03  0.12227765711E+04  0.50400001928E-02 0.  1.
       -1    1    3    3    0  502 -0.11779775247E+04  0.19857509856E+03 -0.21857092899E+03  0.12144284127E+04  0.50400001928E-02 0. -1.
</event>
<event>
 5   0  0.2816178E-05  0.2303885E+04  0.7818609E-02  0.8476391E-01
       -2   -1    0    0    0  501  0.00000000000E+00  0.00000000000E+00  0.11184598244E+04  0.11184598244E+04  0.25500000920E-02 0.  1.
        2   -1    0    0  501    0  0.00000000000E+00  0.00000000000E+00 -0.11864276359E+04  0.11864276359E+04  0.25500000920E-02 0. -1.
    10030    2    1    2    0    0  0.00000000000E+00  0.00000000000E+00 -0.67967811449E+02  0.23048874603E+04  0.23038851059E+04 0.  0.
        1    1    3    3  502    0  0.10292496496E+04 -0.27644721526E+03  0.40346339782E+03  0.11395440392E+04  0.50400001928E-02 0.  1.
       -1    1    3    3    0  502 -0.10292496496E+04  0.27644721526E+03 -0.47143120927E+03  0.11653434211E+04  0.50400001928E-02 0. -1.
</event>
<event>
 5   0  0.2938972E-05  0.2280982E+04  0.7818609E-02  0.8485457E-01
       -2   -1    0    0    0  501  0.00000000000E+00  0.00000000000E+00  0.69832546166E+03  0.69832546166E+03  0.25500000920E-02 0.  1.
        2   -1    0    0  501    0  0.00000000000E+00  0.00000000000E+00 -0.18626273938E+04  0.18626273938E+04  0.25500000920E-02 0. -1.
    10030    2    1    2    0    0  0.00000000000E+00  0.00000000000E+00 -0.11643019322E+04  0.25609528555E+04  0.22809823627E+04 0.  0.
        2    1    3    3  502    0  0.35011641719E+03  0.10400521853E+04 -0.23350397443E+03  0.11219688765E+04  0.25500000920E-02 0.  1.
       -2    1    3    3    0  502 -0.35011641719E+03 -0.10400521853E+04 -0.93079795772E+03  0.14389839790E+04  0.25500000920E-02 0. -1.
</event>
<event>
 5   0  0.1017200E-05  0.2302181E+04  0.7818609E-02  0.8477062E-01
       -3   -1    0    0    0  501  0.00000000000E+00  0.00000000000E+00  0.11609490590E+04  0.11609490634E+04  0.10100000352E+00 0. -1.
        3   -1    0    0  501    0  0.00000000000E+00  0.00000000000E+00 -0.11413158336E+04  0.11413158380E+04  0.10100000352E+00 0.  1.
    10030    2    1    2    0    0  0.00000000000E+00  0.00000000000E+00  0.19633225461E+02  0.23022649015E+04  0.23021811860E+04 0.  0.
        2    1    3    3  502    0 -0.18567225050E+03  0.44623348615E+03 -0.10349275766E+04  0.11422230945E+04  0.25500000920E-02 0.  1.
       -2    1    3    3    0  502  0.18567225050E+03 -0.44623348615E+03  0.10545608020E+04  0.11600418070E+04  0.25500000920E-02 0. -1.
</event>
<event>
 5   0  0.1371753E-05  0.2313900E+04  0.7818609E-02  0.8472461E-01
        1   -1    0    0  501    0  0.00000000000E+00  0.00000000000E+00  0.26394063900E+04  0.26394063900E+04  0.50400001928E-02 0.  1.
       -1   -1    0    0    0  501  0.00000000000E+00  0.00000000000E+00 -0.50713422967E+03  0.50713422970E+03  0.50400001928E-02 0. -1.
    10030    2    1    2    0    0  0.00000000000E+00  0.00000000000E+00  0.21322721604E+04  0.31465406197E+04  0.23139000207E+04 0.  0.
        3    1    3    3  502    0  0.51555218938E+03  0.98599845397E+03  0.63494297252E+03  0.12810697092E+04  0.10100000352E+00 0. -1.
       -3    1    3    3    0  502 -0.51555218938E+03 -0.98599845397E+03  0.14973291878E+04  0.18654709106E+04  0.10100000352E+00 0.  1.
</event>
<event>
 5   0  0.2871888E-05  0.2300781E+04  0.7818609E-02  0.8477613E-01
        2   -1    0    0  501    0  0.00000000000E+00  0.00000000000E+00  0.10625476585E+04  0.10625476585E+04  0.25500000920E-02 0.  1.
       -2   -1    0    0    0  501  0.00000000000E+00  0.00000000000E+00 -0.12454951127E+04  0.12454951127E+04  0.25500000920E-02 0. -1.
    10030    2    1    2    0    0  0.00000000000E+00  0.00000000000E+00 -0.18294745427E+03  0.23080427712E+04  0.23007806638E+04 0.  0.
        3    1    3    3  502    0  0.52008760482E+03  0.98354822402E+03 -0.38486854855E+03  0.11772773826E+04  0.10100000352E+00 0. -1.
       -3    1    3    3    0  502 -0.52008760482E+03 -0.98354822402E+03  0.20192109428E+03  0.11307653887E+04  0.10100000352E+00 0.  1.
</event>
<event>
 5   0  0.2910126E-05  0.2295911E+04  0.7818609E-02  0.8479535E-01
        2   -1    0    0  501    0  0.00000000000E+00  0.00000000000E+00  0.10930953952E+04  0.10930953953E+04  0.25500000920E-02 0. -1.
       -2   -1    0    0    0  501  0.00000000000E+00  0.00000000000E+00 -0.12055693890E+04  0.12055693890E+04  0.25500000920E-02 0.  1.
    10030    2    1    2    0    0  0.00000000000E+00  0.00000000000E+00 -0.11247399378E+03  0.22986647843E+04  0.22959114511E+04 0.  0.
        5    1    3    3  502    0 -0.71252427949E+02 -0.11441314167E+04 -0.11686248907E+03  0.11522988061E+04  0.46999998093E+01 0. -1.
       -5    1    3    3    0  502  0.71252427949E+02  0.11441314167E+04  0.43884952962E+01  0.11463659782E+04  0.46999998093E+01 0.  1.
</event>
<event>
 5   0  0.1017200E-05  0.2287474E+04  0.7818609E-02  0.8482877E-01
       -3   -1    0    0    0  501  0.00000000000E+00  0.00000000000E+00  0.13763978311E+04  0.13763978348E+04  0.10100000352E+00 0.  1.
        3   -1    0    0  501    0  0.00000000000E+00  0.00000000000E+00 -0.95040383440E+03  0.95040383977E+03  0.10100000352E+00 0. -1.
    10030    2    1    2    0    0  0.00000000000E+00  0.00000000000E+00  0.42599399671E+03  0.23268016746E+04  0.22874735294E+04 0.  0.
        2    1    3    3  502    0  0.45794047985E+03  0.53953470830E+02 -0.85166590780E+03  0.96848091288E+03  0.25500000920E-02 0. -1.
       -2    1    3    3    0  502 -0.45794047985E+03 -0.53953470830E+02  0.12776599045E+04  0.13583207617E+04  0.25500000920E-02 0.  1.
</event>
<event>
 5   0  0.2816178E-05  0.2297931E+04  0.7818609E-02  0.8478737E-01
       -2   -1    0    0    0  501  0.00000000000E+00  0.00000000000E+00  0.12315284741E+04  0.12315284741E+04  0.25500000920E-02 0. -1.
        2   -1    0    0  501    0  0.00000000000E+00  0.00000000000E+00 -0.10719374063E+04  0.10719374063E+04  0.25500000920E-02 0.  1.
    10030    2    1    2    0    0  0.00000000000E+00  0.00000000000E+00  0.15959106771E+03  0.23034658804E+04  0.22979307547E+04 0.  0.
        1    1    3    3  502    0  0.20873228710E+03  0.10469523400E+03 -0.10478992345E+04  0.10736028434E+04  0.50400001928E-02 0.  1.
       -1    1    3    3    0  502 -0.20873228710E+03 -0.10469523400E+03  0.12074903022E+04  0.12298630370E+04  0.50400001928E-02 0. -1.
</event>
<event>
 5   0  0.1327820E-05  0.2296215E+04  0.7818609E-02  0.8479415E-01
       -1   -1    0    0    0  501  0.00000000000E+00  0.00000000000E+00  0.10504163880E+04  0.10504163880E+04  0.50400001928E-02 0.  1.
        1   -1    0    0  501    0  0.00000000000E+00  0.00000000000E+00 -0.12548846395E+04  0.12548846395E+04  0.50400001928E-02 0. -1.
    10030    2    1    2    0    0  0.00000000000E+00  0.00000000000E+00 -0.20446825142E+03  0.23053010275E+04  0.22962154867E+04 0.  0.
        1    1    3    3  502    0  0.45265401645E+03  0.85517908295E+02 -0.11580331593E+04  0.12462944152E+04  0.50400001928E-02 0. -1.
       -1    1    3    3    0  502 -0.45265401645E+03 -0.85517908295E+02  0.95356490792E+03  0.10590066123E+04  0.50400001928E-02 0.  1.
</event>
<event>
 5   0  0.2871888E-05  0.2296184E+04  0.7818609E-02  0.8479427E-01
       -2   -1    0    0    0  501  0.00000000000E+00  0.00000000000E+00  0.88728561083E+03  0.88728561084E+03  0.25500000920E-02 0. -1.
        2   -1    0    0  501    0  0.00000000000E+00  0.00000000000E+00 -0.14855596005E+04  0.14855596005E+04  0.25500000920E-02 0.  1.
    10030    2    1    2    0    0  0.00000000000E+00  0.00000000000E+00 -0.59827398965E+03  0.23728452113E+04  0.22961843633E+04 0.  0.
        3    1    3    3  502    0  0.76174347345E+03 -0.13452810453E+03 -0.11758509719E+04  0.14074716511E+04  0.10100000352E+00 0.  1.
       -3    1    3    3    0  502 -0.76174347345E+03  0.13452810453E+03  0.57757698223E+03  0.96537356027E+03  0.10100000352E+00 0. -1.
</event>
<event>
 5   0  0.2994157E-05  0.2309775E+04  0.7818609E-02  0.8474077E-01
       -2   -1    0    0    0  501  0.00000000000E+00  0.00000000000E+00  0.72129642952E+03  0.72129642953E+03  0.25500000920E-02 0.  1.
        2   -1    0    0  501    0  0.00000000000E+00  0.00000000000E+00 -0.18491218303E+04  0.18491218303E+04  0.25500000920E-02 0. -1.
    10030    2    1    2    0    0  0.00000000000E+00  0.00000000000E+00 -0.11278254007E+04  0.25704182598E+04  0.23097748582E+04 0.  0.
        4    1    3    3  502    0 -0.13160371762E+03  0.98614427169E+03 -0.12165775146E+04  0.15715796273E+04  0.12699999809E+01 0.  1.
       -4    1    3    3    0  502  0.13160371762E+03 -0.98614427169E+03  0.88752113870E+02  0.99883863246E+03  0.12699999809E+01 0. -1.
</event>
<event>
 5   0  0.2938972E-05  0.2303728E+04  0.7818609E-02  0.8476453E-01
       -2   -1    0    0    0  501  0.00000000000E+00  0.00000000000E+00  0.70393195482E+03  0.70393195482E+03  0.25500000920E-02 0. -1.
        2   -1    0    0  501    0  0.00000000000E+00  0.00000000000E+00 -0.18848285342E+04  0.18848285342E+04  0.25500000920E-02 0.  1.
    10030    2    1    2    0    0  0.00000000000E+00  0.00000000000E+00 -0.11808965794E+04  0.25887604890E+04  0.23037283126E+04 0.  0.
        2    1    3    3  502    0  0.99702130242E+03 -0.51212074276E+03 -0.88875883642E+03  0.14304584587E+04  0.25500000920E-02 0.  1.
       -2    1    3    3    0  502 -0.99702130242E+03  0.51212074276E+03 -0.29213774295E+03  0.11583020303E+04  0.25500000920E-02 0. -1.
</event>
<event>
 5   0  0.2938972E-05  0.2301086E+04  0.7818609E-02  0.8477493E-01
        2   -1    0    0  501    0  0.00000000000E+00  0.00000000000E+00  0.30775826789E+04  0.30775826789E+04  0.25500000920E-02 0. -1.
       -2   -1    0    0    0  501  0.00000000000E+00  0.00000000000E+00 -0.43012618769E+03  0.43012618770E+03  0.25500000920E-02 0.  1.
    10030    2    1    2    0    0  0.00000000000E+00  0.00000000000E+00  0.26474564912E+04  0.35077088666E+04  0.23010857481E+04 0.  0.
        2    1    3    3  502    0  0.84289260567E+03 -0.73455651069E+03  0.17375822358E+04  0.20662122926E+04  0.25500000920E-02 0. -1.
       -2    1    3    3    0  502 -0.84289260567E+03  0.73455651069E+03  0.90987425544E+03  0.14414965740E+04  0.25500000920E-02 0.  1.
</event>
<event>
 5   0  0.2816178E-05  0.2329260E+04  0.7818609E-02  0.8466473E-01
       -2   -1    0    0    0  501  0.00000000000E+00  0.00000000000E+00  0.82059323959E+03  0.82059323960E+03  0.25500000920E-02 0.  1.
        2   -1    0    0  501    0  0.00000000000E+00  0.00000000000E+00 -0.16529060276E+04  0.16529060276E+04  0.25500000920E-02 0. -1.
    10030    2    1    2    0    0  0.00000000000E+00  0.00000000000E+00 -0.83231278801E+03  0.24734992672E+04  0.23292604079E+04 0.  0.
        1    1    3    3  502    0  0.68253116201E+03  0.81536017765E+03 -0.92065727781E+03  0.14065101598E+04  0.50400001928E-02 0. -1.
       -1    1    3    3    0  502 -0.68253116201E+03 -0.81536017765E+03  0.88344489797E+02  0.10669891074E+04  0.50400001928E-02 0.  1.
</event>
<event>
 5   0  0.1017200E-05  0.2290900E+04  0.7818609E-02  0.8481518E-01
       -3   -1    0    0    0  501  0.00000000000E+00  0.00000000000E+00  0.80276633194E+03  0.80276633829E+03  0.10100000352E+00 0.  1.
        3   -1    0    0  501    0  0.00000000000E+00  0.00000000000E+00 -0.16344185268E+04  0.16344185299E+04  0.10100000352E+00 0. -1.
    10030    2    1    2    0    0  0.00000000000E+00  0.00000000000E+00 -0.83165219482E+03  0.24371848682E+04  0.22909004144E+04 0.  0.
        2    1    3    3  502    0 -0.37281154462E+03  0.50530678452E+03  0.60332924430E+03  0.87082120513E+03  0.25500000920E-02 0.  1.
       -2    1    3    3    0  502  0.37281154462E+03 -0.50530678452E+03 -0.14349814391E+04  0.15663636630E+04  0.25500000920E-02 0. -1.
</event>
<event>
 5   0  0.1327820E-05  0.2283041E+04  0.7818609E-02  0.8484638E-01
        1   -1    0    0  501    0  0.00000000000E+00  0.00000000000E+00  0.15662084202E+04  0.15662084202E+04  0.50400001928E-02 0. -1.
       -1   -1    0    0    0  501  0.00000000000E+00  0.00000000000E+00 -0.83198924018E+03  0.83198924019E+03  0.50400001928E-02 0.  1.
    10030    2    1    2    0    0  0.00000000000E+00  0.00000000000E+00  0.73421917998E+03  0.23981976604E+04  0.22830405633E+04 0.  0.
        1    1    3    3  502    0 -0.78808071189E+03  0.63033815574E+03  0.92756759742E+03  0.13706856120E+04  0.50400001928E-02 0. -1.
       -1    1    3    3    0  502  0.78808071189E+03 -0.63033815574E+03 -0.19334841744E+03  0.10275120484E+04  0.50400001928E-02 0.  1.
</event>
<event>
 5   0  0.2816178E-05  0.2295689E+04  0.7818609E-02  0.8479623E-01
        2   -1    0    0  501    0  0.00000000000E+00  0.00000000000E+00  0.13576666022E+04  0.13576666022E+04  0.25500000920E-02 0.  1.
       -2   -1    0    0    0  501  0.00000000000E+00  0.00000000000E+00 -0.97044958541E+03  0.97044958541E+03  0.25500000920E-02 0. -1.
    10030    2    1    2    0    0  0.00000000000E+00  0.00000000000E+00  0.38721701680E+03  0.23281161876E+04  0.22956889957E+04 0.  0.
        1    1    3    3  502    0 -0.25697835353E+03 -0.36916908462E+03  0.12645666976E+04  0.13421820368E+04  0.50400001928E-02 0.  1.
       -1    1    3    3    0  502  0.25697835353E+03  0.36916908462E+03 -0.87734968083E+03  0.98593415079E+03  0.50400001928E-02 0. -1.
</event>
<event>
 5   0  0.1303224E-05  0.2226156E+04  0.7818609E-02  0.8507620E-01
       -1   -1    0    0    0  501  0.00000000000E+00  0.00000000000E+00  0.92374304178E+03  0.92374304179E+03  0.50400001928E-02 0. -1.
        1   -1    0    0  501    0  0.00000000000E+00  0.00000000000E+00 -0.13412202197E+04  0.13412202197E+04  0.50400001928E-02 0.  1.
    10030    2    1    2    0    0  0.00000000000E+00  0.00000000000E+00 -0.41747717795E+03  0.22649632615E+04  0.22261561899E+04 0.  0.
        2    1    3    3  502    0 -0.24387344392E+03 -0.10639708840E+04  0.12852814740E+02  0.10916379864E+04  0.25500000920E-02 0. -1.
       -2    1    3    3    0  502  0.24387344392E+03  0.10639708840E+04 -0.43032999269E+03  0.11733252751E+04  0.25500000920E-02 0.  1.
</event>
<event>
 5   0  0.1371753E-05  0.2307499E+04  0.7818609E-02  0.8474970E-01
        1   -1    0    0  501    0  0.00000000000E+00  0.00000000000E+00  0.20377060134E+04  0.20377060135E+04  0.50400001928E-02 0. -1.
       -1   -1    0    0    0  501  0.00000000000E+00  0.00000000000E+00 -0.65325332774E+03  0.65325332776E+03  0.50400001928E-02 0.  1.
    10030    2    1    2    0    0  0.00000000000E+00  0.00000000000E+00  0.13844526857E+04  0.26909593412E+04  0.23074992821E+04 0.  0.
        3    1    3    3  502    0 -0.12026607926E+03 -0.91838826363E+02 -0.64163062123E+03  0.65923301203E+03  0.10100000352E+00 0.  1.
       -3    1    3    3    0  502  0.12026607926E+03  0.91838826363E+02  0.20260833069E+04  0.20317263292E+04  0.10100000352E+00 0. -1.
</event>
<event>
 5   0  0.1284837E-05  0.2304609E+04  0.7818609E-02  0.8476106E-01
       -1   -1    0    0    0  501  0.00000000000E+00  0.00000000000E+00  0.47078955971E+03  0.47078955973E+03  0.50400001928E-02 0.  1.
        1   -1    0    0  501    0  0.00000000000E+00  0.00000000000E+00 -0.28203800947E+04  0.28203800947E+04  0.50400001928E-02 0. -1.
    10030    2    1    2    0    0  0.00000000000E+00  0.00000000000E+00 -0.23495905350E+04  0.32911696545E+04  0.23046088632E+04 0.  0.
        4    1    3    3  502    0 -0.24919517366E+03  0.43894764319E+03  0.30451441649E+03  0.58949462320E+03  0.12699999809E+01 0.  1.
       -4    1    3    3    0  502  0.24919517366E+03 -0.43894764319E+03 -0.26541049515E+04  0.27016750313E+04  0.12699999809E+01 0. -1.
</event>
<event>
 5   0  0.2816178E-05  0.2181040E+04  0.7818609E-02  0.8526361E-01
       -2   -1    0    0    0  501  0.00000000000E+00  0.00000000000E+00  0.10614199496E+04  0.10614199496E+04  0.25500000920E-02 0.  1.
        2   -1    0    0  501    0  0.00000000000E+00  0.00000000000E+00 -0.11204176687E+04  0.11204176687E+04  0.25500000920E-02 0. -1.
    10030    2    1    2    0    0  0.00000000000E+00  0.00000000000E+00 -0.58997719120E+02  0.21818376183E+04  0.21810398120E+04 0.  0.
        1    1    3    3  502    0 -0.76989039870E+03 -0.75740461281E+03  0.12168779597E+03  0.10868306645E+04  0.50400001928E-02 0.  1.
       -1    1    3    3    0  502  0.76989039870E+03  0.75740461281E+03 -0.18068551509E+03  0.10950069538E+04  0.50400001928E-02 0. -1.
</event>
<event>
 5   0  0.1303224E-05  0.2310114E+04  0.7818609E-02  0.8473944E-01
       -1   -1    0    0    0  501  0.00000000000E+00  0.00000000000E+00  0.88171241194E+03  0.88171241195E+03  0.50400001928E-02 0. -1.
        1   -1    0    0  501    0  0.00000000000E+00  0.00000000000E+00 -0.15131431823E+04  0.15131431823E+04  0.50400001928E-02 0.  1.
    10030    2    1    2    0    0  0.00000000000E+00  0.00000000000E+00 -0.63143077034E+03  0.23948555942E+04  0.23101143910E+04 0.  0.
        2    1    3    3  502    0  0.12955556518E+02 -0.18909564454E+02 -0.15129073734E+04  0.15130810086E+04  0.25500000920E-02 0.  1.
       -2    1    3    3    0  502 -0.12955556518E+02  0.18909564454E+02  0.88147660308E+03  0.88177458562E+03  0.25500000920E-02 0. -1.
</event>
<event>
 5   0  0.1308224E-05  0.2297483E+04  0.7818609E-02  0.8478914E-01
       -1   -1    0    0    0  501  0.00000000000E+00  0.00000000000E+00  0.96865827385E+03  0.96865827387E+03  0.50400001928E-02 0.  1.
        1   -1    0    0  501    0  0.00000000000E+00  0.00000000000E+00 -0.13623044364E+04  0.13623044364E+04  0.50400001928E-02 0. -1.
    10030    2    1    2    0    0  0.00000000000E+00  0.00000000000E+00 -0.39364616254E+03  0.23309627103E+04  0.22974833743E+04 0.  0.
        5    1    3    3  502    0  0.46379723066E+03 -0.10470769083E+04 -0.28817656460E+03  0.11809088641E+04  0.46999998093E+01 0.  1.
       -5    1    3    3    0  502 -0.46379723066E+03  0.10470769083E+04 -0.10546959794E+03  0.11500538462E+04  0.46999998093E+01 0. -1.
</event>
<event>
 5   0  0.1308224E-05  0.2309169E+04  0.7818609E-02  0.8474314E-01
        1   -1    0    0  501    0  0.00000000000E+00  0.00000000000E+00  0.13027615455E+04  0.13027615455E+04  0.50400001928E-02 0. -1.
       -1   -1    0    0    0  501  0.00000000000E+00  0.00000000000E+00 -0.10232616508E+04  0.10232616509E+04  0.50400001928E-02 0.  1.
    10030    2    1    2    0    0  0.00000000000E+00  0.00000000000E+00  0.27949989464E+03  0.23260231964E+04  0.23091694868E+04 0.  0.
        5    1    3    3  502    0  0.56145282433E+03  0.10082501881E+04  0.17530807364E+03  0.11672843383E+04  0.46999998093E+01 0. -1.
       -5    1    3    3    0  502 -0.56145282433E+03 -0.10082501881E+04  0.10419182101E+03  0.11587388581E+04  0.46999998093E+01 0.  1.
</event>
<event>
 5   0  0.2816178E-05  0.2294564E+04  0.7818609E-02  0.8480067E-01
        2   -1    0    0  501    0  0.00000000000E+00  0.00000000000E+00  0.21587268924E+04  0.21587268924E+04  0.25500000920E-02 0.  1.
       -2   -1    0    0    0  501  0.00000000000E+00  0.00000000000E+00 -0.60973739508E+03  0.60973739508E+03  0.25500000920E-02 0. -1.
    10030    2    1    2    0    0  0.00000000000E+00  0.00000000000E+00  0.15489894974E+04  0.27684642875E+04  0.22945644572E+04 0.  0.
        1    1    3    3  502    0  0.10481335170E+04 -0.46575844703E+03  0.74163560723E+03  0.13658470538E+04  0.50400001928E-02 0.  1.
       -1    1    3    3    0  502 -0.10481335170E+04  0.46575844703E+03  0.80735389014E+03  0.14026172337E+04  0.50400001928E-02 0. -1.
</event>
<event>
 5   0  0.1308224E-05  0.2293836E+04  0.7818609E-02  0.8480355E-01
       -1   -1    0    0    0  501  0.00000000000E+00  0.00000000000E+00  0.89621508815E+03  0.89621508816E+03  0.50400001928E-02 0.  1.
        1   -1    0    0  501    0  0.00000000000E+00  0.00000000000E+00 -0.14677516601E+04  0.14677516601E+04  0.50400001928E-02 0. -1.
    10030    2    1    2    0    0  0.00000000000E+00  0.00000000000E+00 -0.57153657190E+03  0.23639667482E+04  0.22938362482E+04 0.  0.
        5    1    3    3  502    0 -0.89913663929E+03  0.69956095036E+03 -0.14917599299E+03  0.11489594363E+04  0.46999998093E+01 0.  1.
       -5    1    3    3    0  502  0.89913663929E+03 -0.69956095036E+03 -0.42236057892E+03  0.12150073119E+04  0.46999998093E+01 0. -1.
</event>
<event>
 5   0  0.2938972E-05  0.2292216E+04  0.7818609E-02  0.8480997E-01
       -2   -1    0    0    0  501  0.00000000000E+00  0.00000000000E+00  0.87776555143E+03  0.87776555144E+03  0.25500000920E-02 0. -1.
        2   -1    0    0  501    0  0.00000000000E+00  0.00000000000E+00 -0.14964858043E+04  0.14964858043E+04  0.25500000920E-02 0.  1.
    10030    2    1    2    0    0  0.00000000000E+00  0.00000000000E+00 -0.61872025291E+03  0.23742513558E+04  0.22922161218E+04 0.  0.
        2    1    3    3  502    0  0.30374127351E+03  0.79833133652E+03  0.48216944604E+03  0.98085628856E+03  0.25500000920E-02 0. -1.
       -2    1    3    3    0  502 -0.30374127351E+03 -0.79833133652E+03 -0.11008896989E+04  0.13933950672E+04  0.25500000920E-02 0.  1.
</event>
<event>
 5   0  0.1303224E-05  0.2357006E+04  0.7818609E-02  0.8455777E-01
        1   -1    0    0  501    0  0.00000000000E+00  0.00000000000E+00  0.19938165766E+04  0.19938165766E+04  0.50400001928E-02 0. -1.
       -1   -1    0    0    0  501  0.00000000000E+00  0.00000000000E+00 -0.69658837795E+03  0.69658837797E+03  0.50400001928E-02 0.  1.
    10030    2    1    2    0    0  0.00000000000E+00  0.00000000000E+00  0.12972281987E+04  0.26904049546E+04  0.23570061138E+04 0.  0.
        2    1    3    3  502    0 -0.60063834099E+03 -0.94836587911E+03  0.23911307906E+03  0.11477540337E+04  0.25500000920E-02 0.  1.
       -2    1    3    3    0  502  0.60063834099E+03  0.94836587911E+03  0.10581151196E+04  0.15426509209E+04  0.25500000920E-02 0. -1.
</event>
<event>
 5   0  0.2910126E-05  0.2291213E+04  0.7818609E-02  0.8481394E-01
       -2   -1    0    0    0  501  0.00000000000E+00  0.00000000000E+00  0.45386988294E+03  0.45386988295E+03  0.25500000920E-02 0.  1.
        2   -1    0    0  501    0  0.00000000000E+00  0.00000000000E+00 -0.28916092017E+04  0.28916092017E+04  0.25500000920E-02 0. -1.
    10030    2    1    2    0    0  0.00000000000E+00  0.00000000000E+00 -0.24377393187E+04  0.33454790846E+04  0.22912130673E+04 0.  0.
        5    1    3    3  502    0 -0.44704896253E+03 -0.77482441896E+03 -0.17389215532E+03  0.91129919719E+03  0.46999998093E+01 0.  1.
       -5    1    3    3    0  502  0.44704896253E+03  0.77482441896E+03 -0.22638471634E+04  0.24341798874E+04  0.46999998093E+01 0. -1.
</event>
<event>
 5   0  0.2994157E-05  0.2307582E+04  0.7818609E-02  0.8474938E-01
        2   -1    0    0  501    0  0.00000000000E+00  0.00000000000E+00  0.20051068348E+04  0.20051068348E+04  0.25500000920E-02 0. -1.
       -2   -1    0    0    0  501  0.00000000000E+00  0.00000000000E+00 -0.66392128973E+03  0.66392128974E+03  0.25500000920E-02 0.  1.
    10030    2    1    2    0    0  0.00000000000E+00  0.00000000000E+00  0.13411855451E+04  0.26690281246E+04  0.23075815182E+04 0.  0.
        4    1    3    3  502    0  0.99315247051E+03  0.34802449523E+03  0.12346849080E+03  0.10595843336E+04  0.12699999809E+01 0.  1.
       -4    1    3    3    0  502 -0.99315247051E+03 -0.34802449523E+03  0.12177170543E+04  0.16094437909E+04  0.12699999809E+01 0. -1.
</event>
<event>
 5   0  0.2994157E-05  0.2300865E+04  0.7818609E-02  0.8477580E-01
        2   -1    0    0  501    0  0.00000000000E+00  0.00000000000E+00  0.17203533190E+04  0.17203533190E+04  0.25500000920E-02 0. -1.
       -2   -1    0    0    0  501  0.00000000000E+00  0.00000000000E+00 -0.76931544961E+03  0.76931544961E+03  0.25500000920E-02 0.  1.
    10030    2    1    2    0    0  0.00000000000E+00  0.00000000000E+00  0.95103786937E+03  0.24896687686E+04  0.23008645219E+04 0.  0.
        4    1    3    3  502    0  0.56122381955E+02 -0.81200960292E+03 -0.40420380681E+03  0.90878580938E+03  0.12699999809E+01 0.  1.
       -4    1    3    3    0  502 -0.56122381955E+02  0.81200960292E+03  0.13552416762E+04  0.15808829592E+04  0.12699999809E+01 0. -1.
</event>
<event>
 5   0  0.1017200E-05  0.2310052E+04  0.7818609E-02  0.8473968E-01
       -3   -1    0    0    0  501  0.00000000000E+00  0.00000000000E+00  0.11419418371E+04  0.11419418416E+04  0.10100000352E+00 0.  1.
        3   -1    0    0  501    0  0.00000000000E+00  0.00000000000E+00 -0.11682595712E+04  0.11682595755E+04  0.10100000352E+00 0. -1.
    10030    2    1    2    0    0  0.00000000000E+00  0.00000000000E+00 -0.26317734064E+02  0.23102014171E+04  0.23100515069E+04 0.  0.
        2    1    3    3  502    0  0.20393574649E+03  0.23551987434E+03 -0.11254473410E+04  0.11677718601E+04  0.25500000920E-02 0. -1.
       -2    1    3    3    0  502 -0.20393574649E+03 -0.23551987434E+03  0.10991296069E+04  0.11424295570E+04  0.25500000920E-02 0.  1.
</event>
<event>
 5   0  0.1017200E-05  0.2317738E+04  0.7818609E-02  0.8470960E-01
       -3   -1    0    0    0  501  0.00000000000E+00  0.00000000000E+00  0.69229892283E+03  0.69229893019E+03  0.10100000352E+00 0. -1.
        3   -1    0    0  501    0  0.00000000000E+00  0.00000000000E+00 -0.19398807009E+04  0.19398807035E+04  0.10100000352E+00 0.  1.
    10030    2    1    2    0    0  0.00000000000E+00  0.00000000000E+00 -0.12475817781E+04  0.26321796337E+04  0.23177379773E+04 0.  0.
        1    1    3    3  502    0 -0.73082003234E+02  0.10091320485E+04  0.17925412982E+02  0.10119336891E+04  0.50400001928E-02 0. -1.
       -1    1    3    3    0  502  0.73082003234E+02 -0.10091320485E+04 -0.12655071911E+04  0.16202459447E+04  0.50400001928E-02 0.  1.
</event>
<event>
 5   0  0.1308224E-05  0.2299832E+04  0.7818609E-02  0.8477987E-01
        1   -1    0    0  501    0  0.00000000000E+00  0.00000000000E+00  0.17940279239E+04  0.17940279239E+04  0.50400001928E-02 0. -1.
       -1   -1    0    0    0  501  0.00000000000E+00  0.00000000000E+00 -0.73706026518E+03  0.73706026520E+03  0.50400001928E-02 0.  1.
    10030    2    1    2    0    0  0.00000000000E+00  0.00000000000E+00  0.10569676587E+04  0.25310881891E+04  0.22998319046E+04 0.  0.
        5    1    3    3  502    0 -0.70931630912E+03  0.52807758512E+03 -0.28047098454E+03  0.92772928457E+03  0.46999998093E+01 0.  1.
       -5    1    3    3    0  502  0.70931630912E+03 -0.52807758512E+03  0.13374386432E+04  0.16033589045E+04  0.46999998093E+01 0. -1.
</event>
<event>
 5   0  0.2816178E-05  0.2435953E+04  0.7818609E-02  0.8426165E-01
       -2   -1    0    0    0  501  0.00000000000E+00  0.00000000000E+00  0.15839927787E+04  0.15839927787E+04  0.25500000920E-02 0. -1.
        2   -1    0    0  501    0  0.00000000000E+00  0.00000000000E+00 -0.93653652432E+03  0.93653652433E+03  0.25500000920E-02 0.  1.
    10030    2    1    2    0    0  0.00000000000E+00  0.00000000000E+00  0.64745625438E+03  0.25205293030E+04  0.24359532767E+04 0.  0.
        1    1    3    3  502    0 -0.71707192828E+03  0.27648211238E+03  0.13014330734E+04  0.15114107824E+04  0.50400001928E-02 0. -1.
       -1    1    3    3    0  502  0.71707192828E+03 -0.27648211238E+03 -0.65397681899E+03  0.10091185206E+04  0.50400001928E-02 0.  1.
</event>
<event>
 5   0  0.2910126E-05  0.2321587E+04  0.7818609E-02  0.8469458E-01
       -2   -1    0    0    0  501  0.00000000000E+00  0.00000000000E+00  0.89679392559E+03  0.89679392560E+03  0.25500000920E-02 0. -1.
        2   -1    0    0  501    0  0.00000000000E+00  0.00000000000E+00 -0.15025095499E+04  0.15025095499E+04  0.25500000920E-02 0.  1.
    10030    2    1    2    0    0  0.00000000000E+00  0.00000000000E+00 -0.60571562429E+03  0.23993034755E+04  0.23215869034E+04 0.  0.
        5    1    3    3  502    0  0.50135416956E+03 -0.31579585183E+03 -0.13344385399E+04  0.14600792205E+04  0.46999998093E+01 0.  1.
       -5    1    3    3    0  502 -0.50135416956E+03  0.31579585183E+03  0.72872291562E+03  0.93922425497E+03  0.46999998093E+01 0. -1.
</event>
<event>
 5   0  0.1308224E-05  0.2279754E+04  0.7818609E-02  0.8485947E-01
       -1   -1    0    0    0  501  0.00000000000E+00  0.00000000000E+00  0.97912872189E+03  0.97912872190E+03  0.50400001928E-02 0.  1.
        1   -1    0    0  501    0  0.00000000000E+00  0.00000000000E+00 -0.13270163098E+04  0.13270163098E+04  0.50400001928E-02 0. -1.
    10030    2    1    2    0    0  0.00000000000E+00  0.00000000000E+00 -0.34788758786E+03  0.23061450317E+04  0.22797541826E+04 0.  0.
        5    1    3    3  502    0  0.46023255345E+03 -0.10177677489E+04 -0.40380208289E+03  0.11877471979E+04  0.46999998093E+01 0. -1.
       -5    1    3    3    0  502 -0.46023255345E+03  0.10177677489E+04  0.55914495032E+02  0.11183978338E+04  0.46999998093E+01 0.  1.
</event>
<event>
 5   0  0.2994157E-05  0.2120012E+04  0.7818609E-02  0.8552479E-01
        2   -1    0    0  501    0  0.00000000000E+00  0.00000000000E+00  0.85417936416E+03  0.85417936416E+03  0.25500000920E-02 0.  1.
       -2   -1    0    0    0  501  0.00000000000E+00  0.00000000000E+00 -0.13154295696E+04  0.13154295696E+04  0.25500000920E-02 0. -1.
    10030    2    1    2    0    0  0.00000000000E+00  0.00000000000E+00 -0.46125020546E+03  0.21696089338E+04  0.21200120692E+04 0.  0.
        4    1    3    3  502    0  0.10123877965E+04  0.13953617367E+01 -0.55210816773E+03  0.11531504842E+04  0.12699999809E+01 0. -1.
       -4    1    3    3    0  502 -0.10123877965E+04 -0.13953617367E+01  0.90857962267E+02  0.10164584496E+04  0.12699999809E+01 0.  1.
</event>
<event>
 5   0  0.2816178E-05  0.2276831E+04  0.7818609E-02  0.8487113E-01
       -2   -1    0    0    0  501  0.00000000000E+00  0.00000000000E+00  0.99630811118E+03  0.99630811118E+03  0.25500000920E-02 0.  1.
        2   -1    0    0  501    0  0.00000000000E+00  0.00000000000E+00 -0.13007920636E+04  0.13007920636E+04  0.25500000920E-02 0. -1.
    10030    2    1    2    0    0  0.00000000000E+00  0.00000000000E+00 -0.30448395241E+03  0.22971001748E+04  0.22768308535E+04 0.  0.
        1    1    3    3  502    0 -0.69629536438E+02  0.11252927864E+04  0.68243989617E+01  0.11274656092E+04  0.50400001928E-02 0.  1.
       -1    1    3    3    0  502  0.69629536438E+02 -0.11252927864E+04 -0.31130835137E+03  0.11696345656E+04  0.50400001928E-02 0. -1.
</event>
<event>
 5   0  0.1371753E-05  0.2306343E+04  0.7818609E-02  0.8475424E-01
       -1   -1    0    0    0  501  0.00000000000E+00  0.00000000000E+00  0.16639054393E+04  0.16639054393E+04  0.50400001928E-02 0.  1.
        1   -1    0    0  501    0  0.00000000000E+00  0.00000000000E+00 -0.79920697461E+03  0.79920697462E+03  0.50400001928E-02 0. -1.
    10030    2    1    2    0    0  0.00000000000E+00  0.00000000000E+00  0.86469846469E+03  0.24631124139E+04  0.23063432808E+04 0.  0.
        3    1    3    3  502    0  0.16885685268E+03  0.17391728333E+03 -0.77169028539E+03  0.80886696366E+03  0.10100000352E+00 0. -1.
       -3    1    3    3    0  502 -0.16885685268E+03 -0.17391728333E+03  0.16363887501E+04  0.16542454503E+04  0.10100000352E+00 0.  1.
</event>
<event>
 5   0  0.2871888E-05  0.2289658E+04  0.7818609E-02  0.8482010E-01
        2   -1    0    0  501    0  0.00000000000E+00  0.00000000000E+00  0.10706839563E+04  0.10706839563E+04  0.25500000920E-02 0.  1.
       -2   -1    0    0    0  501  0.00000000000E+00  0.00000000000E+00 -0.12241085204E+04  0.12241085204E+04  0.25500000920E-02 0. -1.
    10030    2    1    2    0    0  0.00000000000E+00  0.00000000000E+00 -0.15342456412E+03  0.22947924767E+04  0.22896579252E+04 0.  0.
        3    1    3    3  502    0  0.21481385717E+03 -0.67747980268E+03 -0.97622671961E+03  0.12075357115E+04  0.10100000352E+00 0. -1.
       -3    1    3    3    0  502 -0.21481385717E+03  0.67747980268E+03  0.82280215550E+03  0.10872567652E+04  0.10100000352E+00 0.  1.
</event>
<event>
 5   0  0.1371753E-05  0.2021622E+04  0.7818609E-02  0.8596578E-01
        1   -1    0    0  501    0  0.00000000000E+00  0.00000000000E+00  0.73796840231E+03  0.73796840232E+03  0.50400001928E-02 0.  1.
       -1   -1    0    0    0  501  0.00000000000E+00  0.00000000000E+00 -0.13845292921E+04  0.13845292921E+04  0.50400001928E-02 0. -1.
    10030    2    1    2    0    0  0.00000000000E+00  0.00000000000E+00 -0.64656088978E+03  0.21224976944E+04  0.20216219920E+04 0.  0.
        3    1    3    3  502    0 -0.90768458342E+03 -0.17591009636E+03  0.10564281525E+03  0.93058910352E+03  0.10100000352E+00 0.  1.
       -3    1    3    3    0  502  0.90768458342E+03  0.17591009636E+03 -0.75220370503E+03  0.11919085909E+04  0.10100000352E+00 0. -1.
</event>
<event>
 5   0  0.1308224E-05  0.2296318E+04  0.7818609E-02  0.8479374E-01
        1   -1    0    0  501    0  0.00000000000E+00  0.00000000000E+00  0.91162109847E+03  0.91162109848E+03  0.50400001928E-02 0.  1.
       -1   -1    0    0    0  501  0.00000000000E+00  0.00000000000E+00 -0.14460709931E+04  0.14460709931E+04  0.50400001928E-02 0. -1.
    10030    2    1    2    0    0  0.00000000000E+00  0.00000000000E+00 -0.53444989464E+03  0.23576920916E+04  0.22963177718E+04 0.  0.
        5    1    3    3  502    0 -0.54205713021E+03  0.51917404850E+03  0.62483451450E+03  0.97663088501E+03  0.46999998093E+01 0.  1.
       -5    1    3    3    0  502  0.54205713021E+03 -0.51917404850E+03 -0.11592844091E+04  0.13810612066E+04  0.46999998093E+01 0. -1.
</event>
<event>
 5   0  0.1327820E-05  0.2306478E+04  0.7818609E-02  0.8475371E-01
       -1   -1    0    0    0  501  0.00000000000E+00  0.00000000000E+00  0.79078479022E+03  0.79078479024E+03  0.50400001928E-02 0.  1.
        1   -1    0    0  501    0  0.00000000000E+00  0.00000000000E+00 -0.16818235724E+04  0.16818235724E+04  0.50400001928E-02 0. -1.
    10030    2    1    2    0    0  0.00000000000E+00  0.00000000000E+00 -0.89103878215E+03  0.24726083626E+04  0.23064782686E+04 0.  0.
        1    1    3    3  502    0 -0.39749526994E+03  0.84793325921E+03  0.27598560693E+03  0.97629982944E+03  0.50400001928E-02 0.  1.
       -1    1    3    3    0  502  0.39749526994E+03 -0.84793325921E+03 -0.11670243891E+04  0.14963085332E+04  0.50400001928E-02 0. -1.
</event>
<event>
 5   0  0.1327820E-05  0.2303720E+04  0.7818609E-02  0.8476456E-01
        1   -1    0    0  501    0  0.00000000000E+00  0.00000000000E+00  0.16726305567E+04  0.16726305567E+04  0.50400001928E-02 0. -1.
       -1   -1    0    0    0  501  0.00000000000E+00  0.00000000000E+00 -0.79323049895E+03  0.79323049897E+03  0.50400001928E-02 0.  1.
    10030    2    1    2    0    0  0.00000000000E+00  0.00000000000E+00  0.87940005776E+03  0.24658610557E+04  0.23037200968E+04 0.  0.
        1    1    3    3  502    0 -0.84274769432E+03 -0.58163376549E+03 -0.12493046083E+03  0.10315663495E+04  0.50400001928E-02 0.  1.
       -1    1    3    3    0  502  0.84274769432E+03  0.58163376549E+03  0.10043305186E+04  0.14342947061E+04  0.50400001928E-02 0. -1.
</event>
<event>
 5   0  0.2871888E-05  0.2288750E+04  0.7818609E-02  0.8482370E-01
       -2   -1    0    0    0  501  0.00000000000E+00  0.00000000000E+00  0.74892041426E+03  0.74892041427E+03  0.25500000920E-02 0.  1.
        2   -1    0    0  501    0  0.00000000000E+00  0.00000000000E+00 -0.17486421451E+04  0.17486421451E+04  0.25500000920E-02 0. -1.
    10030    2    1    2    0    0  0.00000000000E+00  0.00000000000E+00 -0.99972173084E+03  0.24975625594E+04  0.22887497021E+04 0.  0.
        3    1    3    3  502    0 -0.40041224430E+03  0.10072017951E+04 -0.90052133908E+03  0.14091572353E+04  0.10100000352E+00 0.  1.
       -3    1    3    3    0  502  0.40041224430E+03 -0.10072017951E+04 -0.99200391760E+02  0.10884053241E+04  0.10100000352E+00 0. -1.
</event>
<event>
 5   0  0.1327820E-05  0.2299350E+04  0.7818609E-02  0.8478177E-01
       -1   -1    0    0    0  501  0.00000000000E+00  0.00000000000E+00  0.61376179834E+03  0.61376179836E+03  0.50400001928E-02 0.  1.
        1   -1    0    0  501    0  0.00000000000E+00  0.00000000000E+00 -0.21535267511E+04  0.21535267511E+04  0.50400001928E-02 0. -1.
    10030    2    1    2    0    0  0.00000000000E+00  0.00000000000E+00 -0.15397649528E+04  0.27672885495E+04  0.22993498660E+04 0.  0.
        1    1    3    3  502    0 -0.28933102546E+03 -0.11053077818E+04 -0.61606517302E+03  0.12980577923E+04  0.50400001928E-02 0. -1.
       -1    1    3    3    0  502  0.28933102546E+03  0.11053077818E+04 -0.92369977975E+03  0.14692307572E+04  0.50400001928E-02 0.  1.
</event>
<event>
 5   0  0.1303224E-05  0.2301073E+04  0.7818609E-02  0.8477498E-01
        1   -1    0    0  501    0  0.00000000000E+00  0.00000000000E+00  0.10414547653E+04  0.10414547653E+04  0.50400001928E-02 0.  1.
       -1   -1    0    0    0  501  0.00000000000E+00  0.00000000000E+00 -0.12710429517E+04  0.12710429517E+04  0.50400001928E-02 0. -1.
    10030    2    1    2    0    0  0.00000000000E+00  0.00000000000E+00 -0.22958818641E+03  0.23124977171E+04  0.23010725665E+04 0.  0.
        2    1    3    3  502    0 -0.29260977182E+02  0.43154444393E+03 -0.11862240601E+04  0.12626220070E+04  0.25500000920E-02 0. -1.
       -2    1    3    3    0  502  0.29260977182E+02 -0.43154444393E+03  0.95663587365E+03  0.10498757101E+04  0.25500000920E-02 0.  1.
</event>
<event>
 5   0  0.1308224E-05  0.2249300E+04  0.7818609E-02  0.8498184E-01
        1   -1    0    0  501    0  0.00000000000E+00  0.00000000000E+00  0.14441119383E+04  0.14441119383E+04  0.50400001928E-02 0. -1.
       -1   -1    0    0    0  501  0.00000000000E+00  0.00000000000E+00 -0.87585852735E+03  0.87585852737E+03  0.50400001928E-02 0.  1.
    10030    2    1    2    0    0  0.00000000000E+00  0.00000000000E+00  0.56825341097E+03  0.23199704657E+04  0.22493001184E+04 0.  0.
        5    1    3    3  502    0  0.80989084568E+03  0.19984158469E+03  0.10621172595E+04  0.13505461872E+04  0.46999998093E+01 0.  1.
       -5    1    3    3    0  502 -0.80989084568E+03 -0.19984158469E+03 -0.49386384850E+03  0.96942427850E+03  0.46999998093E+01 0. -1.
</event>
<event>
 5   0  0.2816178E-05  0.2300169E+04  0.7818609E-02  0.8477854E-01
        2   -1    0    0  501    0  0.00000000000E+00  0.00000000000E+00  0.15971244058E+04  0.15971244058E+04  0.25500000920E-02 0.  1.
       -2   -1    0    0    0  501  0.00000000000E+00  0.00000000000E+00 -0.82817253196E+03  0.82817253197E+03  0.25500000920E-02 0. -1.
    10030    2    1    2    0    0  0.00000000000E+00  0.00000000000E+00  0.76895187386E+03  0.24252969378E+04  0.23001691790E+04 0.  0.
        1    1    3    3  502    0  0.65587709803E+03 -0.29405898612E+03 -0.56216632543E+03  0.91251105885E+03  0.50400001928E-02 0.  1.
       -1    1    3    3    0  502 -0.65587709803E+03  0.29405898612E+03  0.13311181993E+04  0.15127858790E+04  0.50400001928E-02 0. -1.
</event>
<event>
 5   0  0.2871888E-05  0.2276660E+04  0.7818609E-02  0.8487181E-01
       -2   -1    0    0    0  501  0.00000000000E+00  0.00000000000E+00  0.47794411681E+03  0.47794411682E+03  0.25500000920E-02 0. -1.
        2   -1    0    0  501    0  0.00000000000E+00  0.00000000000E+00 -0.27111863037E+04  0.27111863037E+04  0.25500000920E-02 0.  1.
    10030    2    1    2    0    0  0.00000000000E+00  0.00000000000E+00 -0.22332421869E+04  0.31891304205E+04  0.22766603115E+04 0.  0.
        3    1    3    3  502    0  0.45773303408E+03  0.10242683430E+04 -0.13866160065E+04  0.17836336868E+04  0.10100000352E+00 0. -1.
       -3    1    3    3    0  502 -0.45773303408E+03 -0.10242683430E+04 -0.84662618039E+03  0.14054967337E+04  0.10100000352E+00 0.  1.
</event>
<event>
 5   0  0.1284837E-05  0.2281369E+04  0.7818609E-02  0.8485303E-01
        1   -1    0    0  501    0  0.00000000000E+00  0.00000000000E+00  0.76958867918E+03  0.76958867920E+03  0.50400001928E-02 0.  1.
       -1   -1    0    0    0  501  0.00000000000E+00  0.00000000000E+00 -0.16907226672E+04  0.16907226672E+04  0.50400001928E-02 0. -1.
    10030    2    1    2    0    0  0.00000000000E+00  0.00000000000E+00 -0.92113398799E+03  0.24603113464E+04  0.22813689086E+04 0.  0.
        4    1    3    3  502    0  0.71466081318E+03 -0.62106757555E+03  0.22548676534E+03  0.97329898055E+03  0.12699999809E+01 0. -1.
       -4    1    3    3    0  502 -0.71466081318E+03  0.62106757555E+03 -0.11466207533E+04  0.14870123658E+04  0.12699999809E+01 0.  1.
</event>
<event>
 5   0  0.1303224E-05  0.2259352E+04  0.7818609E-02  0.8494123E-01
        1   -1    0    0  501    0  0.00000000000E+00  0.00000000000E+00  0.19643054916E+04  0.19643054916E+04  0.50400001928E-02 0.  1.
       -1   -1    0    0    0  501  0.00000000000E+00  0.00000000000E+00 -0.64967874497E+03  0.64967874499E+03  0.50400001928E-02 0. -1.
    10030    2    1    2    0    0  0.00000000000E+00  0.00000000000E+00  0.13146267467E+04  0.26139842366E+04  0.22593517004E+04 0.  0.
        2    1    3    3  502    0  0.62142538037E+03 -0.72562782214E+03 -0.40193997593E+02  0.95620123253E+03  0.25500000920E-02 0. -1.
       -2    1    3    3    0  502 -0.62142538037E+03  0.72562782214E+03  0.13548207442E+04  0.16577830041E+04  0.25500000920E-02 0.  1.
</event>
<event>
 5   0  0.1284837E-05  0.2227118E+04  0.7818609E-02  0.8507225E-01
        1   -1    0    0  501    0  0.00000000000E+00  0.00000000000E+00  0.17155019354E+04  0.17155019354E+04  0.50400001928E-02 0.  1.
       -1   -1    0    0    0  501  0.00000000000E+00  0.00000000000E+00 -0.72282875615E+03  0.72282875617E+03  0.50400001928E-02 0. -1.
    10030    2    1    2    0    0  0.00000000000E+00  0.00000000000E+00  0.99267317920E+03  0.24383306915E+04  0.22271184343E+04 0.  0.
        4    1    3    3  502    0 -0.48280531013E+03  0.82899674133E+03  0.11153560132E+04  0.14711754531E+04  0.12699999809E+01 0.  1.
       -4    1    3    3    0  502  0.48280531013E+03 -0.82899674133E+03 -0.12268283400E+03  0.96715523846E+03  0.12699999809E+01 0. -1.
</event>
<event>
 5   0  0.1327820E-05  0.2298903E+04  0.7818609E-02  0.8478354E-01
       -1   -1    0    0    0  501  0.00000000000E+00  0.00000000000E+00  0.10460983018E+04  0.10460983018E+04  0.50400001928E-02 0. -1.
        1   -1    0    0  501    0  0.00000000000E+00  0.00000000000E+00 -0.12630154079E+04  0.12630154079E+04  0.50400001928E-02 0.  1.
    10030    2    1    2    0    0  0.00000000000E+00  0.00000000000E+00 -0.21691710606E+03  0.23091137097E+04  0.22989025846E+04 0.  0.
        1    1    3    3  502    0 -0.10219703991E+04 -0.52604557031E+03 -0.98885495623E+02  0.11536575661E+04  0.50400001928E-02 0.  1.
       -1    1    3    3    0  502  0.10219703991E+04  0.52604557031E+03 -0.11803161044E+03  0.11554561436E+04  0.50400001928E-02 0. -1.
</event>
<event>
 5   0  0.1327820E-05  0.2301917E+04  0.7818609E-02  0.8477166E-01
       -1   -1    0    0    0  501  0.00000000000E+00  0.00000000000E+00  0.10774432999E+04  0.10774432999E+04  0.50400001928E-02 0. -1.
        1   -1    0    0  501    0  0.00000000000E+00  0.00000000000E+00 -0.12294896403E+04  0.12294896403E+04  0.50400001928E-02 0.  1.
    10030    2    1    2    0    0  0.00000000000E+00  0.00000000000E+00 -0.15204634041E+03  0.23069329403E+04  0.23019169188E+04 0.  0.
        1    1    3    3  502    0 -0.11131039771E+03  0.10688649079E+03 -0.12190744685E+04  0.12288031927E+04  0.50400001928E-02 0.  1.
       -1    1    3    3    0  502  0.11131039771E+03 -0.10688649079E+03  0.10670281281E+04  0.10781297476E+04  0.50400001928E-02 0. -1.
</event>
<event>
 5   0  0.2994157E-05  0.2299187E+04  0.7818609E-02  0.8478242E-01
        2   -1    0    0  501    0  0.00000000000E+00  0.00000000000E+00  0.14529625212E+04  0.14529625212E+04  0.25500000920E-02 0.  1.
       -2   -1    0    0    0  501  0.00000000000E+00  0.00000000000E+00 -0.90956564118E+03  0.90956564118E+03  0.25500000920E-02 0. -1.
    10030    2    1    2    0    0  0.00000000000E+00  0.00000000000E+00  0.54339688006E+03  0.23625281624E+04  0.22991866277E+04 0.  0.
        4    1    3    3  502    0  0.50466260634E+03  0.16482635375E+03 -0.77605503481E+03  0.94027395108E+03  0.12699999809E+01 0. -1.
       -4    1    3    3    0  502 -0.50466260634E+03 -0.16482635375E+03  0.13194519149E+04  0.14222542113E+04  0.12699999809E+01 0.  1.
</event>
<event>
 5   0  0.2994157E-05  0.2292092E+04  0.7818609E-02  0.8481046E-01
        2   -1    0    0  501    0  0.00000000000E+00  0.00000000000E+00  0.13629725863E+04  0.13629725863E+04  0.25500000920E-02 0. -1.
       -2   -1    0    0    0  501  0.00000000000E+00  0.00000000000E+00 -0.96364466054E+03  0.96364466054E+03  0.25500000920E-02 0.  1.
    10030    2    1    2    0    0  0.00000000000E+00  0.00000000000E+00  0.39932792580E+03  0.23266172469E+04  0.22920918440E+04 0.  0.
        4    1    3    3  502    0  0.40879624173E+03  0.77861121070E+03 -0.54630008498E+03  0.10352754128E+04  0.12699999809E+01 0.  1.
       -4    1    3    3    0  502 -0.40879624173E+03 -0.77861121070E+03  0.94562801078E+03  0.12913418340E+04  0.12699999809E+01 0. -1.
</event>
<event>
 5   0  0.1327820E-05  0.2295664E+04  0.7818609E-02  0.8479633E-01
        1   -1    0    0  501    0  0.00000000000E+00  0.00000000000E+00  0.21622125405E+04  0.21622125405E+04  0.50400001928E-02 0. -1.
       -1   -1    0    0    0  501  0.00000000000E+00  0.00000000000E+00 -0.60933799129E+03  0.60933799131E+03  0.50400001928E-02 0.  1.
    10030    2    1    2    0    0  0.00000000000E+00  0.00000000000E+00  0.15528745492E+04  0.27715505318E+04  0.22956639529E+04 0.  0.
        1    1    3    3  502    0  0.11424215971E+04  0.82790117441E+02  0.86627304177E+03  0.14361094290E+04  0.50400001928E-02 0. -1.
       -1    1    3    3    0  502 -0.11424215971E+04 -0.82790117441E+02  0.68660150741E+03  0.13354411028E+04  0.50400001928E-02 0.  1.
</event>
<event>
 5   0  0.1284837E-05  0.2292115E+04  0.7818609E-02  0.8481036E-01
       -1   -1    0    0    0  501  0.00000000000E+00  0.00000000000E+00  0.13214555723E+04  0.13214555723E+04  0.50400001928E-02 0. -1.
        1   -1    0    0  501    0  0.00000000000E+00  0.00000000000E+00 -0.99394038757E+03  0.99394038758E+03  0.50400001928E-02 0.  1.
    10030    2    1    2    0    0  0.00000000000E+00  0.00000000000E+00  0.32751518470E+03  0.23153959599E+04  0.22921152359E+04 0.  0.
        4    1    3    3  502    0  0.29669270958E+03 -0.99035728666E+03 -0.33584881197E+03  0.10870281305E+04  0.12699999809E+01 0.  1.
       -4    1    3    3    0  502 -0.29669270958E+03  0.99035728666E+03  0.66336399668E+03  0.12283678293E+04  0.12699999809E+01 0. -1.
</event>
<event>
 5   0  0.2994157E-05  0.2300330E+04  0.7818609E-02  0.8477791E-01
        2   -1    0    0  501    0  0.00000000000E+00  0.00000000000E+00  0.21437488519E+04  0.21437488520E+04  0.25500000920E-02 0. -1.
       -2   -1    0    0    0  501  0.00000000000E+00  0.00000000000E+00 -0.61708716832E+03  0.61708716833E+03  0.25500000920E-02 0.  1.
    10030    2    1    2    0    0  0.00000000000E+00  0.00000000000E+00  0.15266616836E+04  0.27608360203E+04  0.23003303316E+04 0.  0.
        4    1    3    3  502    0  0.49608126827E+03  0.15625241222E+03 -0.46788441101E+03  0.69959193536E+03  0.12699999809E+01 0.  1.
       -4    1    3    3    0  502 -0.49608126827E+03 -0.15625241222E+03  0.19945460946E+04  0.20612440849E+04  0.12699999809E+01 0. -1.
</event>
<event>
 5   0  0.2994157E-05  0.2273065E+04  0.7818609E-02  0.8488618E-01
       -2   -1    0    0    0  501  0.00000000000E+00  0.00000000000E+00  0.11685000403E+04  0.11685000403E+04  0.25500000920E-02 0.  1.
        2   -1    0    0  501    0  0.00000000000E+00  0.00000000000E+00 -0.11054391066E+04  0.11054391066E+04  0.25500000920E-02 0. -1.
    10030    2    1    2    0    0  0.00000000000E+00  0.00000000000E+00  0.63060933727E+02  0.22739391469E+04  0.22730645751E+04 0.  0.
        4    1    3    3  502    0  0.54475793512E+02 -0.28604468116E+03  0.11305499237E+04  0.11674476068E+04  0.12699999809E+01 0.  1.
       -4    1    3    3    0  502 -0.54475793512E+02  0.28604468116E+03 -0.10674889900E+04  0.11064915401E+04  0.12699999809E+01 0. -1.
</event>
<event>
 5   0  0.2910126E-05  0.2303456E+04  0.7818609E-02  0.8476560E-01
       -2   -1    0    0    0  501  0.00000000000E+00  0.00000000000E+00  0.71280195593E+03  0.71280195594E+03  0.25500000920E-02 0.  1.
        2   -1    0    0  501    0  0.00000000000E+00  0.00000000000E+00 -0.18609342357E+04  0.18609342357E+04  0.25500000920E-02 0. -1.
    10030    2    1    2    0    0  0.00000000000E+00  0.00000000000E+00 -0.11481322798E+04  0.25737361917E+04  0.23034561538E+04 0.  0.
        5    1    3    3  502    0  0.85549155864E+03 -0.40491281588E+03 -0.13072938711E+04  0.16139577289E+04  0.46999998093E+01 0. -1.
       -5    1    3    3    0  502 -0.85549155864E+03  0.40491281588E+03  0.15916159131E+03  0.95977846273E+03  0.46999998093E+01 0.  1.
</event>
<event>
 5   0  0.2816178E-05  0.2318486E+04  0.7818609E-02  0.8470668E-01
       -2   -1    0    0    0  501  0.00000000000E+00  0.00000000000E+00  0.51852940931E+03  0.51852940932E+03  0.25500000920E-02 0. -1.
        2   -1    0    0  501    0  0.00000000000E+00  0.00000000000E+00 -0.25916455281E+04  0.25916455281E+04  0.25500000920E-02 0.  1.
    10030    2    1    2    0    0  0.00000000000E+00  0.00000000000E+00 -0.20731161188E+04  0.31101749375E+04  0.23184860792E+04 0.  0.
        1    1    3    3  502    0 -0.84219546086E+03  0.51440647658E+02  0.29807847551E+02  0.84429132551E+03  0.50400001928E-02 0. -1.
       -1    1    3    3    0  502  0.84219546086E+03 -0.51440647658E+02 -0.21029239664E+04  0.22658836120E+04  0.50400001928E-02 0.  1.
</event>
<event>
 5   0  0.1017200E-05  0.2091580E+04  0.7818609E-02  0.8564962E-01
        3   -1    0    0  501    0  0.00000000000E+00  0.00000000000E+00  0.27334729683E+04  0.27334729702E+04  0.10100000352E+00 0. -1.
       -3   -1    0    0    0  501  0.00000000000E+00  0.00000000000E+00 -0.40010499298E+03  0.40010500572E+03  0.10100000352E+00 0.  1.
    10030    2    1    2    0    0  0.00000000000E+00  0.00000000000E+00  0.23333679753E+04  0.31335779759E+04  0.20915795043E+04 0.  0.
        2    1    3    3  502    0 -0.63128085229E+03 -0.22800173205E+03  0.23682040051E+04  0.24614813658E+04  0.25500000920E-02 0. -1.
       -2    1    3    3    0  502  0.63128085229E+03  0.22800173205E+03 -0.34836029821E+02  0.67209661007E+03  0.25500000920E-02 0.  1.
</event>
<event>
 5   0  0.2910126E-05  0.2305007E+04  0.7818609E-02  0.8475950E-01
        2   -1    0    0  501    0  0.00000000000E+00  0.00000000000E+00  0.12326166580E+04  0.12326166580E+04  0.25500000920E-02 0. -1.
       -2   -1    0    0    0  501  0.00000000000E+00  0.00000000000E+00 -0.10775971507E+04  0.10775971507E+04  0.25500000920E-02 0.  1.
    10030    2    1    2    0    0  0.00000000000E+00  0.00000000000E+00  0.15501950730E+03  0.23102138086E+04  0.23050068967E+04 0.  0.
        5    1    3    3  502    0  0.94873090880E+03 -0.57556231327E+03 -0.23444855080E+03  0.11341739402E+04  0.46999998093E+01 0. -1.
       -5    1    3    3    0  502 -0.94873090880E+03  0.57556231327E+03  0.38946805810E+03  0.11760398684E+04  0.46999998093E+01 0.  1.
</event>
<event>
 5   0  0.1303224E-05  0.2290806E+04  0.7818609E-02  0.8481555E-01
       -1   -1    0    0    0  501  0.00000000000E+00  0.00000000000E+00  0.14050504650E+04  0.14050504650E+04  0.50400001928E-02 0.  1.
        1   -1    0    0  501    0  0.00000000000E+00  0.00000000000E+00 -0.93373758325E+03  0.93373758326E+03  0.50400001928E-02 0. -1.
    10030    2    1    2    0    0  0.00000000000E+00  0.00000000000E+00  0.47131288170E+03  0.23387880482E+04  0.22908063432E+04 0.  0.
        2    1    3    3  502    0  0.51664509650E+03 -0.89326287667E+03  0.74316764052E+03  0.12716677493E+04  0.25500000920E-02 0.  1.
       -2    1    3    3    0  502 -0.51664509650E+03  0.89326287667E+03 -0.27185475881E+03  0.10671202990E+04  0.25500000920E-02 0. -1.
</event>
<event>
 5   0  0.2910126E-05  0.2291328E+04  0.7818609E-02  0.8481348E-01
        2   -1    0    0  501    0  0.00000000000E+00  0.00000000000E+00  0.10301165693E+04  0.10301165693E+04  0.25500000920E-02 0. -1.
       -2   -1    0    0    0  501  0.00000000000E+00  0.00000000000E+00 -0.12741724228E+04  0.12741724228E+04  0.25500000920E-02 0.  1.
    10030    2    1    2    0    0  0.00000000000E+00  0.00000000000E+00 -0.24405585344E+03  0.23042889921E+04  0.22913281082E+04 0.  0.
        5    1    3    3  502    0  0.12546286556E+03  0.22801412264E+02 -0.12670035969E+04  0.12734131457E+04  0.46999998093E+01 0.  1.
       -5    1    3    3    0  502 -0.12546286556E+03 -0.22801412264E+02  0.10229477434E+04  0.10308758465E+04  0.46999998093E+01 0. -1.
</event>
<event>
 5   0  0.1371753E-05  0.2303591E+04  0.7818609E-02  0.8476507E-01
        1   -1    0    0  501    0  0.00000000000E+00  0.00000000000E+00  0.14947938772E+04  0.14947938772E+04  0.50400001928E-02 0. -1.
       -1   -1    0    0    0  501  0.00000000000E+00  0.00000000000E+00 -0.88750230068E+03  0.88750230069E+03  0.50400001928E-02 0.  1.
    10030    2    1    2    0    0  0.00000000000E+00  0.00000000000E+00  0.60729157651E+03  0.23822961779E+04  0.23035911140E+04 0.  0.
        3    1    3    3  502    0  0.30175808420E+03 -0.75563734144E+03  0.11467210883E+04  0.14060636535E+04  0.10100000352E+00 0. -1.
       -3    1    3    3    0  502 -0.30175808420E+03  0.75563734144E+03 -0.53942951183E+03  0.97623252435E+03  0.10100000352E+00 0.  1.
</event>
<event>
 5   0  0.1284837E-05  0.2247633E+04  0.7818609E-02  0.8498860E-01
        1   -1    0    0  501    0  0.00000000000E+00  0.00000000000E+00  0.74663093960E+03  0.74663093962E+03  0.50400001928E-02 0. -1.
       -1   -1    0    0    0  501  0.00000000000E+00  0.00000000000E+00 -0.16915495387E+04  0.16915495387E+04  0.50400001928E-02 0.  1.
    10030    2    1    2    0    0  0.00000000000E+00  0.00000000000E+00 -0.94491859907E+03  0.24381804783E+04  0.22476327293E+04 0.  0.
        4    1    3    3  502    0 -0.90985721705E+03  0.56556918611E+03 -0.10418914401E+03  0.10763668753E+04  0.12699999809E+01 0. -1.
       -4    1    3    3    0  502  0.90985721705E+03 -0.56556918611E+03 -0.84072945505E+03  0.13618136030E+04  0.12699999809E+01 0.  1.
</event>
<event>
 5   0  0.1371753E-05  0.2304497E+04  0.7818609E-02  0.8476150E-01
       -1   -1    0    0    0  501  0.00000000000E+00  0.00000000000E+00  0.10256314463E+04  0.10256314463E+04  0.50400001928E-02 0. -1.
        1   -1    0    0  501    0  0.00000000000E+00  0.00000000000E+00 -0.12944973272E+04  0.12944973272E+04  0.50400001928E-02 0.  1.
    10030    2    1    2    0    0  0.00000000000E+00  0.00000000000E+00 -0.26886588082E+03  0.23201287735E+04  0.23044974862E+04 0.  0.
        3    1    3    3  502    0  0.11406861119E+04  0.51727091575E+02  0.21005537093E+02  0.11420515490E+04  0.10100000352E+00 0.  1.
       -3    1    3    3    0  502 -0.11406861119E+04 -0.51727091575E+02 -0.28987141792E+03  0.11780772245E+04  0.10100000352E+00 0. -1.
</event>
<event>
 5   0  0.1371753E-05  0.2341594E+04  0.7818609E-02  0.8461700E-01
        1   -1    0    0  501    0  0.00000000000E+00  0.00000000000E+00  0.14744477777E+04  0.14744477777E+04  0.50400001928E-02 0. -1.
       -1   -1    0    0    0  501  0.00000000000E+00  0.00000000000E+00 -0.92968035276E+03  0.92968035277E+03  0.50400001928E-02 0.  1.
    10030    2    1    2    0    0  0.00000000000E+00  0.00000000000E+00  0.54476742489E+03  0.24041281304E+04  0.23415935856E+04 0.  0.
        3    1    3    3  502    0  0.55938586448E+03  0.37963507695E+03  0.12538038858E+04  0.14244506069E+04  0.10100000352E+00 0. -1.
       -3    1    3    3    0  502 -0.55938586448E+03 -0.37963507695E+03 -0.70903646095E+03  0.97967752357E+03  0.10100000352E+00 0.  1.
</event>
<event>
 5   0  0.2938972E-05  0.2296746E+04  0.7818609E-02  0.8479205E-01
       -2   -1    0    0    0  501  0.00000000000E+00  0.00000000000E+00  0.10727324445E+04  0.10727324445E+04  0.25500000920E-02 0.  1.
        2   -1    0    0  501    0  0.00000000000E+00  0.00000000000E+00 -0.12293475754E+04  0.12293475754E+04  0.25500000920E-02 0. -1.
    10030    2    1    2    0    0  0.00000000000E+00  0.00000000000E+00 -0.15661513091E+03  0.23020800198E+04  0.22967464202E+04 0.  0.
        2    1    3    3  502    0 -0.94296697665E+03 -0.44643684045E+03  0.40266974975E+03  0.11183181564E+04  0.25500000920E-02 0.  1.
       -2    1    3    3    0  502  0.94296697665E+03  0.44643684045E+03 -0.55928488066E+03  0.11837618634E+04  0.25500000920E-02 0. -1.
</event>
<event>
 5   0  0.1308224E-05  0.2291334E+04  0.7818609E-02  0.8481346E-01
        1   -1    0    0  501    0  0.00000000000E+00  0.00000000000E+00  0.10415811003E+04  0.10415811003E+04  0.50400001928E-02 0. -1.
       -1   -1    0    0    0  501  0.00000000000E+00  0.00000000000E+00 -0.12601545033E+04  0.12601545033E+04  0.50400001928E-02 0.  1.
    10030    2    1    2    0    0  0.00000000000E+00  0.00000000000E+00 -0.21857340298E+03  0.23017356037E+04  0.22913342089E+04 0.  0.
        5    1    3    3  502    0  0.52712178134E+02 -0.67105274831E+02 -0.12569479995E+04  0.12598500129E+04  0.46999998093E+01 0.  1.
       -5    1    3    3    0  502 -0.52712178134E+02  0.67105274831E+02  0.10383745965E+04  0.10418855908E+04  0.46999998093E+01 0. -1.
</event>
<event>
 5   0  0.1303224E-05  0.2309011E+04  0.7818609E-02  0.8474377E-01
        1   -1    0    0  501    0  0.00000000000E+00  0.00000000000E+00  0.15291641324E+04  0.15291641324E+04  0.50400001928E-02 0. -1.
       -1   -1    0    0    0  501  0.00000000000E+00  0.00000000000E+00 -0.87164168452E+03  0.87164168454E+03  0.50400001928E-02 0.  1.
    10030    2    1    2    0    0  0.00000000000E+00  0.00000000000E+00  0.65752244790E+03  0.24008058170E+04  0.23090112172E+04 0.  0.
        2    1    3    3  502    0 -0.37512384784E+03  0.45857726471E+03  0.13590488218E+04  0.14825736774E+04  0.25500000920E-02 0. -1.
       -2    1    3    3    0  502  0.37512384784E+03 -0.45857726471E+03 -0.70152637387E+03  0.91823213958E+03  0.25500000920E-02 0.  1.
</event>
<event>
 5   0  0.1371753E-05  0.2293275E+04  0.7818609E-02  0.8480578E-01
       -1   -1    0    0    0  501  0.00000000000E+00  0.00000000000E+00  0.76171402024E+03  0.76171402026E+03  0.50400001928E-02 0. -1.
        1   -1    0    0  501    0  0.00000000000E+00  0.00000000000E+00 -0.17260772808E+04  0.17260772808E+04  0.50400001928E-02 0.  1.
    10030    2    1    2    0    0  0.00000000000E+00  0.00000000000E+00 -0.96436326052E+03  0.24877913010E+04  0.22932747457E+04 0.  0.
        3    1    3    3  502    0 -0.57902577237E+01 -0.60816860622E+03 -0.15366776885E+04  0.16526587395E+04  0.10100000352E+00 0.  1.
       -3    1    3    3    0  502  0.57902577237E+01  0.60816860622E+03  0.57231442798E+03  0.83513256154E+03  0.10100000352E+00 0. -1.
</event>
<event>
 5   0  0.2816178E-05  0.2300852E+04  0.7818609E-02  0.8477585E-01
       -2   -1    0    0    0  501  0.00000000000E+00  0.00000000000E+00  0.18269518187E+04  0.18269518187E+04  0.25500000920E-02 0. -1.
        2   -1    0    0  501    0  0.00000000000E+00  0.00000000000E+00 -0.72441989526E+03  0.72441989526E+03  0.25500000920E-02 0.  1.
    10030    2    1    2    0    0  0.00000000000E+00  0.00000000000E+00  0.11025319235E+04  0.25513717140E+04  0.23008522292E+04 0.  0.
        1    1    3    3  502    0  0.55874300659E+03 -0.43186375553E+03  0.15583231202E+04  0.17108684922E+04  0.50400001928E-02 0. -1.
       -1    1    3    3    0  502 -0.55874300659E+03  0.43186375553E+03 -0.45579119672E+03  0.84050322176E+03  0.50400001928E-02 0.  1.
</event>
<event>
 5   0  0.2938972E-05  0.2364049E+04  0.7818609E-02  0.8453087E-01
       -2   -1    0    0    0  501  0.00000000000E+00  0.00000000000E+00  0.11742700886E+04  0.11742700886E+04  0.25500000920E-02 0. -1.
        2   -1    0    0  501    0  0.00000000000E+00  0.00000000000E+00 -0.11898298076E+04  0.11898298076E+04  0.25500000920E-02 0.  1.
    10030    2    1    2    0    0  0.00000000000E+00  0.00000000000E+00 -0.15559719051E+02  0.23640998962E+04  0.23640486912E+04 0.  0.
        2    1    3    3  502    0  0.59346996120E+03  0.10105968854E+04 -0.16163017451E+03  0.11830625397E+04  0.25500000920E-02 0.  1.
       -2    1    3    3    0  502 -0.59346996120E+03 -0.10105968854E+04  0.14607045546E+03  0.11810373565E+04  0.25500000920E-02 0. -1.
</event>
<event>
 5   0  0.1371753E-05  0.2261386E+04  0.7818609E-02  0.8493304E-01
        1   -1    0    0  501    0  0.00000000000E+00  0.00000000000E+00  0.96746206969E+03  0.96746206971E+03  0.50400001928E-02 0.  1.
       -1   -1    0    0    0  501  0.00000000000E+00  0.00000000000E+00 -0.13214640973E+04  0.13214640973E+04  0.50400001928E-02 0. -1.
    10030    2    1    2    0    0  0.00000000000E+00  0.00000000000E+00 -0.35400202762E+03  0.22889261670E+04  0.22613857615E+04 0.  0.
        3    1    3    3  502    0  0.68277543902E+03  0.59966473502E+03  0.50401260904E+03  0.10391384965E+04  0.10100000352E+00 0.  1.
       -3    1    3    3    0  502 -0.68277543902E+03 -0.59966473502E+03 -0.85801463666E+03  0.12497876706E+04  0.10100000352E+00 0. -1.
</event>
<event>
 5   0  0.2816178E-05  0.2321242E+04  0.7818609E-02  0.8469593E-01
        2   -1    0    0  501    0  0.00000000000E+00  0.00000000000E+00  0.27410203314E+04  0.27410203314E+04  0.25500000920E-02 0.  1.
       -2   -1    0    0    0  501  0.00000000000E+00  0.00000000000E+00 -0.49143766901E+03  0.49143766902E+03  0.25500000920E-02 0. -1.
    10030    2    1    2    0    0  0.00000000000E+00  0.00000000000E+00  0.22495826624E+04  0.32324580004E+04  0.23212416009E+04 0.  0.
        1    1    3    3  502    0 -0.10095969218E+04 -0.46566921543E+03  0.66103293159E+03  0.12934830109E+04  0.50400001928E-02 0. -1.
       -1    1    3    3    0  502  0.10095969218E+04  0.46566921543E+03  0.15885497308E+04  0.19389749895E+04  0.50400001928E-02 0.  1.
</event>
<event>
 5   0  0.1327820E-05  0.2329045E+04  0.7818609E-02  0.8466556E-01
        1   -1    0    0  501    0  0.00000000000E+00  0.00000000000E+00  0.22351474109E+04  0.22351474110E+04  0.50400001928E-02 0.  1.
       -1   -1    0    0    0  501  0.00000000000E+00  0.00000000000E+00 -0.60672167554E+03  0.60672167556E+03  0.50400001928E-02 0. -1.
    10030    2    1    2    0    0  0.00000000000E+00  0.00000000000E+00  0.16284257354E+04  0.28418690865E+04  0.23290447675E+04 0.  0.
        1    1    3    3  502    0 -0.51029239883E+02 -0.81957763356E+03  0.18217359789E+04  0.19982576054E+04  0.50400001928E-02 0.  1.
       -1    1    3    3    0  502  0.51029239883E+02  0.81957763356E+03 -0.19331024351E+03  0.84361148109E+03  0.50400001928E-02 0. -1.
</event>
<event>
 5   0  0.1371753E-05  0.2286703E+04  0.7818609E-02  0.8483182E-01
        1   -1    0    0  501    0  0.00000000000E+00  0.00000000000E+00  0.86961206169E+03  0.86961206171E+03  0.50400001928E-02 0.  1.
       -1   -1    0    0    0  501  0.00000000000E+00  0.00000000000E+00 -0.15032597885E+04  0.15032597885E+04  0.50400001928E-02 0. -1.
    10030    2    1    2    0    0  0.00000000000E+00  0.00000000000E+00 -0.63364772679E+03  0.23728718502E+04  0.22867031674E+04 0.  0.
        3    1    3    3  502    0  0.72535929654E+03  0.69565167824E+03  0.24885632390E+03  0.10353776348E+04  0.10100000352E+00 0.  1.
       -3    1    3    3    0  502 -0.72535929654E+03 -0.69565167824E+03 -0.88250405069E+03  0.13374942154E+04  0.10100000352E+00 0. -1.
</event>
<event>
 5   0  0.2994157E-05  0.2432965E+04  0.7818609E-02  0.8427264E-01
       -2   -1    0    0    0  501  0.00000000000E+00  0.00000000000E+00  0.68142826869E+03  0.68142826870E+03  0.25500000920E-02 0.  1.
        2   -1    0    0  501    0  0.00000000000E+00  0.00000000000E+00 -0.21716593530E+04  0.21716593530E+04  0.25500000920E-02 0. -1.
    10030    2    1    2    0    0  0.00000000000E+00  0.00000000000E+00 -0.14902310843E+04  0.28530876217E+04  0.24329653291E+04 0.  0.
        4    1    3    3  502    0  0.11786535890E+04 -0.25370323629E+03 -0.93507090065E+03  0.15257617170E+04  0.12699999809E+01 0. -1.
       -4    1    3    3    0  502 -0.11786535890E+04  0.25370323629E+03 -0.55516018370E+03  0.13273259047E+04  0.12699999809E+01 0.  1.
</event>
<event>
 5   0  0.2910126E-05  0.2188541E+04  0.7818609E-02  0.8523213E-01
       -2   -1    0    0    0  501  0.00000000000E+00  0.00000000000E+00  0.10262376364E+04  0.10262376365E+04  0.25500000920E-02 0.  1.
        2   -1    0    0  501    0  0.00000000000E+00  0.00000000000E+00 -0.11668133516E+04  0.11668133516E+04  0.25500000920E-02 0. -1.
    10030    2    1    2    0    0  0.00000000000E+00  0.00000000000E+00 -0.14057571514E+03  0.21930509880E+04  0.21885408620E+04 0.  0.
        5    1    3    3  502    0  0.93752063855E+03  0.35784856318E+03  0.36696575697E+03  0.10684973087E+04  0.46999998093E+01 0.  1.
       -5    1    3    3    0  502 -0.93752063855E+03 -0.35784856318E+03 -0.50754147211E+03  0.11245536794E+04  0.46999998093E+01 0. -1.
</event>
<event>
 5   0  0.2816178E-05  0.2300025E+04  0.7818609E-02  0.8477911E-01
       -2   -1    0    0    0  501  0.00000000000E+00  0.00000000000E+00  0.13923693880E+04  0.13923693880E+04  0.25500000920E-02 0.  1.
        2   -1    0    0  501    0  0.00000000000E+00  0.00000000000E+00 -0.94984084929E+03  0.94984084930E+03  0.25500000920E-02 0. -1.
    10030    2    1    2    0    0  0.00000000000E+00  0.00000000000E+00  0.44252853875E+03  0.23422102373E+04  0.23000254973E+04 0.  0.
        1    1    3    3  502    0  0.96832407559E+03 -0.61520420740E+03  0.13978687205E+03  0.11557110806E+04  0.50400001928E-02 0. -1.
       -1    1    3    3    0  502 -0.96832407559E+03  0.61520420740E+03  0.30274166670E+03  0.11864991567E+04  0.50400001928E-02 0.  1.
</event>
<event>
 5   0  0.2910126E-05  0.2300711E+04  0.7818609E-02  0.8477641E-01
        2   -1    0    0  501    0  0.00000000000E+00  0.00000000000E+00  0.11597794136E+04  0.11597794136E+04  0.25500000920E-02 0.  1.
       -2   -1    0    0    0  501  0.00000000000E+00  0.00000000000E+00 -0.11410077442E+04  0.11410077442E+04  0.25500000920E-02 0. -1.
    10030    2    1    2    0    0  0.00000000000E+00  0.00000000000E+00  0.18771669481E+02  0.23007871578E+04  0.23007105793E+04 0.  0.
        5    1    3    3  502    0  0.76141291119E+03 -0.72687515624E+03  0.47329575512E+03  0.11541785286E+04  0.46999998093E+01 0.  1.
       -5    1    3    3    0  502 -0.76141291119E+03  0.72687515624E+03 -0.45452408564E+03  0.11466086292E+04  0.46999998093E+01 0. -1.
</event>
<event>
 5   0  0.2994157E-05  0.2290734E+04  0.7818609E-02  0.8481584E-01
        2   -1    0    0  501    0  0.00000000000E+00  0.00000000000E+00  0.62834819420E+03  0.62834819420E+03  0.25500000920E-02 0. -1.
       -2   -1    0    0    0  501  0.00000000000E+00  0.00000000000E+00 -0.20877994438E+04  0.20877994438E+04  0.25500000920E-02 0.  1.
    10030    2    1    2    0    0  0.00000000000E+00  0.00000000000E+00 -0.14594512496E+04  0.27161476380E+04  0.22907335160E+04 0.  0.
        4    1    3    3  502    0 -0.76179786881E+03 -0.50720409171E+03 -0.15462934750E+04  0.17968353034E+04  0.12699999809E+01 0.  1.
       -4    1    3    3    0  502  0.76179786881E+03  0.50720409171E+03  0.86842225452E+02  0.91931233462E+03  0.12699999809E+01 0. -1.
</event>
<event>
 5   0  0.1371753E-05  0.2334237E+04  0.7818609E-02  0.8464543E-01
        1   -1    0    0  501    0  0.00000000000E+00  0.00000000000E+00  0.11527102222E+04  0.11527102222E+04  0.50400001928E-02 0.  1.
       -1   -1    0    0    0  501  0.00000000000E+00  0.00000000000E+00 -0.11817069150E+04  0.11817069150E+04  0.50400001928E-02 0. -1.
    10030    2    1    2    0    0  0.00000000000E+00  0.00000000000E+00 -0.28996692799E+02  0.23344171373E+04  0.23342370408E+04 0.  0.
        3    1    3    3  502    0  0.67124147393E+03 -0.63043853983E+03  0.70259795268E+03  0.11583012398E+04  0.10100000352E+00 0. -1.
       -3    1    3    3    0  502 -0.67124147393E+03  0.63043853983E+03 -0.73159464548E+03  0.11761158975E+04  0.10100000352E+00 0.  1.
</event>
<event>
 5   0  0.1371753E-05  0.2215988E+04  0.7818609E-02  0.8511803E-01
       -1   -1    0    0    0  501  0.00000000000E+00  0.00000000000E+00  0.14009434357E+04  0.14009434357E+04  0.50400001928E-02 0.  1.
        1   -1    0    0  501    0  0.00000000000E+00  0.00000000000E+00 -0.87630302027E+03  0.87630302028E+03  0.50400001928E-02 0. -1.
    10030    2    1    2    0    0  0.00000000000E+00  0.00000000000E+00  0.52464041543E+03  0.22772464560E+04  0.22159882346E+04 0.  0.
        3    1    3    3  502    0  0.23214711453E+03 -0.19074232598E+03 -0.83363958471E+03  0.88613197950E+03  0.10100000352E+00 0. -1.
       -3    1    3    3    0  502 -0.23214711453E+03  0.19074232598E+03  0.13582800001E+04  0.13911144765E+04  0.10100000352E+00 0.  1.
</event>
<event>
 5   0  0.2871888E-05  0.2288140E+04  0.7818609E-02  0.8482612E-01
       -2   -1    0    0    0  501  0.00000000000E+00  0.00000000000E+00  0.10719602840E+04  0.10719602840E+04  0.25500000920E-02 0. -1.
        2   -1    0    0  501    0  0.00000000000E+00  0.00000000000E+00 -0.12210305112E+04  0.12210305112E+04  0.25500000920E-02 0.  1.
    10030    2    1    2    0    0  0.00000000000E+00  0.00000000000E+00 -0.14907022719E+03  0.22929907953E+04  0.22881400426E+04 0.  0.
        3    1    3    3  502    0 -0.10686144464E+02 -0.10905625158E+04  0.27182080984E+03  0.11239783617E+04  0.10100000352E+00 0. -1.
       -3    1    3    3    0  502  0.10686144464E+02  0.10905625158E+04 -0.42089103703E+03  0.11690124336E+04  0.10100000352E+00 0.  1.
</event>
<event>
 5   0  0.2994157E-05  0.2368135E+04  0.7818609E-02  0.8451531E-01
       -2   -1    0    0    0  501  0.00000000000E+00  0.00000000000E+00  0.87067816617E+03  0.87067816618E+03  0.25500000920E-02 0.  1.
        2   -1    0    0  501    0  0.00000000000E+00  0.00000000000E+00 -0.16102568867E+04  0.16102568867E+04  0.25500000920E-02 0. -1.
    10030    2    1    2    0    0  0.00000000000E+00  0.00000000000E+00 -0.73957872054E+03  0.24809350529E+04  0.23681347202E+04 0.  0.
        4    1    3    3  502    0 -0.24476511862E+03 -0.10689496279E+04 -0.83766097326E+03  0.13799423138E+04  0.12699999809E+01 0. -1.
       -4    1    3    3    0  502  0.24476511862E+03  0.10689496279E+04  0.98082252721E+02  0.11009927391E+04  0.12699999809E+01 0.  1.
</event>
<event>
 5   0  0.1303224E-05  0.2315619E+04  0.7818609E-02  0.8471788E-01
       -1   -1    0    0    0  501  0.00000000000E+00  0.00000000000E+00  0.90451274310E+03  0.90451274311E+03  0.50400001928E-02 0. -1.
        1   -1    0    0  501    0  0.00000000000E+00  0.00000000000E+00 -0.14820388642E+04  0.14820388642E+04  0.50400001928E-02 0.  1.
    10030    2    1    2    0    0  0.00000000000E+00  0.00000000000E+00 -0.57752612110E+03  0.23865516073E+04  0.23156191729E+04 0.  0.
        2    1    3    3  502    0  0.93541896831E+03  0.20353403327E+02 -0.99163616338E+03  0.13633653904E+04  0.25500000920E-02 0.  1.
       -2    1    3    3    0  502 -0.93541896831E+03 -0.20353403327E+02  0.41411004228E+03  0.10231862169E+04  0.25500000920E-02 0. -1.
</event>
<event>
 5   0  0.1327820E-05  0.2297048E+04  0.7818609E-02  0.8479086E-01
        1   -1    0    0  501    0  0.00000000000E+00  0.00000000000E+00  0.12412713144E+04  0.12412713144E+04  0.50400001928E-02 0. -1.
       -1   -1    0    0    0  501  0.00000000000E+00  0.00000000000E+00 -0.10627067802E+04  0.10627067802E+04  0.50400001928E-02 0.  1.
    10030    2    1    2    0    0  0.00000000000E+00  0.00000000000E+00  0.17856453426E+03  0.23039780946E+04  0.22970480551E+04 0.  0.
        1    1    3    3  502    0 -0.85749476388E+02 -0.55121933718E+03  0.10962591730E+04  0.12300324812E+04  0.50400001928E-02 0. -1.
       -1    1    3    3    0  502  0.85749476388E+02  0.55121933718E+03 -0.91769463879E+03  0.10739456134E+04  0.50400001928E-02 0.  1.
</event>
<event>
 5   0  0.1303224E-05  0.2314582E+04  0.7818609E-02  0.8472194E-01
       -1   -1    0    0    0  501  0.00000000000E+00  0.00000000000E+00  0.10052560930E+04  0.10052560930E+04  0.50400001928E-02 0.  1.
        1   -1    0    0  501    0  0.00000000000E+00  0.00000000000E+00 -0.13323202043E+04  0.13323202043E+04  0.50400001928E-02 0. -1.
    10030    2    1    2    0    0  0.00000000000E+00  0.00000000000E+00 -0.32706411132E+03  0.23375762973E+04  0.23145824705E+04 0.  0.
        2    1    3    3  502    0 -0.41752130424E+03 -0.70702529622E+03  0.66011517657E+03  0.10535467979E+04  0.25500000920E-02 0.  1.
       -2    1    3    3    0  502  0.41752130424E+03  0.70702529622E+03 -0.98717928789E+03  0.12840294994E+04  0.25500000920E-02 0. -1.
</event>
<event>
 5   0  0.2994157E-05  0.2247967E+04  0.7818609E-02  0.8498724E-01
       -2   -1    0    0    0  501  0.00000000000E+00  0.00000000000E+00  0.65488447892E+03  0.65488447893E+03  0.25500000920E-02 0. -1.
        2   -1    0    0  501    0  0.00000000000E+00  0.00000000000E+00 -0.19291014243E+04  0.19291014243E+04  0.25500000920E-02 0.  1.
    10030    2    1    2    0    0  0.00000000000E+00  0.00000000000E+00 -0.12742169454E+04  0.25839859033E+04  0.22479667089E+04 0.  0.
        4    1    3    3  502    0 -0.44581267041E+03  0.60812357158E+03 -0.15952330187E+04  0.17644640014E+04  0.12699999809E+01 0.  1.
       -4    1    3    3    0  502  0.44581267041E+03 -0.60812357158E+03  0.32101607329E+03  0.81952190185E+03  0.12699999809E+01 0. -1.
</event>
<event>
 5   0  0.2994157E-05  0.2565826E+04  0.7818609E-02  0.8379903E-01
       -2   -1    0    0    0  501  0.00000000000E+00  0.00000000000E+00  0.10845335289E+04  0.10845335289E+04  0.25500000920E-02 0.  1.
        2   -1    0    0  501    0  0.00000000000E+00  0.00000000000E+00 -0.15175788666E+04  0.15175788666E+04  0.25500000920E-02 0. -1.
    10030    2    1    2    0    0  0.00000000000E+00  0.00000000000E+00 -0.43304533774E+03  0.26021123955E+04  0.25658255308E+04 0.  0.
        4    1    3    3  502    0 -0.67069702015E+02 -0.12771851726E+04 -0.11428403526E+03  0.12840415739E+04  0.12699999809E+01 0.  1.
       -4    1    3    3    0  502  0.67069702015E+02  0.12771851726E+04 -0.31876130248E+03  0.13180708216E+04  0.12699999809E+01 0. -1.
</event>
<event>
 5   0  0.2910126E-05  0.2322212E+04  0.7818609E-02  0.8469214E-01
        2   -1    0    0  501    0  0.00000000000E+00  0.00000000000E+00  0.11878025045E+04  0.11878025045E+04  0.25500000920E-02 0.  1.
       -2   -1    0    0    0  501  0.00000000000E+00  0.00000000000E+00 -0.11350098417E+04  0.11350098417E+04  0.25500000920E-02 0. -1.
    10030    2    1    2    0    0  0.00000000000E+00  0.00000000000E+00  0.52792662811E+02  0.23228123461E+04  0.23222123353E+04 0.  0.
        5    1    3    3  502    0  0.86046700906E+03 -0.40702642162E+03 -0.63866000786E+03  0.11462908345E+04  0.46999998093E+01 0. -1.
       -5    1    3    3    0  502 -0.86046700906E+03  0.40702642162E+03  0.69145267067E+03  0.11765215116E+04  0.46999998093E+01 0.  1.
</event>
<event>
 5   0  0.1371753E-05  0.2287803E+04  0.7818609E-02  0.8482746E-01
        1   -1    0    0  501    0  0.00000000000E+00  0.00000000000E+00  0.14961761978E+04  0.14961761978E+04  0.50400001928E-02 0.  1.
       -1   -1    0    0    0  501  0.00000000000E+00  0.00000000000E+00 -0.87457023014E+03  0.87457023015E+03  0.50400001928E-02 0. -1.
    10030    2    1    2    0    0  0.00000000000E+00  0.00000000000E+00  0.62160596770E+03  0.23707464280E+04  0.22878034546E+04 0.  0.
        3    1    3    3  502    0 -0.23489289139E+02 -0.11355663195E+04  0.17005331562E+03  0.11484688734E+04  0.10100000352E+00 0.  1.
       -3    1    3    3    0  502  0.23489289139E+02  0.11355663195E+04  0.45155265208E+03  0.12222775546E+04  0.10100000352E+00 0. -1.
</event>
<event>
 5   0  0.1303224E-05  0.2302404E+04  0.7818609E-02  0.8476974E-01
        1   -1    0    0  501    0  0.00000000000E+00  0.00000000000E+00  0.14228992419E+04  0.14228992420E+04  0.50400001928E-02 0. -1.
       -1   -1    0    0    0  501  0.00000000000E+00  0.00000000000E+00 -0.93138403536E+03  0.93138403538E+03  0.50400001928E-02 0.  1.
    10030    2    1    2    0    0  0.00000000000E+00  0.00000000000E+00  0.49151520658E+03  0.23542832773E+04  0.23024036465E+04 0.  0.
        2    1    3    3  502    0  0.92621448418E+03  0.67247521048E+03  0.11981800830E+03  0.11508486149E+04  0.25500000920E-02 0.  1.
       -2    1    3    3    0  502 -0.92621448418E+03 -0.67247521048E+03  0.37169719829E+03  0.12034346624E+04  0.25500000920E-02 0. -1.
</event>
<event>
 5   0  0.2816178E-05  0.2208339E+04  0.7818609E-02  0.8514965E-01
        2   -1    0    0  501    0  0.00000000000E+00  0.00000000000E+00  0.14702063359E+04  0.14702063359E+04  0.25500000920E-02 0. -1.
       -2   -1    0    0    0  501  0.00000000000E+00  0.00000000000E+00 -0.82926449407E+03  0.82926449407E+03  0.25500000920E-02 0.  1.
    10030    2    1    2    0    0  0.00000000000E+00  0.00000000000E+00  0.64094184186E+03  0.22994708300E+04  0.22083386637E+04 0.  0.
        1    1    3    3  502    0 -0.89937379053E+03 -0.63891277005E+03  0.27267266313E+03  0.11364123917E+04  0.50400001928E-02 0.  1.
       -1    1    3    3    0  502  0.89937379053E+03  0.63891277005E+03  0.36826917872E+03  0.11630584383E+04  0.50400001928E-02 0. -1.
</event>
<event>
 5   0  0.1284837E-05  0.2287591E+04  0.7818609E-02  0.8482830E-01
       -1   -1    0    0    0  501  0.00000000000E+00  0.00000000000E+00  0.87556126267E+03  0.87556126269E+03  0.50400001928E-02 0.  1.
        1   -1    0    0  501    0  0.00000000000E+00  0.00000000000E+00 -0.14942048199E+04  0.14942048199E+04  0.50400001928E-02 0. -1.
    10030    2    1    2    0    0  0.00000000000E+00  0.00000000000E+00 -0.61864355722E+03  0.23697660826E+04  0.22875907491E+04 0.  0.
        4    1    3    3  502    0  0.42285054363E+03  0.86566428386E+03 -0.94798190809E+03  0.13516096129E+04  0.12699999809E+01 0. -1.
       -4    1    3    3    0  502 -0.42285054363E+03 -0.86566428386E+03  0.32933835087E+03  0.10181564697E+04  0.12699999809E+01 0.  1.
</event>
<event>
 5   0  0.2816178E-05  0.2284859E+04  0.7818609E-02  0.8483915E-01
       -2   -1    0    0    0  501  0.00000000000E+00  0.00000000000E+00  0.10878834232E+04  0.10878834232E+04  0.25500000920E-02 0.  1.
        2   -1    0    0  501    0  0.00000000000E+00  0.00000000000E+00 -0.11997106583E+04  0.11997106583E+04  0.25500000920E-02 0. -1.
    10030    2    1    2    0    0  0.00000000000E+00  0.00000000000E+00 -0.11182723516E+03  0.22875940815E+04  0.22848591534E+04 0.  0.
        1    1    3    3  502    0  0.38225635894E+03  0.10214025478E+04 -0.39655939379E+03  0.11604492412E+04  0.50400001928E-02 0. -1.
       -1    1    3    3    0  502 -0.38225635894E+03 -0.10214025478E+04  0.28473215863E+03  0.11271448402E+04  0.50400001928E-02 0.  1.
</event>
<event>
 5   0  0.2938972E-05  0.2076369E+04  0.7818609E-02  0.8571725E-01
       -2   -1    0    0    0  501  0.00000000000E+00  0.00000000000E+00  0.12216238618E+04  0.12216238618E+04  0.25500000920E-02 0.  1.
        2   -1    0    0  501    0  0.00000000000E+00  0.00000000000E+00 -0.88229015264E+03  0.88229015264E+03  0.25500000920E-02 0. -1.
    10030    2    1    2    0    0  0.00000000000E+00  0.00000000000E+00  0.33933370921E+03  0.21039140145E+04  0.20763686605E+04 0.  0.
        2    1    3    3  502    0 -0.27845808381E+03  0.99894494857E+03  0.21927333409E+03  0.10599578811E+04  0.25500000920E-02 0. -1.
       -2    1    3    3    0  502  0.27845808381E+03 -0.99894494857E+03  0.12006037512E+03  0.10439561334E+04  0.25500000920E-02 0.  1.
</event>
<event>
 5   0  0.1284837E-05  0.2298659E+04  0.7818609E-02  0.8478450E-01
       -1   -1    0    0    0  501  0.00000000000E+00  0.00000000000E+00  0.10064570032E+04  0.10064570032E+04  0.50400001928E-02 0. -1.
        1   -1    0    0  501    0  0.00000000000E+00  0.00000000000E+00 -0.13124836538E+04  0.13124836538E+04  0.50400001928E-02 0.  1.
    10030    2    1    2    0    0  0.00000000000E+00  0.00000000000E+00 -0.30602665056E+03  0.23189406570E+04  0.22986590569E+04 0.  0.
        4    1    3    3  502    0 -0.57519828651E+03  0.80170524244E+03 -0.74759664486E+03  0.12379364769E+04  0.12699999809E+01 0.  1.
       -4    1    3    3    0  502  0.57519828651E+03 -0.80170524244E+03  0.44156999430E+03  0.10810041801E+04  0.12699999809E+01 0. -1.
</event>
<event>
 5   0  0.2994157E-05  0.2310205E+04  0.7818609E-02  0.8473908E-01
        2   -1    0    0  501    0  0.00000000000E+00  0.00000000000E+00  0.28228827685E+04  0.28228827685E+04  0.25500000920E-02 0.  1.
       -2   -1    0    0    0  501  0.00000000000E+00  0.00000000000E+00 -0.47265911159E+03  0.47265911160E+03  0.25500000920E-02 0. -1.
    10030    2    1    2    0    0  0.00000000000E+00  0.00000000000E+00  0.23502236570E+04  0.32955418801E+04  0.23102045464E+04 0.  0.
        4    1    3    3  502    0  0.58465622636E+02 -0.57843609082E+03  0.25989520127E+04  0.26631860088E+04  0.12699999809E+01 0.  1.
       -4    1    3    3    0  502 -0.58465622636E+02  0.57843609082E+03 -0.24872835574E+03  0.63235587136E+03  0.12699999809E+01 0. -1.
</event>
<event>
 5   0  0.1371753E-05  0.2303945E+04  0.7818609E-02  0.8476367E-01
        1   -1    0    0  501    0  0.00000000000E+00  0.00000000000E+00  0.13224631577E+04  0.13224631578E+04  0.50400001928E-02 0. -1.
       -1   -1    0    0    0  501  0.00000000000E+00  0.00000000000E+00 -0.10034609597E+04  0.10034609598E+04  0.50400001928E-02 0.  1.
    10030    2    1    2    0    0  0.00000000000E+00  0.00000000000E+00  0.31900219801E+03  0.23259241175E+04  0.23039445736E+04 0.  0.
        3    1    3    3  502    0 -0.75526127605E+03  0.19706354947E+03  0.10148063896E+04  0.12802678064E+04  0.10100000352E+00 0. -1.
       -3    1    3    3    0  502  0.75526127605E+03 -0.19706354947E+03 -0.69580419160E+03  0.10456563111E+04  0.10100000352E+00 0.  1.
</event>
<event>
 5   0  0.2910126E-05  0.2309708E+04  0.7818609E-02  0.8474103E-01
        2   -1    0    0  501    0  0.00000000000E+00  0.00000000000E+00  0.17758314161E+04  0.17758314161E+04  0.25500000920E-02 0.  1.
       -2   -1    0    0    0  501  0.00000000000E+00  0.00000000000E+00 -0.75102188786E+03  0.75102188786E+03  0.25500000920E-02 0. -1.
    10030    2    1    2    0    0  0.00000000000E+00  0.00000000000E+00  0.10248095283E+04  0.25268533040E+04  0.23097084341E+04 0.  0.
        5    1    3    3  502    0  0.81197810758E+02 -0.25431645971E+03 -0.71679003318E+03  0.76490521492E+03  0.46999998093E+01 0. -1.
       -5    1    3    3    0  502 -0.81197810758E+02  0.25431645971E+03  0.17415995615E+04  0.17619480891E+04  0.46999998093E+01 0.  1.
</event>
<event>
 5   0  0.2910126E-05  0.2310465E+04  0.7818609E-02  0.8473806E-01
        2   -1    0    0  501    0  0.00000000000E+00  0.00000000000E+00  0.23389502005E+04  0.23389502005E+04  0.25500000920E-02 0. -1.
       -2   -1    0    0    0  501  0.00000000000E+00  0.00000000000E+00 -0.57058181745E+03  0.57058181745E+03  0.25500000920E-02 0.  1.
    10030    2    1    2    0    0  0.00000000000E+00  0.00000000000E+00  0.17683683830E+04  0.29095320179E+04  0.23104652833E+04 0.  0.
        5    1    3    3  502    0 -0.27236727824E+03  0.29889238734E+03  0.22469016114E+04  0.22830044973E+04  0.46999998093E+01 0. -1.
       -5    1    3    3    0  502  0.27236727824E+03 -0.29889238734E+03 -0.47853322835E+03  0.62652752063E+03  0.46999998093E+01 0.  1.
</event>
<event>
 5   0  0.2816178E-05  0.2305099E+04  0.7818609E-02  0.8475913E-01
        2   -1    0    0  501    0  0.00000000000E+00  0.00000000000E+00  0.74473324076E+03  0.74473324077E+03  0.25500000920E-02 0.  1.
       -2   -1    0    0    0  501  0.00000000000E+00  0.00000000000E+00 -0.17836856567E+04  0.17836856567E+04  0.25500000920E-02 0. -1.
    10030    2    1    2    0    0  0.00000000000E+00  0.00000000000E+00 -0.10389524160E+04  0.25284188975E+04  0.23050986961E+04 0.  0.
        1    1    3    3  502    0 -0.89730266105E+03 -0.21223628730E+03  0.23901812794E+03  0.95253659913E+03  0.50400001928E-02 0.  1.
       -1    1    3    3    0  502  0.89730266105E+03  0.21223628730E+03 -0.12779705439E+04  0.15758822984E+04  0.50400001928E-02 0. -1.
</event>
<event>
 5   0  0.1284837E-05  0.2298177E+04  0.7818609E-02  0.8478640E-01
       -1   -1    0    0    0  501  0.00000000000E+00  0.00000000000E+00  0.99248522953E+03  0.99248522955E+03  0.50400001928E-02 0.  1.
        1   -1    0    0  501    0  0.00000000000E+00  0.00000000000E+00 -0.13304015502E+04  0.13304015502E+04  0.50400001928E-02 0. -1.
    10030    2    1    2    0    0  0.00000000000E+00  0.00000000000E+00 -0.33791632068E+03  0.23228867798E+04  0.22981765711E+04 0.  0.
        4    1    3    3  502    0 -0.10271663761E+03  0.69389088703E+03  0.75097451559E+03  0.10276184149E+04  0.12699999809E+01 0.  1.
       -4    1    3    3    0  502  0.10271663761E+03 -0.69389088703E+03 -0.10888908363E+04  0.12952683648E+04  0.12699999809E+01 0. -1.
</event>
<event>
 5   0  0.1371753E-05  0.2302881E+04  0.7818609E-02  0.8476786E-01
        1   -1    0    0  501    0  0.00000000000E+00  0.00000000000E+00  0.11180010649E+04  0.11180010650E+04  0.50400001928E-02 0. -1.
       -1   -1    0    0    0  501  0.00000000000E+00  0.00000000000E+00 -0.11858796291E+04  0.11858796291E+04  0.50400001928E-02 0.  1.
    10030    2    1    2    0    0  0.00000000000E+00  0.00000000000E+00 -0.67878564101E+02  0.23038806940E+04  0.23028805338E+04 0.  0.
        3    1    3    3  502    0 -0.56174891549E+03  0.14077827170E+03  0.96169860733E+03  0.11226061586E+04  0.10100000352E+00 0. -1.
       -3    1    3    3    0  502  0.56174891549E+03 -0.14077827170E+03 -0.10295771714E+04  0.11812745354E+04  0.10100000352E+00 0.  1.
</event>
<event>
 5   0  0.1371753E-05  0.2310898E+04  0.7818609E-02  0.8473637E-01
        1   -1    0    0  501    0  0.00000000000E+00  0.00000000000E+00  0.12646937015E+04  0.12646937015E+04  0.50400001928E-02 0. -1.
       -1   -1    0    0    0  501  0.00000000000E+00  0.00000000000E+00 -0.10556405492E+04  0.10556405492E+04  0.50400001928E-02 0.  1.
    10030    2    1    2    0    0  0.00000000000E+00  0.00000000000E+00  0.20905315233E+03  0.23203342507E+04  0.23108976209E+04 0.  0.
        3    1    3    3  502    0  0.17234817765E+03 -0.45664384805E+03 -0.94704874559E+03  0.10654242512E+04  0.10100000352E+00 0.  1.
       -3    1    3    3    0  502 -0.17234817765E+03  0.45664384805E+03  0.11561018979E+04  0.12549099995E+04  0.10100000352E+00 0. -1.
</event>
<event>
 5   0  0.2994157E-05  0.2302440E+04  0.7818609E-02  0.8476960E-01
        2   -1    0    0  501    0  0.00000000000E+00  0.00000000000E+00  0.14759401406E+04  0.14759401406E+04  0.25500000920E-02 0. -1.
       -2   -1    0    0    0  501  0.00000000000E+00  0.00000000000E+00 -0.89794136356E+03  0.89794136356E+03  0.25500000920E-02 0.  1.
    10030    2    1    2    0    0  0.00000000000E+00  0.00000000000E+00  0.57799877702E+03  0.23738815041E+04  0.23024401859E+04 0.  0.
        4    1    3    3  502    0 -0.27611012928E+03  0.15252774434E+03 -0.85251475986E+03  0.90900194992E+03  0.12699999809E+01 0.  1.
       -4    1    3    3    0  502  0.27611012928E+03 -0.15252774434E+03  0.14305135369E+04  0.14648795542E+04  0.12699999809E+01 0. -1.
</event>
<event>
 5   0  0.1308224E-05  0.2256533E+04  0.7818609E-02  0.8495259E-01
       -1   -1    0    0    0  501  0.00000000000E+00  0.00000000000E+00  0.60135355839E+03  0.60135355841E+03  0.50400001928E-02 0.  1.
        1   -1    0    0  501    0  0.00000000000E+00  0.00000000000E+00 -0.21168673673E+04  0.21168673673E+04  0.50400001928E-02 0. -1.
    10030    2    1    2    0    0  0.00000000000E+00  0.00000000000E+00 -0.15155138089E+04  0.27182209258E+04  0.22565333802E+04 0.  0.
        5    1    3    3  502    0 -0.27750421664E+03  0.16812719254E+03  0.54392974873E+03  0.63336956406E+03  0.46999998093E+01 0.  1.
       -5    1    3    3    0  502  0.27750421664E+03 -0.16812719254E+03 -0.20594435577E+04  0.20848513617E+04  0.46999998093E+01 0. -1.
</event>
<event>
 5   0  0.1284837E-05  0.2286859E+04  0.7818609E-02  0.8483120E-01
       -1   -1    0    0    0  501  0.00000000000E+00  0.00000000000E+00  0.11261379797E+04  0.11261379797E+04  0.50400001928E-02 0. -1.
        1   -1    0    0  501    0  0.00000000000E+00  0.00000000000E+00 -0.11609867905E+04  0.11609867905E+04  0.50400001928E-02 0.  1.
    10030    2    1    2    0    0  0.00000000000E+00  0.00000000000E+00 -0.34848810794E+02  0.22871247702E+04  0.22868592600E+04 0.  0.
        4    1    3    3  502    0 -0.67378900502E+03 -0.17515273123E+03 -0.92459068750E+03  0.11573848344E+04  0.12699999809E+01 0.  1.
       -4    1    3    3    0  502  0.67378900502E+03  0.17515273123E+03  0.88974187671E+03  0.11297399358E+04  0.12699999809E+01 0. -1.
</event>
<event>
 5   0  0.1303224E-05  0.2037215E+04  0.7818609E-02  0.8589416E-01
       -1   -1    0    0    0  501  0.00000000000E+00  0.00000000000E+00  0.16330066934E+04  0.16330066934E+04  0.50400001928E-02 0.  1.
        1   -1    0    0  501    0  0.00000000000E+00  0.00000000000E+00 -0.63536876800E+03  0.63536876802E+03  0.50400001928E-02 0. -1.
    10030    2    1    2    0    0  0.00000000000E+00  0.00000000000E+00  0.99763792535E+03  0.22683754614E+04  0.20372152080E+04 0.  0.
        2    1    3    3  502    0  0.73614597295E+03  0.39043628381E+03  0.11511349750E+04  0.14210781526E+04  0.25500000920E-02 0.  1.
       -2    1    3    3    0  502 -0.73614597295E+03 -0.39043628381E+03 -0.15349704960E+03  0.84729730878E+03  0.25500000920E-02 0. -1.
</event>
<event>
 5   0  0.2871888E-05  0.2298379E+04  0.7818609E-02  0.8478561E-01
       -2   -1    0    0    0  501  0.00000000000E+00  0.00000000000E+00  0.90886714940E+03  0.90886714940E+03  0.25500000920E-02 0.  1.
        2   -1    0    0  501    0  0.00000000000E+00  0.00000000000E+00 -0.14530575783E+04  0.14530575783E+04  0.25500000920E-02 0. -1.
    10030    2    1    2    0    0  0.00000000000E+00  0.00000000000E+00 -0.54419042889E+03  0.23619247277E+04  0.22983788192E+04 0.  0.
        3    1    3    3  502    0 -0.35711355465E+03  0.59936907175E+03  0.66631293716E+03  0.96475194507E+03  0.10100000352E+00 0.  1.
       -3    1    3    3    0  502  0.35711355465E+03 -0.59936907175E+03 -0.12105033661E+04  0.13971727826E+04  0.10100000352E+00 0. -1.
</event>
<event>
 5   0  0.2994157E-05  0.2304271E+04  0.7818609E-02  0.8476239E-01
       -2   -1    0    0    0  501  0.00000000000E+00  0.00000000000E+00  0.65141638615E+03  0.65141638615E+03  0.25500000920E-02 0. -1.
        2   -1    0    0  501    0  0.00000000000E+00  0.00000000000E+00 -0.20377389268E+04  0.20377389268E+04  0.25500000920E-02 0.  1.
    10030    2    1    2    0    0  0.00000000000E+00  0.00000000000E+00 -0.13863225407E+04  0.26891553130E+04  0.23042712754E+04 0.  0.
        4    1    3    3  502    0 -0.27031596384E+03  0.68783043708E+03  0.33834697614E+03  0.81281099872E+03  0.12699999809E+01 0. -1.
       -4    1    3    3    0  502  0.27031596384E+03 -0.68783043708E+03 -0.17246695168E+04  0.18763443143E+04  0.12699999809E+01 0.  1.
</event>
<event>
 5   0  0.2816178E-05  0.2338970E+04  0.7818609E-02  0.8462712E-01
        2   -1    0    0  501    0  0.00000000000E+00  0.00000000000E+00  0.13405259102E+04  0.13405259102E+04  0.25500000920E-02 0.  1.
       -2   -1    0    0    0  501  0.00000000000E+00  0.00000000000E+00 -0.10202677400E+04  0.10202677400E+04  0.25500000920E-02 0. -1.
    10030    2    1    2    0    0  0.00000000000E+00  0.00000000000E+00  0.32025817019E+03  0.23607936503E+04  0.23389701502E+04 0.  0.
        1    1    3    3  502    0  0.40359001679E+03  0.15633873822E+03 -0.93645560945E+03  0.10316374417E+04  0.50400001928E-02 0. -1.
       -1    1    3    3    0  502 -0.40359001679E+03 -0.15633873822E+03  0.12567137796E+04  0.13291562085E+04  0.50400001928E-02 0.  1.
</event>
<event>
 5   0  0.2871888E-05  0.2297661E+04  0.7818609E-02  0.8478844E-01
        2   -1    0    0  501    0  0.00000000000E+00  0.00000000000E+00  0.13907498171E+04  0.13907498171E+04  0.25500000920E-02 0. -1.
       -2   -1    0    0    0  501  0.00000000000E+00  0.00000000000E+00 -0.94899286881E+03  0.94899286881E+03  0.25500000920E-02 0.  1.
    10030    2    1    2    0    0  0.00000000000E+00  0.00000000000E+00  0.44175694829E+03  0.23397426859E+04  0.22976611227E+04 0.  0.
        3    1    3    3  502    0  0.86853054287E+03  0.74909309071E+03  0.15390240400E+03  0.11572258736E+04  0.10100000352E+00 0.  1.
       -3    1    3    3    0  502 -0.86853054287E+03 -0.74909309071E+03  0.28785454430E+03  0.11825168123E+04  0.10100000352E+00 0. -1.
</event>
<event>
 5   0  0.1308224E-05  0.2291668E+04  0.7818609E-02  0.8481213E-01
        1   -1    0    0  501    0  0.00000000000E+00  0.00000000000E+00  0.12372579272E+04  0.12372579273E+04  0.50400001928E-02 0. -1.
       -1   -1    0    0    0  501  0.00000000000E+00  0.00000000000E+00 -0.10611659932E+04  0.10611659932E+04  0.50400001928E-02 0.  1.
    10030    2    1    2    0    0  0.00000000000E+00  0.00000000000E+00  0.17609193408E+03  0.22984239204E+04  0.22916684203E+04 0.  0.
        5    1    3    3  502    0  0.46849446645E+02  0.15391170183E+03  0.12258637903E+04  0.12363849745E+04  0.46999998093E+01 0. -1.
       -5    1    3    3    0  502 -0.46849446645E+02 -0.15391170183E+03 -0.10497718563E+04  0.10620389460E+04  0.46999998093E+01 0.  1.
</event>
<event>
 5   0  0.1284837E-05  0.2278996E+04  0.7818609E-02  0.8486249E-01
        1   -1    0    0  501    0  0.00000000000E+00  0.00000000000E+00  0.96738849404E+03  0.96738849405E+03  0.50400001928E-02 0.  1.
       -1   -1    0    0    0  501  0.00000000000E+00  0.00000000000E+00 -0.13422274139E+04  0.13422274139E+04  0.50400001928E-02 0. -1.
    10030    2    1    2    0    0  0.00000000000E+00  0.00000000000E+00 -0.37483891988E+03  0.23096159080E+04  0.22789957057E+04 0.  0.
        4    1    3    3  502    0 -0.57963764744E+03  0.30521725203E+03 -0.11323180140E+04  0.13081601855E+04  0.12699999809E+01 0. -1.
       -4    1    3    3    0  502  0.57963764744E+03 -0.30521725203E+03  0.75747909407E+03  0.10014557225E+04  0.12699999809E+01 0.  1.
</event>
<event>
 5   0  0.1308224E-05  0.2281906E+04  0.7818609E-02  0.8485090E-01
       -1   -1    0    0    0  501  0.00000000000E+00  0.00000000000E+00  0.99646741488E+03  0.99646741489E+03  0.50400001928E-02 0.  1.
        1   -1    0    0  501    0  0.00000000000E+00  0.00000000000E+00 -0.13063885383E+04  0.13063885383E+04  0.50400001928E-02 0. -1.
    10030    2    1    2    0    0  0.00000000000E+00  0.00000000000E+00 -0.30992112345E+03  0.23028559532E+04  0.22819058786E+04 0.  0.
        5    1    3    3  502    0 -0.81064237064E+03  0.26670267045E+03 -0.91919788182E+03  0.12542799542E+04  0.46999998093E+01 0. -1.
       -5    1    3    3    0  502  0.81064237064E+03 -0.26670267045E+03  0.60927675837E+03  0.10485759991E+04  0.46999998093E+01 0.  1.
</event>
<event>
 5   0  0.1327820E-05  0.2306366E+04  0.7818609E-02  0.8475415E-01
       -1   -1    0    0    0  501  0.00000000000E+00  0.00000000000E+00  0.17041797468E+04  0.17041797468E+04  0.50400001928E-02 0. -1.
        1   -1    0    0  501    0  0.00000000000E+00  0.00000000000E+00 -0.78033489462E+03  0.78033489464E+03  0.50400001928E-02 0.  1.
    10030    2    1    2    0    0  0.00000000000E+00  0.00000000000E+00  0.92384485220E+03  0.24845146415E+04  0.23063659061E+04 0.  0.
        1    1    3    3  502    0  0.39301421595E+03 -0.92271746872E+03  0.10750646233E+04  0.14702488379E+04  0.50400001928E-02 0. -1.
       -1    1    3    3    0  502 -0.39301421595E+03  0.92271746872E+03 -0.15121977115E+03  0.10142658035E+04  0.50400001928E-02 0.  1.
</event>
<event>
 5   0  0.2994157E-05  0.2307239E+04  0.7818609E-02  0.8475072E-01
       -2   -1    0    0    0  501  0.00000000000E+00  0.00000000000E+00  0.10881698721E+04  0.10881698721E+04  0.25500000920E-02 0. -1.
        2   -1    0    0  501    0  0.00000000000E+00  0.00000000000E+00 -0.12230056385E+04  0.12230056385E+04  0.25500000920E-02 0.  1.
    10030    2    1    2    0    0  0.00000000000E+00  0.00000000000E+00 -0.13483576636E+03  0.23111755106E+04  0.23072389467E+04 0.  0.
        4    1    3    3  502    0 -0.46820237255E+02 -0.14715018060E+03  0.10777697405E+04  0.10887766239E+04  0.12699999809E+01 0. -1.
       -4    1    3    3    0  502  0.46820237255E+02  0.14715018060E+03 -0.12126055068E+04  0.12223988868E+04  0.12699999809E+01 0.  1.
</event>
<event>
 5   0  0.2816178E-05  0.2311927E+04  0.7818609E-02  0.8473233E-01
        2   -1    0    0  501    0  0.00000000000E+00  0.00000000000E+00  0.14143993461E+04  0.14143993461E+04  0.25500000920E-02 0.  1.
       -2   -1    0    0    0  501  0.00000000000E+00  0.00000000000E+00 -0.94474851056E+03  0.94474851056E+03  0.25500000920E-02 0. -1.
    10030    2    1    2    0    0  0.00000000000E+00  0.00000000000E+00  0.46965083552E+03  0.23591478566E+04  0.23119270538E+04 0.  0.
        1    1    3    3  502    0 -0.36746847680E+03 -0.46731628058E+03 -0.77680327561E+03  0.97818245566E+03  0.50400001928E-02 0. -1.
       -1    1    3    3    0  502  0.36746847680E+03  0.46731628058E+03  0.12464541111E+04  0.13809654010E+04  0.50400001928E-02 0.  1.
</event>
<event>
 5   0  0.2938972E-05  0.2314733E+04  0.7818609E-02  0.8472135E-01
        2   -1    0    0  501    0  0.00000000000E+00  0.00000000000E+00  0.20579928898E+04  0.20579928898E+04  0.25500000920E-02 0. -1.
       -2   -1    0    0    0  501  0.00000000000E+00  0.00000000000E+00 -0.65087531819E+03  0.65087531819E+03  0.25500000920E-02 0.  1.
    10030    2    1    2    0    0  0.00000000000E+00  0.00000000000E+00  0.14071175716E+04  0.27088682080E+04  0.23147326213E+04 0.  0.
        2    1    3    3  502    0  0.19389009429E+03 -0.24373179802E+03 -0.60091372465E+03  0.67682779383E+03  0.25500000920E-02 0.  1.
       -2    1    3    3    0  502 -0.19389009429E+03  0.24373179802E+03  0.20080312962E+04  0.20320404142E+04  0.25500000920E-02 0. -1.
</event>
<event>
 5   0  0.1371753E-05  0.2292992E+04  0.7818609E-02  0.8480689E-01
       -1   -1    0    0    0  501  0.00000000000E+00  0.00000000000E+00  0.94863080642E+03  0.94863080644E+03  0.50400001928E-02 0. -1.
        1   -1    0    0  501    0  0.00000000000E+00  0.00000000000E+00 -0.13856322606E+04  0.13856322606E+04  0.50400001928E-02 0.  1.
    10030    2    1    2    0    0  0.00000000000E+00  0.00000000000E+00 -0.43700145420E+03  0.23342630671E+04  0.22929923234E+04 0.  0.
        3    1    3    3  502    0 -0.45786241695E+03 -0.87427174454E+03 -0.81249605311E+03  0.12783344330E+04  0.10100000352E+00 0.  1.
       -3    1    3    3    0  502  0.45786241695E+03  0.87427174454E+03  0.37549459891E+03  0.10559286340E+04  0.10100000352E+00 0. -1.
</event>
<event>
 5   0  0.2871888E-05  0.2300294E+04  0.7818609E-02  0.8477805E-01
       -2   -1    0    0    0  501  0.00000000000E+00  0.00000000000E+00  0.12395902745E+04  0.12395902745E+04  0.25500000920E-02 0. -1.
        2   -1    0    0  501    0  0.00000000000E+00  0.00000000000E+00 -0.10671571041E+04  0.10671571042E+04  0.25500000920E-02 0.  1.
    10030    2    1    2    0    0  0.00000000000E+00  0.00000000000E+00  0.17243317033E+03  0.23067473786E+04  0.23002935184E+04 0.  0.
        3    1    3    3  502    0  0.15902062189E+03 -0.11363471272E+04  0.16559171466E+03  0.11593071111E+04  0.10100000352E+00 0. -1.
       -3    1    3    3    0  502 -0.15902062189E+03  0.11363471272E+04  0.68414556655E+01  0.11474402675E+04  0.10100000352E+00 0.  1.
</event>
<event>
 5   0  0.2910126E-05  0.2302187E+04  0.7818609E-02  0.8477059E-01
       -2   -1    0    0    0  501  0.00000000000E+00  0.00000000000E+00  0.13896464732E+04  0.13896464732E+04  0.25500000920E-02 0.  1.
        2   -1    0    0  501    0  0.00000000000E+00  0.00000000000E+00 -0.95349168272E+03  0.95349168272E+03  0.25500000920E-02 0. -1.
    10030    2    1    2    0    0  0.00000000000E+00  0.00000000000E+00  0.43615479047E+03  0.23431381559E+04  0.23021870941E+04 0.  0.
        5    1    3    3  502    0  0.77438897976E+03  0.43019688883E+03 -0.53001166874E+03  0.10323188045E+04  0.46999998093E+01 0. -1.
       -5    1    3    3    0  502 -0.77438897976E+03 -0.43019688883E+03  0.96616645921E+03  0.13108193514E+04  0.46999998093E+01 0.  1.
</event>
<event>
 5   0  0.2816178E-05  0.2295228E+04  0.7818609E-02  0.8479805E-01
       -2   -1    0    0    0  501  0.00000000000E+00  0.00000000000E+00  0.13691794895E+04  0.13691794895E+04  0.25500000920E-02 0.  1.
        2   -1    0    0  501    0  0.00000000000E+00  0.00000000000E+00 -0.96190276894E+03  0.96190276894E+03  0.25500000920E-02 0. -1.
    10030    2    1    2    0    0  0.00000000000E+00  0.00000000000E+00  0.40727672060E+03  0.23310822585E+04  0.22952276943E+04 0.  0.
        1    1    3    3  502    0  0.64221082567E+03  0.37666478621E+02 -0.76155681174E+03  0.99690635757E+03  0.50400001928E-02 0. -1.
       -1    1    3    3    0  502 -0.64221082567E+03 -0.37666478621E+02  0.11688335323E+04  0.13341759009E+04  0.50400001928E-02 0.  1.
</event>
<event>
 5   0  0.1371753E-05  0.2294069E+04  0.7818609E-02  0.8480263E-01
        1   -1    0    0  501    0  0.00000000000E+00  0.00000000000E+00  0.23071355485E+04  0.23071355485E+04  0.50400001928E-02 0. -1.
       -1   -1    0    0    0  501  0.00000000000E+00  0.00000000000E+00 -0.57026895505E+03  0.57026895508E+03  0.50400001928E-02 0.  1.
    10030    2    1    2    0    0  0.00000000000E+00  0.00000000000E+00  0.17368665934E+04  0.28774045036E+04  0.22940686811E+04 0.  0.
        3    1    3    3  502    0  0.77558509137E+03 -0.73348309424E+03  0.13948695542E+04  0.17564711119E+04  0.10100000352E+00 0. -1.
       -3    1    3    3    0  502 -0.77558509137E+03  0.73348309424E+03  0.34199703920E+03  0.11209333916E+04  0.10100000352E+00 0.  1.
</event>
<event>
 5   0  0.1284837E-05  0.2103608E+04  0.7818609E-02  0.8559656E-01
       -1   -1    0    0    0  501  0.00000000000E+00  0.00000000000E+00  0.10798300751E+04  0.10798300751E+04  0.50400001928E-02 0. -1.
        1   -1    0    0  501    0  0.00000000000E+00  0.00000000000E+00 -0.10245056409E+04  0.10245056409E+04  0.50400001928E-02 0.  1.
    10030    2    1    2    0    0  0.00000000000E+00  0.00000000000E+00  0.55324434156E+02  0.21043357160E+04  0.21036083315E+04 0.  0.
        4    1    3    3  502    0  0.21882397473E+03 -0.85021018577E+03  0.60712851496E+03  0.10674024257E+04  0.12699999809E+01 0. -1.
       -4    1    3    3    0  502 -0.21882397473E+03  0.85021018577E+03 -0.55180408080E+03  0.10369332902E+04  0.12699999809E+01 0.  1.
</event>
<event>
 5   0  0.1371753E-05  0.2301228E+04  0.7818609E-02  0.8477437E-01
        1   -1    0    0  501    0  0.00000000000E+00  0.00000000000E+00  0.22108983934E+04  0.22108983934E+04  0.50400001928E-02 0.  1.
       -1   -1    0    0    0  501  0.00000000000E+00  0.00000000000E+00 -0.59881194782E+03  0.59881194784E+03  0.50400001928E-02 0. -1.
    10030    2    1    2    0    0  0.00000000000E+00  0.00000000000E+00  0.16120864456E+04  0.28097103413E+04  0.23012278231E+04 0.  0.
        3    1    3    3  502    0  0.10129831042E+04  0.26451690092E+03  0.22328715606E+03  0.10704957377E+04  0.10100000352E+00 0. -1.
       -3    1    3    3    0  502 -0.10129831042E+04 -0.26451690092E+03  0.13887992895E+04  0.17392146035E+04  0.10100000352E+00 0.  1.
</event>
<event>
 5   0  0.2816178E-05  0.2294352E+04  0.7818609E-02  0.8480151E-01
        2   -1    0    0  501    0  0.00000000000E+00  0.00000000000E+00  0.15588646282E+04  0.15588646282E+04  0.25500000920E-02 0.  1.
       -2   -1    0    0    0  501  0.00000000000E+00  0.00000000000E+00 -0.84421238257E+03  0.84421238258E+03  0.25500000920E-02 0. -1.
    10030    2    1    2    0    0  0.00000000000E+00  0.00000000000E+00  0.71465224565E+03  0.24030770108E+04  0.22943520409E+04 0.  0.
        1    1    3    3  502    0 -0.42851791433E+03 -0.62271466450E+03 -0.54647432196E+03  0.93275684981E+03  0.50400001928E-02 0. -1.
       -1    1    3    3    0  502  0.42851791433E+03  0.62271466450E+03  0.12611265676E+04  0.14703201610E+04  0.50400001928E-02 0.  1.
</event>
<event>
 5   0  0.2910126E-05  0.2300578E+04  0.7818609E-02  0.8477693E-01
        2   -1    0    0  501    0  0.00000000000E+00  0.00000000000E+00  0.10831977067E+04  0.10831977067E+04  0.25500000920E-02 0.  1.
       -2   -1    0    0    0  501  0.00000000000E+00  0.00000000000E+00 -0.12215359360E+04  0.12215359360E+04  0.25500000920E-02 0. -1.
    10030    2    1    2    0    0  0.00000000000E+00  0.00000000000E+00 -0.13833822936E+03  0.23047336427E+04  0.23005781226E+04 0.  0.
        5    1    3    3  502    0  0.74975045237E+02 -0.18366951308E+03 -0.12042590094E+04  0.12204989141E+04  0.46999998093E+01 0. -1.
       -5    1    3    3    0  502 -0.74975045237E+02  0.18366951308E+03  0.10659207801E+04  0.10842347287E+04  0.46999998093E+01 0.  1.
</event>
<event>
 5   0  0.2938972E-05  0.2302100E+04  0.7818609E-02  0.8477094E-01
       -2   -1    0    0    0  501  0.00000000000E+00  0.00000000000E+00  0.90494868023E+03  0.90494868024E+03  0.25500000920E-02 0. -1.
        2   -1    0    0  501    0  0.00000000000E+00  0.00000000000E+00 -0.14640785462E+04  0.14640785462E+04  0.25500000920E-02 0.  1.
    10030    2    1    2    0    0  0.00000000000E+00  0.00000000000E+00 -0.55912986600E+03  0.23690272265E+04  0.23020998659E+04 0.  0.
        2    1    3    3  502    0  0.58163650016E+03  0.84796802688E+03 -0.81187008539E+03  0.13101464912E+04  0.25500000920E-02 0.  1.
       -2    1    3    3    0  502 -0.58163650016E+03 -0.84796802688E+03  0.25274021940E+03  0.10588807352E+04  0.25500000920E-02 0. -1.
</event>
<event>
 5   0  0.2871888E-05  0.2289372E+04  0.7818609E-02  0.8482123E-01
       -2   -1    0    0    0  501  0.00000000000E+00  0.00000000000E+00  0.11091799731E+04  0.11091799731E+04  0.25500000920E-02 0.  1.
        2   -1    0    0  501    0  0.00000000000E+00  0.00000000000E+00 -0.11813286682E+04  0.11813286682E+04  0.25500000920E-02 0. -1.
    10030    2    1    2    0    0  0.00000000000E+00  0.00000000000E+00 -0.72148695128E+02  0.22905086412E+04  0.22893720539E+04 0.  0.
        3    1    3    3  502    0  0.10087461668E+04  0.23175606153E+03 -0.52522032087E+03  0.11606619218E+04  0.10100000352E+00 0. -1.
       -3    1    3    3    0  502 -0.10087461668E+04 -0.23175606153E+03  0.45307162574E+03  0.11298467194E+04  0.10100000352E+00 0.  1.
</event>
<event>
 5   0  0.2938972E-05  0.2309929E+04  0.7818609E-02  0.8474016E-01
       -2   -1    0    0    0  501  0.00000000000E+00  0.00000000000E+00  0.68829486844E+03  0.68829486845E+03  0.25500000920E-02 0.  1.
        2   -1    0    0  501    0  0.00000000000E+00  0.00000000000E+00 -0.19380405182E+04  0.19380405182E+04  0.25500000920E-02 0. -1.
    10030    2    1    2    0    0  0.00000000000E+00  0.00000000000E+00 -0.12497456497E+04  0.26263353866E+04  0.23099293006E+04 0.  0.
        2    1    3    3  502    0  0.10120718506E+04 -0.46260190493E+03 -0.27323006392E+03  0.11458379558E+04  0.25500000920E-02 0.  1.
       -2    1    3    3    0  502 -0.10120718506E+04  0.46260190493E+03 -0.97651558580E+03  0.14804974308E+04  0.25500000920E-02 0. -1.
</event>
<event>
 5   0  0.2871888E-05  0.2309619E+04  0.7818609E-02  0.8474138E-01
        2   -1    0    0  501    0  0.00000000000E+00  0.00000000000E+00  0.12735059780E+04  0.12735059780E+04  0.25500000920E-02 0.  1.
       -2   -1    0    0    0  501  0.00000000000E+00  0.00000000000E+00 -0.10471758449E+04  0.10471758449E+04  0.25500000920E-02 0. -1.
    10030    2    1    2    0    0  0.00000000000E+00  0.00000000000E+00  0.22633013310E+03  0.23206818229E+04  0.23096187551E+04 0.  0.
        3    1    3    3  502    0 -0.95605455498E+03 -0.27006399191E+03  0.70472088755E+03  0.12180338301E+04  0.10100000352E+00 0.  1.
       -3    1    3    3    0  502  0.95605455498E+03  0.27006399191E+03 -0.47839075445E+03  0.11026479928E+04  0.10100000352E+00 0. -1.
</event>
<event>
 5   0  0.2871888E-05  0.2289695E+04  0.7818609E-02  0.8481995E-01
        2   -1    0    0  501    0  0.00000000000E+00  0.00000000000E+00  0.17636902013E+04  0.17636902013E+04  0.25500000920E-02 0. -1.
       -2   -1    0    0    0  501  0.00000000000E+00  0.00000000000E+00 -0.74314407452E+03  0.74314407452E+03  0.25500000920E-02 0.  1.
    10030    2    1    2    0    0  0.00000000000E+00  0.00000000000E+00  0.10205461268E+04  0.25068342758E+04  0.22896951084E+04 0.  0.
        3    1    3    3  502    0  0.18501036935E+03  0.10209316364E+04  0.10400475418E+04  0.14690912641E+04  0.10100000352E+00 0. -1.
       -3    1    3    3    0  502 -0.18501036935E+03 -0.10209316364E+04 -0.19501415029E+02  0.10377430117E+04  0.10100000352E+00 0.  1.
</event>
<event>
 5   0  0.2994157E-05  0.2301683E+04  0.7818609E-02  0.8477258E-01
        2   -1    0    0  501    0  0.00000000000E+00  0.00000000000E+00  0.76723198062E+03  0.76723198063E+03  0.25500000920E-02 0.  1.
       -2   -1    0    0    0  501  0.00000000000E+00  0.00000000000E+00 -0.17262521986E+04  0.17262521986E+04  0.25500000920E-02 0. -1.
    10030    2    1    2    0    0  0.00000000000E+00  0.00000000000E+00 -0.95902021802E+03  0.24934841793E+04  0.23016827700E+04 0.  0.
        4    1    3    3  502    0  0.95111206720E+03  0.57686198845E+03 -0.15988091313E+03  0.11238093421E+04  0.12699999809E+01 0.  1.
       -4    1    3    3    0  502 -0.95111206720E+03 -0.57686198845E+03 -0.79913930489E+03  0.13696748372E+04  0.12699999809E+01 0. -1.
</event>
<event>
 5   0  0.1308224E-05  0.2285119E+04  0.7818609E-02  0.8483811E-01
        1   -1    0    0  501    0  0.00000000000E+00  0.00000000000E+00  0.20517109102E+04  0.20517109102E+04  0.50400001928E-02 0.  1.
       -1   -1    0    0    0  501  0.00000000000E+00  0.00000000000E+00 -0.63627029697E+03  0.63627029699E+03  0.50400001928E-02 0. -1.
    10030    2    1    2    0    0  0.00000000000E+00  0.00000000000E+00  0.14154406132E+04  0.26879812072E+04  0.22851194368E+04 0.  0.
        5    1    3    3  502    0 -0.10120720921E+04 -0.21757272021E+03  0.12764853556E+04  0.16434916371E+04  0.46999998093E+01 0.  1.
       -5    1    3    3    0  502  0.10120720921E+04  0.21757272021E+03  0.13895525758E+03  0.10444895700E+04  0.46999998093E+01 0. -1.
</event>
<event>
 5   0  0.1303224E-05  0.2287537E+04  0.7818609E-02  0.8482851E-01
       -1   -1    0    0    0  501  0.00000000000E+00  0.00000000000E+00  0.57710504480E+03  0.57710504482E+03  0.50400001928E-02 0.  1.
        1   -1    0    0  501    0  0.00000000000E+00  0.00000000000E+00 -0.22668429366E+04  0.22668429366E+04  0.50400001928E-02 0. -1.
    10030    2    1    2    0    0  0.00000000000E+00  0.00000000000E+00 -0.16897378918E+04  0.28439479815E+04  0.22875370987E+04 0.  0.
        2    1    3    3  502    0 -0.56701424384E+03  0.53491166052E+03 -0.18854586776E+04  0.20402426479E+04  0.25500000920E-02 0. -1.
       -2    1    3    3    0  502  0.56701424384E+03 -0.53491166052E+03  0.19572078574E+03  0.80370533360E+03  0.25500000920E-02 0.  1.
</event>
<event>
 5   0  0.1303224E-05  0.2275499E+04  0.7818609E-02  0.8487645E-01
       -1   -1    0    0    0  501  0.00000000000E+00  0.00000000000E+00  0.10811450556E+04  0.10811450556E+04  0.50400001928E-02 0.  1.
        1   -1    0    0  501    0  0.00000000000E+00  0.00000000000E+00 -0.11973170995E+04  0.11973170995E+04  0.50400001928E-02 0. -1.
    10030    2    1    2    0    0  0.00000000000E+00  0.00000000000E+00 -0.11617204388E+03  0.22784621551E+04  0.22754985934E+04 0.  0.
        2    1    3    3  502    0 -0.10941655509E+04 -0.24364600729E+03 -0.25304921808E+03  0.11491716741E+04  0.25500000920E-02 0. -1.
       -2    1    3    3    0  502  0.10941655509E+04  0.24364600729E+03  0.13687717420E+03  0.11292904810E+04  0.25500000920E-02 0.  1.
</event>
<event>
 5   0  0.1371753E-05  0.2298185E+04  0.7818609E-02  0.8478637E-01
        1   -1    0    0  501    0  0.00000000000E+00  0.00000000000E+00  0.16268398681E+04  0.16268398681E+04  0.50400001928E-02 0. -1.
       -1   -1    0    0    0  501  0.00000000000E+00  0.00000000000E+00 -0.81164317440E+03  0.81164317441E+03  0.50400001928E-02 0.  1.
    10030    2    1    2    0    0  0.00000000000E+00  0.00000000000E+00  0.81519669370E+03  0.24384830425E+04  0.22981849141E+04 0.  0.
        3    1    3    3  502    0 -0.45780785841E+03  0.80467236041E+03 -0.31463736690E+03  0.97779462347E+03  0.10100000352E+00 0.  1.
       -3    1    3    3    0  502  0.45780785841E+03 -0.80467236041E+03  0.11298340606E+04  0.14606884190E+04  0.10100000352E+00 0. -1.
</event>
<event>
 5   0  0.2816178E-05  0.2309786E+04  0.7818609E-02  0.8474072E-01
       -2   -1    0    0    0  501  0.00000000000E+00  0.00000000000E+00  0.75446509458E+03  0.75446509459E+03  0.25500000920E-02 0.  1.
        2   -1    0    0  501    0  0.00000000000E+00  0.00000000000E+00 -0.17678462427E+04  0.17678462427E+04  0.25500000920E-02 0. -1.
    10030    2    1    2    0    0  0.00000000000E+00  0.00000000000E+00 -0.10133811481E+04  0.25223113373E+04  0.23097863821E+04 0.  0.
        1    1    3    3  502    0 -0.28898939612E+03 -0.37316755793E+03  0.64433703061E+03  0.79871090289E+03  0.50400001928E-02 0.  1.
       -1    1    3    3    0  502  0.28898939612E+03  0.37316755793E+03 -0.16577181787E+04  0.17236004344E+04  0.50400001928E-02 0. -1.
</event>
<event>
 5   0  0.1371753E-05  0.2290408E+04  0.7818609E-02  0.8481713E-01
        1   -1    0    0  501    0  0.00000000000E+00  0.00000000000E+00  0.19970328313E+04  0.19970328313E+04  0.50400001928E-02 0. -1.
       -1   -1    0    0    0  501  0.00000000000E+00  0.00000000000E+00 -0.65672023800E+03  0.65672023802E+03  0.50400001928E-02 0.  1.
    10030    2    1    2    0    0  0.00000000000E+00  0.00000000000E+00  0.13403125933E+04  0.26537530693E+04  0.22904077159E+04 0.  0.
        3    1    3    3  502    0  0.64044292839E+03  0.88338907186E+03  0.26720932185E+03  0.11233629105E+04  0.10100000352E+00 0. -1.
       -3    1    3    3    0  502 -0.64044292839E+03 -0.88338907186E+03  0.10731032714E+04  0.15303901588E+04  0.10100000352E+00 0.  1.
</event>
<event>
 5   0  0.2871888E-05  0.2296880E+04  0.7818609E-02  0.8479152E-01
        2   -1    0    0  501    0  0.00000000000E+00  0.00000000000E+00  0.13635306467E+04  0.13635306467E+04  0.25500000920E-02 0.  1.
       -2   -1    0    0    0  501  0.00000000000E+00  0.00000000000E+00 -0.96727870209E+03  0.96727870210E+03  0.25500000920E-02 0. -1.
    10030    2    1    2    0    0  0.00000000000E+00  0.00000000000E+00  0.39625194460E+03  0.23308093488E+04  0.22968797567E+04 0.  0.
        3    1    3    3  502    0  0.10400931637E+04  0.46550290728E+03  0.53090237948E+02  0.11407477063E+04  0.10100000352E+00 0. -1.
       -3    1    3    3    0  502 -0.10400931637E+04 -0.46550290728E+03  0.34316170666E+03  0.11900616425E+04  0.10100000352E+00 0.  1.
</event>
<event>
 5   0  0.1327820E-05  0.2307727E+04  0.7818609E-02  0.8474881E-01
        1   -1    0    0  501    0  0.00000000000E+00  0.00000000000E+00  0.12781411670E+04  0.12781411670E+04  0.50400001928E-02 0. -1.
       -1   -1    0    0    0  501  0.00000000000E+00  0.00000000000E+00 -0.10416697567E+04  0.10416697568E+04  0.50400001928E-02 0.  1.
    10030    2    1    2    0    0  0.00000000000E+00  0.00000000000E+00  0.23647141027E+03  0.23198109238E+04  0.23077270190E+04 0.  0.
        1    1    3    3  502    0  0.85007892862E+03 -0.45094355150E+03  0.75829319783E+03  0.12251501318E+04  0.50400001928E-02 0.  1.
       -1    1    3    3    0  502 -0.85007892862E+03  0.45094355150E+03 -0.52182178756E+03  0.10946607920E+04  0.50400001928E-02 0. -1.
</event>
<event>
 5   0  0.2994157E-05  0.2288272E+04  0.7818609E-02  0.8482560E-01
        2   -1    0    0  501    0  0.00000000000E+00  0.00000000000E+00  0.10676284194E+04  0.10676284194E+04  0.25500000920E-02 0.  1.
       -2   -1    0    0    0  501  0.00000000000E+00  0.00000000000E+00 -0.12261258672E+04  0.12261258672E+04  0.25500000920E-02 0. -1.
    10030    2    1    2    0    0  0.00000000000E+00  0.00000000000E+00 -0.15849744781E+03  0.22937542866E+04  0.22882716811E+04 0.  0.
        4    1    3    3  502    0 -0.26820205395E+03  0.95129342996E+03  0.49845988528E+03  0.11069577236E+04  0.12699999809E+01 0. -1.
       -4    1    3    3    0  502  0.26820205395E+03 -0.95129342996E+03 -0.65695733309E+03  0.11867965630E+04  0.12699999809E+01 0.  1.
</event>
<event>
 5   0  0.2994157E-05  0.2275098E+04  0.7818609E-02  0.8487805E-01
        2   -1    0    0  501    0  0.00000000000E+00  0.00000000000E+00  0.86768083971E+03  0.86768083971E+03  0.25500000920E-02 0.  1.
       -2   -1    0    0    0  501  0.00000000000E+00  0.00000000000E+00 -0.14913524489E+04  0.14913524490E+04  0.25500000920E-02 0. -1.
    10030    2    1    2    0    0  0.00000000000E+00  0.00000000000E+00 -0.62367160924E+03  0.23590332887E+04  0.22750981915E+04 0.  0.
        4    1    3    3  502    0  0.51739985801E+03  0.90539082184E+03  0.15944451030E+03  0.10549214749E+04  0.12699999809E+01 0.  1.
       -4    1    3    3    0  502 -0.51739985801E+03 -0.90539082184E+03 -0.78311611954E+03  0.13041118138E+04  0.12699999809E+01 0. -1.
</event>
<event>
 5   0  0.1308224E-05  0.2313617E+04  0.7818609E-02  0.8472571E-01
       -1   -1    0    0    0  501  0.00000000000E+00  0.00000000000E+00  0.79758126192E+03  0.79758126193E+03  0.50400001928E-02 0.  1.
        1   -1    0    0  501    0  0.00000000000E+00  0.00000000000E+00 -0.16778307489E+04  0.16778307489E+04  0.50400001928E-02 0. -1.
    10030    2    1    2    0    0  0.00000000000E+00  0.00000000000E+00 -0.88024948696E+03  0.24754120108E+04  0.23136173979E+04 0.  0.
        5    1    3    3  502    0  0.68610169679E+03  0.68385459707E+03 -0.11166325304E+04  0.14782702548E+04  0.46999998093E+01 0. -1.
       -5    1    3    3    0  502 -0.68610169679E+03 -0.68385459707E+03  0.23638304349E+03  0.99714175598E+03  0.46999998093E+01 0.  1.
</event>
<event>
 5   0  0.1371753E-05  0.2304666E+04  0.7818609E-02  0.8476084E-01
       -1   -1    0    0    0  501  0.00000000000E+00  0.00000000000E+00  0.11571834627E+04  0.11571834627E+04  0.50400001928E-02 0. -1.
        1   -1    0    0  501    0  0.00000000000E+00  0.00000000000E+00 -0.11475029783E+04  0.11475029783E+04  0.50400001928E-02 0.  1.
    10030    2    1    2    0    0  0.00000000000E+00  0.00000000000E+00  0.96804843457E+01  0.23046864410E+04  0.23046661103E+04 0.  0.
        3    1    3    3  502    0 -0.10452737199E+04  0.45461557172E+03  0.17395409925E+03  0.11530535575E+04  0.10100000352E+00 0.  1.
       -3    1    3    3    0  502  0.10452737199E+04 -0.45461557172E+03 -0.16427361491E+03  0.11516328835E+04  0.10100000352E+00 0. -1.
</event>
<event>
 5   0  0.1303224E-05  0.2369653E+04  0.7818609E-02  0.8450953E-01
       -1   -1    0    0    0  501  0.00000000000E+00  0.00000000000E+00  0.89225692543E+03  0.89225692545E+03  0.50400001928E-02 0.  1.
        1   -1    0    0  501    0  0.00000000000E+00  0.00000000000E+00 -0.15733295360E+04  0.15733295360E+04  0.50400001928E-02 0. -1.
    10030    2    1    2    0    0  0.00000000000E+00  0.00000000000E+00 -0.68107261053E+03  0.24655864614E+04  0.23696532864E+04 0.  0.
        2    1    3    3  502    0 -0.30721143412E+02  0.37044081556E+03 -0.15110896483E+04  0.15561369194E+04  0.25500000920E-02 0. -1.
       -2    1    3    3    0  502  0.30721143412E+02 -0.37044081556E+03  0.83001703781E+03  0.90944954205E+03  0.25500000920E-02 0.  1.
</event>
<event>
 5   0  0.2994157E-05  0.2308079E+04  0.7818609E-02  0.8474743E-01
       -2   -1    0    0    0  501  0.00000000000E+00  0.00000000000E+00  0.52712182172E+03  0.52712182173E+03  0.25500000920E-02 0. -1.
        2   -1    0    0  501    0  0.00000000000E+00  0.00000000000E+00 -0.25265638887E+04  0.25265638887E+04  0.25500000920E-02 0.  1.
    10030    2    1    2    0    0  0.00000000000E+00  0.00000000000E+00 -0.19994420670E+04  0.30536857105E+04  0.23080788199E+04 0.  0.
        4    1    3    3  502    0  0.68159698058E+03 -0.53813980853E+03  0.58227744984E+01  0.86844943149E+03  0.12699999809E+01 0. -1.
       -4    1    3    3    0  502 -0.68159698058E+03  0.53813980853E+03 -0.20052648415E+04  0.21852362790E+04  0.12699999809E+01 0.  1.
</event>
<event>
 5   0  0.1371753E-05  0.2313810E+04  0.7818609E-02  0.8472496E-01
        1   -1    0    0  501    0  0.00000000000E+00  0.00000000000E+00  0.97598978454E+03  0.97598978456E+03  0.50400001928E-02 0.  1.
       -1   -1    0    0    0  501  0.00000000000E+00  0.00000000000E+00 -0.13713562496E+04  0.13713562496E+04  0.50400001928E-02 0. -1.
    10030    2    1    2    0    0  0.00000000000E+00  0.00000000000E+00 -0.39536646508E+03  0.23473460342E+04  0.23138104422E+04 0.  0.
        3    1    3    3  502    0  0.36830980228E+03 -0.78748240224E+03  0.57669449842E+03  0.10432435952E+04  0.10100000352E+00 0.  1.
       -3    1    3    3    0  502 -0.36830980228E+03  0.78748240224E+03 -0.97206096350E+03  0.13041024389E+04  0.10100000352E+00 0. -1.
</event>
<event>
 5   0  0.2938972E-05  0.2312354E+04  0.7818609E-02  0.8473066E-01
       -2   -1    0    0    0  501  0.00000000000E+00  0.00000000000E+00  0.74777150227E+03  0.74777150227E+03  0.25500000920E-02 0.  1.
        2   -1    0    0  501    0  0.00000000000E+00  0.00000000000E+00 -0.17876384385E+04  0.17876384385E+04  0.25500000920E-02 0. -1.
    10030    2    1    2    0    0  0.00000000000E+00  0.00000000000E+00 -0.10398669362E+04  0.25354099408E+04  0.23123538489E+04 0.  0.
        2    1    3    3  502    0 -0.33610596070E+03 -0.43305181259E+03  0.59622255842E+03  0.80992742167E+03  0.25500000920E-02 0.  1.
       -2    1    3    3    0  502  0.33610596070E+03  0.43305181259E+03 -0.16360894946E+04  0.17254825191E+04  0.25500000920E-02 0. -1.
</event>
<event>
 5   0  0.2994157E-05  0.2305658E+04  0.7818609E-02  0.8475694E-01
        2   -1    0    0  501    0  0.00000000000E+00  0.00000000000E+00  0.18997283561E+04  0.18997283561E+04  0.25500000920E-02 0.  1.
       -2   -1    0    0    0  501  0.00000000000E+00  0.00000000000E+00 -0.69958146928E+03  0.69958146929E+03  0.25500000920E-02 0. -1.
    10030    2    1    2    0    0  0.00000000000E+00  0.00000000000E+00  0.12001468868E+04  0.25993098254E+04  0.23056580446E+04 0.  0.
        4    1    3    3  502    0  0.76641894769E+03 -0.80841814067E+03  0.26550106067E+03  0.11451769818E+04  0.12699999809E+01 0. -1.
       -4    1    3    3    0  502 -0.76641894769E+03  0.80841814067E+03  0.93464582615E+03  0.14541328436E+04  0.12699999809E+01 0.  1.
</event>
<event>
 5   0  0.1308224E-05  0.2294677E+04  0.7818609E-02  0.8480023E-01
        1   -1    0    0  501    0  0.00000000000E+00  0.00000000000E+00  0.18521763538E+04  0.18521763538E+04  0.50400001928E-02 0.  1.
       -1   -1    0    0    0  501  0.00000000000E+00  0.00000000000E+00 -0.71072393671E+03  0.71072393673E+03  0.50400001928E-02 0. -1.
    10030    2    1    2    0    0  0.00000000000E+00  0.00000000000E+00  0.11414524170E+04  0.25629002905E+04  0.22946773801E+04 0.  0.
        5    1    3    3  502    0 -0.12275447889E+03  0.93896756121E+03 -0.15278631022E+03  0.95921555955E+03  0.46999998093E+01 0. -1.
       -5    1    3    3    0  502  0.12275447889E+03 -0.93896756121E+03  0.12942387273E+04  0.16036847309E+04  0.46999998093E+01 0.  1.
</event>
<event>
 5   0  0.1303224E-05  0.2290364E+04  0.7818609E-02  0.8481730E-01
        1   -1    0    0  501    0  0.00000000000E+00  0.00000000000E+00  0.12632332658E+04  0.12632332658E+04  0.50400001928E-02 0.  1.
       -1   -1    0    0    0  501  0.00000000000E+00  0.00000000000E+00 -0.10381629369E+04  0.10381629369E+04  0.50400001928E-02 0. -1.
    10030    2    1    2    0    0  0.00000000000E+00  0.00000000000E+00  0.22507032893E+03  0.23013962028E+04  0.22903641259E+04 0.  0.
        2    1    3    3  502    0 -0.71915805958E+03  0.73572028906E+03  0.61791832615E+03  0.12001232088E+04  0.25500000920E-02 0.  1.
       -2    1    3    3    0  502  0.71915805958E+03 -0.73572028906E+03 -0.39284799722E+03  0.11012729940E+04  0.25500000920E-02 0. -1.
</event>
<event>
 5   0  0.2938972E-05  0.2297640E+04  0.7818609E-02  0.8478852E-01
        2   -1    0    0  501    0  0.00000000000E+00  0.00000000000E+00  0.24388137923E+04  0.24388137923E+04  0.25500000920E-02 0.  1.
       -2   -1    0    0    0  501  0.00000000000E+00  0.00000000000E+00 -0.54115957175E+03  0.54115957176E+03  0.25500000920E-02 0. -1.
    10030    2    1    2    0    0  0.00000000000E+00  0.00000000000E+00  0.18976542206E+04  0.29799733641E+04  0.22976400305E+04 0.  0.
        2    1    3    3  502    0 -0.94135925321E+02  0.28200123398E+03  0.23880570078E+04  0.24064917496E+04  0.25500000920E-02 0.  1.
       -2    1    3    3    0  502  0.94135925321E+02 -0.28200123398E+03 -0.49040278724E+03  0.57348161447E+03  0.25500000920E-02 0. -1.
</event>
<event>
 5   0  0.2871888E-05  0.2281173E+04  0.7818609E-02  0.8485382E-01
        2   -1    0    0  501    0  0.00000000000E+00  0.00000000000E+00  0.23753182237E+04  0.23753182237E+04  0.25500000920E-02 0.  1.
       -2   -1    0    0    0  501  0.00000000000E+00  0.00000000000E+00 -0.54768979885E+03  0.54768979886E+03  0.25500000920E-02 0. -1.
    10030    2    1    2    0    0  0.00000000000E+00  0.00000000000E+00  0.18276284249E+04  0.29230080226E+04  0.22811729967E+04 0.  0.
        3    1    3    3  502    0 -0.99911919331E+03 -0.51541773577E+03  0.66719634394E+03  0.13073046991E+04  0.10100000352E+00 0. -1.
       -3    1    3    3    0  502  0.99911919331E+03  0.51541773577E+03  0.11604320809E+04  0.16157033235E+04  0.10100000352E+00 0.  1.
</event>
<event>
 5   0  0.2910126E-05  0.2278087E+04  0.7818609E-02  0.8486611E-01
        2   -1    0    0  501    0  0.00000000000E+00  0.00000000000E+00  0.22459529097E+04  0.22459529097E+04  0.25500000920E-02 0.  1.
       -2   -1    0    0    0  501  0.00000000000E+00  0.00000000000E+00 -0.57767033096E+03  0.57767033097E+03  0.25500000920E-02 0. -1.
    10030    2    1    2    0    0  0.00000000000E+00  0.00000000000E+00  0.16682825787E+04  0.28236232407E+04  0.22780872333E+04 0.  0.
        5    1    3    3  502    0 -0.54324921743E+03 -0.84173085811E+03  0.16234371007E+03  0.10148931569E+04  0.46999998093E+01 0. -1.
       -5    1    3    3    0  502  0.54324921743E+03  0.84173085811E+03  0.15059388687E+04  0.18087300838E+04  0.46999998093E+01 0.  1.
</event>
<event>
 5   0  0.1303224E-05  0.2316238E+04  0.7818609E-02  0.8471546E-01
        1   -1    0    0  501    0  0.00000000000E+00  0.00000000000E+00  0.19421335219E+04  0.19421335219E+04  0.50400001928E-02 0.  1.
       -1   -1    0    0    0  501  0.00000000000E+00  0.00000000000E+00 -0.69060140169E+03  0.69060140171E+03  0.50400001928E-02 0. -1.
    10030    2    1    2    0    0  0.00000000000E+00  0.00000000000E+00  0.12515321202E+04  0.26327349236E+04  0.23162384442E+04 0.  0.
        2    1    3    3  502    0 -0.10821093981E+04  0.30646630427E+03  0.31167864406E+03  0.11670586627E+04  0.25500000920E-02 0.  1.
       -2    1    3    3    0  502  0.10821093981E+04 -0.30646630427E+03  0.93985347617E+03  0.14656762609E+04  0.25500000920E-02 0. -1.
</event>
<event>
 5   0  0.2938972E-05  0.2298558E+04  0.7818609E-02  0.8478490E-01
       -2   -1    0    0    0  501  0.00000000000E+00  0.00000000000E+00  0.14339495446E+04  0.14339495446E+04  0.25500000920E-02 0.  1.
        2   -1    0    0  501    0  0.00000000000E+00  0.00000000000E+00 -0.92112182668E+03  0.92112182668E+03  0.25500000920E-02 0. -1.
    10030    2    1    2    0    0  0.00000000000E+00  0.00000000000E+00  0.51282771795E+03  0.23550713713E+04  0.22985580035E+04 0.  0.
        2    1    3    3  502    0  0.59341826891E+03  0.90525024082E+02  0.12605619987E+04  0.13961936020E+04  0.25500000920E-02 0.  1.
       -2    1    3    3    0  502 -0.59341826891E+03 -0.90525024082E+02 -0.74773428071E+03  0.95887776928E+03  0.25500000920E-02 0. -1.
</event>
<event>
 5   0  0.1303224E-05  0.2319859E+04  0.7818609E-02  0.8470132E-01
        1   -1    0    0  501    0  0.00000000000E+00  0.00000000000E+00  0.11274365420E+04  0.11274365421E+04  0.50400001928E-02 0.  1.
       -1   -1    0    0    0  501  0.00000000000E+00  0.00000000000E+00 -0.11933590162E+04  0.11933590162E+04  0.50400001928E-02 0. -1.
    10030    2    1    2    0    0  0.00000000000E+00  0.00000000000E+00 -0.65922474174E+02  0.23207955583E+04  0.23198591015E+04 0.  0.
        2    1    3    3  502    0  0.10633797929E+04 -0.32495577320E+03  0.29742004772E+03  0.11510132594E+04  0.25500000920E-02 0.  1.
       -2    1    3    3    0  502 -0.10633797929E+04  0.32495577320E+03 -0.36334252189E+03  0.11697822989E+04  0.25500000920E-02 0. -1.
</event>
<event>
 5   0  0.2910126E-05  0.2300793E+04  0.7818609E-02  0.8477609E-01
       -2   -1    0    0    0  501  0.00000000000E+00  0.00000000000E+00  0.73126738341E+03  0.73126738342E+03  0.25500000920E-02 0.  1.
        2   -1    0    0  501    0  0.00000000000E+00  0.00000000000E+00 -0.18097509669E+04  0.18097509669E+04  0.25500000920E-02 0. -1.
    10030    2    1    2    0    0  0.00000000000E+00  0.00000000000E+00 -0.10784835835E+04  0.25410183503E+04  0.23007927801E+04 0.  0.
        5    1    3    3  502    0 -0.40714310312E+03  0.77657435352E+02 -0.17244097816E+04  0.17735296357E+04  0.46999998093E+01 0. -1.
       -5    1    3    3    0  502  0.40714310312E+03 -0.77657435352E+02  0.64592619813E+03  0.76748871465E+03  0.46999998093E+01 0.  1.
</event>
<event>
 5   0  0.1327820E-05  0.2303990E+04  0.7818609E-02  0.8476350E-01
        1   -1    0    0  501    0  0.00000000000E+00  0.00000000000E+00  0.13731507467E+04  0.13731507467E+04  0.50400001928E-02 0. -1.
       -1   -1    0    0    0  501  0.00000000000E+00  0.00000000000E+00 -0.96645760132E+03  0.96645760134E+03  0.50400001928E-02 0.  1.
    10030    2    1    2    0    0  0.00000000000E+00  0.00000000000E+00  0.40669314535E+03  0.23396083480E+04  0.23039895633E+04 0.  0.
        1    1    3    3  502    0 -0.32358920257E+03 -0.55121017393E+03 -0.76987987327E+03  0.10006286260E+04  0.50400001928E-02 0.  1.
       -1    1    3    3    0  502  0.32358920257E+03  0.55121017393E+03  0.11765730186E+04  0.13389797220E+04  0.50400001928E-02 0. -1.
</event>
<event>
 5   0  0.1303224E-05  0.2364597E+04  0.7818609E-02  0.8452878E-01
        1   -1    0    0  501    0  0.00000000000E+00  0.00000000000E+00  0.12944099721E+04  0.12944099721E+04  0.50400001928E-02 0.  1.
       -1   -1    0    0    0  501  0.00000000000E+00  0.00000000000E+00 -0.10798973741E+04  0.10798973741E+04  0.50400001928E-02 0. -1.
    10030    2    1    2    0    0  0.00000000000E+00  0.00000000000E+00  0.21451259804E+03  0.23743073462E+04  0.23645971580E+04 0.  0.
        2    1    3    3  502    0  0.19542969914E+03 -0.11588197171E+04 -0.22790128272E+02  0.11754043109E+04  0.25500000920E-02 0. -1.
       -2    1    3    3    0  502 -0.19542969914E+03  0.11588197171E+04  0.23730272631E+03  0.11989030353E+04  0.25500000920E-02 0.  1.
</event>
<event>
 5   0  0.1327820E-05  0.2308105E+04  0.7818609E-02  0.8474732E-01
        1   -1    0    0  501    0  0.00000000000E+00  0.00000000000E+00  0.96512745794E+03  0.96512745795E+03  0.50400001928E-02 0.  1.
       -1   -1    0    0    0  501  0.00000000000E+00  0.00000000000E+00 -0.13799594992E+04  0.13799594992E+04  0.50400001928E-02 0. -1.
    10030    2    1    2    0    0  0.00000000000E+00  0.00000000000E+00 -0.41483204123E+03  0.23450869571E+04  0.23081046800E+04 0.  0.
        1    1    3    3  502    0  0.44775919907E+03 -0.28485280896E+03  0.83380033777E+03  0.98835845037E+03  0.50400001928E-02 0.  1.
       -1    1    3    3    0  502 -0.44775919907E+03  0.28485280896E+03 -0.12486323790E+04  0.13567285068E+04  0.50400001928E-02 0. -1.
</event>
<event>
 5   0  0.2910126E-05  0.2292732E+04  0.7818609E-02  0.8480792E-01
       -2   -1    0    0    0  501  0.00000000000E+00  0.00000000000E+00  0.88065054548E+03  0.88065054548E+03  0.25500000920E-02 0. -1.
        2   -1    0    0  501    0  0.00000000000E+00  0.00000000000E+00 -0.14922544531E+04  0.14922544531E+04  0.25500000920E-02 0.  1.
    10030    2    1    2    0    0  0.00000000000E+00  0.00000000000E+00 -0.61160390762E+03  0.23729049986E+04  0.22927317315E+04 0.  0.
        5    1    3    3  502    0 -0.58982522791E+03 -0.75965561565E+03 -0.95144489751E+03  0.13528636062E+04  0.46999998093E+01 0.  1.
       -5    1    3    3    0  502  0.58982522791E+03  0.75965561565E+03  0.33984098988E+03  0.10200413924E+04  0.46999998093E+01 0. -1.
</event>
<event>
 5   0  0.1308224E-05  0.2315124E+04  0.7818609E-02  0.8471982E-01
        1   -1    0    0  501    0  0.00000000000E+00  0.00000000000E+00  0.12607105875E+04  0.12607105875E+04  0.50400001928E-02 0.  1.
       -1   -1    0    0    0  501  0.00000000000E+00  0.00000000000E+00 -0.10628530075E+04  0.10628530075E+04  0.50400001928E-02 0. -1.
    10030    2    1    2    0    0  0.00000000000E+00  0.00000000000E+00  0.19785758000E+03  0.23235635950E+04  0.23151242209E+04 0.  0.
        5    1    3    3  502    0 -0.42081345390E+03  0.71740440915E+02 -0.98095687030E+03  0.10698266800E+04  0.46999998093E+01 0. -1.
       -5    1    3    3    0  502  0.42081345390E+03 -0.71740440915E+02  0.11788144503E+04  0.12537369150E+04  0.46999998093E+01 0.  1.
</event>
<event>
 5   0  0.1371753E-05  0.2292112E+04  0.7818609E-02  0.8481038E-01
       -1   -1    0    0    0  501  0.00000000000E+00  0.00000000000E+00  0.12584738226E+04  0.12584738226E+04  0.50400001928E-02 0.  1.
        1   -1    0    0  501    0  0.00000000000E+00  0.00000000000E+00 -0.10436799264E+04  0.10436799264E+04  0.50400001928E-02 0. -1.
    10030    2    1    2    0    0  0.00000000000E+00  0.00000000000E+00  0.21479389624E+03  0.23021537490E+04  0.22921115737E+04 0.  0.
        3    1    3    3  502    0  0.71901569546E+03 -0.75327263165E+02 -0.78576061695E+03  0.10677441286E+04  0.10100000352E+00 0. -1.
       -3    1    3    3    0  502 -0.71901569546E+03  0.75327263165E+02  0.10005545132E+04  0.12344096204E+04  0.10100000352E+00 0.  1.
</event>
<event>
 5   0  0.2816178E-05  0.2321026E+04  0.7818609E-02  0.8469677E-01
       -2   -1    0    0    0  501  0.00000000000E+00  0.00000000000E+00  0.96664881693E+03  0.96664881693E+03  0.25500000920E-02 0.  1.
        2   -1    0    0  501    0  0.00000000000E+00  0.00000000000E+00 -0.13932572242E+04  0.13932572242E+04  0.25500000920E-02 0. -1.
    10030    2    1    2    0    0  0.00000000000E+00  0.00000000000E+00 -0.42660840729E+03  0.23599060412E+04  0.23210260209E+04 0.  0.
        1    1    3    3  502    0 -0.11306333901E+03  0.54615823156E+03  0.82144602425E+03  0.99289762983E+03  0.50400001928E-02 0.  1.
       -1    1    3    3    0  502  0.11306333901E+03 -0.54615823156E+03 -0.12480544315E+04  0.13670084113E+04  0.50400001928E-02 0. -1.
</event>
<event>
 5   0  0.1371753E-05  0.2021431E+04  0.7818609E-02  0.8596666E-01
       -1   -1    0    0    0  501  0.00000000000E+00  0.00000000000E+00  0.13072901638E+04  0.13072901638E+04  0.50400001928E-02 0. -1.
        1   -1    0    0  501    0  0.00000000000E+00  0.00000000000E+00 -0.78142222281E+03  0.78142222282E+03  0.50400001928E-02 0.  1.
    10030    2    1    2    0    0  0.00000000000E+00  0.00000000000E+00  0.52586794102E+03  0.20887123867E+04  0.20214307663E+04 0.  0.
        3    1    3    3  502    0  0.12150792396E+03  0.52724976931E+03 -0.61917187360E+03  0.82227143577E+03  0.10100000352E+00 0.  1.
       -3    1    3    3    0  502 -0.12150792396E+03 -0.52724976931E+03  0.11450398146E+04  0.12664409509E+04  0.10100000352E+00 0. -1.
</event>
<event>
 5   0  0.2871888E-05  0.2302056E+04  0.7818609E-02  0.8477111E-01
       -2   -1    0    0    0  501  0.00000000000E+00  0.00000000000E+00  0.63843888626E+03  0.63843888626E+03  0.25500000920E-02 0. -1.
        2   -1    0    0  501    0  0.00000000000E+00  0.00000000000E+00 -0.20751634089E+04  0.20751634089E+04  0.25500000920E-02 0.  1.
    10030    2    1    2    0    0  0.00000000000E+00  0.00000000000E+00 -0.14367245227E+04  0.27136022952E+04  0.23020556167E+04 0.  0.
        3    1    3    3  502    0  0.62328084599E+03 -0.81557080979E+03 -0.13322648229E+04  0.16818336206E+04  0.10100000352E+00 0.  1.
       -3    1    3    3    0  502 -0.62328084599E+03  0.81557080979E+03 -0.10445969973E+03  0.10317686746E+04  0.10100000352E+00 0. -1.
</event>
<event>
 5   0  0.1327820E-05  0.2280024E+04  0.7818609E-02  0.8485839E-01
       -1   -1    0    0    0  501  0.00000000000E+00  0.00000000000E+00  0.14959924792E+04  0.14959924792E+04  0.50400001928E-02 0. -1.
        1   -1    0    0  501    0  0.00000000000E+00  0.00000000000E+00 -0.86873914123E+03  0.86873914125E+03  0.50400001928E-02 0.  1.
    10030    2    1    2    0    0  0.00000000000E+00  0.00000000000E+00  0.62725333800E+03  0.23647316205E+04  0.22800238786E+04 0.  0.
        1    1    3    3  502    0  0.81186816843E+02  0.66822393399E+02 -0.86369893134E+03  0.87007607456E+03  0.50400001928E-02 0.  1.
       -1    1    3    3    0  502 -0.81186816843E+02 -0.66822393399E+02  0.14909522693E+04  0.14946555459E+04  0.50400001928E-02 0. -1.
</event>
<event>
 5   0  0.1327820E-05  0.2264401E+04  0.7818609E-02  0.8492091E-01
       -1   -1    0    0    0  501  0.00000000000E+00  0.00000000000E+00  0.76796375758E+03  0.76796375760E+03  0.50400001928E-02 0. -1.
        1   -1    0    0  501    0  0.00000000000E+00  0.00000000000E+00 -0.16691909867E+04  0.16691909867E+04  0.50400001928E-02 0.  1.
    10030    2    1    2    0    0  0.00000000000E+00  0.00000000000E+00 -0.90122722909E+03  0.24371547443E+04  0.22644011855E+04 0.  0.
        1    1    3    3  502    0  0.80580550057E+03  0.49179072472E+03 -0.11233579990E+04  0.14673492480E+04  0.50400001928E-02 0.  1.
       -1    1    3    3    0  502 -0.80580550057E+03 -0.49179072472E+03  0.22213076990E+03  0.96980549629E+03  0.50400001928E-02 0. -1.
</event>
<event>
 5   0  0.2816178E-05  0.2297657E+04  0.7818609E-02  0.8478846E-01
       -2   -1    0    0    0  501  0.00000000000E+00  0.00000000000E+00  0.71244090676E+03  0.71244090676E+03  0.25500000920E-02 0.  1.
        2   -1    0    0  501    0  0.00000000000E+00  0.00000000000E+00 -0.18525137475E+04  0.18525137475E+04  0.25500000920E-02 0. -1.
    10030    2    1    2    0    0  0.00000000000E+00  0.00000000000E+00 -0.11400728407E+04  0.25649546543E+04  0.22976566968E+04 0.  0.
        1    1    3    3  502    0 -0.53574379603E+02 -0.98938494547E+03  0.79027482191E+02  0.99398094924E+03  0.50400001928E-02 0.  1.
       -1    1    3    3    0  502  0.53574379603E+02  0.98938494547E+03 -0.12191003229E+04  0.15709737050E+04  0.50400001928E-02 0. -1.
</event>
<event>
 5   0  0.1371753E-05  0.2308976E+04  0.7818609E-02  0.8474390E-01
        1   -1    0    0  501    0  0.00000000000E+00  0.00000000000E+00  0.79626633365E+03  0.79626633367E+03  0.50400001928E-02 0. -1.
       -1   -1    0    0    0  501  0.00000000000E+00  0.00000000000E+00 -0.16738649955E+04  0.16738649955E+04  0.50400001928E-02 0.  1.
    10030    2    1    2    0    0  0.00000000000E+00  0.00000000000E+00 -0.87759866180E+03  0.24701313291E+04  0.23089758275E+04 0.  0.
        3    1    3    3  502    0 -0.11349858901E+04  0.97724904647E+02 -0.23837552813E+03  0.11638582518E+04  0.10100000352E+00 0. -1.
       -3    1    3    3    0  502  0.11349858901E+04 -0.97724904647E+02 -0.63922313367E+03  0.13062730773E+04  0.10100000352E+00 0.  1.
</event>
<event>
 5   0  0.1327820E-05  0.2308747E+04  0.7818609E-02  0.8474480E-01
        1   -1    0    0  501    0  0.00000000000E+00  0.00000000000E+00  0.14592938154E+04  0.14592938154E+04  0.50400001928E-02 0.  1.
       -1   -1    0    0    0  501  0.00000000000E+00  0.00000000000E+00 -0.91316614234E+03  0.91316614235E+03  0.50400001928E-02 0. -1.
    10030    2    1    2    0    0  0.00000000000E+00  0.00000000000E+00  0.54612767310E+03  0.23724599578E+04  0.23087465898E+04 0.  0.
        1    1    3    3  502    0  0.61792189686E+03 -0.52024520722E+03  0.11205009218E+04  0.13813054920E+04  0.50400001928E-02 0.  1.
       -1    1    3    3    0  502 -0.61792189686E+03  0.52024520722E+03 -0.57437324874E+03  0.99115446584E+03  0.50400001928E-02 0. -1.
</event>
<event>
 5   0  0.2871888E-05  0.2244115E+04  0.7818609E-02  0.8500288E-01
        2   -1    0    0  501    0  0.00000000000E+00  0.00000000000E+00  0.10390072542E+04  0.10390072542E+04  0.25500000920E-02 0. -1.
       -2   -1    0    0    0  501  0.00000000000E+00  0.00000000000E+00 -0.12117460407E+04  0.12117460407E+04  0.25500000920E-02 0.  1.
    10030    2    1    2    0    0  0.00000000000E+00  0.00000000000E+00 -0.17273878646E+03  0.22507532949E+04  0.22441149048E+04 0.  0.
        3    1    3    3  502    0  0.59933208273E+03 -0.79082628607E+03 -0.61175841731E+03  0.11656987310E+04  0.10100000352E+00 0.  1.
       -3    1    3    3    0  502 -0.59933208273E+03  0.79082628607E+03  0.43901963085E+03  0.10850545639E+04  0.10100000352E+00 0. -1.
</event>
<event>
 5   0  0.2910126E-05  0.2305557E+04  0.7818609E-02  0.8475733E-01
        2   -1    0    0  501    0  0.00000000000E+00  0.00000000000E+00  0.19112406060E+04  0.19112406060E+04  0.25500000920E-02 0.  1.
       -2   -1    0    0    0  501  0.00000000000E+00  0.00000000000E+00 -0.69530662740E+03  0.69530662740E+03  0.25500000920E-02 0. -1.
    10030    2    1    2    0    0  0.00000000000E+00  0.00000000000E+00  0.12159339786E+04  0.26065472334E+04  0.23055569912E+04 0.  0.
        5    1    3    3  502    0  0.73372253018E+03 -0.35408949389E+03 -0.31407117609E+03  0.87314999549E+03  0.46999998093E+01 0. -1.
       -5    1    3    3    0  502 -0.73372253018E+03  0.35408949389E+03  0.15300051547E+04  0.17333972379E+04  0.46999998093E+01 0.  1.
</event>
<event>
 5   0  0.2938972E-05  0.2279109E+04  0.7818609E-02  0.8486204E-01
       -2   -1    0    0    0  501  0.00000000000E+00  0.00000000000E+00  0.83061413273E+03  0.83061413273E+03  0.25500000920E-02 0. -1.
        2   -1    0    0  501    0  0.00000000000E+00  0.00000000000E+00 -0.15634028129E+04  0.15634028129E+04  0.25500000920E-02 0.  1.
    10030    2    1    2    0    0  0.00000000000E+00  0.00000000000E+00 -0.73278868014E+03  0.23940169456E+04  0.22791090114E+04 0.  0.
        2    1    3    3  502    0 -0.50252772184E+03 -0.71722522208E+03  0.39950248453E+03  0.96257382343E+03  0.25500000920E-02 0. -1.
       -2    1    3    3    0  502  0.50252772184E+03  0.71722522208E+03 -0.11322911647E+04  0.14314431222E+04  0.25500000920E-02 0.  1.
</event>
<event>
 5   0  0.2938972E-05  0.2306988E+04  0.7818609E-02  0.8475171E-01
        2   -1    0    0  501    0  0.00000000000E+00  0.00000000000E+00  0.24922676999E+04  0.24922676999E+04  0.25500000920E-02 0.  1.
       -2   -1    0    0    0  501  0.00000000000E+00  0.00000000000E+00 -0.53387043486E+03  0.53387043486E+03  0.25500000920E-02 0. -1.
    10030    2    1    2    0    0  0.00000000000E+00  0.00000000000E+00  0.19583972650E+04  0.30261381348E+04  0.23069876816E+04 0.  0.
        2    1    3    3  502    0  0.84803193786E+03  0.67798010782E+03  0.46824290053E+03  0.11823986672E+04  0.25500000920E-02 0. -1.
       -2    1    3    3    0  502 -0.84803193786E+03 -0.67798010782E+03  0.14901543645E+04  0.18437394676E+04  0.25500000920E-02 0.  1.
</event>
<event>
 5   0  0.2871888E-05  0.2301251E+04  0.7818609E-02  0.8477428E-01
       -2   -1    0    0    0  501  0.00000000000E+00  0.00000000000E+00  0.12051426057E+04  0.12051426057E+04  0.25500000920E-02 0. -1.
        2   -1    0    0  501    0  0.00000000000E+00  0.00000000000E+00 -0.10985747656E+04  0.10985747656E+04  0.25500000920E-02 0.  1.
    10030    2    1    2    0    0  0.00000000000E+00  0.00000000000E+00  0.10656784017E+03  0.23037173713E+04  0.23012511863E+04 0.  0.
        3    1    3    3  502    0 -0.39331366070E+02  0.72885683959E+02 -0.10955870181E+04  0.10987129760E+04  0.10100000352E+00 0.  1.
       -3    1    3    3    0  502  0.39331366070E+02 -0.72885683959E+02  0.12021548582E+04  0.12050043953E+04  0.10100000352E+00 0. -1.
</event>
<event>
 5   0  0.1303224E-05  0.2293185E+04  0.7818609E-02  0.8480613E-01
       -1   -1    0    0    0  501  0.00000000000E+00  0.00000000000E+00  0.97001159197E+03  0.97001159199E+03  0.50400001928E-02 0. -1.
        1   -1    0    0  501    0  0.00000000000E+00  0.00000000000E+00 -0.13553186272E+04  0.13553186272E+04  0.50400001928E-02 0.  1.
    10030    2    1    2    0    0  0.00000000000E+00  0.00000000000E+00 -0.38530703522E+03  0.23253302192E+04  0.22931853647E+04 0.  0.
        2    1    3    3  502    0  0.26768492612E+03 -0.69320501959E+03  0.69279132731E+03  0.10159469681E+04  0.25500000920E-02 0. -1.
       -2    1    3    3    0  502 -0.26768492612E+03  0.69320501959E+03 -0.10780983625E+04  0.13093832511E+04  0.25500000920E-02 0.  1.
</event>
<event>
 5   0  0.2816178E-05  0.2304817E+04  0.7818609E-02  0.8476024E-01
       -2   -1    0    0    0  501  0.00000000000E+00  0.00000000000E+00  0.64634712304E+03  0.64634712305E+03  0.25500000920E-02 0. -1.
        2   -1    0    0  501    0  0.00000000000E+00  0.00000000000E+00 -0.20546942645E+04  0.20546942645E+04  0.25500000920E-02 0.  1.
    10030    2    1    2    0    0  0.00000000000E+00  0.00000000000E+00 -0.14083471415E+04  0.27010413876E+04  0.23048173261E+04 0.  0.
        1    1    3    3  502    0 -0.31122628407E+03 -0.22547397721E+03 -0.19773813604E+04  0.20143826247E+04  0.50400001928E-02 0.  1.
       -1    1    3    3    0  502  0.31122628407E+03  0.22547397721E+03  0.56903421891E+03  0.68665876286E+03  0.50400001928E-02 0. -1.
</event>
<event>
 5   0  0.1371753E-05  0.2356422E+04  0.7818609E-02  0.8456001E-01
        1   -1    0    0  501    0  0.00000000000E+00  0.00000000000E+00  0.76374591425E+03  0.76374591427E+03  0.50400001928E-02 0.  1.
       -1   -1    0    0    0  501  0.00000000000E+00  0.00000000000E+00 -0.18175959504E+04  0.18175959504E+04  0.50400001928E-02 0. -1.
    10030    2    1    2    0    0  0.00000000000E+00  0.00000000000E+00 -0.10538500362E+04  0.25813418647E+04  0.23564222719E+04 0.  0.
        3    1    3    3  502    0  0.39553088393E+03  0.28107472123E+03  0.64920928909E+03  0.81050625556E+03  0.10100000352E+00 0.  1.
       -3    1    3    3    0  502 -0.39553088393E+03 -0.28107472123E+03 -0.17030593253E+04  0.17708356091E+04  0.10100000352E+00 0. -1.
</event>
<event>
 5   0  0.1371753E-05  0.2304746E+04  0.7818609E-02  0.8476052E-01
        1   -1    0    0  501    0  0.00000000000E+00  0.00000000000E+00  0.44922691096E+03  0.44922691099E+03  0.50400001928E-02 0. -1.
       -1   -1    0    0    0  501  0.00000000000E+00  0.00000000000E+00 -0.29561093566E+04  0.29561093566E+04  0.50400001928E-02 0.  1.
    10030    2    1    2    0    0  0.00000000000E+00  0.00000000000E+00 -0.25068824456E+04  0.34053362676E+04  0.23047462982E+04 0.  0.
        3    1    3    3  502    0 -0.41357215112E+03  0.10752766905E+04 -0.12142941736E+04  0.16738495260E+04  0.10100000352E+00 0.  1.
       -3    1    3    3    0  502  0.41357215112E+03 -0.10752766905E+04 -0.12925882720E+04  0.17314867416E+04  0.10100000352E+00 0. -1.
</event>
<event>
 5   0  0.1284837E-05  0.2270771E+04  0.7818609E-02  0.8489536E-01
        1   -1    0    0  501    0  0.00000000000E+00  0.00000000000E+00  0.14621117436E+04  0.14621117437E+04  0.50400001928E-02 0.  1.
       -1   -1    0    0    0  501  0.00000000000E+00  0.00000000000E+00 -0.88167031421E+03  0.88167031423E+03  0.50400001928E-02 0. -1.
    10030    2    1    2    0    0  0.00000000000E+00  0.00000000000E+00  0.58044142943E+03  0.23437820579E+04  0.22707712526E+04 0.  0.
        4    1    3    3  502    0  0.49941288019E+03 -0.76963564809E+03 -0.40012388740E+03  0.10009260681E+04  0.12699999809E+01 0. -1.
       -4    1    3    3    0  502 -0.49941288019E+03  0.76963564809E+03  0.98056531683E+03  0.13428559897E+04  0.12699999809E+01 0.  1.
</event>
<event>
 5   0  0.2994157E-05  0.2293281E+04  0.7818609E-02  0.8480575E-01
        2   -1    0    0  501    0  0.00000000000E+00  0.00000000000E+00  0.17124897914E+04  0.17124897914E+04  0.25500000920E-02 0. -1.
       -2   -1    0    0    0  501  0.00000000000E+00  0.00000000000E+00 -0.76776199922E+03  0.76776199923E+03  0.25500000920E-02 0.  1.
    10030    2    1    2    0    0  0.00000000000E+00  0.00000000000E+00  0.94472779215E+03  0.24802517906E+04  0.22932811305E+04 0.  0.
        4    1    3    3  502    0  0.20733942040E+03 -0.82393389163E+03  0.13051602672E+04  0.15573379945E+04  0.12699999809E+01 0. -1.
       -4    1    3    3    0  502 -0.20733942040E+03  0.82393389163E+03 -0.36043247509E+03  0.92291379610E+03  0.12699999809E+01 0.  1.
</event>
<event>
 5   0  0.1371753E-05  0.2339675E+04  0.7818609E-02  0.8462440E-01
        1   -1    0    0  501    0  0.00000000000E+00  0.00000000000E+00  0.79069035327E+03  0.79069035328E+03  0.50400001928E-02 0. -1.
       -1   -1    0    0    0  501  0.00000000000E+00  0.00000000000E+00 -0.17307913356E+04  0.17307913356E+04  0.50400001928E-02 0.  1.
    10030    2    1    2    0    0  0.00000000000E+00  0.00000000000E+00 -0.94010098235E+03  0.25214816889E+04  0.23396752019E+04 0.  0.
        3    1    3    3  502    0  0.98372416968E+03 -0.50721709409E+03 -0.87835394760E+03  0.14129713691E+04  0.10100000352E+00 0. -1.
       -3    1    3    3    0  502 -0.98372416968E+03  0.50721709409E+03 -0.61747034749E+02  0.11085103198E+04  0.10100000352E+00 0.  1.
</event>
<event>
 5   0  0.2910126E-05  0.2319997E+04  0.7818609E-02  0.8470078E-01
       -2   -1    0    0    0  501  0.00000000000E+00  0.00000000000E+00  0.96669507689E+03  0.96669507690E+03  0.25500000920E-02 0. -1.
        2   -1    0    0  501    0  0.00000000000E+00  0.00000000000E+00 -0.13919551975E+04  0.13919551975E+04  0.25500000920E-02 0.  1.
    10030    2    1    2    0    0  0.00000000000E+00  0.00000000000E+00 -0.42526012059E+03  0.23586502744E+04  0.23199967557E+04 0.  0.
        5    1    3    3  502    0  0.15267921191E+03 -0.93605735975E+02 -0.13778057257E+04  0.13894040749E+04  0.46999998093E+01 0.  1.
       -5    1    3    3    0  502 -0.15267921191E+03  0.93605735975E+02  0.95254560507E+03  0.96924619953E+03  0.46999998093E+01 0. -1.
</event>
<event>
 5   0  0.1371753E-05  0.2292701E+04  0.7818609E-02  0.8480805E-01
       -1   -1    0    0    0  501  0.00000000000E+00  0.00000000000E+00  0.64879906892E+03  0.64879906894E+03  0.50400001928E-02 0.  1.
        1   -1    0    0  501    0  0.00000000000E+00  0.00000000000E+00 -0.20254646675E+04  0.20254646675E+04  0.50400001928E-02 0. -1.
    10030    2    1    2    0    0  0.00000000000E+00  0.00000000000E+00 -0.13766655986E+04  0.26742637364E+04  0.22927011061E+04 0.  0.
        3    1    3    3  502    0 -0.31241980308E+02 -0.11368438574E+04 -0.85627191658E+03  0.14235840765E+04  0.10100000352E+00 0. -1.
       -3    1    3    3    0  502  0.31241980308E+02  0.11368438574E+04 -0.52039368199E+03  0.12506796600E+04  0.10100000352E+00 0.  1.
</event>
<event>
 5   0  0.2816178E-05  0.2320819E+04  0.7818609E-02  0.8469758E-01
       -2   -1    0    0    0  501  0.00000000000E+00  0.00000000000E+00  0.86485691109E+03  0.86485691109E+03  0.25500000920E-02 0. -1.
        2   -1    0    0  501    0  0.00000000000E+00  0.00000000000E+00 -0.15569623806E+04  0.15569623806E+04  0.25500000920E-02 0.  1.
    10030    2    1    2    0    0  0.00000000000E+00  0.00000000000E+00 -0.69210546956E+03  0.24218192917E+04  0.23208185411E+04 0.  0.
        1    1    3    3  502    0 -0.13560695761E+03 -0.72167491261E+03 -0.12836802216E+04  0.14788640363E+04  0.50400001928E-02 0.  1.
       -1    1    3    3    0  502  0.13560695761E+03  0.72167491261E+03  0.59157475207E+03  0.94295525543E+03  0.50400001928E-02 0. -1.
</event>
<event>
 5   0  0.1371753E-05  0.2297133E+04  0.7818609E-02  0.8479052E-01
        1   -1    0    0  501    0  0.00000000000E+00  0.00000000000E+00  0.13010174299E+04  0.13010174299E+04  0.50400001928E-02 0. -1.
       -1   -1    0    0    0  501  0.00000000000E+00  0.00000000000E+00 -0.10139792624E+04  0.10139792624E+04  0.50400001928E-02 0.  1.
    10030    2    1    2    0    0  0.00000000000E+00  0.00000000000E+00  0.28703816748E+03  0.23149966924E+04  0.22971327293E+04 0.  0.
        3    1    3    3  502    0 -0.51796049202E+03  0.99994570485E+03  0.37117446469E+03  0.11857255068E+04  0.10100000352E+00 0. -1.
       -3    1    3    3    0  502  0.51796049202E+03 -0.99994570485E+03 -0.84136297209E+02  0.11292711856E+04  0.10100000352E+00 0.  1.
</event>
<event>
 5   0  0.2910126E-05  0.2298232E+04  0.7818609E-02  0.8478618E-01
        2   -1    0    0  501    0  0.00000000000E+00  0.00000000000E+00  0.15226378640E+04  0.15226378640E+04  0.25500000920E-02 0.  1.
       -2   -1    0    0    0  501  0.00000000000E+00  0.00000000000E+00 -0.86722386134E+03  0.86722386134E+03  0.25500000920E-02 0. -1.
    10030    2    1    2    0    0  0.00000000000E+00  0.00000000000E+00  0.65541400268E+03  0.23898617254E+04  0.22982322667E+04 0.  0.
        5    1    3    3  502    0  0.57565309506E+03  0.89073818424E+03  0.78767128368E+03  0.13210749940E+04  0.46999998093E+01 0.  1.
       -5    1    3    3    0  502 -0.57565309506E+03 -0.89073818424E+03 -0.13225728099E+03  0.10687867313E+04  0.46999998093E+01 0. -1.
</event>
<event>
 5   0  0.2871888E-05  0.2350007E+04  0.7818609E-02  0.8458461E-01
       -2   -1    0    0    0  501  0.00000000000E+00  0.00000000000E+00  0.79773869140E+03  0.79773869140E+03  0.25500000920E-02 0. -1.
        2   -1    0    0  501    0  0.00000000000E+00  0.00000000000E+00 -0.17306834294E+04  0.17306834294E+04  0.25500000920E-02 0.  1.
    10030    2    1    2    0    0  0.00000000000E+00  0.00000000000E+00 -0.93294473804E+03  0.25284221208E+04  0.23500069227E+04 0.  0.
        3    1    3    3  502    0  0.22445790475E+03 -0.11443937723E+03  0.76833424860E+03  0.80858843044E+03  0.10100000352E+00 0. -1.
       -3    1    3    3    0  502 -0.22445790475E+03  0.11443937723E+03 -0.17012789866E+04  0.17198336904E+04  0.10100000352E+00 0.  1.
</event>
<event>
 5   0  0.2871888E-05  0.2282679E+04  0.7818609E-02  0.8484782E-01
       -2   -1    0    0    0  501  0.00000000000E+00  0.00000000000E+00  0.42855378677E+03  0.42855378677E+03  0.25500000920E-02 0. -1.
        2   -1    0    0  501    0  0.00000000000E+00  0.00000000000E+00 -0.30396560352E+04  0.30396560352E+04  0.25500000920E-02 0.  1.
    10030    2    1    2    0    0  0.00000000000E+00  0.00000000000E+00 -0.26111022485E+04  0.34682098220E+04  0.22826792192E+04 0.  0.
        3    1    3    3  502    0 -0.89540820654E+03 -0.35382051720E+03 -0.37425542918E+03  0.10329627056E+04  0.10100000352E+00 0.  1.
       -3    1    3    3    0  502  0.89540820654E+03  0.35382051720E+03 -0.22368468193E+04  0.24352471164E+04  0.10100000352E+00 0. -1.
</event>
<event>
 5   0  0.1327820E-05  0.2295163E+04  0.7818609E-02  0.8479831E-01
        1   -1    0    0  501    0  0.00000000000E+00  0.00000000000E+00  0.84734309233E+03  0.84734309234E+03  0.50400001928E-02 0. -1.
       -1   -1    0    0    0  501  0.00000000000E+00  0.00000000000E+00 -0.15542031411E+04  0.15542031411E+04  0.50400001928E-02 0.  1.
    10030    2    1    2    0    0  0.00000000000E+00  0.00000000000E+00 -0.70686004878E+03  0.24015462335E+04  0.22951629970E+04 0.  0.
        1    1    3    3  502    0  0.97370180862E+03  0.23555672184E+03  0.23230334938E+03  0.10283710553E+04  0.50400001928E-02 0. -1.
       -1    1    3    3    0  502 -0.97370180862E+03 -0.23555672184E+03 -0.93916339816E+03  0.13731751781E+04  0.50400001928E-02 0.  1.
</event>
<event>
 5   0  0.1284837E-05  0.2275832E+04  0.7818609E-02  0.8487512E-01
       -1   -1    0    0    0  501  0.00000000000E+00  0.00000000000E+00  0.11012627446E+04  0.11012627446E+04  0.50400001928E-02 0. -1.
        1   -1    0    0  501    0  0.00000000000E+00  0.00000000000E+00 -0.11757887619E+04  0.11757887619E+04  0.50400001928E-02 0.  1.
    10030    2    1    2    0    0  0.00000000000E+00  0.00000000000E+00 -0.74526017340E+02  0.22770515065E+04  0.22758315922E+04 0.  0.
        4    1    3    3  502    0  0.10034228778E+04 -0.22947314439E+03 -0.52263679424E+03  0.11544116369E+04  0.12699999809E+01 0.  1.
       -4    1    3    3    0  502 -0.10034228778E+04  0.22947314439E+03  0.44811077690E+03  0.11226398697E+04  0.12699999809E+01 0. -1.
</event>
<event>
 5   0  0.1327820E-05  0.2284077E+04  0.7818609E-02  0.8484226E-01
        1   -1    0    0  501    0  0.00000000000E+00  0.00000000000E+00  0.10597820071E+04  0.10597820071E+04  0.50400001928E-02 0.  1.
       -1   -1    0    0    0  501  0.00000000000E+00  0.00000000000E+00 -0.12306794740E+04  0.12306794740E+04  0.50400001928E-02 0. -1.
    10030    2    1    2    0    0  0.00000000000E+00  0.00000000000E+00 -0.17089746685E+03  0.22904614811E+04  0.22840770242E+04 0.  0.
        1    1    3    3  502    0  0.70936195235E+03  0.79773349723E+03  0.32149199818E+03  0.11148678025E+04  0.50400001928E-02 0. -1.
       -1    1    3    3    0  502 -0.70936195235E+03 -0.79773349723E+03 -0.49238946503E+03  0.11755936787E+04  0.50400001928E-02 0.  1.
</event>
<event>
 5   0  0.1017200E-05  0.2291700E+04  0.7818609E-02  0.8481201E-01
       -3   -1    0    0    0  501  0.00000000000E+00  0.00000000000E+00  0.13730038444E+04  0.13730038481E+04  0.10100000352E+00 0. -1.
        3   -1    0    0  501    0  0.00000000000E+00  0.00000000000E+00 -0.95627685116E+03  0.95627685650E+03  0.10100000352E+00 0.  1.
    10030    2    1    2    0    0  0.00000000000E+00  0.00000000000E+00  0.41672699323E+03  0.23292807046E+04  0.22916996343E+04 0.  0.
        1    1    3    3  502    0 -0.97383193182E+03 -0.57607145009E+03  0.39234250265E+03  0.11975556715E+04  0.50400001928E-02 0. -1.
       -1    1    3    3    0  502  0.97383193182E+03  0.57607145009E+03  0.24384490578E+02  0.11317250331E+04  0.50400001928E-02 0.  1.
</event>
<event>
 5   0  0.1308224E-05  0.2298179E+04  0.7818609E-02  0.8478639E-01
        1   -1    0    0  501    0  0.00000000000E+00  0.00000000000E+00  0.13351696867E+04  0.13351696867E+04  0.50400001928E-02 0.  1.
       -1   -1    0    0    0  501  0.00000000000E+00  0.00000000000E+00 -0.98894331508E+03  0.98894331509E+03  0.50400001928E-02 0. -1.
    10030    2    1    2    0    0  0.00000000000E+00  0.00000000000E+00  0.34622637165E+03  0.23241130018E+04  0.22981793979E+04 0.  0.
        5    1    3    3  502    0 -0.77084300798E+03 -0.46604978469E+03  0.89459477140E+03  0.12695366240E+04  0.46999998093E+01 0.  1.
       -5    1    3    3    0  502  0.77084300798E+03  0.46604978469E+03 -0.54836839975E+03  0.10545763778E+04  0.46999998093E+01 0. -1.
</event>
<event>
 5   0  0.1284837E-05  0.2308789E+04  0.7818609E-02  0.8474464E-01
       -1   -1    0    0    0  501  0.00000000000E+00  0.00000000000E+00  0.11264634187E+04  0.11264634187E+04  0.50400001928E-02 0.  1.
        1   -1    0    0  501    0  0.00000000000E+00  0.00000000000E+00 -0.11830177427E+04  0.11830177428E+04  0.50400001928E-02 0. -1.
    10030    2    1    2    0    0  0.00000000000E+00  0.00000000000E+00 -0.56554324094E+02  0.23094811614E+04  0.23087886095E+04 0.  0.
        4    1    3    3  502    0 -0.10384018830E+04 -0.19961016452E+03 -0.49155959662E+03  0.11660853907E+04  0.12699999809E+01 0. -1.
       -4    1    3    3    0  502  0.10384018830E+04  0.19961016452E+03  0.43500527253E+03  0.11433957707E+04  0.12699999809E+01 0.  1.
</event>
<event>
 5   0  0.1303224E-05  0.2293257E+04  0.7818609E-02  0.8480584E-01
        1   -1    0    0  501    0  0.00000000000E+00  0.00000000000E+00  0.14911749804E+04  0.14911749804E+04  0.50400001928E-02 0.  1.
       -1   -1    0    0    0  501  0.00000000000E+00  0.00000000000E+00 -0.88169202721E+03  0.88169202723E+03  0.50400001928E-02 0. -1.
    10030    2    1    2    0    0  0.00000000000E+00  0.00000000000E+00  0.60948295315E+03  0.23728670076E+04  0.22932571521E+04 0.  0.
        2    1    3    3  502    0  0.42037983035E+03  0.58718706992E+03 -0.61682246195E+03  0.94972512151E+03  0.25500000920E-02 0. -1.
       -2    1    3    3    0  502 -0.42037983035E+03 -0.58718706992E+03  0.12263054151E+04  0.14231418861E+04  0.25500000920E-02 0.  1.
</event>
<event>
 5   0  0.2938972E-05  0.2305944E+04  0.7818609E-02  0.8475581E-01
       -2   -1    0    0    0  501  0.00000000000E+00  0.00000000000E+00  0.65065940324E+03  0.65065940325E+03  0.25500000920E-02 0.  1.
        2   -1    0    0  501    0  0.00000000000E+00  0.00000000000E+00 -0.20430726489E+04  0.20430726489E+04  0.25500000920E-02 0. -1.
    10030    2    1    2    0    0  0.00000000000E+00  0.00000000000E+00 -0.13924132457E+04  0.26937320522E+04  0.23059439980E+04 0.  0.
        2    1    3    3  502    0  0.59953277797E+03  0.14796719592E+03  0.44119077905E+03  0.75893553511E+03  0.25500000920E-02 0.  1.
       -2    1    3    3    0  502 -0.59953277797E+03 -0.14796719592E+03 -0.18336040247E+04  0.19347965171E+04  0.25500000920E-02 0. -1.
</event>
<event>
 5   0  0.1308224E-05  0.2287940E+04  0.7818609E-02  0.8482692E-01
        1   -1    0    0  501    0  0.00000000000E+00  0.00000000000E+00  0.77871665094E+03  0.77871665095E+03  0.50400001928E-02 0.  1.
       -1   -1    0    0    0  501  0.00000000000E+00  0.00000000000E+00 -0.16805431757E+04  0.16805431757E+04  0.50400001928E-02 0. -1.
    10030    2    1    2    0    0  0.00000000000E+00  0.00000000000E+00 -0.90182652480E+03  0.24592598267E+04  0.22879396440E+04 0.  0.
        5    1    3    3  502    0  0.81586947209E+03 -0.74644776507E+03 -0.76579541064E+03  0.13450992389E+04  0.46999998093E+01 0. -1.
       -5    1    3    3    0  502 -0.81586947209E+03  0.74644776507E+03 -0.13603111417E+03  0.11141605878E+04  0.46999998093E+01 0.  1.
</event>
<event>
 5   0  0.1371753E-05  0.2301299E+04  0.7818609E-02  0.8477409E-01
        1   -1    0    0  501    0  0.00000000000E+00  0.00000000000E+00  0.99017018738E+03  0.99017018739E+03  0.50400001928E-02 0. -1.
       -1   -1    0    0    0  501  0.00000000000E+00  0.00000000000E+00 -0.13371382447E+04  0.13371382447E+04  0.50400001928E-02 0.  1.
    10030    2    1    2    0    0  0.00000000000E+00  0.00000000000E+00 -0.34696805727E+03  0.23273084321E+04  0.23012991342E+04 0.  0.
        3    1    3    3  502    0 -0.10751529459E+04 -0.31340703118E+03 -0.44069863326E+03  0.12034920523E+04  0.10100000352E+00 0.  1.
       -3    1    3    3    0  502  0.10751529459E+04  0.31340703118E+03  0.93730575990E+02  0.11238163798E+04  0.10100000352E+00 0. -1.
</event>
<event>
 5   0  0.2938972E-05  0.2272507E+04  0.7818609E-02  0.8488841E-01
        2   -1    0    0  501    0  0.00000000000E+00  0.00000000000E+00  0.12913638833E+04  0.12913638833E+04  0.25500000920E-02 0.  1.
       -2   -1    0    0    0  501  0.00000000000E+00  0.00000000000E+00 -0.99977371279E+03  0.99977371280E+03  0.25500000920E-02 0. -1.
    10030    2    1    2    0    0  0.00000000000E+00  0.00000000000E+00  0.29159017054E+03  0.22911375961E+04  0.22725066902E+04 0.  0.
        2    1    3    3  502    0 -0.24891417771E+03 -0.23451918139E+03 -0.94665389203E+03  0.10065342049E+04  0.25500000920E-02 0. -1.
       -2    1    3    3    0  502  0.24891417771E+03  0.23451918139E+03  0.12382440626E+04  0.12846033912E+04  0.25500000920E-02 0.  1.
</event>
<event>
 5   0  0.1303224E-05  0.2304225E+04  0.7818609E-02  0.8476257E-01
       -1   -1    0    0    0  501  0.00000000000E+00  0.00000000000E+00  0.11830925564E+04  0.11830925564E+04  0.50400001928E-02 0.  1.
        1   -1    0    0  501    0  0.00000000000E+00  0.00000000000E+00 -0.11219432767E+04  0.11219432767E+04  0.50400001928E-02 0. -1.
    10030    2    1    2    0    0  0.00000000000E+00  0.00000000000E+00  0.61149279748E+02  0.23050358331E+04  0.23042245892E+04 0.  0.
        2    1    3    3  502    0  0.33088215099E+03 -0.13264059093E+03 -0.10653868233E+04  0.11234436379E+04  0.25500000920E-02 0. -1.
       -2    1    3    3    0  502 -0.33088215099E+03  0.13264059093E+03  0.11265361031E+04  0.11815921952E+04  0.25500000920E-02 0.  1.
</event>
<event>
 5   0  0.1308224E-05  0.2288807E+04  0.7818609E-02  0.8482347E-01
       -1   -1    0    0    0  501  0.00000000000E+00  0.00000000000E+00  0.51201039799E+03  0.51201039802E+03  0.50400001928E-02 0.  1.
        1   -1    0    0  501    0  0.00000000000E+00  0.00000000000E+00 -0.25578770340E+04  0.25578770340E+04  0.50400001928E-02 0. -1.
    10030    2    1    2    0    0  0.00000000000E+00  0.00000000000E+00 -0.20458666360E+04  0.30698874320E+04  0.22888072337E+04 0.  0.
        5    1    3    3  502    0  0.51973854272E+03  0.86981838112E+03 -0.30950690034E+03  0.10594945872E+04  0.46999998093E+01 0. -1.
       -5    1    3    3    0  502 -0.51973854272E+03 -0.86981838112E+03 -0.17363597357E+04  0.20103928448E+04  0.46999998093E+01 0.  1.
</event>
<event>
 5   0  0.2816178E-05  0.2311281E+04  0.7818609E-02  0.8473486E-01
        2   -1    0    0  501    0  0.00000000000E+00  0.00000000000E+00  0.16906383263E+04  0.16906383263E+04  0.25500000920E-02 0. -1.
       -2   -1    0    0    0  501  0.00000000000E+00  0.00000000000E+00 -0.78994114397E+03  0.78994114397E+03  0.25500000920E-02 0.  1.
    10030    2    1    2    0    0  0.00000000000E+00  0.00000000000E+00  0.90069718231E+03  0.24805794703E+04  0.23112808341E+04 0.  0.
        1    1    3    3  502    0  0.26662162385E+03 -0.67721243564E+03  0.14137656416E+04  0.15901059910E+04  0.50400001928E-02 0. -1.
       -1    1    3    3    0  502 -0.26662162385E+03  0.67721243564E+03 -0.51306845928E+03  0.89047347924E+03  0.50400001928E-02 0.  1.
</event>
<event>
 5   0  0.2938972E-05  0.2304888E+04  0.7818609E-02  0.8475996E-01
       -2   -1    0    0    0  501  0.00000000000E+00  0.00000000000E+00  0.12700815546E+04  0.12700815546E+04  0.25500000920E-02 0. -1.
        2   -1    0    0  501    0  0.00000000000E+00  0.00000000000E+00 -0.10457022040E+04  0.10457022040E+04  0.25500000920E-02 0.  1.
    10030    2    1    2    0    0  0.00000000000E+00  0.00000000000E+00  0.22437935054E+03  0.23157837586E+04  0.23048879200E+04 0.  0.
        2    1    3    3  502    0  0.62267345414E+03 -0.69117028078E+03 -0.57123796868E+03  0.10916736712E+04  0.25500000920E-02 0.  1.
       -2    1    3    3    0  502 -0.62267345414E+03  0.69117028078E+03  0.79561731921E+03  0.12241100874E+04  0.25500000920E-02 0. -1.
</event>
<event>
 5   0  0.2994157E-05  0.2297862E+04  0.7818609E-02  0.8478764E-01
       -2   -1    0    0    0  501  0.00000000000E+00  0.00000000000E+00  0.12316125265E+04  0.12316125265E+04  0.25500000920E-02 0.  1.
        2   -1    0    0  501    0  0.00000000000E+00  0.00000000000E+00 -0.10718003752E+04  0.10718003752E+04  0.25500000920E-02 0. -1.
    10030    2    1    2    0    0  0.00000000000E+00  0.00000000000E+00  0.15981215132E+03  0.23034129018E+04  0.22978622831E+04 0.  0.
        4    1    3    3  502    0  0.84408828672E+02 -0.57290625809E+03 -0.91480877968E+03  0.10826925451E+04  0.12699999809E+01 0. -1.
       -4    1    3    3    0  502 -0.84408828672E+02  0.57290625809E+03  0.10746209310E+04  0.12207203567E+04  0.12699999809E+01 0.  1.
</event>
<event>
 5   0  0.2910126E-05  0.2299719E+04  0.7818609E-02  0.8478032E-01
        2   -1    0    0  501    0  0.00000000000E+00  0.00000000000E+00  0.24103606792E+04  0.24103606792E+04  0.25500000920E-02 0. -1.
       -2   -1    0    0    0  501  0.00000000000E+00  0.00000000000E+00 -0.54853897150E+03  0.54853897150E+03  0.25500000920E-02 0.  1.
    10030    2    1    2    0    0  0.00000000000E+00  0.00000000000E+00  0.18618217077E+04  0.29588996507E+04  0.22997189114E+04 0.  0.
        5    1    3    3  502    0 -0.84526384510E+03 -0.41985890430E+03  0.85833112193E+02  0.94770347710E+03  0.46999998093E+01 0.  1.
       -5    1    3    3    0  502  0.84526384510E+03  0.41985890430E+03  0.17759885955E+04  0.20111961736E+04  0.46999998093E+01 0. -1.
</event>
<event>
 5   0  0.2994157E-05  0.2049341E+04  0.7818609E-02  0.8583893E-01
       -2   -1    0    0    0  501  0.00000000000E+00  0.00000000000E+00  0.95145425702E+03  0.95145425702E+03  0.25500000920E-02 0. -1.
        2   -1    0    0  501    0  0.00000000000E+00  0.00000000000E+00 -0.11035206681E+04  0.11035206681E+04  0.25500000920E-02 0.  1.
    10030    2    1    2    0    0  0.00000000000E+00  0.00000000000E+00 -0.15206641105E+03  0.20549749251E+04  0.20493408085E+04 0.  0.
        4    1    3    3  502    0  0.32877605807E+03 -0.71850427609E+03  0.57814500362E+03  0.97907882688E+03  0.12699999809E+01 0. -1.
       -4    1    3    3    0  502 -0.32877605807E+03  0.71850427609E+03 -0.73021141468E+03  0.10758960982E+04  0.12699999809E+01 0.  1.
</event>
<event>
 5   0  0.2816178E-05  0.2327259E+04  0.7818609E-02  0.8467250E-01
       -2   -1    0    0    0  501  0.00000000000E+00  0.00000000000E+00  0.70475619597E+03  0.70475619598E+03  0.25500000920E-02 0. -1.
        2   -1    0    0  501    0  0.00000000000E+00  0.00000000000E+00 -0.19212800044E+04  0.19212800044E+04  0.25500000920E-02 0.  1.
    10030    2    1    2    0    0  0.00000000000E+00  0.00000000000E+00 -0.12165238084E+04  0.26260362004E+04  0.23272593214E+04 0.  0.
        1    1    3    3  502    0 -0.10987133115E+03  0.70648483663E+03 -0.16441882395E+04  0.17929159213E+04  0.50400001928E-02 0.  1.
       -1    1    3    3    0  502  0.10987133115E+03 -0.70648483663E+03  0.42766443109E+03  0.83312027910E+03  0.50400001928E-02 0. -1.
</event>
<event>
 5   0  0.1303224E-05  0.2296080E+04  0.7818609E-02  0.8479468E-01
       -1   -1    0    0    0  501  0.00000000000E+00  0.00000000000E+00  0.88143023031E+03  0.88143023033E+03  0.50400001928E-02 0. -1.
        1   -1    0    0  501    0  0.00000000000E+00  0.00000000000E+00 -0.14952924988E+04  0.14952924988E+04  0.50400001928E-02 0.  1.
    10030    2    1    2    0    0  0.00000000000E+00  0.00000000000E+00 -0.61386226850E+03  0.23767227291E+04  0.22960801481E+04 0.  0.
        2    1    3    3  502    0  0.47971543283E+03 -0.58861309628E+03 -0.11982207803E+04  0.14185645251E+04  0.25500000920E-02 0.  1.
       -2    1    3    3    0  502 -0.47971543283E+03  0.58861309628E+03  0.58435851180E+03  0.95815820402E+03  0.25500000920E-02 0. -1.
</event>
<event>
 5   0  0.2938972E-05  0.2295513E+04  0.7818609E-02  0.8479692E-01
       -2   -1    0    0    0  501  0.00000000000E+00  0.00000000000E+00  0.13587423856E+04  0.13587423856E+04  0.25500000920E-02 0.  1.
        2   -1    0    0  501    0  0.00000000000E+00  0.00000000000E+00 -0.96953286220E+03  0.96953286220E+03  0.25500000920E-02 0. -1.
    10030    2    1    2    0    0  0.00000000000E+00  0.00000000000E+00  0.38920952339E+03  0.23282752478E+04  0.22955133579E+04 0.  0.
        2    1    3    3  502    0 -0.96202731611E+03  0.61471810903E+03  0.74721040108E+02  0.11440970869E+04  0.25500000920E-02 0. -1.
       -2    1    3    3    0  502  0.96202731611E+03 -0.61471810903E+03  0.31448848328E+03  0.11841781609E+04  0.25500000920E-02 0.  1.
</event>
<event>
 5   0  0.2871888E-05  0.2323703E+04  0.7818609E-02  0.8468633E-01
        2   -1    0    0  501    0  0.00000000000E+00  0.00000000000E+00  0.14577509163E+04  0.14577509163E+04  0.25500000920E-02 0.  1.
       -2   -1    0    0    0  501  0.00000000000E+00  0.00000000000E+00 -0.92601499472E+03  0.92601499472E+03  0.25500000920E-02 0. -1.
    10030    2    1    2    0    0  0.00000000000E+00  0.00000000000E+00  0.53173592158E+03  0.23837659110E+04  0.23237032574E+04 0.  0.
        3    1    3    3  502    0  0.48138669193E+03  0.22944495705E+03 -0.79305400535E+03  0.95567400356E+03  0.10100000352E+00 0. -1.
       -3    1    3    3    0  502 -0.48138669193E+03 -0.22944495705E+03  0.13247899269E+04  0.14280919075E+04  0.10100000352E+00 0.  1.
</event>
<event>
 5   0  0.2910126E-05  0.2313601E+04  0.7818609E-02  0.8472578E-01
       -2   -1    0    0    0  501  0.00000000000E+00  0.00000000000E+00  0.80794202247E+03  0.80794202248E+03  0.25500000920E-02 0. -1.
        2   -1    0    0  501    0  0.00000000000E+00  0.00000000000E+00 -0.16562919535E+04  0.16562919535E+04  0.25500000920E-02 0.  1.
    10030    2    1    2    0    0  0.00000000000E+00  0.00000000000E+00 -0.84834993103E+03  0.24642339760E+04  0.23136014097E+04 0.  0.
        5    1    3    3  502    0 -0.83144619685E+03  0.59224748401E+03 -0.10037597107E+04  0.14316478294E+04  0.46999998093E+01 0.  1.
       -5    1    3    3    0  502  0.83144619685E+03 -0.59224748401E+03  0.15540977965E+03  0.10325861466E+04  0.46999998093E+01 0. -1.
</event>
<event>
 5   0  0.2816178E-05  0.2196102E+04  0.7818609E-02  0.8520052E-01
       -2   -1    0    0    0  501  0.00000000000E+00  0.00000000000E+00  0.59065420141E+03  0.59065420142E+03  0.25500000920E-02 0.  1.
        2   -1    0    0  501    0  0.00000000000E+00  0.00000000000E+00 -0.20413227222E+04  0.20413227222E+04  0.25500000920E-02 0. -1.
    10030    2    1    2    0    0  0.00000000000E+00  0.00000000000E+00 -0.14506685208E+04  0.26319769236E+04  0.21961018577E+04 0.  0.
        1    1    3    3  502    0 -0.38086483163E+03  0.98803821472E+03 -0.37707765661E+03  0.11240396314E+04  0.50400001928E-02 0.  1.
       -1    1    3    3    0  502  0.38086483163E+03 -0.98803821472E+03 -0.10735908642E+04  0.15079372923E+04  0.50400001928E-02 0. -1.
</event>
<event>
 5   0  0.1327820E-05  0.2268397E+04  0.7818609E-02  0.8490487E-01
        1   -1    0    0  501    0  0.00000000000E+00  0.00000000000E+00  0.20199282589E+04  0.20199282590E+04  0.50400001928E-02 0.  1.
       -1   -1    0    0    0  501  0.00000000000E+00  0.00000000000E+00 -0.63685733724E+03  0.63685733726E+03  0.50400001928E-02 0. -1.
    10030    2    1    2    0    0  0.00000000000E+00  0.00000000000E+00  0.13830709217E+04  0.26567855962E+04  0.22683969075E+04 0.  0.
        1    1    3    3  502    0 -0.67645277821E+03  0.10155068401E+02  0.17577386289E+04  0.18834374357E+04  0.50400001928E-02 0.  1.
       -1    1    3    3    0  502  0.67645277821E+03 -0.10155068401E+02 -0.37466770719E+03  0.77334816053E+03  0.50400001928E-02 0. -1.
</event>
<event>
 5   0  0.2938972E-05  0.2298402E+04  0.7818609E-02  0.8478551E-01
        2   -1    0    0  501    0  0.00000000000E+00  0.00000000000E+00  0.10580053297E+04  0.10580053297E+04  0.25500000920E-02 0.  1.
       -2   -1    0    0    0  501  0.00000000000E+00  0.00000000000E+00 -0.12482576638E+04  0.12482576638E+04  0.25500000920E-02 0. -1.
    10030    2    1    2    0    0  0.00000000000E+00  0.00000000000E+00 -0.19025233403E+03  0.23062629935E+04  0.22984022808E+04 0.  0.
        2    1    3    3  502    0 -0.41646600377E+02  0.70249394620E+03  0.81651345914E+03  0.10779269051E+04  0.25500000920E-02 0.  1.
       -2    1    3    3    0  502  0.41646600377E+02 -0.70249394620E+03 -0.10067657932E+04  0.12283360884E+04  0.25500000920E-02 0. -1.
</event>
<event>
 5   0  0.1308224E-05  0.2312389E+04  0.7818609E-02  0.8473052E-01
        1   -1    0    0  501    0  0.00000000000E+00  0.00000000000E+00  0.12724754118E+04  0.12724754118E+04  0.50400001928E-02 0. -1.
       -1   -1    0    0    0  501  0.00000000000E+00  0.00000000000E+00 -0.10505398975E+04  0.10505398975E+04  0.50400001928E-02 0.  1.
    10030    2    1    2    0    0  0.00000000000E+00  0.00000000000E+00  0.22193551429E+03  0.23230153094E+04  0.23123894038E+04 0.  0.
        5    1    3    3  502    0 -0.58016038088E+02 -0.11473303300E+04 -0.20136158668E+02  0.11489822895E+04  0.46999998093E+01 0.  1.
       -5    1    3    3    0  502  0.58016038088E+02  0.11473303300E+04  0.24207167295E+03  0.11740330198E+04  0.46999998093E+01 0. -1.
</event>
<event>
 5   0  0.2910126E-05  0.2314304E+04  0.7818609E-02  0.8472302E-01
       -2   -1    0    0    0  501  0.00000000000E+00  0.00000000000E+00  0.13427236447E+04  0.13427236447E+04  0.25500000920E-02 0.  1.
        2   -1    0    0  501    0  0.00000000000E+00  0.00000000000E+00 -0.99722759576E+03  0.99722759577E+03  0.25500000920E-02 0. -1.
    10030    2    1    2    0    0  0.00000000000E+00  0.00000000000E+00  0.34549604891E+03  0.23399512404E+04  0.23143042773E+04 0.  0.
        5    1    3    3  502    0  0.11403721735E+04  0.14797352226E+03  0.30315064630E+03  0.11892296926E+04  0.46999998093E+01 0.  1.
       -5    1    3    3    0  502 -0.11403721735E+04 -0.14797352226E+03  0.42345402608E+02  0.11507215478E+04  0.46999998093E+01 0. -1.
</event>
<event>
 5   0  0.1284837E-05  0.2285080E+04  0.7818609E-02  0.8483827E-01
        1   -1    0    0  501    0  0.00000000000E+00  0.00000000000E+00  0.99069935710E+03  0.99069935711E+03  0.50400001928E-02 0. -1.
       -1   -1    0    0    0  501  0.00000000000E+00  0.00000000000E+00 -0.13176529302E+04  0.13176529302E+04  0.50400001928E-02 0.  1.
    10030    2    1    2    0    0  0.00000000000E+00  0.00000000000E+00 -0.32695357313E+03  0.23083522874E+04  0.22850802269E+04 0.  0.
        4    1    3    3  502    0 -0.10045197371E+04 -0.33879397470E+03 -0.59390902311E+03  0.12151422962E+04  0.12699999809E+01 0. -1.
       -4    1    3    3    0  502  0.10045197371E+04  0.33879397470E+03  0.26695544999E+03  0.10932099911E+04  0.12699999809E+01 0.  1.
</event>
<event>
 5   0  0.2994157E-05  0.2311330E+04  0.7818609E-02  0.8473467E-01
        2   -1    0    0  501    0  0.00000000000E+00  0.00000000000E+00  0.13738968776E+04  0.13738968776E+04  0.25500000920E-02 0.  1.
       -2   -1    0    0    0  501  0.00000000000E+00  0.00000000000E+00 -0.97209753779E+03  0.97209753779E+03  0.25500000920E-02 0. -1.
    10030    2    1    2    0    0  0.00000000000E+00  0.00000000000E+00  0.40179933981E+03  0.23459944154E+04  0.23113301555E+04 0.  0.
        4    1    3    3  502    0  0.40137170108E+03 -0.10780089483E+03 -0.89362347077E+03  0.98553782056E+03  0.12699999809E+01 0. -1.
       -4    1    3    3    0  502 -0.40137170108E+03  0.10780089483E+03  0.12954228106E+04  0.13604565948E+04  0.12699999809E+01 0.  1.
</event>
<event>
 5   0  0.1327820E-05  0.2299515E+04  0.7818609E-02  0.8478113E-01
        1   -1    0    0  501    0  0.00000000000E+00  0.00000000000E+00  0.87568243141E+03  0.87568243142E+03  0.50400001928E-02 0.  1.
       -1   -1    0    0    0  501  0.00000000000E+00  0.00000000000E+00 -0.15096133584E+04  0.15096133584E+04  0.50400001928E-02 0. -1.
    10030    2    1    2    0    0  0.00000000000E+00  0.00000000000E+00 -0.63393092699E+03  0.23852957898E+04  0.22995146411E+04 0.  0.
        1    1    3    3  502    0 -0.24211997109E+03 -0.10328503677E+04 -0.77683163691E+03  0.13148647667E+04  0.50400001928E-02 0. -1.
       -1    1    3    3    0  502  0.24211997109E+03  0.10328503677E+04  0.14290070993E+03  0.10704310232E+04  0.50400001928E-02 0.  1.
</event>
<event>
 5   0  0.2816178E-05  0.2257697E+04  0.7818609E-02  0.8494790E-01
        2   -1    0    0  501    0  0.00000000000E+00  0.00000000000E+00  0.19490339833E+04  0.19490339833E+04  0.25500000920E-02 0.  1.
       -2   -1    0    0    0  501  0.00000000000E+00  0.00000000000E+00 -0.65381054412E+03  0.65381054412E+03  0.25500000920E-02 0. -1.
    10030    2    1    2    0    0  0.00000000000E+00  0.00000000000E+00  0.12952234392E+04  0.26028445274E+04  0.22576970294E+04 0.  0.
        1    1    3    3  502    0 -0.10468831189E+04  0.36756735646E+03  0.40791070398E+03  0.11821426177E+04  0.50400001928E-02 0. -1.
       -1    1    3    3    0  502  0.10468831189E+04 -0.36756735646E+03  0.88731273521E+03  0.14207019097E+04  0.50400001928E-02 0.  1.
</event>
<event>
 5   0  0.1284837E-05  0.2293942E+04  0.7818609E-02  0.8480313E-01
       -1   -1    0    0    0  501  0.00000000000E+00  0.00000000000E+00  0.96074417973E+03  0.96074417974E+03  0.50400001928E-02 0.  1.
        1   -1    0    0  501    0  0.00000000000E+00  0.00000000000E+00 -0.13692956296E+04  0.13692956296E+04  0.50400001928E-02 0. -1.
    10030    2    1    2    0    0  0.00000000000E+00  0.00000000000E+00 -0.40855144984E+03  0.23300398093E+04  0.22939422891E+04 0.  0.
        4    1    3    3  502    0  0.39319770660E+03  0.10745063591E+04 -0.12318943952E+03  0.11508021564E+04  0.12699999809E+01 0.  1.
       -4    1    3    3    0  502 -0.39319770660E+03 -0.10745063591E+04 -0.28536201032E+03  0.11792376529E+04  0.12699999809E+01 0. -1.
</event>
<event>
 5   0  0.2871888E-05  0.2271632E+04  0.7818609E-02  0.8489191E-01
        2   -1    0    0  501    0  0.00000000000E+00  0.00000000000E+00  0.21305541622E+04  0.21305541622E+04  0.25500000920E-02 0.  1.
       -2   -1    0    0    0  501  0.00000000000E+00  0.00000000000E+00 -0.60551263080E+03  0.60551263080E+03  0.25500000920E-02 0. -1.
    10030    2    1    2    0    0  0.00000000000E+00  0.00000000000E+00  0.15250415315E+04  0.27360667930E+04  0.22716315334E+04 0.  0.
        3    1    3    3  502    0  0.61579643560E+03  0.37756710370E+03 -0.29322303780E+03  0.77957804483E+03  0.10100000352E+00 0. -1.
       -3    1    3    3    0  502 -0.61579643560E+03 -0.37756710370E+03  0.18182645693E+04  0.19564887482E+04  0.10100000352E+00 0.  1.
</event>
<event>
 5   0  0.1371753E-05  0.2304855E+04  0.7818609E-02  0.8476009E-01
        1   -1    0    0  501    0  0.00000000000E+00  0.00000000000E+00  0.17346830475E+04  0.17346830475E+04  0.50400001928E-02 0. -1.
       -1   -1    0    0    0  501  0.00000000000E+00  0.00000000000E+00 -0.76560889457E+03  0.76560889458E+03  0.50400001928E-02 0.  1.
    10030    2    1    2    0    0  0.00000000000E+00  0.00000000000E+00  0.96907415295E+03  0.25002919421E+04  0.23048546769E+04 0.  0.
        3    1    3    3  502    0 -0.11329055774E+04 -0.10215201615E+03  0.68508806474E+03  0.13278764056E+04  0.10100000352E+00 0. -1.
       -3    1    3    3    0  502  0.11329055774E+04  0.10215201615E+03  0.28398608821E+03  0.11724155365E+04  0.10100000352E+00 0.  1.
</event>
<event>
 5   0  0.2816178E-05  0.2308638E+04  0.7818609E-02  0.8474523E-01
        2   -1    0    0  501    0  0.00000000000E+00  0.00000000000E+00  0.93580809403E+03  0.93580809403E+03  0.25500000920E-02 0.  1.
       -2   -1    0    0    0  501  0.00000000000E+00  0.00000000000E+00 -0.14238519036E+04  0.14238519036E+04  0.25500000920E-02 0. -1.
    10030    2    1    2    0    0  0.00000000000E+00  0.00000000000E+00 -0.48804380956E+03  0.23596599976E+04  0.23086378114E+04 0.  0.
        1    1    3    3  502    0 -0.57881853828E+03 -0.86639009802E+03 -0.75178005909E+03  0.12848486134E+04  0.50400001928E-02 0. -1.
       -1    1    3    3    0  502  0.57881853828E+03  0.86639009802E+03  0.26373624953E+03  0.10748113842E+04  0.50400001928E-02 0.  1.
</event>
<event>
 5   0  0.1284837E-05  0.2307582E+04  0.7818609E-02  0.8474938E-01
       -1   -1    0    0    0  501  0.00000000000E+00  0.00000000000E+00  0.53422904890E+03  0.53422904893E+03  0.50400001928E-02 0. -1.
        1   -1    0    0  501    0  0.00000000000E+00  0.00000000000E+00 -0.24918777239E+04  0.24918777239E+04  0.50400001928E-02 0.  1.
    10030    2    1    2    0    0  0.00000000000E+00  0.00000000000E+00 -0.19576486750E+04  0.30261067728E+04  0.23075818221E+04 0.  0.
        4    1    3    3  502    0 -0.42182531481E+03  0.58304254155E+03 -0.21615054192E+04  0.22781533073E+04  0.12699999809E+01 0.  1.
       -4    1    3    3    0  502  0.42182531481E+03 -0.58304254155E+03  0.20385674424E+03  0.74795346549E+03  0.12699999809E+01 0. -1.
</event>
<event>
 5   0  0.2871888E-05  0.2281741E+04  0.7818609E-02  0.8485156E-01
        2   -1    0    0  501    0  0.00000000000E+00  0.00000000000E+00  0.15032739602E+04  0.15032739602E+04  0.25500000920E-02 0. -1.
       -2   -1    0    0    0  501  0.00000000000E+00  0.00000000000E+00 -0.86583352694E+03  0.86583352695E+03  0.25500000920E-02 0.  1.
    10030    2    1    2    0    0  0.00000000000E+00  0.00000000000E+00  0.63744043321E+03  0.23691074871E+04  0.22817405592E+04 0.  0.
        3    1    3    3  502    0 -0.58070910643E+03  0.69622912214E+02  0.13357748660E+04  0.14582060619E+04  0.10100000352E+00 0. -1.
       -3    1    3    3    0  502  0.58070910643E+03 -0.69622912214E+02 -0.69833443278E+03  0.91090142519E+03  0.10100000352E+00 0.  1.
</event>
<event>
 5   0  0.1284837E-05  0.2258383E+04  0.7818609E-02  0.8494513E-01
       -1   -1    0    0    0  501  0.00000000000E+00  0.00000000000E+00  0.90622304913E+03  0.90622304915E+03  0.50400001928E-02 0. -1.
        1   -1    0    0  501    0  0.00000000000E+00  0.00000000000E+00 -0.14070198653E+04  0.14070198653E+04  0.50400001928E-02 0.  1.
    10030    2    1    2    0    0  0.00000000000E+00  0.00000000000E+00 -0.50079681620E+03  0.23132429145E+04  0.22583833444E+04 0.  0.
        4    1    3    3  502    0 -0.69728541918E+03  0.74148864594E+03  0.25041609987E+03  0.10481995057E+04  0.12699999809E+01 0.  1.
       -4    1    3    3    0  502  0.69728541918E+03 -0.74148864594E+03 -0.75121291608E+03  0.12650434088E+04  0.12699999809E+01 0. -1.
</event>
<event>
 5   0  0.1017200E-05  0.2153525E+04  0.7818609E-02  0.8538025E-01
        3   -1    0    0  501    0  0.00000000000E+00  0.00000000000E+00  0.56670097482E+03  0.56670098382E+03  0.10100000352E+00 0. -1.
       -3   -1    0    0    0  501  0.00000000000E+00  0.00000000000E+00 -0.20459062626E+04  0.20459062651E+04  0.10100000352E+00 0.  1.
    10030    2    1    2    0    0  0.00000000000E+00  0.00000000000E+00 -0.14792052878E+04  0.26126072489E+04  0.21535246350E+04 0.  0.
        3    1    3    3  502    0 -0.96116287230E+03 -0.20126760239E+03 -0.20377590450E+03  0.10029293815E+04  0.10100000352E+00 0. -1.
       -3    1    3    3    0  502  0.96116287230E+03  0.20126760239E+03 -0.12754293833E+04  0.16096778674E+04  0.10100000352E+00 0.  1.
</event>
<event>
 5   0  0.1284837E-05  0.2310880E+04  0.7818609E-02  0.8473644E-01
        1   -1    0    0  501    0  0.00000000000E+00  0.00000000000E+00  0.11033559957E+04  0.11033559958E+04  0.50400001928E-02 0.  1.
       -1   -1    0    0    0  501  0.00000000000E+00  0.00000000000E+00 -0.12099828265E+04  0.12099828265E+04  0.50400001928E-02 0. -1.
    10030    2    1    2    0    0  0.00000000000E+00  0.00000000000E+00 -0.10662683072E+03  0.23133388222E+04  0.23108801841E+04 0.  0.
        4    1    3    3  502    0  0.96360004265E+03 -0.49343354688E+03 -0.45752325813E+03  0.11753003242E+04  0.12699999809E+01 0. -1.
       -4    1    3    3    0  502 -0.96360004265E+03  0.49343354688E+03  0.35089642741E+03  0.11380384981E+04  0.12699999809E+01 0.  1.
</event>
<event>
 5   0  0.1308224E-05  0.2302604E+04  0.7818609E-02  0.8476895E-01
       -1   -1    0    0    0  501  0.00000000000E+00  0.00000000000E+00  0.23605033736E+04  0.23605033736E+04  0.50400001928E-02 0. -1.
        1   -1    0    0  501    0  0.00000000000E+00  0.00000000000E+00 -0.56153112740E+03  0.56153112742E+03  0.50400001928E-02 0.  1.
    10030    2    1    2    0    0  0.00000000000E+00  0.00000000000E+00  0.17989722462E+04  0.29220345010E+04  0.23026038484E+04 0.  0.
        5    1    3    3  502    0  0.70125668791E+03 -0.70154064098E+03  0.15784178587E+03  0.10044184052E+04  0.46999998093E+01 0.  1.
       -5    1    3    3    0  502 -0.70125668791E+03  0.70154064098E+03  0.16411304603E+04  0.19176160959E+04  0.46999998093E+01 0. -1.
</event>
<event>
 5   0  0.2938972E-05  0.2285283E+04  0.7818609E-02  0.8483747E-01
        2   -1    0    0  501    0  0.00000000000E+00  0.00000000000E+00  0.12292068078E+04  0.12292068078E+04  0.25500000920E-02 0.  1.
       -2   -1    0    0    0  501  0.00000000000E+00  0.00000000000E+00 -0.10621719943E+04  0.10621719943E+04  0.25500000920E-02 0. -1.
    10030    2    1    2    0    0  0.00000000000E+00  0.00000000000E+00  0.16703481356E+03  0.22913788021E+04  0.22852825177E+04 0.  0.
        2    1    3    3  502    0 -0.15906976889E+03 -0.13217227254E+03 -0.10432492039E+04  0.10635514103E+04  0.25500000920E-02 0. -1.
       -2    1    3    3    0  502  0.15906976889E+03  0.13217227254E+03  0.12102840175E+04  0.12278273917E+04  0.25500000920E-02 0.  1.
</event>
<event>
 5   0  0.2994157E-05  0.2293664E+04  0.7818609E-02  0.8480424E-01
        2   -1    0    0  501    0  0.00000000000E+00  0.00000000000E+00  0.10866230345E+04  0.10866230345E+04  0.25500000920E-02 0. -1.
       -2   -1    0    0    0  501  0.00000000000E+00  0.00000000000E+00 -0.12103768104E+04  0.12103768104E+04  0.25500000920E-02 0.  1.
    10030    2    1    2    0    0  0.00000000000E+00  0.00000000000E+00 -0.12375377592E+03  0.22969998449E+04  0.22936637265E+04 0.  0.
        4    1    3    3  502    0  0.88515436746E+03  0.40436333702E+03  0.54581189335E+03  0.11157599197E+04  0.12699999809E+01 0. -1.
       -4    1    3    3    0  502 -0.88515436746E+03 -0.40436333702E+03 -0.66956566927E+03  0.11812399252E+04  0.12699999809E+01 0.  1.
</event>
<event>
 5   0  0.2910126E-05  0.2290112E+04  0.7818609E-02  0.8481830E-01
       -2   -1    0    0    0  501  0.00000000000E+00  0.00000000000E+00  0.10767123496E+04  0.10767123496E+04  0.25500000920E-02 0.  1.
        2   -1    0    0  501    0  0.00000000000E+00  0.00000000000E+00 -0.12177374898E+04  0.12177374898E+04  0.25500000920E-02 0. -1.
    10030    2    1    2    0    0  0.00000000000E+00  0.00000000000E+00 -0.14102514014E+03  0.22944498394E+04  0.22901117823E+04 0.  0.
        5    1    3    3  502    0 -0.35351390018E+03 -0.56442979321E+03  0.86269039615E+03  0.10898669087E+04  0.46999998093E+01 0.  1.
       -5    1    3    3    0  502  0.35351390018E+03  0.56442979321E+03 -0.10037155363E+04  0.12045829307E+04  0.46999998093E+01 0. -1.
</event>
<event>
 5   0  0.2910126E-05  0.2307725E+04  0.7818609E-02  0.8474881E-01
        2   -1    0    0  501    0  0.00000000000E+00  0.00000000000E+00  0.18405536367E+04  0.18405536367E+04  0.25500000920E-02 0. -1.
       -2   -1    0    0    0  501  0.00000000000E+00  0.00000000000E+00 -0.72336856667E+03  0.72336856667E+03  0.25500000920E-02 0.  1.
    10030    2    1    2    0    0  0.00000000000E+00  0.00000000000E+00  0.11171850701E+04  0.25639222034E+04  0.23077249802E+04 0.  0.
        5    1    3    3  502    0 -0.90088721879E+03 -0.41258117629E+03  0.12154617249E+04  0.15681805708E+04  0.46999998093E+01 0. -1.
       -5    1    3    3    0  502  0.90088721879E+03  0.41258117629E+03 -0.98276654817E+02  0.99574163260E+03  0.46999998093E+01 0.  1.
</event>
<event>
 5   0  0.1284837E-05  0.2288658E+04  0.7818609E-02  0.8482407E-01
       -1   -1    0    0    0  501  0.00000000000E+00  0.00000000000E+00  0.10093234205E+04  0.10093234205E+04  0.50400001928E-02 0.  1.
        1   -1    0    0  501    0  0.00000000000E+00  0.00000000000E+00 -0.12973928190E+04  0.12973928190E+04  0.50400001928E-02 0. -1.
    10030    2    1    2    0    0  0.00000000000E+00  0.00000000000E+00 -0.28806939851E+03  0.23067162396E+04  0.22886580853E+04 0.  0.
        4    1    3    3  502    0  0.10703858909E+04  0.47705716130E+02  0.26098868321E+03  0.11027776278E+04  0.12699999809E+01 0.  1.
       -4    1    3    3    0  502 -0.10703858909E+04 -0.47705716130E+02 -0.54905808172E+03  0.12039386117E+04  0.12699999809E+01 0. -1.
</event>
<event>
 5   0  0.1327820E-05  0.2296002E+04  0.7818609E-02  0.8479499E-01
       -1   -1    0    0    0  501  0.00000000000E+00  0.00000000000E+00  0.10211895009E+04  0.10211895009E+04  0.50400001928E-02 0. -1.
        1   -1    0    0  501    0  0.00000000000E+00  0.00000000000E+00 -0.12905597233E+04  0.12905597233E+04  0.50400001928E-02 0.  1.
    10030    2    1    2    0    0  0.00000000000E+00  0.00000000000E+00 -0.26937022248E+03  0.23117492242E+04  0.22960017768E+04 0.  0.
        1    1    3    3  502    0 -0.73521922558E+02 -0.11390470184E+04 -0.11073143393E+02  0.11414710674E+04  0.50400001928E-02 0. -1.
       -1    1    3    3    0  502  0.73521922558E+02  0.11390470184E+04 -0.25829707908E+03  0.11702781568E+04  0.50400001928E-02 0.  1.
</event>
<event>
 5   0  0.2871888E-05  0.2280620E+04  0.7818609E-02  0.8485602E-01
       -2   -1    0    0    0  501  0.00000000000E+00  0.00000000000E+00  0.99590567459E+03  0.99590567460E+03  0.25500000920E-02 0.  1.
        2   -1    0    0  501    0  0.00000000000E+00  0.00000000000E+00 -0.13056523254E+04  0.13056523254E+04  0.25500000920E-02 0. -1.
    10030    2    1    2    0    0  0.00000000000E+00  0.00000000000E+00 -0.30974665076E+03  0.23015580000E+04  0.22806197051E+04 0.  0.
        3    1    3    3  502    0 -0.96979405536E+02 -0.77462265039E+02  0.98906842016E+03  0.99682584114E+03  0.10100000352E+00 0.  1.
       -3    1    3    3    0  502  0.96979405536E+02  0.77462265039E+02 -0.12988150709E+04  0.13047321588E+04  0.10100000352E+00 0. -1.
</event>
<event>
 5   0  0.2816178E-05  0.2284583E+04  0.7818609E-02  0.8484025E-01
       -2   -1    0    0    0  501  0.00000000000E+00  0.00000000000E+00  0.90032950232E+03  0.90032950232E+03  0.25500000920E-02 0.  1.
        2   -1    0    0  501    0  0.00000000000E+00  0.00000000000E+00 -0.14492808816E+04  0.14492808816E+04  0.25500000920E-02 0. -1.
    10030    2    1    2    0    0  0.00000000000E+00  0.00000000000E+00 -0.54895137926E+03  0.23496103839E+04  0.22845834061E+04 0.  0.
        1    1    3    3  502    0  0.58111200601E+03 -0.34047841042E+03 -0.12233487522E+04  0.13964952134E+04  0.50400001928E-02 0. -1.
       -1    1    3    3    0  502 -0.58111200601E+03  0.34047841042E+03  0.67439737298E+03  0.95311517048E+03  0.50400001928E-02 0.  1.
</event>
<event>
 5   0  0.2910126E-05  0.2308810E+04  0.7818609E-02  0.8474456E-01
       -2   -1    0    0    0  501  0.00000000000E+00  0.00000000000E+00  0.46582855067E+03  0.46582855068E+03  0.25500000920E-02 0. -1.
        2   -1    0    0  501    0  0.00000000000E+00  0.00000000000E+00 -0.28608181680E+04  0.28608181680E+04  0.25500000920E-02 0.  1.
    10030    2    1    2    0    0  0.00000000000E+00  0.00000000000E+00 -0.23949896173E+04  0.33266467187E+04  0.23088098934E+04 0.  0.
        5    1    3    3  502    0 -0.37383455091E+03 -0.10841458109E+04 -0.13881245396E+04  0.18005655329E+04  0.46999998093E+01 0.  1.
       -5    1    3    3    0  502  0.37383455091E+03  0.10841458109E+04 -0.10068650777E+04  0.15260811858E+04  0.46999998093E+01 0. -1.
</event>
<event>
 5   0  0.1371753E-05  0.2293617E+04  0.7818609E-02  0.8480442E-01
       -1   -1    0    0    0  501  0.00000000000E+00  0.00000000000E+00  0.65401551748E+03  0.65401551750E+03  0.50400001928E-02 0. -1.
        1   -1    0    0  501    0  0.00000000000E+00  0.00000000000E+00 -0.20109150002E+04  0.20109150002E+04  0.50400001928E-02 0.  1.
    10030    2    1    2    0    0  0.00000000000E+00  0.00000000000E+00 -0.13568994827E+04  0.26649305177E+04  0.22936168943E+04 0.  0.
        3    1    3    3  502    0 -0.53300212348E+03  0.50825242691E+03  0.34292876209E+03  0.81241118848E+03  0.10100000352E+00 0. -1.
       -3    1    3    3    0  502  0.53300212348E+03 -0.50825242691E+03 -0.16998282448E+04  0.18525193292E+04  0.10100000352E+00 0.  1.
</event>
<event>
 5   0  0.2938972E-05  0.2292940E+04  0.7818609E-02  0.8480710E-01
        2   -1    0    0  501    0  0.00000000000E+00  0.00000000000E+00  0.10086665222E+04  0.10086665222E+04  0.25500000920E-02 0.  1.
       -2   -1    0    0    0  501  0.00000000000E+00  0.00000000000E+00 -0.13030996883E+04  0.13030996883E+04  0.25500000920E-02 0. -1.
    10030    2    1    2    0    0  0.00000000000E+00  0.00000000000E+00 -0.29443316613E+03  0.23117662106E+04  0.22929396248E+04 0.  0.
        2    1    3    3  502    0  0.78792074632E+02 -0.10357576676E+04  0.34193799346E+03  0.10935829773E+04  0.25500000920E-02 0.  1.
       -2    1    3    3    0  502 -0.78792074632E+02  0.10357576676E+04 -0.63637115959E+03  0.12181832332E+04  0.25500000920E-02 0. -1.
</event>
<event>
 5   0  0.1327820E-05  0.2280771E+04  0.7818609E-02  0.8485541E-01
       -1   -1    0    0    0  501  0.00000000000E+00  0.00000000000E+00  0.12246426264E+04  0.12246426264E+04  0.50400001928E-02 0.  1.
        1   -1    0    0  501    0  0.00000000000E+00  0.00000000000E+00 -0.10619256921E+04  0.10619256921E+04  0.50400001928E-02 0. -1.
    10030    2    1    2    0    0  0.00000000000E+00  0.00000000000E+00  0.16271693428E+03  0.22865683185E+04  0.22807713332E+04 0.  0.
        1    1    3    3  502    0  0.42372179973E+03 -0.96633556413E+03 -0.35233193450E+03  0.11124218526E+04  0.50400001928E-02 0. -1.
       -1    1    3    3    0  502 -0.42372179973E+03  0.96633556413E+03  0.51504886878E+03  0.11741464659E+04  0.50400001928E-02 0.  1.
</event>
<event>
 5   0  0.2871888E-05  0.2296310E+04  0.7818609E-02  0.8479378E-01
        2   -1    0    0  501    0  0.00000000000E+00  0.00000000000E+00  0.83475173258E+03  0.83475173258E+03  0.25500000920E-02 0.  1.
       -2   -1    0    0    0  501  0.00000000000E+00  0.00000000000E+00 -0.15792235820E+04  0.15792235820E+04  0.25500000920E-02 0. -1.
    10030    2    1    2    0    0  0.00000000000E+00  0.00000000000E+00 -0.74447184939E+03  0.24139753145E+04  0.22963097537E+04 0.  0.
        3    1    3    3  502    0  0.10090813687E+04 -0.48579094214E+03 -0.63822603539E+03  0.12890192126E+04  0.10100000352E+00 0.  1.
       -3    1    3    3    0  502 -0.10090813687E+04  0.48579094214E+03 -0.10624581400E+03  0.11249561019E+04  0.10100000352E+00 0. -1.
</event>
<event>
 5   0  0.2938972E-05  0.2317507E+04  0.7818609E-02  0.8471050E-01
       -2   -1    0    0    0  501  0.00000000000E+00  0.00000000000E+00  0.84715175600E+03  0.84715175600E+03  0.25500000920E-02 0. -1.
        2   -1    0    0  501    0  0.00000000000E+00  0.00000000000E+00 -0.15849693701E+04  0.15849693701E+04  0.25500000920E-02 0.  1.
    10030    2    1    2    0    0  0.00000000000E+00  0.00000000000E+00 -0.73781761411E+03  0.24321211261E+04  0.23175069235E+04 0.  0.
        2    1    3    3  502    0  0.52610919735E+03  0.10308228738E+04 -0.30841334118E+03  0.11977084260E+04  0.25500000920E-02 0.  1.
       -2    1    3    3    0  502 -0.52610919735E+03 -0.10308228738E+04 -0.42940427293E+03  0.12344127001E+04  0.25500000920E-02 0. -1.
</event>
<event>
 5   0  0.1327820E-05  0.2322483E+04  0.7818609E-02  0.8469109E-01
        1   -1    0    0  501    0  0.00000000000E+00  0.00000000000E+00  0.14100808274E+04  0.14100808275E+04  0.50400001928E-02 0. -1.
       -1   -1    0    0    0  501  0.00000000000E+00  0.00000000000E+00 -0.95631542295E+03  0.95631542297E+03  0.50400001928E-02 0.  1.
    10030    2    1    2    0    0  0.00000000000E+00  0.00000000000E+00  0.45376540449E+03  0.23663962504E+04  0.23224831908E+04 0.  0.
        1    1    3    3  502    0 -0.32837271444E+03  0.24207127497E+03  0.13346631946E+04  0.13956192120E+04  0.50400001928E-02 0. -1.
       -1    1    3    3    0  502  0.32837271444E+03 -0.24207127497E+03 -0.88089779011E+03  0.97077703846E+03  0.50400001928E-02 0.  1.
</event>
<event>
 5   0  0.2910126E-05  0.2263111E+04  0.7818609E-02  0.8492609E-01
        2   -1    0    0  501    0  0.00000000000E+00  0.00000000000E+00  0.15149642224E+04  0.15149642224E+04  0.25500000920E-02 0.  1.
       -2   -1    0    0    0  501  0.00000000000E+00  0.00000000000E+00 -0.84518060508E+03  0.84518060509E+03  0.25500000920E-02 0. -1.
    10030    2    1    2    0    0  0.00000000000E+00  0.00000000000E+00  0.66978361732E+03  0.23601448275E+04  0.22631114671E+04 0.  0.
        5    1    3    3  502    0 -0.11530807046E+03  0.22347776433E+03 -0.81566003358E+03  0.85355822452E+03  0.46999998093E+01 0. -1.
       -5    1    3    3    0  502  0.11530807046E+03 -0.22347776433E+03  0.14854436509E+04  0.15065866030E+04  0.46999998093E+01 0.  1.
</event>
<event>
 5   0  0.2938972E-05  0.2307800E+04  0.7818609E-02  0.8474852E-01
        2   -1    0    0  501    0  0.00000000000E+00  0.00000000000E+00  0.12434591813E+04  0.12434591813E+04  0.25500000920E-02 0. -1.
       -2   -1    0    0    0  501  0.00000000000E+00  0.00000000000E+00 -0.10707916796E+04  0.10707916796E+04  0.25500000920E-02 0.  1.
    10030    2    1    2    0    0  0.00000000000E+00  0.00000000000E+00  0.17266750170E+03  0.23142508609E+04  0.23078004639E+04 0.  0.
        2    1    3    3  502    0  0.94742052245E+03 -0.56128822329E+03  0.43202271306E+03  0.11829174699E+04  0.25500000920E-02 0.  1.
       -2    1    3    3    0  502 -0.94742052245E+03  0.56128822329E+03 -0.25935521136E+03  0.11313333910E+04  0.25500000920E-02 0. -1.
</event>
<event>
 5   0  0.2910126E-05  0.2334741E+04  0.7818609E-02  0.8464348E-01
        2   -1    0    0  501    0  0.00000000000E+00  0.00000000000E+00  0.21074608200E+04  0.21074608200E+04  0.25500000920E-02 0.  1.
       -2   -1    0    0    0  501  0.00000000000E+00  0.00000000000E+00 -0.64663307704E+03  0.64663307704E+03  0.25500000920E-02 0. -1.
    10030    2    1    2    0    0  0.00000000000E+00  0.00000000000E+00  0.14608277430E+04  0.27540938971E+04  0.23347409919E+04 0.  0.
        5    1    3    3  502    0  0.22053163309E+01 -0.11509303720E+03  0.21007381217E+04  0.21038949633E+04  0.46999998093E+01 0.  1.
       -5    1    3    3    0  502 -0.22053163309E+01  0.11509303720E+03 -0.63991037873E+03  0.65019893374E+03  0.46999998093E+01 0. -1.
</event>
<event>
 5   0  0.1327820E-05  0.2313894E+04  0.7818609E-02  0.8472463E-01
       -1   -1    0    0    0  501  0.00000000000E+00  0.00000000000E+00  0.93632225867E+03  0.93632225868E+03  0.50400001928E-02 0. -1.
        1   -1    0    0  501    0  0.00000000000E+00  0.00000000000E+00 -0.14295578427E+04  0.14295578427E+04  0.50400001928E-02 0.  1.
    10030    2    1    2    0    0  0.00000000000E+00  0.00000000000E+00 -0.49323558400E+03  0.23658801014E+04  0.23138944040E+04 0.  0.
        1    1    3    3  502    0 -0.97960877102E+03 -0.55053473176E+03 -0.52813056311E+03  0.12416294644E+04  0.50400001928E-02 0. -1.
       -1    1    3    3    0  502  0.97960877102E+03  0.55053473176E+03  0.34894979107E+02  0.11242506370E+04  0.50400001928E-02 0.  1.
</event>
<event>
 5   0  0.2994157E-05  0.2285643E+04  0.7818609E-02  0.8483604E-01
       -2   -1    0    0    0  501  0.00000000000E+00  0.00000000000E+00  0.84465883905E+03  0.84465883905E+03  0.25500000920E-02 0. -1.
        2   -1    0    0  501    0  0.00000000000E+00  0.00000000000E+00 -0.15462343777E+04  0.15462343777E+04  0.25500000920E-02 0.  1.
    10030    2    1    2    0    0  0.00000000000E+00  0.00000000000E+00 -0.70157553861E+03  0.23908932167E+04  0.22856426093E+04 0.  0.
        4    1    3    3  502    0  0.52019896263E+03  0.11855384408E+03 -0.14079578947E+04  0.15056589988E+04  0.12699999809E+01 0.  1.
       -4    1    3    3    0  502 -0.52019896263E+03 -0.11855384408E+03  0.70638235606E+03  0.88523421789E+03  0.12699999809E+01 0. -1.
</event>
<event>
 5   0  0.2871888E-05  0.2161146E+04  0.7818609E-02  0.8534776E-01
        2   -1    0    0  501    0  0.00000000000E+00  0.00000000000E+00  0.11929865716E+04  0.11929865716E+04  0.25500000920E-02 0. -1.
       -2   -1    0    0    0  501  0.00000000000E+00  0.00000000000E+00 -0.97875230036E+03  0.97875230036E+03  0.25500000920E-02 0.  1.
    10030    2    1    2    0    0  0.00000000000E+00  0.00000000000E+00  0.21423427122E+03  0.21717388719E+04  0.21611463173E+04 0.  0.
        3    1    3    3  502    0  0.96795541254E+03  0.47030752570E+03  0.91122448018E+01  0.10762016041E+04  0.10100000352E+00 0. -1.
       -3    1    3    3    0  502 -0.96795541254E+03 -0.47030752570E+03  0.20512202642E+03  0.10955372679E+04  0.10100000352E+00 0.  1.
</event>
<event>
 5   0  0.2910126E-05  0.2274490E+04  0.7818609E-02  0.8488048E-01
       -2   -1    0    0    0  501  0.00000000000E+00  0.00000000000E+00  0.89552368334E+03  0.89552368334E+03  0.25500000920E-02 0. -1.
        2   -1    0    0  501    0  0.00000000000E+00  0.00000000000E+00 -0.14442121471E+04  0.14442121471E+04  0.25500000920E-02 0.  1.
    10030    2    1    2    0    0  0.00000000000E+00  0.00000000000E+00 -0.54868846377E+03  0.23397358304E+04  0.22744899925E+04 0.  0.
        5    1    3    3  502    0  0.94528570975E+03  0.31257079671E+03 -0.83968975714E+03  0.13024463729E+04  0.46999998093E+01 0.  1.
       -5    1    3    3    0  502 -0.94528570975E+03 -0.31257079671E+03  0.29100129337E+03  0.10372894576E+04  0.46999998093E+01 0. -1.
</event>
<event>
 5   0  0.2871888E-05  0.2305655E+04  0.7818609E-02  0.8475695E-01
        2   -1    0    0  501    0  0.00000000000E+00  0.00000000000E+00  0.13142319579E+04  0.13142319579E+04  0.25500000920E-02 0.  1.
       -2   -1    0    0    0  501  0.00000000000E+00  0.00000000000E+00 -0.10112451767E+04  0.10112451767E+04  0.25500000920E-02 0. -1.
    10030    2    1    2    0    0  0.00000000000E+00  0.00000000000E+00  0.30298678114E+03  0.23254771346E+04  0.23056545522E+04 0.  0.
        3    1    3    3  502    0 -0.16911446748E+03 -0.76827293767E+03  0.10014530132E+04  0.12734799400E+04  0.10100000352E+00 0.  1.
       -3    1    3    3    0  502  0.16911446748E+03  0.76827293767E+03 -0.69846623202E+03  0.10519971946E+04  0.10100000352E+00 0. -1.
</event>
<event>
 5   0  0.1371753E-05  0.2347010E+04  0.7818609E-02  0.8459613E-01
       -1   -1    0    0    0  501  0.00000000000E+00  0.00000000000E+00  0.29881409966E+04  0.29881409966E+04  0.50400001928E-02 0.  1.
        1   -1    0    0  501    0  0.00000000000E+00  0.00000000000E+00 -0.46085958807E+03  0.46085958810E+03  0.50400001928E-02 0. -1.
    10030    2    1    2    0    0  0.00000000000E+00  0.00000000000E+00  0.25272814085E+04  0.34490005847E+04  0.23470095260E+04 0.  0.
        3    1    3    3  502    0  0.49622182509E+03  0.55288153408E+03 -0.71287314489E+02  0.74632163431E+03  0.10100000352E+00 0. -1.
       -3    1    3    3    0  502 -0.49622182509E+03 -0.55288153408E+03  0.25985687230E+04  0.27026789504E+04  0.10100000352E+00 0.  1.
</event>
<event>
 5   0  0.1371753E-05  0.2282151E+04  0.7818609E-02  0.8484992E-01
       -1   -1    0    0    0  501  0.00000000000E+00  0.00000000000E+00  0.10838006779E+04  0.10838006779E+04  0.50400001928E-02 0. -1.
        1   -1    0    0  501    0  0.00000000000E+00  0.00000000000E+00 -0.12013775269E+04  0.12013775269E+04  0.50400001928E-02 0.  1.
    10030    2    1    2    0    0  0.00000000000E+00  0.00000000000E+00 -0.11757684900E+03  0.22851782047E+04  0.22821514218E+04 0.  0.
        3    1    3    3  502    0 -0.22913486854E+03  0.55012488979E+03  0.91559702565E+03  0.10924550819E+04  0.10100000352E+00 0. -1.
       -3    1    3    3    0  502  0.22913486854E+03 -0.55012488979E+03 -0.10331738747E+04  0.11927231229E+04  0.10100000352E+00 0.  1.
</event>
<event>
 5   0  0.2994157E-05  0.2317981E+04  0.7818609E-02  0.8470865E-01
       -2   -1    0    0    0  501  0.00000000000E+00  0.00000000000E+00  0.70478711950E+03  0.70478711950E+03  0.25500000920E-02 0.  1.
        2   -1    0    0  501    0  0.00000000000E+00  0.00000000000E+00 -0.19059082059E+04  0.19059082059E+04  0.25500000920E-02 0. -1.
    10030    2    1    2    0    0  0.00000000000E+00  0.00000000000E+00 -0.12011210864E+04  0.26106953254E+04  0.23179814964E+04 0.  0.
        4    1    3    3  502    0  0.87693126027E+03 -0.72204507623E+03 -0.85960587059E+03  0.14245284809E+04  0.12699999809E+01 0. -1.
       -4    1    3    3    0  502 -0.87693126027E+03  0.72204507623E+03 -0.34151521580E+03  0.11861668444E+04  0.12699999809E+01 0.  1.
</event>
<event>
 5   0  0.1308224E-05  0.2310880E+04  0.7818609E-02  0.8473644E-01
       -1   -1    0    0    0  501  0.00000000000E+00  0.00000000000E+00  0.89407951238E+03  0.89407951240E+03  0.50400001928E-02 0.  1.
        1   -1    0    0  501    0  0.00000000000E+00  0.00000000000E+00 -0.14932021061E+04  0.14932021061E+04  0.50400001928E-02 0. -1.
    10030    2    1    2    0    0  0.00000000000E+00  0.00000000000E+00 -0.59912259376E+03  0.23872816185E+04  0.23108798419E+04 0.  0.
        5    1    3    3  502    0  0.10046509028E+04  0.51892534252E+03 -0.54195809532E+02  0.11320628178E+04  0.46999998093E+01 0. -1.
       -5    1    3    3    0  502 -0.10046509028E+04 -0.51892534252E+03 -0.54492678423E+03  0.12552188008E+04  0.46999998093E+01 0.  1.
</event>
<event>
 5   0  0.1308224E-05  0.2295596E+04  0.7818609E-02  0.8479659E-01
       -1   -1    0    0    0  501  0.00000000000E+00  0.00000000000E+00  0.50643430792E+03  0.50643430794E+03  0.50400001928E-02 0. -1.
        1   -1    0    0  501    0  0.00000000000E+00  0.00000000000E+00 -0.26014045367E+04  0.26014045367E+04  0.50400001928E-02 0.  1.
    10030    2    1    2    0    0  0.00000000000E+00  0.00000000000E+00 -0.20949702287E+04  0.31078388446E+04  0.22955962242E+04 0.  0.
        5    1    3    3  502    0  0.22879009577E+03 -0.11102414171E+04 -0.80365535844E+03  0.13895556618E+04  0.46999998093E+01 0.  1.
       -5    1    3    3    0  502 -0.22879009577E+03  0.11102414171E+04 -0.12913148703E+04  0.17182831828E+04  0.46999998093E+01 0. -1.
</event>
<event>
 5   0  0.1017200E-05  0.2313479E+04  0.7818609E-02  0.8472625E-01
       -3   -1    0    0    0  501  0.00000000000E+00  0.00000000000E+00  0.11012464187E+04  0.11012464233E+04  0.10100000352E+00 0.  1.
        3   -1    0    0  501    0  0.00000000000E+00  0.00000000000E+00 -0.12150289880E+04  0.12150289922E+04  0.10100000352E+00 0. -1.
    10030    2    1    2    0    0  0.00000000000E+00  0.00000000000E+00 -0.11378256931E+03  0.23162754155E+04  0.23134790527E+04 0.  0.
        5    1    3    3  502    0  0.33513452028E+03  0.99351748749E+03  0.43219902152E+03  0.11341120883E+04  0.46999998093E+01 0.  1.
       -5    1    3    3    0  502 -0.33513452028E+03 -0.99351748749E+03 -0.54598159083E+03  0.11821633272E+04  0.46999998093E+01 0. -1.
</event>
<event>
 5   0  0.1371753E-05  0.2293130E+04  0.7818609E-02  0.8480635E-01
       -1   -1    0    0    0  501  0.00000000000E+00  0.00000000000E+00  0.10423622777E+04  0.10423622778E+04  0.50400001928E-02 0.  1.
        1   -1    0    0  501    0  0.00000000000E+00  0.00000000000E+00 -0.12611843349E+04  0.12611843349E+04  0.50400001928E-02 0. -1.
    10030    2    1    2    0    0  0.00000000000E+00  0.00000000000E+00 -0.21882205718E+03  0.23035466127E+04  0.22931297181E+04 0.  0.
        3    1    3    3  502    0  0.39020824199E+03  0.23559389839E+03  0.94743468753E+03  0.10513797860E+04  0.10100000352E+00 0.  1.
       -3    1    3    3    0  502 -0.39020824199E+03 -0.23559389839E+03 -0.11662567447E+04  0.12521668267E+04  0.10100000352E+00 0. -1.
</event>
<event>
 5   0  0.2816178E-05  0.2302176E+04  0.7818609E-02  0.8477064E-01
        2   -1    0    0  501    0  0.00000000000E+00  0.00000000000E+00  0.27593820363E+04  0.27593820363E+04  0.25500000920E-02 0. -1.
       -2   -1    0    0    0  501  0.00000000000E+00  0.00000000000E+00 -0.48018115183E+03  0.48018115184E+03  0.25500000920E-02 0.  1.
    10030    2    1    2    0    0  0.00000000000E+00  0.00000000000E+00  0.22792008845E+04  0.32395631881E+04  0.23021757053E+04 0.  0.
        1    1    3    3  502    0  0.10764888429E+04  0.26721093222E+03  0.15728030545E+04  0.19245621215E+04  0.50400001928E-02 0. -1.
       -1    1    3    3    0  502 -0.10764888429E+04 -0.26721093222E+03  0.70639782992E+03  0.13150010666E+04  0.50400001928E-02 0.  1.
</event>
<event>
 5   0  0.1303224E-05  0.2294751E+04  0.7818609E-02  0.8479994E-01
       -1   -1    0    0    0  501  0.00000000000E+00  0.00000000000E+00  0.18963572836E+04  0.18963572836E+04  0.50400001928E-02 0. -1.
        1   -1    0    0  501    0  0.00000000000E+00  0.00000000000E+00 -0.69421011885E+03  0.69421011887E+03  0.50400001928E-02 0.  1.
    10030    2    1    2    0    0  0.00000000000E+00  0.00000000000E+00  0.12021471648E+04  0.25905674025E+04  0.22947508931E+04 0.  0.
        2    1    3    3  502    0 -0.42529071792E+03 -0.58444820609E+03  0.16070195721E+04  0.17620907483E+04  0.25500000920E-02 0. -1.
       -2    1    3    3    0  502  0.42529071792E+03  0.58444820609E+03 -0.40487240728E+03  0.82847665419E+03  0.25500000920E-02 0.  1.
</event>
<event>
 5   0  0.1371753E-05  0.2297592E+04  0.7818609E-02  0.8478871E-01
       -1   -1    0    0    0  501  0.00000000000E+00  0.00000000000E+00  0.11190899333E+04  0.11190899333E+04  0.50400001928E-02 0. -1.
        1   -1    0    0  501    0  0.00000000000E+00  0.00000000000E+00 -0.11792906999E+04  0.11792906999E+04  0.50400001928E-02 0.  1.
    10030    2    1    2    0    0  0.00000000000E+00  0.00000000000E+00 -0.60200766601E+02  0.22983806333E+04  0.22975920880E+04 0.  0.
        3    1    3    3  502    0 -0.92340617651E+03 -0.46793660234E+03  0.46815560487E+03  0.11361396530E+04  0.10100000352E+00 0. -1.
       -3    1    3    3    0  502  0.92340617651E+03  0.46793660234E+03 -0.52835637147E+03  0.11622409802E+04  0.10100000352E+00 0.  1.
</event>
<event>
 5   0  0.1303224E-05  0.2311115E+04  0.7818609E-02  0.8473551E-01
       -1   -1    0    0    0  501  0.00000000000E+00  0.00000000000E+00  0.12172602296E+04  0.12172602296E+04  0.50400001928E-02 0. -1.
        1   -1    0    0  501    0  0.00000000000E+00  0.00000000000E+00 -0.10969826956E+04  0.10969826956E+04  0.50400001928E-02 0.  1.
    10030    2    1    2    0    0  0.00000000000E+00  0.00000000000E+00  0.12027753404E+03  0.23142429252E+04  0.23111152355E+04 0.  0.
        2    1    3    3  502    0 -0.60117815382E+03  0.60698628173E+03  0.83930869847E+03  0.11976170549E+04  0.25500000920E-02 0. -1.
       -2    1    3    3    0  502  0.60117815382E+03 -0.60698628173E+03 -0.71903116443E+03  0.11166258703E+04  0.25500000920E-02 0.  1.
</event>
<event>
 5   0  0.1371753E-05  0.2304837E+04  0.7818609E-02  0.8476016E-01
        1   -1    0    0  501    0  0.00000000000E+00  0.00000000000E+00  0.95059902196E+03  0.95059902198E+03  0.50400001928E-02 0.  1.
       -1   -1    0    0    0  501  0.00000000000E+00  0.00000000000E+00 -0.13970858720E+04  0.13970858720E+04  0.50400001928E-02 0. -1.
    10030    2    1    2    0    0  0.00000000000E+00  0.00000000000E+00 -0.44648685004E+03  0.23476848940E+04  0.23048370559E+04 0.  0.
        3    1    3    3  502    0 -0.28695483681E+03  0.43913061773E+03  0.82193638411E+03  0.97506830916E+03  0.10100000352E+00 0.  1.
       -3    1    3    3    0  502  0.28695483681E+03 -0.43913061773E+03 -0.12684232342E+04  0.13726165848E+04  0.10100000352E+00 0. -1.
</event>
<event>
 5   0  0.2910126E-05  0.2295012E+04  0.7818609E-02  0.8479890E-01
        2   -1    0    0  501    0  0.00000000000E+00  0.00000000000E+00  0.22731916044E+04  0.22731916044E+04  0.25500000920E-02 0.  1.
       -2   -1    0    0    0  501  0.00000000000E+00  0.00000000000E+00 -0.57926053538E+03  0.57926053538E+03  0.25500000920E-02 0. -1.
    10030    2    1    2    0    0  0.00000000000E+00  0.00000000000E+00  0.16939310690E+04  0.28524521398E+04  0.22950121444E+04 0.  0.
        5    1    3    3  502    0 -0.93297740538E+03 -0.25146874200E+03  0.16162189992E+04  0.18830478779E+04  0.46999998093E+01 0.  1.
       -5    1    3    3    0  502  0.93297740538E+03  0.25146874200E+03  0.77712069840E+02  0.96940426188E+03  0.46999998093E+01 0. -1.
</event>
<event>
 5   0  0.2816178E-05  0.2298692E+04  0.7818609E-02  0.8478437E-01
       -2   -1    0    0    0  501  0.00000000000E+00  0.00000000000E+00  0.10756564447E+04  0.10756564447E+04  0.25500000920E-02 0.  1.
        2   -1    0    0  501    0  0.00000000000E+00  0.00000000000E+00 -0.12280833585E+04  0.12280833585E+04  0.25500000920E-02 0. -1.
    10030    2    1    2    0    0  0.00000000000E+00  0.00000000000E+00 -0.15242691384E+03  0.23037398032E+04  0.22986916098E+04 0.  0.
        1    1    3    3  502    0  0.10397279941E+04  0.12052847493E+03 -0.55205545956E+03  0.11833539815E+04  0.50400001928E-02 0. -1.
       -1    1    3    3    0  502 -0.10397279941E+04 -0.12052847493E+03  0.39962854572E+03  0.11203858218E+04  0.50400001928E-02 0.  1.
</event>
<event>
 5   0  0.1327820E-05  0.2341019E+04  0.7818609E-02  0.8461921E-01
        1   -1    0    0  501    0  0.00000000000E+00  0.00000000000E+00  0.94580195049E+03  0.94580195050E+03  0.50400001928E-02 0.  1.
       -1   -1    0    0    0  501  0.00000000000E+00  0.00000000000E+00 -0.14486037551E+04  0.14486037551E+04  0.50400001928E-02 0. -1.
    10030    2    1    2    0    0  0.00000000000E+00  0.00000000000E+00 -0.50280180457E+03  0.23944057056E+04  0.23410188013E+04 0.  0.
        1    1    3    3  502    0  0.94624741419E+03 -0.96044864315E+02 -0.94922340437E+03  0.13437387604E+04  0.50400001928E-02 0. -1.
       -1    1    3    3    0  502 -0.94624741419E+03  0.96044864315E+02  0.44642159980E+03  0.10506669451E+04  0.50400001928E-02 0.  1.
</event>
<event>
 5   0  0.2938972E-05  0.2284933E+04  0.7818609E-02  0.8483886E-01
        2   -1    0    0  501    0  0.00000000000E+00  0.00000000000E+00  0.16347420108E+04  0.16347420108E+04  0.25500000920E-02 0.  1.
       -2   -1    0    0    0  501  0.00000000000E+00  0.00000000000E+00 -0.79843162061E+03  0.79843162061E+03  0.25500000920E-02 0. -1.
    10030    2    1    2    0    0  0.00000000000E+00  0.00000000000E+00  0.83631039015E+03  0.24331736314E+04  0.22849330082E+04 0.  0.
        2    1    3    3  502    0  0.59556394070E+03 -0.91838145130E+03  0.76666278262E+03  0.13363729718E+04  0.25500000920E-02 0. -1.
       -2    1    3    3    0  502 -0.59556394070E+03  0.91838145130E+03  0.69647607527E+02  0.10968006596E+04  0.25500000920E-02 0.  1.
</event>
<event>
 5   0  0.2910126E-05  0.2245584E+04  0.7818609E-02  0.8499691E-01
        2   -1    0    0  501    0  0.00000000000E+00  0.00000000000E+00  0.30587229343E+04  0.30587229343E+04  0.25500000920E-02 0.  1.
       -2   -1    0    0    0  501  0.00000000000E+00  0.00000000000E+00 -0.41215298044E+03  0.41215298045E+03  0.25500000920E-02 0. -1.
    10030    2    1    2    0    0  0.00000000000E+00  0.00000000000E+00  0.26465699539E+04  0.34708759148E+04  0.22455839096E+04 0.  0.
        5    1    3    3  502    0 -0.16906829306E+03 -0.10647435406E+04  0.83849222144E+03  0.13657797005E+04  0.46999998093E+01 0.  1.
       -5    1    3    3    0  502  0.16906829306E+03  0.10647435406E+04  0.18080777324E+04  0.21050962143E+04  0.46999998093E+01 0. -1.
</event>
<event>
 5   0  0.1303224E-05  0.2317125E+04  0.7818609E-02  0.8471199E-01
       -1   -1    0    0    0  501  0.00000000000E+00  0.00000000000E+00  0.55431903635E+03  0.55431903637E+03  0.50400001928E-02 0. -1.
        1   -1    0    0  501    0  0.00000000000E+00  0.00000000000E+00 -0.24214705001E+04  0.24214705001E+04  0.50400001928E-02 0.  1.
    10030    2    1    2    0    0  0.00000000000E+00  0.00000000000E+00 -0.18671514638E+04  0.29757895365E+04  0.23171251103E+04 0.  0.
        2    1    3    3  502    0  0.47514606205E+01 -0.79283338900E+03 -0.20184973334E+04  0.21686260268E+04  0.25500000920E-02 0.  1.
       -2    1    3    3    0  502 -0.47514606205E+01  0.79283338900E+03  0.15134586966E+03  0.80716350968E+03  0.25500000920E-02 0. -1.
</event>
<event>
 5   0  0.2938972E-05  0.2333766E+04  0.7818609E-02  0.8464725E-01
        2   -1    0    0  501    0  0.00000000000E+00  0.00000000000E+00  0.10272374978E+04  0.10272374978E+04  0.25500000920E-02 0. -1.
       -2   -1    0    0    0  501  0.00000000000E+00  0.00000000000E+00 -0.13255122578E+04  0.13255122578E+04  0.25500000920E-02 0.  1.
    10030    2    1    2    0    0  0.00000000000E+00  0.00000000000E+00 -0.29827475995E+03  0.23527497556E+04  0.23337659651E+04 0.  0.
        2    1    3    3  502    0 -0.76075886844E+03  0.82496960287E+03 -0.47156233039E+03  0.12172509737E+04  0.25500000920E-02 0.  1.
       -2    1    3    3    0  502  0.76075886844E+03 -0.82496960287E+03  0.17328757044E+03  0.11354987819E+04  0.25500000920E-02 0. -1.
</event>
<event>
 5   0  0.2871888E-05  0.2312479E+04  0.7818609E-02  0.8473017E-01
        2   -1    0    0  501    0  0.00000000000E+00  0.00000000000E+00  0.13020049682E+04  0.13020049682E+04  0.25500000920E-02 0. -1.
       -2   -1    0    0    0  501  0.00000000000E+00  0.00000000000E+00 -0.10267932244E+04  0.10267932244E+04  0.25500000920E-02 0.  1.
    10030    2    1    2    0    0  0.00000000000E+00  0.00000000000E+00  0.27521174381E+03  0.23287981925E+04  0.23124790848E+04 0.  0.
        3    1    3    3  502    0 -0.10721302535E+04 -0.27970042848E+03  0.47038336421E+03  0.12037259363E+04  0.10100000352E+00 0.  1.
       -3    1    3    3    0  502  0.10721302535E+04  0.27970042848E+03 -0.19517162040E+03  0.11250722563E+04  0.10100000352E+00 0. -1.
</event>
<event>
 5   0  0.1017200E-05  0.2311001E+04  0.7818609E-02  0.8473596E-01
       -3   -1    0    0    0  501  0.00000000000E+00  0.00000000000E+00  0.16931250259E+04  0.16931250289E+04  0.10100000352E+00 0. -1.
        3   -1    0    0  501    0  0.00000000000E+00  0.00000000000E+00 -0.78859008472E+03  0.78859009118E+03  0.10100000352E+00 0.  1.
    10030    2    1    2    0    0  0.00000000000E+00  0.00000000000E+00  0.90453494121E+03  0.24817151201E+04  0.23110011851E+04 0.  0.
        1    1    3    3  502    0  0.43974381130E+03 -0.32819881106E+03 -0.63975471371E+03  0.84283757208E+03  0.50400001928E-02 0.  1.
       -1    1    3    3    0  502 -0.43974381130E+03  0.32819881106E+03  0.15442896549E+04  0.16388775480E+04  0.50400001928E-02 0. -1.
</event>
<event>
 5   0  0.1308224E-05  0.2318782E+04  0.7818609E-02  0.8470552E-01
        1   -1    0    0  501    0  0.00000000000E+00  0.00000000000E+00  0.21213287217E+04  0.21213287217E+04  0.50400001928E-02 0.  1.
       -1   -1    0    0    0  501  0.00000000000E+00  0.00000000000E+00 -0.63365378401E+03  0.63365378403E+03  0.50400001928E-02 0. -1.
    10030    2    1    2    0    0  0.00000000000E+00  0.00000000000E+00  0.14876749377E+04  0.27549825058E+04  0.23187824147E+04 0.  0.
        5    1    3    3  502    0 -0.10914939625E+04 -0.31965228620E+03  0.10111747321E+04  0.15218518598E+04  0.46999998093E+01 0. -1.
       -5    1    3    3    0  502  0.10914939625E+04  0.31965228620E+03  0.47650020558E+03  0.12331306460E+04  0.46999998093E+01 0.  1.
</event>
<event>
 5   0  0.2816178E-05  0.2307397E+04  0.7818609E-02  0.8475010E-01
        2   -1    0    0  501    0  0.00000000000E+00  0.00000000000E+00  0.67505354474E+03  0.67505354474E+03  0.25500000920E-02 0. -1.
       -2   -1    0    0    0  501  0.00000000000E+00  0.00000000000E+00 -0.19717258475E+04  0.19717258475E+04  0.25500000920E-02 0.  1.
    10030    2    1    2    0    0  0.00000000000E+00  0.00000000000E+00 -0.12966723028E+04  0.26467793922E+04  0.23073972546E+04 0.  0.
        1    1    3    3  502    0 -0.77866379109E+03  0.84825181251E+03 -0.56584103778E+03  0.12829748700E+04  0.50400001928E-02 0.  1.
       -1    1    3    3    0  502  0.77866379109E+03 -0.84825181251E+03 -0.73083126497E+03  0.13638045222E+04  0.50400001928E-02 0. -1.
</event>
<event>
 5   0  0.1284837E-05  0.2308309E+04  0.7818609E-02  0.8474652E-01
        1   -1    0    0  501    0  0.00000000000E+00  0.00000000000E+00  0.11463416327E+04  0.11463416327E+04  0.50400001928E-02 0. -1.
       -1   -1    0    0    0  501  0.00000000000E+00  0.00000000000E+00 -0.11620210002E+04  0.11620210002E+04  0.50400001928E-02 0.  1.
    10030    2    1    2    0    0  0.00000000000E+00  0.00000000000E+00 -0.15679367561E+02  0.23083626329E+04  0.23083093819E+04 0.  0.
        4    1    3    3  502    0 -0.53224884394E+03 -0.12120829993E+03 -0.10247658688E+04  0.11610887058E+04  0.12699999809E+01 0.  1.
       -4    1    3    3    0  502  0.53224884394E+03  0.12120829993E+03  0.10090865013E+04  0.11472739271E+04  0.12699999809E+01 0. -1.
</event>
<event>
 5   0  0.1303224E-05  0.2288541E+04  0.7818609E-02  0.8482453E-01
       -1   -1    0    0    0  501  0.00000000000E+00  0.00000000000E+00  0.66194537026E+03  0.66194537028E+03  0.50400001928E-02 0. -1.
        1   -1    0    0  501    0  0.00000000000E+00  0.00000000000E+00 -0.19780402592E+04  0.19780402592E+04  0.50400001928E-02 0.  1.
    10030    2    1    2    0    0  0.00000000000E+00  0.00000000000E+00 -0.13160948889E+04  0.26399856295E+04  0.22885406632E+04 0.  0.
        2    1    3    3  502    0  0.18701213242E+03  0.11226261991E+04 -0.79498453604E+03  0.13882591736E+04  0.25500000920E-02 0.  1.
       -2    1    3    3    0  502 -0.18701213242E+03 -0.11226261991E+04 -0.52111035291E+03  0.12517264559E+04  0.25500000920E-02 0. -1.
</event>
<event>
 5   0  0.2994157E-05  0.2281850E+04  0.7818609E-02  0.8485112E-01
        2   -1    0    0  501    0  0.00000000000E+00  0.00000000000E+00  0.15005393563E+04  0.15005393563E+04  0.25500000920E-02 0. -1.
       -2   -1    0    0    0  501  0.00000000000E+00  0.00000000000E+00 -0.86749501060E+03  0.86749501061E+03  0.25500000920E-02 0.  1.
    10030    2    1    2    0    0  0.00000000000E+00  0.00000000000E+00  0.63304434572E+03  0.23680343669E+04  0.22818504814E+04 0.  0.
        4    1    3    3  502    0 -0.71765707102E+03 -0.13733953972E+02  0.12368594336E+04  0.14300500566E+04  0.12699999809E+01 0. -1.
       -4    1    3    3    0  502  0.71765707102E+03  0.13733953972E+02 -0.60381508790E+03  0.93798431029E+03  0.12699999809E+01 0.  1.
</event>
<event>
 5   0  0.2938972E-05  0.2385938E+04  0.7818609E-02  0.8444787E-01
        2   -1    0    0  501    0  0.00000000000E+00  0.00000000000E+00  0.11147573704E+04  0.11147573704E+04  0.25500000920E-02 0.  1.
       -2   -1    0    0    0  501  0.00000000000E+00  0.00000000000E+00 -0.12766678344E+04  0.12766678344E+04  0.25500000920E-02 0. -1.
    10030    2    1    2    0    0  0.00000000000E+00  0.00000000000E+00 -0.16191046402E+03  0.23914252048E+04  0.23859378684E+04 0.  0.
        2    1    3    3  502    0  0.27838753271E+03  0.90259946572E+03 -0.81132136036E+03  0.12451617420E+04  0.25500000920E-02 0. -1.
       -2    1    3    3    0  502 -0.27838753271E+03 -0.90259946572E+03  0.64941089634E+03  0.11462634628E+04  0.25500000920E-02 0.  1.
</event>
<event>
 5   0  0.2871888E-05  0.2307182E+04  0.7818609E-02  0.8475095E-01
       -2   -1    0    0    0  501  0.00000000000E+00  0.00000000000E+00  0.15065576840E+04  0.15065576840E+04  0.25500000920E-02 0.  1.
        2   -1    0    0  501    0  0.00000000000E+00  0.00000000000E+00 -0.88331946145E+03  0.88331946145E+03  0.25500000920E-02 0. -1.
    10030    2    1    2    0    0  0.00000000000E+00  0.00000000000E+00  0.62323822256E+03  0.23898771455E+04  0.23071815898E+04 0.  0.
        3    1    3    3  502    0 -0.95519252750E+02  0.10729372909E+04 -0.11603886257E+03  0.10834128418E+04  0.10100000352E+00 0. -1.
       -3    1    3    3    0  502  0.95519252750E+02 -0.10729372909E+04  0.73927708513E+03  0.13064643037E+04  0.10100000352E+00 0.  1.
</event>
<event>
 5   0  0.1017200E-05  0.2209818E+04  0.7818609E-02  0.8514353E-01
       -4   -1    0    0    0  501  0.00000000000E+00  0.00000000000E+00  0.12859891703E+04  0.12859897974E+04  0.12699999809E+01 0.  1.
        4   -1    0    0  501    0  0.00000000000E+00  0.00000000000E+00 -0.94932521918E+03  0.94932606868E+03  0.12699999809E+01 0. -1.
    10030    2    1    2    0    0  0.00000000000E+00  0.00000000000E+00  0.33666395111E+03  0.22353158661E+04  0.22098177312E+04 0.  0.
        5    1    3    3  502    0  0.38490293765E+03 -0.96919504540E+03  0.53766436923E+03  0.11732835852E+04  0.46999998093E+01 0. -1.
       -5    1    3    3    0  502 -0.38490293765E+03  0.96919504540E+03 -0.20100041813E+03  0.10620322808E+04  0.46999998093E+01 0.  1.
</event>
<event>
 5   0  0.2994157E-05  0.2304556E+04  0.7818609E-02  0.8476127E-01
        2   -1    0    0  501    0  0.00000000000E+00  0.00000000000E+00  0.64333541475E+03  0.64333541475E+03  0.25500000920E-02 0. -1.
       -2   -1    0    0    0  501  0.00000000000E+00  0.00000000000E+00 -0.20638453908E+04  0.20638453908E+04  0.25500000920E-02 0.  1.
    10030    2    1    2    0    0  0.00000000000E+00  0.00000000000E+00 -0.14205099761E+04  0.27071808056E+04  0.23045562093E+04 0.  0.
        4    1    3    3  502    0 -0.34399094245E+03  0.23965506674E+03  0.55056248474E+03  0.69201516024E+03  0.12699999809E+01 0. -1.
       -4    1    3    3    0  502  0.34399094245E+03 -0.23965506674E+03 -0.19710724608E+04  0.20151656454E+04  0.12699999809E+01 0.  1.
</event>
<event>
 5   0  0.2871888E-05  0.2340078E+04  0.7818609E-02  0.8462284E-01
       -2   -1    0    0    0  501  0.00000000000E+00  0.00000000000E+00  0.15128232987E+04  0.15128232987E+04  0.25500000920E-02 0. -1.
        2   -1    0    0  501    0  0.00000000000E+00  0.00000000000E+00 -0.90492511731E+03  0.90492511731E+03  0.25500000920E-02 0.  1.
    10030    2    1    2    0    0  0.00000000000E+00  0.00000000000E+00  0.60789818140E+03  0.24177484160E+04  0.23400784611E+04 0.  0.
        3    1    3    3  502    0  0.10969182391E+04 -0.25183506475E+03 -0.26577256868E+02  0.11257694630E+04  0.10100000352E+00 0.  1.
       -3    1    3    3    0  502 -0.10969182391E+04  0.25183506475E+03  0.63447543827E+03  0.12919789530E+04  0.10100000352E+00 0. -1.
</event>
<event>
 5   0  0.1371753E-05  0.2298840E+04  0.7818609E-02  0.8478379E-01
        1   -1    0    0  501    0  0.00000000000E+00  0.00000000000E+00  0.13742182641E+04  0.13742182641E+04  0.50400001928E-02 0.  1.
       -1   -1    0    0    0  501  0.00000000000E+00  0.00000000000E+00 -0.96139497793E+03  0.96139497795E+03  0.50400001928E-02 0. -1.
    10030    2    1    2    0    0  0.00000000000E+00  0.00000000000E+00  0.41282328615E+03  0.23356132420E+04  0.22988401751E+04 0.  0.
        3    1    3    3  502    0  0.43383005748E+03 -0.58729483518E+02 -0.87337256300E+03  0.97695307718E+03  0.10100000352E+00 0. -1.
       -3    1    3    3    0  502 -0.43383005748E+03  0.58729483518E+02  0.12861958492E+04  0.13586601649E+04  0.10100000352E+00 0.  1.
</event>
<event>
 5   0  0.2871888E-05  0.2289892E+04  0.7818609E-02  0.8481917E-01
        2   -1    0    0  501    0  0.00000000000E+00  0.00000000000E+00  0.20221060969E+04  0.20221060969E+04  0.25500000920E-02 0.  1.
       -2   -1    0    0    0  501  0.00000000000E+00  0.00000000000E+00 -0.64828537302E+03  0.64828537303E+03  0.25500000920E-02 0. -1.
    10030    2    1    2    0    0  0.00000000000E+00  0.00000000000E+00  0.13738207238E+04  0.26703914699E+04  0.22898924038E+04 0.  0.
        3    1    3    3  502    0  0.53482059087E+03 -0.54573700301E+02  0.18657697981E+04  0.19416766731E+04  0.10100000352E+00 0.  1.
       -3    1    3    3    0  502 -0.53482059087E+03  0.54573700301E+02 -0.49194907426E+03  0.72871479678E+03  0.10100000352E+00 0. -1.
</event>
<event>
 5   0  0.1303224E-05  0.2248400E+04  0.7818609E-02  0.8498549E-01
       -1   -1    0    0    0  501  0.00000000000E+00  0.00000000000E+00  0.91107517248E+03  0.91107517249E+03  0.50400001928E-02 0. -1.
        1   -1    0    0  501    0  0.00000000000E+00  0.00000000000E+00 -0.13871801721E+04  0.13871801722E+04  0.50400001928E-02 0.  1.
    10030    2    1    2    0    0  0.00000000000E+00  0.00000000000E+00 -0.47610499967E+03  0.22982553447E+04  0.22483997995E+04 0.  0.
        2    1    3    3  502    0  0.81016173537E+03 -0.33440511938E+03 -0.95767779811E+03  0.12982047552E+04  0.25500000920E-02 0.  1.
       -2    1    3    3    0  502 -0.81016173537E+03  0.33440511938E+03  0.48157279844E+03  0.10000505895E+04  0.25500000920E-02 0. -1.
</event>
<event>
 5   0  0.1327820E-05  0.2300210E+04  0.7818609E-02  0.8477838E-01
       -1   -1    0    0    0  501  0.00000000000E+00  0.00000000000E+00  0.14798270185E+04  0.14798270185E+04  0.50400001928E-02 0.  1.
        1   -1    0    0  501    0  0.00000000000E+00  0.00000000000E+00 -0.89384869943E+03  0.89384869944E+03  0.50400001928E-02 0. -1.
    10030    2    1    2    0    0  0.00000000000E+00  0.00000000000E+00  0.58597831905E+03  0.23736757179E+04  0.23002099520E+04 0.  0.
        1    1    3    3  502    0  0.10975685852E+04 -0.73632095810E+01  0.64751747061E+03  0.12743586194E+04  0.50400001928E-02 0.  1.
       -1    1    3    3    0  502 -0.10975685852E+04  0.73632095810E+01 -0.61539151567E+02  0.10993170986E+04  0.50400001928E-02 0. -1.
</event>
<event>
 5   0  0.2994157E-05  0.2269515E+04  0.7818609E-02  0.8490039E-01
       -2   -1    0    0    0  501  0.00000000000E+00  0.00000000000E+00  0.54173852740E+03  0.54173852741E+03  0.25500000920E-02 0.  1.
        2   -1    0    0  501    0  0.00000000000E+00  0.00000000000E+00 -0.23769300843E+04  0.23769300843E+04  0.25500000920E-02 0. -1.
    10030    2    1    2    0    0  0.00000000000E+00  0.00000000000E+00 -0.18351915569E+04  0.29186686117E+04  0.22695150175E+04 0.  0.
        4    1    3    3  502    0  0.17009541621E+03 -0.79308152478E+03 -0.19381592826E+04  0.21010411165E+04  0.12699999809E+01 0. -1.
       -4    1    3    3    0  502 -0.17009541621E+03  0.79308152478E+03  0.10296772566E+03  0.81762749525E+03  0.12699999809E+01 0.  1.
</event>
<event>
 5   0  0.2994157E-05  0.2299225E+04  0.7818609E-02  0.8478227E-01
        2   -1    0    0  501    0  0.00000000000E+00  0.00000000000E+00  0.10232615469E+04  0.10232615469E+04  0.25500000920E-02 0. -1.
       -2   -1    0    0    0  501  0.00000000000E+00  0.00000000000E+00 -0.12915650353E+04  0.12915650353E+04  0.25500000920E-02 0.  1.
    10030    2    1    2    0    0  0.00000000000E+00  0.00000000000E+00 -0.26830348837E+03  0.23148265823E+04  0.22992249442E+04 0.  0.
        4    1    3    3  502    0 -0.94718054377E+03 -0.12357133138E+03  0.50986561863E+03  0.10827674812E+04  0.12699999809E+01 0. -1.
       -4    1    3    3    0  502  0.94718054377E+03  0.12357133138E+03 -0.77816910699E+03  0.12320591010E+04  0.12699999809E+01 0.  1.
</event>
<event>
 5   0  0.2994157E-05  0.2325555E+04  0.7818609E-02  0.8467913E-01
        2   -1    0    0  501    0  0.00000000000E+00  0.00000000000E+00  0.17242579499E+04  0.17242579499E+04  0.25500000920E-02 0.  1.
       -2   -1    0    0    0  501  0.00000000000E+00  0.00000000000E+00 -0.78413556807E+03  0.78413556807E+03  0.25500000920E-02 0. -1.
    10030    2    1    2    0    0  0.00000000000E+00  0.00000000000E+00  0.94012238187E+03  0.25083935180E+04  0.23255554064E+04 0.  0.
        4    1    3    3  502    0  0.13738953582E+03  0.21925226868E+02 -0.77512462003E+03  0.78751278695E+03  0.12699999809E+01 0. -1.
       -4    1    3    3    0  502 -0.13738953582E+03 -0.21925226868E+02  0.17152470019E+04  0.17208807311E+04  0.12699999809E+01 0.  1.
</event>
<event>
 5   0  0.1327820E-05  0.2300268E+04  0.7818609E-02  0.8477816E-01
       -1   -1    0    0    0  501  0.00000000000E+00  0.00000000000E+00  0.11498868109E+04  0.11498868109E+04  0.50400001928E-02 0.  1.
        1   -1    0    0  501    0  0.00000000000E+00  0.00000000000E+00 -0.11503810669E+04  0.11503810669E+04  0.50400001928E-02 0. -1.
    10030    2    1    2    0    0  0.00000000000E+00  0.00000000000E+00 -0.49425602129E+00  0.23002678778E+04  0.23002678247E+04 0.  0.
        1    1    3    3  502    0 -0.18612591162E+03  0.89899061111E+03 -0.69305378548E+03  0.11502828015E+04  0.50400001928E-02 0. -1.
       -1    1    3    3    0  502  0.18612591162E+03 -0.89899061111E+03  0.69255952946E+03  0.11499850763E+04  0.50400001928E-02 0.  1.
</event>
<event>
 5   0  0.2871888E-05  0.2305367E+04  0.7818609E-02  0.8475808E-01
       -2   -1    0    0    0  501  0.00000000000E+00  0.00000000000E+00  0.60237065189E+03  0.60237065189E+03  0.25500000920E-02 0. -1.
        2   -1    0    0  501    0  0.00000000000E+00  0.00000000000E+00 -0.22057495486E+04  0.22057495486E+04  0.25500000920E-02 0.  1.
    10030    2    1    2    0    0  0.00000000000E+00  0.00000000000E+00 -0.16033788967E+04  0.28081202005E+04  0.23053666030E+04 0.  0.
        3    1    3    3  502    0 -0.51234074611E+03 -0.88095778670E+03 -0.14562137658E+03  0.10294587207E+04  0.10100000352E+00 0. -1.
       -3    1    3    3    0  502  0.51234074611E+03  0.88095778670E+03 -0.14577575202E+04  0.17786614798E+04  0.10100000352E+00 0.  1.
</event>
<event>
 5   0  0.2816178E-05  0.2329669E+04  0.7818609E-02  0.8466314E-01
       -2   -1    0    0    0  501  0.00000000000E+00  0.00000000000E+00  0.66351302613E+03  0.66351302613E+03  0.25500000920E-02 0.  1.
        2   -1    0    0  501    0  0.00000000000E+00  0.00000000000E+00 -0.20449330973E+04  0.20449330973E+04  0.25500000920E-02 0. -1.
    10030    2    1    2    0    0  0.00000000000E+00  0.00000000000E+00 -0.13814200712E+04  0.27084461234E+04  0.23296692878E+04 0.  0.
        1    1    3    3  502    0  0.82810848705E+03 -0.68293213064E+03 -0.16473709243E+03  0.10859550041E+04  0.50400001928E-02 0.  1.
       -1    1    3    3    0  502 -0.82810848705E+03  0.68293213064E+03 -0.12166829787E+04  0.16224911193E+04  0.50400001928E-02 0. -1.
</event>
<event>
 5   0  0.1303224E-05  0.2318104E+04  0.7818609E-02  0.8470817E-01
       -1   -1    0    0    0  501  0.00000000000E+00  0.00000000000E+00  0.15102868435E+04  0.15102868435E+04  0.50400001928E-02 0.  1.
        1   -1    0    0  501    0  0.00000000000E+00  0.00000000000E+00 -0.88950106130E+03  0.88950106131E+03  0.50400001928E-02 0. -1.
    10030    2    1    2    0    0  0.00000000000E+00  0.00000000000E+00  0.62078578216E+03  0.23997879048E+04  0.23181041824E+04 0.  0.
        2    1    3    3  502    0 -0.29027686377E+03 -0.68499801797E+01 -0.85124030961E+03  0.89939849042E+03  0.25500000920E-02 0. -1.
       -2    1    3    3    0  502  0.29027686377E+03  0.68499801797E+01  0.14720260918E+04  0.15003894144E+04  0.25500000920E-02 0.  1.
</event>
<event>
 5   0  0.1327820E-05  0.2297013E+04  0.7818609E-02  0.8479100E-01
       -1   -1    0    0    0  501  0.00000000000E+00  0.00000000000E+00  0.10445679492E+04  0.10445679493E+04  0.50400001928E-02 0.  1.
        1   -1    0    0  501    0  0.00000000000E+00  0.00000000000E+00 -0.12627870192E+04  0.12627870192E+04  0.50400001928E-02 0. -1.
    10030    2    1    2    0    0  0.00000000000E+00  0.00000000000E+00 -0.21821906995E+03  0.23073549685E+04  0.22970127096E+04 0.  0.
        1    1    3    3  502    0 -0.62311509281E+03 -0.14769563087E+03 -0.10668068736E+04  0.12442521142E+04  0.50400001928E-02 0. -1.
       -1    1    3    3    0  502  0.62311509281E+03  0.14769563087E+03  0.84858780360E+03  0.10631028542E+04  0.50400001928E-02 0.  1.
</event>
<event>
 5   0  0.1303224E-05  0.2293453E+04  0.7818609E-02  0.8480507E-01
        1   -1    0    0  501    0  0.00000000000E+00  0.00000000000E+00  0.87005342185E+03  0.87005342186E+03  0.50400001928E-02 0. -1.
       -1   -1    0    0    0  501  0.00000000000E+00  0.00000000000E+00 -0.15113802329E+04  0.15113802329E+04  0.50400001928E-02 0.  1.
    10030    2    1    2    0    0  0.00000000000E+00  0.00000000000E+00 -0.64132681107E+03  0.23814336548E+04  0.22934528932E+04 0.  0.
        2    1    3    3  502    0  0.43197116461E+03  0.66893398725E+03 -0.11774910058E+04  0.14214629208E+04  0.25500000920E-02 0.  1.
       -2    1    3    3    0  502 -0.43197116461E+03 -0.66893398725E+03  0.53616419477E+03  0.95997073399E+03  0.25500000920E-02 0. -1.
</event>
<event>
 5   0  0.2871888E-05  0.2298884E+04  0.7818609E-02  0.8478361E-01
        2   -1    0    0  501    0  0.00000000000E+00  0.00000000000E+00  0.20719340136E+04  0.20719340136E+04  0.25500000920E-02 0.  1.
       -2   -1    0    0    0  501  0.00000000000E+00  0.00000000000E+00 -0.63767322366E+03  0.63767322367E+03  0.25500000920E-02 0. -1.
    10030    2    1    2    0    0  0.00000000000E+00  0.00000000000E+00  0.14342607899E+04  0.27096072373E+04  0.22988839394E+04 0.  0.
        3    1    3    3  502    0 -0.16912728430E+03  0.87287748643E+03  0.15757739111E+04  0.18093044447E+04  0.10100000352E+00 0.  1.
       -3    1    3    3    0  502  0.16912728430E+03 -0.87287748643E+03 -0.14151312115E+03  0.90030279255E+03  0.10100000352E+00 0. -1.
</event>
<event>
 5   0  0.1303224E-05  0.2281910E+04  0.7818609E-02  0.8485088E-01
       -1   -1    0    0    0  501  0.00000000000E+00  0.00000000000E+00  0.12841463294E+04  0.12841463294E+04  0.50400001928E-02 0. -1.
        1   -1    0    0  501    0  0.00000000000E+00  0.00000000000E+00 -0.10137307585E+04  0.10137307585E+04  0.50400001928E-02 0.  1.
    10030    2    1    2    0    0  0.00000000000E+00  0.00000000000E+00  0.27041557090E+03  0.22978770879E+04  0.22819102809E+04 0.  0.
        2    1    3    3  502    0  0.33673152333E+03  0.11056261498E+02  0.12329123762E+04  0.12781170867E+04  0.25500000920E-02 0. -1.
       -2    1    3    3    0  502 -0.33673152333E+03 -0.11056261498E+02 -0.96249680534E+03  0.10197600012E+04  0.25500000920E-02 0.  1.
</event>
<event>
 5   0  0.2994157E-05  0.2302510E+04  0.7818609E-02  0.8476932E-01
        2   -1    0    0  501    0  0.00000000000E+00  0.00000000000E+00  0.14407912121E+04  0.14407912121E+04  0.25500000920E-02 0. -1.
       -2   -1    0    0    0  501  0.00000000000E+00  0.00000000000E+00 -0.91990289335E+03  0.91990289335E+03  0.25500000920E-02 0.  1.
    10030    2    1    2    0    0  0.00000000000E+00  0.00000000000E+00  0.52088831874E+03  0.23606941054E+04  0.23025099389E+04 0.  0.
        4    1    3    3  502    0  0.61629319151E+02 -0.11525918116E+03 -0.91227078706E+03  0.92158692137E+03  0.12699999809E+01 0.  1.
       -4    1    3    3    0  502 -0.61629319151E+02  0.11525918116E+03  0.14331591058E+04  0.14391071841E+04  0.12699999809E+01 0. -1.
</event>
<event>
 5   0  0.1371753E-05  0.2306372E+04  0.7818609E-02  0.8475413E-01
       -1   -1    0    0    0  501  0.00000000000E+00  0.00000000000E+00  0.11380114373E+04  0.11380114373E+04  0.50400001928E-02 0.  1.
        1   -1    0    0  501    0  0.00000000000E+00  0.00000000000E+00 -0.11685627301E+04  0.11685627301E+04  0.50400001928E-02 0. -1.
    10030    2    1    2    0    0  0.00000000000E+00  0.00000000000E+00 -0.30551292854E+02  0.23065741674E+04  0.23063718278E+04 0.  0.
        3    1    3    3  502    0  0.62953397896E+03 -0.64694490956E+03 -0.73296454801E+03  0.11627930966E+04  0.10100000352E+00 0. -1.
       -3    1    3    3    0  502 -0.62953397896E+03  0.64694490956E+03  0.70241325516E+03  0.11437810708E+04  0.10100000352E+00 0.  1.
</event>
<event>
 5   0  0.1327820E-05  0.2567095E+04  0.7818609E-02  0.8379465E-01
       -1   -1    0    0    0  501  0.00000000000E+00  0.00000000000E+00  0.80957271287E+03  0.80957271288E+03  0.50400001928E-02 0. -1.
        1   -1    0    0  501    0  0.00000000000E+00  0.00000000000E+00 -0.20350163760E+04  0.20350163760E+04  0.50400001928E-02 0.  1.
    10030    2    1    2    0    0  0.00000000000E+00  0.00000000000E+00 -0.12254436631E+04  0.28445890889E+04  0.25670946443E+04 0.  0.
        1    1    3    3  502    0 -0.88806343772E+03 -0.45058037750E+03  0.28464110391E+03  0.10357122690E+04  0.50400001928E-02 0. -1.
       -1    1    3    3    0  502  0.88806343772E+03  0.45058037750E+03 -0.15100847670E+04  0.18088768199E+04  0.50400001928E-02 0.  1.
</event>
<event>
 5   0  0.2994157E-05  0.2307950E+04  0.7818609E-02  0.8474793E-01
        2   -1    0    0  501    0  0.00000000000E+00  0.00000000000E+00  0.21136285289E+04  0.21136285289E+04  0.25500000920E-02 0.  1.
       -2   -1    0    0    0  501  0.00000000000E+00  0.00000000000E+00 -0.63003415033E+03  0.63003415034E+03  0.25500000920E-02 0. -1.
    10030    2    1    2    0    0  0.00000000000E+00  0.00000000000E+00  0.14835943785E+04  0.27436626792E+04  0.23079498732E+04 0.  0.
        4    1    3    3  502    0 -0.95824706622E+03  0.48379391615E+03  0.12452632811E+04  0.16440730657E+04  0.12699999809E+01 0. -1.
       -4    1    3    3    0  502  0.95824706622E+03 -0.48379391615E+03  0.23833109744E+03  0.10995896135E+04  0.12699999809E+01 0.  1.
</event>
<event>
 5   0  0.2910126E-05  0.2500092E+04  0.7818609E-02  0.8402953E-01
       -2   -1    0    0    0  501  0.00000000000E+00  0.00000000000E+00  0.78937927790E+03  0.78937927791E+03  0.25500000920E-02 0.  1.
        2   -1    0    0  501    0  0.00000000000E+00  0.00000000000E+00 -0.19795484250E+04  0.19795484250E+04  0.25500000920E-02 0. -1.
    10030    2    1    2    0    0  0.00000000000E+00  0.00000000000E+00 -0.11901691471E+04  0.27689277029E+04  0.25000916034E+04 0.  0.
        5    1    3    3  502    0 -0.48012583882E+03  0.57457411299E+03  0.51351759907E+03  0.90795299822E+03  0.46999998093E+01 0.  1.
       -5    1    3    3    0  502  0.48012583882E+03 -0.57457411299E+03 -0.17036867462E+04  0.18609747047E+04  0.46999998093E+01 0. -1.
</event>
<event>
 5   0  0.1303224E-05  0.2269889E+04  0.7818609E-02  0.8489889E-01
        1   -1    0    0  501    0  0.00000000000E+00  0.00000000000E+00  0.26247293250E+04  0.26247293250E+04  0.50400001928E-02 0. -1.
       -1   -1    0    0    0  501  0.00000000000E+00  0.00000000000E+00 -0.49075515275E+03  0.49075515278E+03  0.50400001928E-02 0.  1.
    10030    2    1    2    0    0  0.00000000000E+00  0.00000000000E+00  0.21339741722E+04  0.31154844778E+04  0.22698893725E+04 0.  0.
        2    1    3    3  502    0 -0.78346406771E+03 -0.59602813468E+03  0.18422327687E+04  0.20887525121E+04  0.25500000920E-02 0. -1.
       -2    1    3    3    0  502  0.78346406771E+03  0.59602813468E+03  0.29174140349E+03  0.10267319656E+04  0.25500000920E-02 0.  1.
</event>
<event>
 5   0  0.1303224E-05  0.2270458E+04  0.7818609E-02  0.8489661E-01
       -1   -1    0    0    0  501  0.00000000000E+00  0.00000000000E+00  0.85742253257E+03  0.85742253258E+03  0.50400001928E-02 0. -1.
        1   -1    0    0  501    0  0.00000000000E+00  0.00000000000E+00 -0.15030452021E+04  0.15030452021E+04  0.50400001928E-02 0.  1.
    10030    2    1    2    0    0  0.00000000000E+00  0.00000000000E+00 -0.64562266953E+03  0.23604677347E+04  0.22704579483E+04 0.  0.
        2    1    3    3  502    0 -0.16746660108E+03  0.10689963025E+04 -0.67986002257E+03  0.12778919389E+04  0.25500000920E-02 0. -1.
       -2    1    3    3    0  502  0.16746660108E+03 -0.10689963025E+04  0.34237353042E+02  0.10825757958E+04  0.25500000920E-02 0.  1.
</event>
<event>
 5   0  0.1327820E-05  0.2299589E+04  0.7818609E-02  0.8478083E-01
        1   -1    0    0  501    0  0.00000000000E+00  0.00000000000E+00  0.77260514056E+03  0.77260514058E+03  0.50400001928E-02 0.  1.
       -1   -1    0    0    0  501  0.00000000000E+00  0.00000000000E+00 -0.17111299742E+04  0.17111299742E+04  0.50400001928E-02 0. -1.
    10030    2    1    2    0    0  0.00000000000E+00  0.00000000000E+00 -0.93852483365E+03  0.24837351148E+04  0.22995893671E+04 0.  0.
        1    1    3    3  502    0  0.74617264967E+03 -0.48989643344E+03 -0.12520435731E+04  0.15376557637E+04  0.50400001928E-02 0. -1.
       -1    1    3    3    0  502 -0.74617264967E+03  0.48989643344E+03  0.31351873944E+03  0.94607935112E+03  0.50400001928E-02 0.  1.
</event>
<event>
 5   0  0.1308224E-05  0.2301816E+04  0.7818609E-02  0.8477205E-01
        1   -1    0    0  501    0  0.00000000000E+00  0.00000000000E+00  0.13849642792E+04  0.13849642792E+04  0.50400001928E-02 0.  1.
       -1   -1    0    0    0  501  0.00000000000E+00  0.00000000000E+00 -0.95640711474E+03  0.95640711475E+03  0.50400001928E-02 0. -1.
    10030    2    1    2    0    0  0.00000000000E+00  0.00000000000E+00  0.42855716447E+03  0.23413713940E+04  0.23018164048E+04 0.  0.
        5    1    3    3  502    0  0.27580957038E+03  0.22097315803E+03 -0.89983657307E+03  0.96676160656E+03  0.46999998093E+01 0. -1.
       -5    1    3    3    0  502 -0.27580957038E+03 -0.22097315803E+03  0.13283937375E+04  0.13746097874E+04  0.46999998093E+01 0.  1.
</event>
<event>
 5   0  0.1371753E-05  0.2254930E+04  0.7818609E-02  0.8495906E-01
       -1   -1    0    0    0  501  0.00000000000E+00  0.00000000000E+00  0.14402096282E+04  0.14402096282E+04  0.50400001928E-02 0.  1.
        1   -1    0    0  501    0  0.00000000000E+00  0.00000000000E+00 -0.88263381420E+03  0.88263381422E+03  0.50400001928E-02 0. -1.
    10030    2    1    2    0    0  0.00000000000E+00  0.00000000000E+00  0.55757581396E+03  0.23228434424E+04  0.22549303469E+04 0.  0.
        3    1    3    3  502    0 -0.88892965117E+03 -0.50418385825E+03  0.76934502927E+03  0.12791751529E+04  0.10100000352E+00 0.  1.
       -3    1    3    3    0  502  0.88892965117E+03  0.50418385825E+03 -0.21176921531E+03  0.10436682894E+04  0.10100000352E+00 0. -1.
</event>
<event>
 5   0  0.2816178E-05  0.2298412E+04  0.7818609E-02  0.8478547E-01
       -2   -1    0    0    0  501  0.00000000000E+00  0.00000000000E+00  0.61329436693E+03  0.61329436694E+03  0.25500000920E-02 0.  1.
        2   -1    0    0  501    0  0.00000000000E+00  0.00000000000E+00 -0.21534106663E+04  0.21534106663E+04  0.25500000920E-02 0. -1.
    10030    2    1    2    0    0  0.00000000000E+00  0.00000000000E+00 -0.15401162993E+04  0.27667050332E+04  0.22984121748E+04 0.  0.
        1    1    3    3  502    0  0.11486671182E+04 -0.22989187184E+02 -0.73798378421E+03  0.13654979740E+04  0.50400001928E-02 0. -1.
       -1    1    3    3    0  502 -0.11486671182E+04  0.22989187184E+02 -0.80213251512E+03  0.14012070593E+04  0.50400001928E-02 0.  1.
</event>
<event>
 5   0  0.1308224E-05  0.2298318E+04  0.7818609E-02  0.8478585E-01
       -1   -1    0    0    0  501  0.00000000000E+00  0.00000000000E+00  0.74054942859E+03  0.74054942860E+03  0.50400001928E-02 0.  1.
        1   -1    0    0  501    0  0.00000000000E+00  0.00000000000E+00 -0.17832246256E+04  0.17832246256E+04  0.50400001928E-02 0. -1.
    10030    2    1    2    0    0  0.00000000000E+00  0.00000000000E+00 -0.10426751970E+04  0.25237740542E+04  0.22983176261E+04 0.  0.
        5    1    3    3  502    0  0.94254699270E+03  0.59130763808E+03 -0.83675002375E+03  0.13921969144E+04  0.46999998093E+01 0. -1.
       -5    1    3    3    0  502 -0.94254699270E+03 -0.59130763808E+03 -0.20592517326E+03  0.11315771398E+04  0.46999998093E+01 0.  1.
</event>
<event>
 5   0  0.1327820E-05  0.2308186E+04  0.7818609E-02  0.8474700E-01
        1   -1    0    0  501    0  0.00000000000E+00  0.00000000000E+00  0.65757651851E+03  0.65757651853E+03  0.50400001928E-02 0.  1.
       -1   -1    0    0    0  501  0.00000000000E+00  0.00000000000E+00 -0.20255148834E+04  0.20255148834E+04  0.50400001928E-02 0. -1.
    10030    2    1    2    0    0  0.00000000000E+00  0.00000000000E+00 -0.13679383649E+04  0.26830914019E+04  0.23081863228E+04 0.  0.
        1    1    3    3  502    0 -0.32554215821E+02  0.26627429689E+03  0.62083270673E+03  0.67630986088E+03  0.50400001928E-02 0.  1.
       -1    1    3    3    0  502  0.32554215821E+02 -0.26627429689E+03 -0.19887710716E+04  0.20067815410E+04  0.50400001928E-02 0. -1.
</event>
<event>
 5   0  0.1327820E-05  0.2314397E+04  0.7818609E-02  0.8472266E-01
       -1   -1    0    0    0  501  0.00000000000E+00  0.00000000000E+00  0.11649894036E+04  0.11649894036E+04  0.50400001928E-02 0.  1.
        1   -1    0    0  501    0  0.00000000000E+00  0.00000000000E+00 -0.11494600118E+04  0.11494600118E+04  0.50400001928E-02 0. -1.
    10030    2    1    2    0    0  0.00000000000E+00  0.00000000000E+00  0.15529391813E+02  0.23144494154E+04  0.23143973155E+04 0.  0.
        1    1    3    3  502    0 -0.66202249218E+03 -0.17197097503E+03  0.94119930196E+03  0.11634878265E+04  0.50400001928E-02 0.  1.
       -1    1    3    3    0  502  0.66202249218E+03  0.17197097503E+03 -0.92566991014E+03  0.11509615888E+04  0.50400001928E-02 0. -1.
</event>
<event>
 5   0  0.1284837E-05  0.2283581E+04  0.7818609E-02  0.8484423E-01
        1   -1    0    0  501    0  0.00000000000E+00  0.00000000000E+00  0.12081916604E+04  0.12081916604E+04  0.50400001928E-02 0. -1.
       -1   -1    0    0    0  501  0.00000000000E+00  0.00000000000E+00 -0.10790383955E+04  0.10790383955E+04  0.50400001928E-02 0.  1.
    10030    2    1    2    0    0  0.00000000000E+00  0.00000000000E+00  0.12915326490E+03  0.22872300559E+04  0.22835806889E+04 0.  0.
        4    1    3    3  502    0 -0.34751406547E+02 -0.11315487458E+04 -0.84231835893E+02  0.11352122442E+04  0.12699999809E+01 0.  1.
       -4    1    3    3    0  502  0.34751406547E+02  0.11315487458E+04  0.21338510079E+03  0.11520178117E+04  0.12699999809E+01 0. -1.
</event>
<event>
 5   0  0.1371753E-05  0.2366122E+04  0.7818609E-02  0.8452297E-01
       -1   -1    0    0    0  501  0.00000000000E+00  0.00000000000E+00  0.73645144550E+03  0.73645144552E+03  0.50400001928E-02 0.  1.
        1   -1    0    0  501    0  0.00000000000E+00  0.00000000000E+00 -0.19005104101E+04  0.19005104101E+04  0.50400001928E-02 0. -1.
    10030    2    1    2    0    0  0.00000000000E+00  0.00000000000E+00 -0.11640589646E+04  0.26369618557E+04  0.23661222612E+04 0.  0.
        3    1    3    3  502    0 -0.54505939931E+03 -0.30580806564E+03  0.53745401387E+03  0.82429676028E+03  0.10100000352E+00 0.  1.
       -3    1    3    3    0  502  0.54505939931E+03  0.30580806564E+03 -0.17015129785E+04  0.18126650954E+04  0.10100000352E+00 0. -1.
</event>
<event>
 5   0  0.2816178E-05  0.2312630E+04  0.7818609E-02  0.8472958E-01
       -2   -1    0    0    0  501  0.00000000000E+00  0.00000000000E+00  0.71439484859E+03  0.71439484860E+03  0.25500000920E-02 0. -1.
        2   -1    0    0  501    0  0.00000000000E+00  0.00000000000E+00 -0.18716049562E+04  0.18716049562E+04  0.25500000920E-02 0.  1.
    10030    2    1    2    0    0  0.00000000000E+00  0.00000000000E+00 -0.11572101076E+04  0.25859998048E+04  0.23126304844E+04 0.  0.
        1    1    3    3  502    0 -0.85604541883E+03  0.61891936702E+03 -0.52702858926E+02  0.10576637147E+04  0.50400001928E-02 0. -1.
       -1    1    3    3    0  502  0.85604541883E+03 -0.61891936702E+03 -0.11045072487E+04  0.15283360901E+04  0.50400001928E-02 0.  1.
</event>
<event>
 5   0  0.2871888E-05  0.2377618E+04  0.7818609E-02  0.8447931E-01
       -2   -1    0    0    0  501  0.00000000000E+00  0.00000000000E+00  0.57621343583E+03  0.57621343584E+03  0.25500000920E-02 0. -1.
        2   -1    0    0  501    0  0.00000000000E+00  0.00000000000E+00 -0.24526803687E+04  0.24526803687E+04  0.25500000920E-02 0.  1.
    10030    2    1    2    0    0  0.00000000000E+00  0.00000000000E+00 -0.18764669329E+04  0.30288938045E+04  0.23776184574E+04 0.  0.
        3    1    3    3  502    0  0.11058806191E+04  0.15578284573E+03 -0.14573100265E+04  0.18360263512E+04  0.10100000352E+00 0.  1.
       -3    1    3    3    0  502 -0.11058806191E+04 -0.15578284573E+03 -0.41915690634E+03  0.11928674533E+04  0.10100000352E+00 0. -1.
</event>
<event>
 5   0  0.1371753E-05  0.2292439E+04  0.7818609E-02  0.8480908E-01
       -1   -1    0    0    0  501  0.00000000000E+00  0.00000000000E+00  0.11823747202E+04  0.11823747203E+04  0.50400001928E-02 0.  1.
        1   -1    0    0  501    0  0.00000000000E+00  0.00000000000E+00 -0.11111700406E+04  0.11111700406E+04  0.50400001928E-02 0. -1.
    10030    2    1    2    0    0  0.00000000000E+00  0.00000000000E+00  0.71204679688E+02  0.22935447608E+04  0.22924391952E+04 0.  0.
        3    1    3    3  502    0  0.45013544499E+03 -0.35750186235E+03 -0.95653605529E+03  0.11159707593E+04  0.10100000352E+00 0. -1.
       -3    1    3    3    0  502 -0.45013544499E+03  0.35750186235E+03  0.10277407350E+04  0.11775740015E+04  0.10100000352E+00 0.  1.
</event>
<event>
 5   0  0.2910126E-05  0.2303842E+04  0.7818609E-02  0.8476408E-01
        2   -1    0    0  501    0  0.00000000000E+00  0.00000000000E+00  0.13984782701E+04  0.13984782701E+04  0.25500000920E-02 0.  1.
       -2   -1    0    0    0  501  0.00000000000E+00  0.00000000000E+00 -0.94883270132E+03  0.94883270132E+03  0.25500000920E-02 0. -1.
    10030    2    1    2    0    0  0.00000000000E+00  0.00000000000E+00  0.44964556878E+03  0.23473109714E+04  0.23038419345E+04 0.  0.
        5    1    3    3  502    0 -0.60769243252E+03  0.90773091640E+03 -0.14763490661E+03  0.11023083347E+04  0.46999998093E+01 0. -1.
       -5    1    3    3    0  502  0.60769243252E+03 -0.90773091640E+03  0.59728047539E+03  0.12450026367E+04  0.46999998093E+01 0.  1.
</event>
<event>
 5   0  0.1284837E-05  0.2292802E+04  0.7818609E-02  0.8480764E-01
        1   -1    0    0  501    0  0.00000000000E+00  0.00000000000E+00  0.12990171371E+04  0.12990171371E+04  0.50400001928E-02 0.  1.
       -1   -1    0    0    0  501  0.00000000000E+00  0.00000000000E+00 -0.10117153237E+04  0.10117153238E+04  0.50400001928E-02 0. -1.
    10030    2    1    2    0    0  0.00000000000E+00  0.00000000000E+00  0.28730181332E+03  0.23107324608E+04  0.22928022535E+04 0.  0.
        4    1    3    3  502    0 -0.14060204856E+03 -0.19693597078E+03  0.12729858459E+04  0.12957805715E+04  0.12699999809E+01 0.  1.
       -4    1    3    3    0  502  0.14060204856E+03  0.19693597078E+03 -0.98568403259E+03  0.10149518893E+04  0.12699999809E+01 0. -1.
</event>
<event>
 5   0  0.1303224E-05  0.2278504E+04  0.7818609E-02  0.8486445E-01
        1   -1    0    0  501    0  0.00000000000E+00  0.00000000000E+00  0.84755104829E+03  0.84755104831E+03  0.50400001928E-02 0.  1.
       -1   -1    0    0    0  501  0.00000000000E+00  0.00000000000E+00 -0.15313479926E+04  0.15313479926E+04  0.50400001928E-02 0. -1.
    10030    2    1    2    0    0  0.00000000000E+00  0.00000000000E+00 -0.68379694433E+03  0.23788990409E+04  0.22785044187E+04 0.  0.
        2    1    3    3  502    0 -0.67051005804E+03 -0.89047873319E+03 -0.58755151834E+03  0.12600606727E+04  0.25500000920E-02 0. -1.
       -2    1    3    3    0  502  0.67051005804E+03  0.89047873319E+03 -0.96245425990E+02  0.11188383682E+04  0.25500000920E-02 0.  1.
</event>
<event>
 5   0  0.1327820E-05  0.2106967E+04  0.7818609E-02  0.8558181E-01
        1   -1    0    0  501    0  0.00000000000E+00  0.00000000000E+00  0.11945382747E+04  0.11945382748E+04  0.50400001928E-02 0. -1.
       -1   -1    0    0    0  501  0.00000000000E+00  0.00000000000E+00 -0.92908467856E+03  0.92908467858E+03  0.50400001928E-02 0.  1.
    10030    2    1    2    0    0  0.00000000000E+00  0.00000000000E+00  0.26545359618E+03  0.21236229533E+04  0.21069667383E+04 0.  0.
        1    1    3    3  502    0  0.73955781476E+03  0.88389530465E+02  0.88364583665E+03  0.11556766136E+04  0.50400001928E-02 0. -1.
       -1    1    3    3    0  502 -0.73955781476E+03 -0.88389530465E+02 -0.61819224047E+03  0.96794633977E+03  0.50400001928E-02 0.  1.
</event>
<event>
 5   0  0.1308224E-05  0.2292836E+04  0.7818609E-02  0.8480751E-01
       -1   -1    0    0    0  501  0.00000000000E+00  0.00000000000E+00  0.86852469308E+03  0.86852469310E+03  0.50400001928E-02 0.  1.
        1   -1    0    0  501    0  0.00000000000E+00  0.00000000000E+00 -0.15132259240E+04  0.15132259240E+04  0.50400001928E-02 0. -1.
    10030    2    1    2    0    0  0.00000000000E+00  0.00000000000E+00 -0.64470123095E+03  0.23817506171E+04  0.22928358696E+04 0.  0.
        5    1    3    3  502    0  0.23083091766E+03  0.86502669277E+03 -0.10661470432E+04  0.13922089281E+04  0.46999998093E+01 0. -1.
       -5    1    3    3    0  502 -0.23083091766E+03 -0.86502669277E+03  0.42144581222E+03  0.98954168906E+03  0.46999998093E+01 0.  1.
</event>
<event>
 5   0  0.2910126E-05  0.2269260E+04  0.7818609E-02  0.8490141E-01
       -2   -1    0    0    0  501  0.00000000000E+00  0.00000000000E+00  0.11618091494E+04  0.11618091494E+04  0.25500000920E-02 0.  1.
        2   -1    0    0  501    0  0.00000000000E+00  0.00000000000E+00 -0.11080862339E+04  0.11080862339E+04  0.25500000920E-02 0. -1.
    10030    2    1    2    0    0  0.00000000000E+00  0.00000000000E+00  0.53722915510E+02  0.22698953833E+04  0.22692595488E+04 0.  0.
        5    1    3    3  502    0 -0.80124011865E+03  0.77189660266E+03 -0.19580491734E+03  0.11296777189E+04  0.46999998093E+01 0. -1.
       -5    1    3    3    0  502  0.80124011865E+03 -0.77189660266E+03  0.24952783285E+03  0.11402176644E+04  0.46999998093E+01 0.  1.
</event>
<event>
 5   0  0.2994157E-05  0.2307461E+04  0.7818609E-02  0.8474985E-01
        2   -1    0    0  501    0  0.00000000000E+00  0.00000000000E+00  0.19613487314E+04  0.19613487315E+04  0.25500000920E-02 0. -1.
       -2   -1    0    0    0  501  0.00000000000E+00  0.00000000000E+00 -0.67866264360E+03  0.67866264361E+03  0.25500000920E-02 0.  1.
    10030    2    1    2    0    0  0.00000000000E+00  0.00000000000E+00  0.12826860878E+04  0.26400113751E+04  0.23074610420E+04 0.  0.
        4    1    3    3  502    0 -0.36300479131E+03 -0.36390356509E+03 -0.54042461804E+03  0.74582750277E+03  0.12699999809E+01 0.  1.
       -4    1    3    3    0  502  0.36300479131E+03  0.36390356509E+03  0.18231107059E+04  0.18941838723E+04  0.12699999809E+01 0. -1.
</event>
<event>
 5   0  0.1308224E-05  0.2290129E+04  0.7818609E-02  0.8481823E-01
       -1   -1    0    0    0  501  0.00000000000E+00  0.00000000000E+00  0.60666190330E+03  0.60666190332E+03  0.50400001928E-02 0.  1.
        1   -1    0    0  501    0  0.00000000000E+00  0.00000000000E+00 -0.21612914592E+04  0.21612914593E+04  0.50400001928E-02 0. -1.
    10030    2    1    2    0    0  0.00000000000E+00  0.00000000000E+00 -0.15546295559E+04  0.27679533626E+04  0.22901294202E+04 0.  0.
        5    1    3    3  502    0  0.40447637601E+03  0.53149134800E+03 -0.19014630366E+04  0.20153580231E+04  0.46999998093E+01 0. -1.
       -5    1    3    3    0  502 -0.40447637601E+03 -0.53149134800E+03  0.34683348062E+03  0.75259533950E+03  0.46999998093E+01 0.  1.
</event>
<event>
 5   0  0.1017200E-05  0.2306868E+04  0.7818609E-02  0.8475218E-01
       -3   -1    0    0    0  501  0.00000000000E+00  0.00000000000E+00  0.22227513918E+04  0.22227513941E+04  0.10100000352E+00 0. -1.
        3   -1    0    0  501    0  0.00000000000E+00  0.00000000000E+00 -0.59854196964E+03  0.59854197816E+03  0.10100000352E+00 0.  1.
    10030    2    1    2    0    0  0.00000000000E+00  0.00000000000E+00  0.16242094221E+04  0.28212933722E+04  0.23068680164E+04 0.  0.
        3    1    3    3  502    0 -0.32978453073E+03  0.51666215127E+03  0.20070878549E+04  0.20985945970E+04  0.10100000352E+00 0. -1.
       -3    1    3    3    0  502  0.32978453073E+03 -0.51666215127E+03 -0.38287843272E+03  0.72269877522E+03  0.10100000352E+00 0.  1.
</event>
<event>
 5   0  0.2816178E-05  0.2273462E+04  0.7818609E-02  0.8488459E-01
       -2   -1    0    0    0  501  0.00000000000E+00  0.00000000000E+00  0.76580546111E+03  0.76580546112E+03  0.25500000920E-02 0. -1.
        2   -1    0    0  501    0  0.00000000000E+00  0.00000000000E+00 -0.16873177768E+04  0.16873177768E+04  0.25500000920E-02 0.  1.
    10030    2    1    2    0    0  0.00000000000E+00  0.00000000000E+00 -0.92151231566E+03  0.24531232379E+04  0.22734618256E+04 0.  0.
        1    1    3    3  502    0 -0.14186926520E+03 -0.11262639247E+04 -0.39637665181E+03  0.12023775475E+04  0.50400001928E-02 0. -1.
       -1    1    3    3    0  502  0.14186926520E+03  0.11262639247E+04 -0.52513566385E+03  0.12507456904E+04  0.50400001928E-02 0.  1.
</event>
<event>
 5   0  0.2994157E-05  0.2463688E+04  0.7818609E-02  0.8416037E-01
       -2   -1    0    0    0  501  0.00000000000E+00  0.00000000000E+00  0.88838124395E+03  0.88838124395E+03  0.25500000920E-02 0. -1.
        2   -1    0    0  501    0  0.00000000000E+00  0.00000000000E+00 -0.17080954617E+04  0.17080954617E+04  0.25500000920E-02 0.  1.
    10030    2    1    2    0    0  0.00000000000E+00  0.00000000000E+00 -0.81971421778E+03  0.25964767057E+04  0.24636882685E+04 0.  0.
        4    1    3    3  502    0  0.18663078196E+03  0.34612440869E+03 -0.16401699777E+04  0.16866512158E+04  0.12699999809E+01 0.  1.
       -4    1    3    3    0  502 -0.18663078196E+03 -0.34612440869E+03  0.82045575995E+03  0.90982548986E+03  0.12699999809E+01 0. -1.
</event>
<event>
 5   0  0.2994157E-05  0.2305164E+04  0.7818609E-02  0.8475888E-01
       -2   -1    0    0    0  501  0.00000000000E+00  0.00000000000E+00  0.14949532747E+04  0.14949532747E+04  0.25500000920E-02 0. -1.
        2   -1    0    0  501    0  0.00000000000E+00  0.00000000000E+00 -0.88862008324E+03  0.88862008324E+03  0.25500000920E-02 0.  1.
    10030    2    1    2    0    0  0.00000000000E+00  0.00000000000E+00  0.60633319148E+03  0.23835733580E+04  0.23051642054E+04 0.  0.
        4    1    3    3  502    0 -0.21115526552E+03  0.36935674139E+03 -0.80445218825E+03  0.91003070533E+03  0.12699999809E+01 0.  1.
       -4    1    3    3    0  502  0.21115526552E+03 -0.36935674139E+03  0.14107853797E+04  0.14735426526E+04  0.12699999809E+01 0. -1.
</event>
<event>
 5   0  0.1284837E-05  0.2329675E+04  0.7818609E-02  0.8466312E-01
        1   -1    0    0  501    0  0.00000000000E+00  0.00000000000E+00  0.15026269519E+04  0.15026269519E+04  0.50400001928E-02 0. -1.
       -1   -1    0    0    0  501  0.00000000000E+00  0.00000000000E+00 -0.90298263547E+03  0.90298263548E+03  0.50400001928E-02 0.  1.
    10030    2    1    2    0    0  0.00000000000E+00  0.00000000000E+00  0.59964431639E+03  0.24056095874E+04  0.23296746942E+04 0.  0.
        4    1    3    3  502    0  0.10115219854E+04 -0.41972385200E+03 -0.10997560363E+03  0.11006548438E+04  0.12699999809E+01 0. -1.
       -4    1    3    3    0  502 -0.10115219854E+04  0.41972385200E+03  0.70961992002E+03  0.13049547435E+04  0.12699999809E+01 0.  1.
</event>
<event>
 5   0  0.1371753E-05  0.2270663E+04  0.7818609E-02  0.8489579E-01
        1   -1    0    0  501    0  0.00000000000E+00  0.00000000000E+00  0.87963593860E+03  0.87963593861E+03  0.50400001928E-02 0. -1.
       -1   -1    0    0    0  501  0.00000000000E+00  0.00000000000E+00 -0.14653533737E+04  0.14653533737E+04  0.50400001928E-02 0.  1.
    10030    2    1    2    0    0  0.00000000000E+00  0.00000000000E+00 -0.58571743507E+03  0.23449893123E+04  0.22706628902E+04 0.  0.
        3    1    3    3  502    0 -0.75467257337E+03  0.68732864217E+03  0.22042755326E+03  0.10442890748E+04  0.10100000352E+00 0. -1.
       -3    1    3    3    0  502  0.75467257337E+03 -0.68732864217E+03 -0.80614498834E+03  0.13007002375E+04  0.10100000352E+00 0.  1.
</event>
<event>
 5   0  0.1371753E-05  0.2319833E+04  0.7818609E-02  0.8470142E-01
        1   -1    0    0  501    0  0.00000000000E+00  0.00000000000E+00  0.13390032624E+04  0.13390032624E+04  0.50400001928E-02 0.  1.
       -1   -1    0    0    0  501  0.00000000000E+00  0.00000000000E+00 -0.10047823517E+04  0.10047823517E+04  0.50400001928E-02 0. -1.
    10030    2    1    2    0    0  0.00000000000E+00  0.00000000000E+00  0.33422091069E+03  0.23437856141E+04  0.23198334828E+04 0.  0.
        3    1    3    3  502    0 -0.59729336907E+03  0.70004618919E+03 -0.54628398165E+03  0.10701636485E+04  0.10100000352E+00 0. -1.
       -3    1    3    3    0  502  0.59729336907E+03 -0.70004618919E+03  0.88050489233E+03  0.12736219656E+04  0.10100000352E+00 0.  1.
</event>
<event>
 5   0  0.2816178E-05  0.2305852E+04  0.7818609E-02  0.8475617E-01
       -2   -1    0    0    0  501  0.00000000000E+00  0.00000000000E+00  0.11567905009E+04  0.11567905009E+04  0.25500000920E-02 0. -1.
        2   -1    0    0  501    0  0.00000000000E+00  0.00000000000E+00 -0.11490740434E+04  0.11490740434E+04  0.25500000920E-02 0.  1.
    10030    2    1    2    0    0  0.00000000000E+00  0.00000000000E+00  0.77164575081E+01  0.23058645442E+04  0.23058516328E+04 0.  0.
        1    1    3    3  502    0  0.82451294685E+03 -0.15091046519E+03  0.79547012089E+03  0.11555813607E+04  0.50400001928E-02 0.  1.
       -1    1    3    3    0  502 -0.82451294685E+03  0.15091046519E+03 -0.78775366338E+03  0.11502831835E+04  0.50400001928E-02 0. -1.
</event>
<event>
 5   0  0.1284837E-05  0.2303486E+04  0.7818609E-02  0.8476548E-01
        1   -1    0    0  501    0  0.00000000000E+00  0.00000000000E+00  0.14813820702E+04  0.14813820702E+04  0.50400001928E-02 0. -1.
       -1   -1    0    0    0  501  0.00000000000E+00  0.00000000000E+00 -0.89545554773E+03  0.89545554774E+03  0.50400001928E-02 0.  1.
    10030    2    1    2    0    0  0.00000000000E+00  0.00000000000E+00  0.58592652248E+03  0.23768376180E+04  0.23034858741E+04 0.  0.
        4    1    3    3  502    0 -0.18676722630E+03 -0.11007648901E+04  0.58471212817E+03  0.12603393297E+04  0.12699999809E+01 0.  1.
       -4    1    3    3    0  502  0.18676722630E+03  0.11007648901E+04  0.12143943104E+01  0.11164982883E+04  0.12699999809E+01 0. -1.
</event>
<event>
 5   0  0.2816178E-05  0.2291414E+04  0.7818609E-02  0.8481314E-01
       -2   -1    0    0    0  501  0.00000000000E+00  0.00000000000E+00  0.53345381855E+03  0.53345381856E+03  0.25500000920E-02 0. -1.
        2   -1    0    0  501    0  0.00000000000E+00  0.00000000000E+00 -0.24606526189E+04  0.24606526189E+04  0.25500000920E-02 0.  1.
    10030    2    1    2    0    0  0.00000000000E+00  0.00000000000E+00 -0.19271988004E+04  0.29941064375E+04  0.22914140051E+04 0.  0.
        1    1    3    3  502    0  0.37602537647E+03  0.21311563087E+03 -0.23500369366E+04  0.23894532763E+04  0.50400001928E-02 0.  1.
       -1    1    3    3    0  502 -0.37602537647E+03 -0.21311563087E+03  0.42283813626E+03  0.60465316122E+03  0.50400001928E-02 0. -1.
</event>
<event>
 5   0  0.1308224E-05  0.2312184E+04  0.7818609E-02  0.8473132E-01
       -1   -1    0    0    0  501  0.00000000000E+00  0.00000000000E+00  0.12502501272E+04  0.12502501272E+04  0.50400001928E-02 0. -1.
        1   -1    0    0  501    0  0.00000000000E+00  0.00000000000E+00 -0.10690253128E+04  0.10690253129E+04  0.50400001928E-02 0.  1.
    10030    2    1    2    0    0  0.00000000000E+00  0.00000000000E+00  0.18122481434E+03  0.23192754401E+04  0.23121842776E+04 0.  0.
        5    1    3    3  502    0 -0.70829548966E+02  0.45922348740E+03 -0.97122941578E+03  0.10766669422E+04  0.46999998093E+01 0.  1.
       -5    1    3    3    0  502  0.70829548966E+02 -0.45922348740E+03  0.11524542301E+04  0.12426084978E+04  0.46999998093E+01 0. -1.
</event>
<event>
 5   0  0.2871888E-05  0.2291881E+04  0.7818609E-02  0.8481129E-01
        2   -1    0    0  501    0  0.00000000000E+00  0.00000000000E+00  0.26733234327E+04  0.26733234327E+04  0.25500000920E-02 0.  1.
       -2   -1    0    0    0  501  0.00000000000E+00  0.00000000000E+00 -0.49121608174E+03  0.49121608175E+03  0.25500000920E-02 0. -1.
    10030    2    1    2    0    0  0.00000000000E+00  0.00000000000E+00  0.21821073509E+04  0.31645395144E+04  0.22918808537E+04 0.  0.
        3    1    3    3  502    0  0.39562848972E+03  0.96618366323E+03  0.17433030930E+04  0.20320281635E+04  0.10100000352E+00 0. -1.
       -3    1    3    3    0  502 -0.39562848972E+03 -0.96618366323E+03  0.43880425790E+03  0.11325113509E+04  0.10100000352E+00 0.  1.
</event>
<event>
 5   0  0.2816178E-05  0.2296729E+04  0.7818609E-02  0.8479212E-01
       -2   -1    0    0    0  501  0.00000000000E+00  0.00000000000E+00  0.95106924410E+03  0.95106924410E+03  0.25500000920E-02 0. -1.
        2   -1    0    0  501    0  0.00000000000E+00  0.00000000000E+00 -0.13865872939E+04  0.13865872939E+04  0.25500000920E-02 0.  1.
    10030    2    1    2    0    0  0.00000000000E+00  0.00000000000E+00 -0.43551804983E+03  0.23376565380E+04  0.22967285687E+04 0.  0.
        1    1    3    3  502    0 -0.59619716141E+03 -0.40793439325E+03 -0.11263474970E+04  0.13381032130E+04  0.50400001928E-02 0.  1.
       -1    1    3    3    0  502  0.59619716141E+03  0.40793439325E+03  0.69082944721E+03  0.99955332505E+03  0.50400001928E-02 0. -1.
</event>
<event>
 5   0  0.1308224E-05  0.2299607E+04  0.7818609E-02  0.8478076E-01
       -1   -1    0    0    0  501  0.00000000000E+00  0.00000000000E+00  0.85728134640E+03  0.85728134641E+03  0.50400001928E-02 0.  1.
        1   -1    0    0  501    0  0.00000000000E+00  0.00000000000E+00 -0.15421398597E+04  0.15421398597E+04  0.50400001928E-02 0. -1.
    10030    2    1    2    0    0  0.00000000000E+00  0.00000000000E+00 -0.68485851326E+03  0.23994212061E+04  0.22996066927E+04 0.  0.
        5    1    3    3  502    0  0.69364434361E+03  0.31773351667E+03  0.55509838109E+03  0.94353238722E+03  0.46999998093E+01 0.  1.
       -5    1    3    3    0  502 -0.69364434361E+03 -0.31773351667E+03 -0.12399568944E+04  0.14558888189E+04  0.46999998093E+01 0. -1.
</event>
<event>
 5   0  0.1303224E-05  0.2296600E+04  0.7818609E-02  0.8479263E-01
        1   -1    0    0  501    0  0.00000000000E+00  0.00000000000E+00  0.20100412891E+04  0.20100412891E+04  0.50400001928E-02 0. -1.
       -1   -1    0    0    0  501  0.00000000000E+00  0.00000000000E+00 -0.65600262318E+03  0.65600262320E+03  0.50400001928E-02 0.  1.
    10030    2    1    2    0    0  0.00000000000E+00  0.00000000000E+00  0.13540386659E+04  0.26660439123E+04  0.22965995370E+04 0.  0.
        2    1    3    3  502    0  0.94927179129E+03 -0.60525366565E+03  0.93954811836E+03  0.14663558914E+04  0.25500000920E-02 0. -1.
       -2    1    3    3    0  502 -0.94927179129E+03  0.60525366565E+03  0.41449054758E+03  0.11996880209E+04  0.25500000920E-02 0.  1.
</event>
<event>
 5   0  0.2938972E-05  0.2298650E+04  0.7818609E-02  0.8478453E-01
       -2   -1    0    0    0  501  0.00000000000E+00  0.00000000000E+00  0.21566748077E+04  0.21566748077E+04  0.25500000920E-02 0. -1.
        2   -1    0    0  501    0  0.00000000000E+00  0.00000000000E+00 -0.61249305326E+03  0.61249305326E+03  0.25500000920E-02 0.  1.
    10030    2    1    2    0    0  0.00000000000E+00  0.00000000000E+00  0.15441817544E+04  0.27691678610E+04  0.22986503326E+04 0.  0.
        2    1    3    3  502    0  0.76450308150E+03 -0.22816332996E+03  0.17687330536E+04  0.19403453512E+04  0.25500000920E-02 0. -1.
       -2    1    3    3    0  502 -0.76450308150E+03  0.22816332996E+03 -0.22455129919E+03  0.82882250980E+03  0.25500000920E-02 0.  1.
</event>
<event>
 5   0  0.2938972E-05  0.2286756E+04  0.7818609E-02  0.8483161E-01
       -2   -1    0    0    0  501  0.00000000000E+00  0.00000000000E+00  0.10263554439E+04  0.10263554439E+04  0.25500000920E-02 0. -1.
        2   -1    0    0  501    0  0.00000000000E+00  0.00000000000E+00 -0.12737429406E+04  0.12737429406E+04  0.25500000920E-02 0.  1.
    10030    2    1    2    0    0  0.00000000000E+00  0.00000000000E+00 -0.24738749664E+03  0.23000983845E+04  0.22867557817E+04 0.  0.
        2    1    3    3  502    0  0.15959019289E+03 -0.94566106254E+03  0.50248916692E+03  0.10826999759E+04  0.25500000920E-02 0. -1.
       -2    1    3    3    0  502 -0.15959019289E+03  0.94566106254E+03 -0.74987666355E+03  0.12173984087E+04  0.25500000920E-02 0.  1.
</event>
<event>
 5   0  0.1371753E-05  0.2302578E+04  0.7818609E-02  0.8476905E-01
        1   -1    0    0  501    0  0.00000000000E+00  0.00000000000E+00  0.88456237023E+03  0.88456237024E+03  0.50400001928E-02 0. -1.
       -1   -1    0    0    0  501  0.00000000000E+00  0.00000000000E+00 -0.14984430025E+04  0.14984430025E+04  0.50400001928E-02 0.  1.
    10030    2    1    2    0    0  0.00000000000E+00  0.00000000000E+00 -0.61388063225E+03  0.23830053727E+04  0.23025779413E+04 0.  0.
        3    1    3    3  502    0 -0.64535968983E+02 -0.95935625530E+03 -0.96225323921E+03  0.13603163685E+04  0.10100000352E+00 0.  1.
       -3    1    3    3    0  502  0.64535968983E+02  0.95935625530E+03  0.34837260696E+03  0.10226890042E+04  0.10100000352E+00 0. -1.
</event>
<event>
 5   0  0.1303224E-05  0.2286816E+04  0.7818609E-02  0.8483138E-01
       -1   -1    0    0    0  501  0.00000000000E+00  0.00000000000E+00  0.47074770612E+03  0.47074770615E+03  0.50400001928E-02 0.  1.
        1   -1    0    0  501    0  0.00000000000E+00  0.00000000000E+00 -0.27772446572E+04  0.27772446572E+04  0.50400001928E-02 0. -1.
    10030    2    1    2    0    0  0.00000000000E+00  0.00000000000E+00 -0.23064969511E+04  0.32479923634E+04  0.22868157353E+04 0.  0.
        2    1    3    3  502    0 -0.43366445056E+03  0.10140267668E+04 -0.15818591091E+04  0.19283654686E+04  0.25500000920E-02 0.  1.
       -2    1    3    3    0  502  0.43366445056E+03 -0.10140267668E+04 -0.72463784202E+03  0.13196268948E+04  0.25500000920E-02 0. -1.
</event>
<event>
 5   0  0.2816178E-05  0.2278593E+04  0.7818609E-02  0.8486410E-01
       -2   -1    0    0    0  501  0.00000000000E+00  0.00000000000E+00  0.96565604307E+03  0.96565604308E+03  0.25500000920E-02 0.  1.
        2   -1    0    0  501    0  0.00000000000E+00  0.00000000000E+00 -0.13441605059E+04  0.13441605059E+04  0.25500000920E-02 0. -1.
    10030    2    1    2    0    0  0.00000000000E+00  0.00000000000E+00 -0.37850446283E+03  0.23098165490E+04  0.22785931760E+04 0.  0.
        1    1    3    3  502    0  0.77935093378E+03  0.82277684045E+03 -0.70830607114E+02  0.11355027882E+04  0.50400001928E-02 0.  1.
       -1    1    3    3    0  502 -0.77935093378E+03 -0.82277684045E+03 -0.30767385572E+03  0.11743137607E+04  0.50400001928E-02 0. -1.
</event>
<event>
 5   0  0.1284837E-05  0.2277128E+04  0.7818609E-02  0.8486994E-01
       -1   -1    0    0    0  501  0.00000000000E+00  0.00000000000E+00  0.13338973338E+04  0.13338973338E+04  0.50400001928E-02 0.  1.
        1   -1    0    0  501    0  0.00000000000E+00  0.00000000000E+00 -0.97183528322E+03  0.97183528324E+03  0.50400001928E-02 0. -1.
    10030    2    1    2    0    0  0.00000000000E+00  0.00000000000E+00  0.36206205055E+03  0.23057326170E+04  0.22771284489E+04 0.  0.
        4    1    3    3  502    0 -0.10943614124E+04  0.23118440988E+03  0.39643250900E+03  0.11866901363E+04  0.12699999809E+01 0.  1.
       -4    1    3    3    0  502  0.10943614124E+04 -0.23118440988E+03 -0.34370458449E+02  0.11190424808E+04  0.12699999809E+01 0. -1.
</event>
<event>
 5   0  0.2816178E-05  0.2306077E+04  0.7818609E-02  0.8475529E-01
        2   -1    0    0  501    0  0.00000000000E+00  0.00000000000E+00  0.14803098246E+04  0.14803098246E+04  0.25500000920E-02 0. -1.
       -2   -1    0    0    0  501  0.00000000000E+00  0.00000000000E+00 -0.89812147563E+03  0.89812147564E+03  0.25500000920E-02 0.  1.
    10030    2    1    2    0    0  0.00000000000E+00  0.00000000000E+00  0.58218834895E+03  0.23784313002E+04  0.23060772269E+04 0.  0.
        1    1    3    3  502    0  0.64291291350E+03  0.78501943067E+03  0.85591278293E+03  0.13274709838E+04  0.50400001928E-02 0. -1.
       -1    1    3    3    0  502 -0.64291291350E+03 -0.78501943067E+03 -0.27372443398E+03  0.10509603164E+04  0.50400001928E-02 0.  1.
</event>
<event>
 5   0  0.1327820E-05  0.2304541E+04  0.7818609E-02  0.8476133E-01
       -1   -1    0    0    0  501  0.00000000000E+00  0.00000000000E+00  0.12854140536E+04  0.12854140537E+04  0.50400001928E-02 0.  1.
        1   -1    0    0  501    0  0.00000000000E+00  0.00000000000E+00 -0.10329177722E+04  0.10329177722E+04  0.50400001928E-02 0. -1.
    10030    2    1    2    0    0  0.00000000000E+00  0.00000000000E+00  0.25249628148E+03  0.23183318258E+04  0.23045407531E+04 0.  0.
        1    1    3    3  502    0  0.49207307741E+03  0.10411330675E+04  0.85595385175E+02  0.11547383027E+04  0.50400001928E-02 0.  1.
       -1    1    3    3    0  502 -0.49207307741E+03 -0.10411330675E+04  0.16690089630E+03  0.11635935231E+04  0.50400001928E-02 0. -1.
</event>
<event>
 5   0  0.2994157E-05  0.2271269E+04  0.7818609E-02  0.8489336E-01
       -2   -1    0    0    0  501  0.00000000000E+00  0.00000000000E+00  0.14891445536E+04  0.14891445536E+04  0.25500000920E-02 0.  1.
        2   -1    0    0  501    0  0.00000000000E+00  0.00000000000E+00 -0.86604460902E+03  0.86604460903E+03  0.25500000920E-02 0. -1.
    10030    2    1    2    0    0  0.00000000000E+00  0.00000000000E+00  0.62309994455E+03  0.23551891626E+04  0.22712689076E+04 0.  0.
        4    1    3    3  502    0 -0.26484503106E+03 -0.94899308073E+03 -0.27405820487E+03  0.10226633221E+04  0.12699999809E+01 0. -1.
       -4    1    3    3    0  502  0.26484503106E+03  0.94899308073E+03  0.89715814941E+03  0.13325258405E+04  0.12699999809E+01 0.  1.
</event>
<event>
 5   0  0.1017200E-05  0.2150498E+04  0.7818609E-02  0.8539319E-01
        3   -1    0    0  501    0  0.00000000000E+00  0.00000000000E+00  0.13366433137E+04  0.13366433175E+04  0.10100000352E+00 0. -1.
       -3   -1    0    0    0  501  0.00000000000E+00  0.00000000000E+00 -0.86497303717E+03  0.86497304307E+03  0.10100000352E+00 0.  1.
    10030    2    1    2    0    0  0.00000000000E+00  0.00000000000E+00  0.47167027653E+03  0.22016163606E+04  0.21504980236E+04 0.  0.
        3    1    3    3  502    0  0.54466912932E+03 -0.70661647828E+03  0.85025874147E+03  0.12324411732E+04  0.10100000352E+00 0. -1.
       -3    1    3    3    0  502 -0.54466912932E+03  0.70661647828E+03 -0.37858846494E+03  0.96917518736E+03  0.10100000352E+00 0.  1.
</event>
<event>
 5   0  0.2871888E-05  0.2299153E+04  0.7818609E-02  0.8478255E-01
       -2   -1    0    0    0  501  0.00000000000E+00  0.00000000000E+00  0.54810958638E+03  0.54810958639E+03  0.25500000920E-02 0. -1.
        2   -1    0    0  501    0  0.00000000000E+00  0.00000000000E+00 -0.24110612853E+04  0.24110612853E+04  0.25500000920E-02 0.  1.
    10030    2    1    2    0    0  0.00000000000E+00  0.00000000000E+00 -0.18629516989E+04  0.29591708717E+04  0.22991527168E+04 0.  0.
        3    1    3    3  502    0 -0.11187798499E+04 -0.26430402261E+03 -0.93264466006E+03  0.14803212628E+04  0.10100000352E+00 0. -1.
       -3    1    3    3    0  502  0.11187798499E+04  0.26430402261E+03 -0.93030703887E+03  0.14788496089E+04  0.10100000352E+00 0.  1.
</event>
<event>
 5   0  0.2938972E-05  0.2310401E+04  0.7818609E-02  0.8473831E-01
        2   -1    0    0  501    0  0.00000000000E+00  0.00000000000E+00  0.11273620300E+04  0.11273620300E+04  0.25500000920E-02 0. -1.
       -2   -1    0    0    0  501  0.00000000000E+00  0.00000000000E+00 -0.11837267061E+04  0.11837267061E+04  0.25500000920E-02 0.  1.
    10030    2    1    2    0    0  0.00000000000E+00  0.00000000000E+00 -0.56364676178E+02  0.23110887361E+04  0.23104013005E+04 0.  0.
        2    1    3    3  502    0 -0.88048680912E+02  0.20188626977E+02 -0.11801883185E+04  0.11836404091E+04  0.25500000920E-02 0.  1.
       -2    1    3    3    0  502  0.88048680912E+02 -0.20188626977E+02  0.11238236424E+04  0.11274483270E+04  0.25500000920E-02 0. -1.
</event>
<event>
 5   0  0.2816178E-05  0.2280068E+04  0.7818609E-02  0.8485822E-01
        2   -1    0    0  501    0  0.00000000000E+00  0.00000000000E+00  0.18489141289E+04  0.18489141289E+04  0.25500000920E-02 0. -1.
       -2   -1    0    0    0  501  0.00000000000E+00  0.00000000000E+00 -0.70294104553E+03  0.70294104554E+03  0.25500000920E-02 0.  1.
    10030    2    1    2    0    0  0.00000000000E+00  0.00000000000E+00  0.11459730833E+04  0.25518551744E+04  0.22800680962E+04 0.  0.
        1    1    3    3  502    0  0.12654650029E+03  0.56802087817E+03 -0.52418236431E+03  0.78321701070E+03  0.50400001928E-02 0.  1.
       -1    1    3    3    0  502 -0.12654650029E+03 -0.56802087817E+03  0.16701554477E+04  0.17686381637E+04  0.50400001928E-02 0. -1.
</event>
<event>
 5   0  0.1303224E-05  0.2310998E+04  0.7818609E-02  0.8473597E-01
        1   -1    0    0  501    0  0.00000000000E+00  0.00000000000E+00  0.10142941924E+04  0.10142941924E+04  0.50400001928E-02 0. -1.
       -1   -1    0    0    0  501  0.00000000000E+00  0.00000000000E+00 -0.13163621119E+04  0.13163621119E+04  0.50400001928E-02 0.  1.
    10030    2    1    2    0    0  0.00000000000E+00  0.00000000000E+00 -0.30206791949E+03  0.23306563044E+04  0.23109984381E+04 0.  0.
        2    1    3    3  502    0 -0.32895286241E+03 -0.10808432088E+04 -0.39547227164E+03  0.11970089162E+04  0.25500000920E-02 0.  1.
       -2    1    3    3    0  502  0.32895286241E+03  0.10808432088E+04  0.93404352155E+02  0.11336473882E+04  0.25500000920E-02 0. -1.
</event>
<event>
 5   0  0.2938972E-05  0.2296005E+04  0.7818609E-02  0.8479498E-01
        2   -1    0    0  501    0  0.00000000000E+00  0.00000000000E+00  0.13890391679E+04  0.13890391679E+04  0.25500000920E-02 0. -1.
       -2   -1    0    0    0  501  0.00000000000E+00  0.00000000000E+00 -0.94879272585E+03  0.94879272585E+03  0.25500000920E-02 0.  1.
    10030    2    1    2    0    0  0.00000000000E+00  0.00000000000E+00  0.44024644209E+03  0.23378318938E+04  0.22960054516E+04 0.  0.
        2    1    3    3  502    0  0.39383245848E+03  0.23273345884E+02 -0.87760004802E+03  0.96219930278E+03  0.25500000920E-02 0.  1.
       -2    1    3    3    0  502 -0.39383245848E+03 -0.23273345884E+02  0.13178464901E+04  0.13756325910E+04  0.25500000920E-02 0. -1.
</event>
<event>
 5   0  0.1308224E-05  0.2317090E+04  0.7818609E-02  0.8471213E-01
       -1   -1    0    0    0  501  0.00000000000E+00  0.00000000000E+00  0.14361303569E+04  0.14361303569E+04  0.50400001928E-02 0.  1.
        1   -1    0    0  501    0  0.00000000000E+00  0.00000000000E+00 -0.93461310067E+03  0.93461310068E+03  0.50400001928E-02 0. -1.
    10030    2    1    2    0    0  0.00000000000E+00  0.00000000000E+00  0.50151725620E+03  0.23707434576E+04  0.23170897659E+04 0.  0.
        5    1    3    3  502    0 -0.37746511451E+03 -0.10280195718E+04 -0.13601586091E+03  0.11035517917E+04  0.46999998093E+01 0.  1.
       -5    1    3    3    0  502  0.37746511451E+03  0.10280195718E+04  0.63753311711E+03  0.12671916658E+04  0.46999998093E+01 0. -1.
</event>
<event>
 5   0  0.1284837E-05  0.2297291E+04  0.7818609E-02  0.8478990E-01
        1   -1    0    0  501    0  0.00000000000E+00  0.00000000000E+00  0.14905052936E+04  0.14905052936E+04  0.50400001928E-02 0. -1.
       -1   -1    0    0    0  501  0.00000000000E+00  0.00000000000E+00 -0.88519400049E+03  0.88519400051E+03  0.50400001928E-02 0.  1.
    10030    2    1    2    0    0  0.00000000000E+00  0.00000000000E+00  0.60531129311E+03  0.23756992941E+04  0.22972908772E+04 0.  0.
        4    1    3    3  502    0  0.78508709727E+03  0.12913093715E+03 -0.55408175021E+03  0.96955904825E+03  0.12699999809E+01 0.  1.
       -4    1    3    3    0  502 -0.78508709727E+03 -0.12913093715E+03  0.11593930433E+04  0.14061402459E+04  0.12699999809E+01 0. -1.
</event>
<event>
 5   0  0.1303224E-05  0.2307007E+04  0.7818609E-02  0.8475163E-01
       -1   -1    0    0    0  501  0.00000000000E+00  0.00000000000E+00  0.79513724730E+03  0.79513724732E+03  0.50400001928E-02 0. -1.
        1   -1    0    0  501    0  0.00000000000E+00  0.00000000000E+00 -0.16733846066E+04  0.16733846066E+04  0.50400001928E-02 0.  1.
    10030    2    1    2    0    0  0.00000000000E+00  0.00000000000E+00 -0.87824735926E+03  0.24685218539E+04  0.23070070913E+04 0.  0.
        2    1    3    3  502    0  0.18918117367E+03  0.17101509914E+03  0.76459523321E+03  0.80600344370E+03  0.25500000920E-02 0. -1.
       -2    1    3    3    0  502 -0.18918117367E+03 -0.17101509914E+03 -0.16428425925E+04  0.16625184102E+04  0.25500000920E-02 0.  1.
</event>
<event>
 5   0  0.1308224E-05  0.2290706E+04  0.7818609E-02  0.8481594E-01
        1   -1    0    0  501    0  0.00000000000E+00  0.00000000000E+00  0.16797202958E+04  0.16797202958E+04  0.50400001928E-02 0.  1.
       -1   -1    0    0    0  501  0.00000000000E+00  0.00000000000E+00 -0.78098361009E+03  0.78098361011E+03  0.50400001928E-02 0. -1.
    10030    2    1    2    0    0  0.00000000000E+00  0.00000000000E+00  0.89873668574E+03  0.24607039059E+04  0.22907064592E+04 0.  0.
        5    1    3    3  502    0  0.90415253910E+03 -0.26826634040E+03  0.11474847703E+04  0.14853289304E+04  0.46999998093E+01 0.  1.
       -5    1    3    3    0  502 -0.90415253910E+03  0.26826634040E+03 -0.24874808458E+03  0.97537497555E+03  0.46999998093E+01 0. -1.
</event>
<event>
 5   0  0.2816178E-05  0.2331099E+04  0.7818609E-02  0.8465759E-01
        2   -1    0    0  501    0  0.00000000000E+00  0.00000000000E+00  0.13859902274E+04  0.13859902274E+04  0.25500000920E-02 0. -1.
       -2   -1    0    0    0  501  0.00000000000E+00  0.00000000000E+00 -0.98016969456E+03  0.98016969457E+03  0.25500000920E-02 0.  1.
    10030    2    1    2    0    0  0.00000000000E+00  0.00000000000E+00  0.40582053287E+03  0.23661599220E+04  0.23310989837E+04 0.  0.
        1    1    3    3  502    0 -0.25805247638E+03 -0.52375002046E+03  0.12268444097E+04  0.13586950983E+04  0.50400001928E-02 0. -1.
       -1    1    3    3    0  502  0.25805247638E+03  0.52375002046E+03 -0.82102387688E+03  0.10074648237E+04  0.50400001928E-02 0.  1.
</event>
<event>
 5   0  0.2994157E-05  0.2293705E+04  0.7818609E-02  0.8480407E-01
        2   -1    0    0  501    0  0.00000000000E+00  0.00000000000E+00  0.15468046853E+04  0.15468046853E+04  0.25500000920E-02 0. -1.
       -2   -1    0    0    0  501  0.00000000000E+00  0.00000000000E+00 -0.85031427088E+03  0.85031427088E+03  0.25500000920E-02 0.  1.
    10030    2    1    2    0    0  0.00000000000E+00  0.00000000000E+00  0.69649041447E+03  0.23971189562E+04  0.22937045130E+04 0.  0.
        4    1    3    3  502    0 -0.76568860483E+03 -0.70679486777E+03  0.84883000424E+03  0.13440059575E+04  0.12699999809E+01 0. -1.
       -4    1    3    3    0  502  0.76568860483E+03  0.70679486777E+03 -0.15233958977E+03  0.10531129988E+04  0.12699999809E+01 0.  1.
</event>
<event>
 5   0  0.2871888E-05  0.2301345E+04  0.7818609E-02  0.8477391E-01
        2   -1    0    0  501    0  0.00000000000E+00  0.00000000000E+00  0.97907560026E+03  0.97907560026E+03  0.25500000920E-02 0.  1.
       -2   -1    0    0    0  501  0.00000000000E+00  0.00000000000E+00 -0.13523445369E+04  0.13523445369E+04  0.25500000920E-02 0. -1.
    10030    2    1    2    0    0  0.00000000000E+00  0.00000000000E+00 -0.37326893668E+03  0.23314201372E+04  0.23013452929E+04 0.  0.
        3    1    3    3  502    0  0.26590927723E+03 -0.83974948207E+02  0.94432740385E+03  0.98463891427E+03  0.10100000352E+00 0.  1.
       -3    1    3    3    0  502 -0.26590927723E+03  0.83974948207E+02 -0.13175963405E+04  0.13467812229E+04  0.10100000352E+00 0. -1.
</event>
<event>
 5   0  0.1303224E-05  0.2324323E+04  0.7818609E-02  0.8468392E-01
       -1   -1    0    0    0  501  0.00000000000E+00  0.00000000000E+00  0.66542984466E+03  0.66542984468E+03  0.50400001928E-02 0. -1.
        1   -1    0    0  501    0  0.00000000000E+00  0.00000000000E+00 -0.20296946265E+04  0.20296946265E+04  0.50400001928E-02 0.  1.
    10030    2    1    2    0    0  0.00000000000E+00  0.00000000000E+00 -0.13642647818E+04  0.26951244712E+04  0.23243230241E+04 0.  0.
        2    1    3    3  502    0 -0.69928077977E+03 -0.48685071597E+03  0.23426550013E+03  0.88368407995E+03  0.25500000920E-02 0. -1.
       -2    1    3    3    0  502  0.69928077977E+03  0.48685071597E+03 -0.15985302819E+04  0.18114403912E+04  0.25500000920E-02 0.  1.
</event>
<event>
 5   0  0.1017200E-05  0.2303041E+04  0.7818609E-02  0.8476723E-01
        4   -1    0    0  501    0  0.00000000000E+00  0.00000000000E+00  0.16420900746E+04  0.16420905657E+04  0.12699999809E+01 0. -1.
       -4   -1    0    0    0  501  0.00000000000E+00  0.00000000000E+00 -0.80750596580E+03  0.80750696449E+03  0.12699999809E+01 0.  1.
    10030    2    1    2    0    0  0.00000000000E+00  0.00000000000E+00  0.83458410882E+03  0.24495975302E+04  0.23030409083E+04 0.  0.
        5    1    3    3  502    0  0.82789263155E+03 -0.52731496726E+03 -0.22311051868E+03  0.10066119797E+04  0.46999998093E+01 0.  1.
       -5    1    3    3    0  502 -0.82789263155E+03  0.52731496726E+03  0.10576946275E+04  0.14429855506E+04  0.46999998093E+01 0. -1.
</event>
<event>
 5   0  0.1017200E-05  0.2324503E+04  0.7818609E-02  0.8468322E-01
        3   -1    0    0  501    0  0.00000000000E+00  0.00000000000E+00  0.15588939892E+04  0.15588939925E+04  0.10100000352E+00 0. -1.
       -3   -1    0    0    0  501  0.00000000000E+00  0.00000000000E+00 -0.86653012391E+03  0.86653012980E+03  0.10100000352E+00 0.  1.
    10030    2    1    2    0    0  0.00000000000E+00  0.00000000000E+00  0.69236386532E+03  0.24254241223E+04  0.23245030547E+04 0.  0.
        3    1    3    3  502    0 -0.32451652671E+03  0.10411673955E+04 -0.73120911452E+02  0.10930174745E+04  0.10100000352E+00 0. -1.
       -3    1    3    3    0  502  0.32451652671E+03 -0.10411673955E+04  0.76548477678E+03  0.13324066479E+04  0.10100000352E+00 0.  1.
</event>
<event>
 5   0  0.1284837E-05  0.2297377E+04  0.7818609E-02  0.8478956E-01
       -1   -1    0    0    0  501  0.00000000000E+00  0.00000000000E+00  0.12008534833E+04  0.12008534833E+04  0.50400001928E-02 0. -1.
        1   -1    0    0  501    0  0.00000000000E+00  0.00000000000E+00 -0.10987893517E+04  0.10987893517E+04  0.50400001928E-02 0.  1.
    10030    2    1    2    0    0  0.00000000000E+00  0.00000000000E+00  0.10206413162E+03  0.22996428351E+04  0.22973767828E+04 0.  0.
        4    1    3    3  502    0 -0.13765551821E+03 -0.58604431692E+03  0.10303049741E+04  0.11932840968E+04  0.12699999809E+01 0. -1.
       -4    1    3    3    0  502  0.13765551821E+03  0.58604431692E+03 -0.92824084252E+03  0.11063587383E+04  0.12699999809E+01 0.  1.
</event>
<event>
 5   0  0.1327820E-05  0.2309197E+04  0.7818609E-02  0.8474304E-01
        1   -1    0    0  501    0  0.00000000000E+00  0.00000000000E+00  0.20368191848E+04  0.20368191848E+04  0.50400001928E-02 0. -1.
       -1   -1    0    0    0  501  0.00000000000E+00  0.00000000000E+00 -0.65449958526E+03  0.65449958528E+03  0.50400001928E-02 0.  1.
    10030    2    1    2    0    0  0.00000000000E+00  0.00000000000E+00  0.13823195995E+04  0.26913187701E+04  0.23091966670E+04 0.  0.
        1    1    3    3  502    0  0.79759878887E+03  0.82557350431E+03  0.54670688853E+03  0.12714652418E+04  0.50400001928E-02 0. -1.
       -1    1    3    3    0  502 -0.79759878887E+03 -0.82557350431E+03  0.83561271098E+03  0.14198535283E+04  0.50400001928E-02 0.  1.
</event>
<event>
 5   0  0.2994157E-05  0.2314530E+04  0.7818609E-02  0.8472214E-01
        2   -1    0    0  501    0  0.00000000000E+00  0.00000000000E+00  0.12057788847E+04  0.12057788847E+04  0.25500000920E-02 0.  1.
       -2   -1    0    0    0  501  0.00000000000E+00  0.00000000000E+00 -0.11107029940E+04  0.11107029940E+04  0.25500000920E-02 0. -1.
    10030    2    1    2    0    0  0.00000000000E+00  0.00000000000E+00  0.95075890670E+02  0.23164818787E+04  0.23145299456E+04 0.  0.
        4    1    3    3  502    0  0.10983965071E+04 -0.18033357575E+03  0.36445229633E+03  0.11712481269E+04  0.12699999809E+01 0. -1.
       -4    1    3    3    0  502 -0.10983965071E+04  0.18033357575E+03 -0.26937640566E+03  0.11452337518E+04  0.12699999809E+01 0.  1.
</event>
<event>
 5   0  0.2910126E-05  0.2287587E+04  0.7818609E-02  0.8482831E-01
       -2   -1    0    0    0  501  0.00000000000E+00  0.00000000000E+00  0.19908904695E+04  0.19908904695E+04  0.25500000920E-02 0. -1.
        2   -1    0    0  501    0  0.00000000000E+00  0.00000000000E+00 -0.65712511304E+03  0.65712511305E+03  0.25500000920E-02 0.  1.
    10030    2    1    2    0    0  0.00000000000E+00  0.00000000000E+00  0.13337653565E+04  0.26480155826E+04  0.22875874845E+04 0.  0.
        5    1    3    3  502    0  0.42321902715E+03  0.70659876818E+02 -0.56042099692E+03  0.70583351218E+03  0.46999998093E+01 0.  1.
       -5    1    3    3    0  502 -0.42321902715E+03 -0.70659876818E+02  0.18941863534E+04  0.19421820704E+04  0.46999998093E+01 0. -1.
</event>
<event>
 5   0  0.1308224E-05  0.2293638E+04  0.7818609E-02  0.8480434E-01
       -1   -1    0    0    0  501  0.00000000000E+00  0.00000000000E+00  0.13953112352E+04  0.13953112352E+04  0.50400001928E-02 0. -1.
        1   -1    0    0  501    0  0.00000000000E+00  0.00000000000E+00 -0.94258120819E+03  0.94258120821E+03  0.50400001928E-02 0.  1.
    10030    2    1    2    0    0  0.00000000000E+00  0.00000000000E+00  0.45273002700E+03  0.23378924434E+04  0.22936382887E+04 0.  0.
        5    1    3    3  502    0  0.25938422089E+03 -0.10826743296E+04 -0.54095035655E+02  0.11146354744E+04  0.46999998093E+01 0.  1.
       -5    1    3    3    0  502 -0.25938422089E+03  0.10826743296E+04  0.50682506266E+03  0.12232569690E+04  0.46999998093E+01 0. -1.
</event>
<event>
 5   0  0.2816178E-05  0.2302867E+04  0.7818609E-02  0.8476792E-01
        2   -1    0    0  501    0  0.00000000000E+00  0.00000000000E+00  0.11792337855E+04  0.11792337855E+04  0.25500000920E-02 0. -1.
       -2   -1    0    0    0  501  0.00000000000E+00  0.00000000000E+00 -0.11242881754E+04  0.11242881754E+04  0.25500000920E-02 0.  1.
    10030    2    1    2    0    0  0.00000000000E+00  0.00000000000E+00  0.54945610023E+02  0.23035219609E+04  0.23028665624E+04 0.  0.
        1    1    3    3  502    0  0.46608206553E+02  0.23066660285E+02 -0.11231128810E+04  0.11243162096E+04  0.50400001928E-02 0.  1.
       -1    1    3    3    0  502 -0.46608206553E+02 -0.23066660285E+02  0.11780584910E+04  0.11792057513E+04  0.50400001928E-02 0. -1.
</event>
<event>
 5   0  0.2938972E-05  0.2175630E+04  0.7818609E-02  0.8528641E-01
       -2   -1    0    0    0  501  0.00000000000E+00  0.00000000000E+00  0.76958761982E+03  0.76958761983E+03  0.25500000920E-02 0.  1.
        2   -1    0    0  501    0  0.00000000000E+00  0.00000000000E+00 -0.15376299475E+04  0.15376299475E+04  0.25500000920E-02 0. -1.
    10030    2    1    2    0    0  0.00000000000E+00  0.00000000000E+00 -0.76804232768E+03  0.23072175673E+04  0.21756295378E+04 0.  0.
        2    1    3    3  502    0 -0.40743553877E+03  0.14318912101E+02 -0.14535495354E+04  0.15096406862E+04  0.25500000920E-02 0. -1.
       -2    1    3    3    0  502  0.40743553877E+03 -0.14318912101E+02  0.68550720772E+03  0.79757688115E+03  0.25500000920E-02 0.  1.
</event>
<event>
 5   0  0.2938972E-05  0.2284754E+04  0.7818609E-02  0.8483957E-01
        2   -1    0    0  501    0  0.00000000000E+00  0.00000000000E+00  0.19195934234E+04  0.19195934234E+04  0.25500000920E-02 0. -1.
       -2   -1    0    0    0  501  0.00000000000E+00  0.00000000000E+00 -0.67984481487E+03  0.67984481488E+03  0.25500000920E-02 0.  1.
    10030    2    1    2    0    0  0.00000000000E+00  0.00000000000E+00  0.12397486086E+04  0.25994382383E+04  0.22847543724E+04 0.  0.
        2    1    3    3  502    0  0.27097411925E+03 -0.10746045489E+04  0.93522055287E+03  0.14501170271E+04  0.25500000920E-02 0. -1.
       -2    1    3    3    0  502 -0.27097411925E+03  0.10746045489E+04  0.30452805570E+03  0.11493212112E+04  0.25500000920E-02 0.  1.
</event>
<event>
 5   0  0.1284837E-05  0.2334637E+04  0.7818609E-02  0.8464388E-01
        1   -1    0    0  501    0  0.00000000000E+00  0.00000000000E+00  0.11417536539E+04  0.11417536539E+04  0.50400001928E-02 0.  1.
       -1   -1    0    0    0  501  0.00000000000E+00  0.00000000000E+00 -0.11934559619E+04  0.11934559619E+04  0.50400001928E-02 0. -1.
    10030    2    1    2    0    0  0.00000000000E+00  0.00000000000E+00 -0.51702307938E+02  0.23352096158E+04  0.23346371926E+04 0.  0.
        4    1    3    3  502    0 -0.10536528115E+04 -0.47330461806E+03 -0.19450324164E+03  0.11713388205E+04  0.12699999809E+01 0.  1.
       -4    1    3    3    0  502  0.10536528115E+04  0.47330461806E+03  0.14280093370E+03  0.11638707953E+04  0.12699999809E+01 0. -1.
</event>
<event>
 5   0  0.1327820E-05  0.2240849E+04  0.7818609E-02  0.8501616E-01
       -1   -1    0    0    0  501  0.00000000000E+00  0.00000000000E+00  0.68940502854E+03  0.68940502856E+03  0.50400001928E-02 0. -1.
        1   -1    0    0  501    0  0.00000000000E+00  0.00000000000E+00 -0.18209187301E+04  0.18209187301E+04  0.50400001928E-02 0.  1.
    10030    2    1    2    0    0  0.00000000000E+00  0.00000000000E+00 -0.11315137016E+04  0.25103237587E+04  0.22408485260E+04 0.  0.
        1    1    3    3  502    0  0.14026438718E+03 -0.99553556504E+03 -0.11197858194E+04  0.15048871854E+04  0.50400001928E-02 0.  1.
       -1    1    3    3    0  502 -0.14026438718E+03  0.99553556504E+03 -0.11727882196E+02  0.10054365732E+04  0.50400001928E-02 0. -1.
</event>
<event>
 5   0  0.2910126E-05  0.2284130E+04  0.7818609E-02  0.8484205E-01
        2   -1    0    0  501    0  0.00000000000E+00  0.00000000000E+00  0.10593873222E+04  0.10593873222E+04  0.25500000920E-02 0. -1.
       -2   -1    0    0    0  501  0.00000000000E+00  0.00000000000E+00 -0.12311947911E+04  0.12311947911E+04  0.25500000920E-02 0.  1.
    10030    2    1    2    0    0  0.00000000000E+00  0.00000000000E+00 -0.17180746886E+03  0.22905821133E+04  0.22841297274E+04 0.  0.
        5    1    3    3  502    0 -0.23113793752E+03  0.58761638253E+03  0.86840009098E+03  0.10737125161E+04  0.46999998093E+01 0. -1.
       -5    1    3    3    0  502  0.23113793752E+03 -0.58761638253E+03 -0.10402075598E+04  0.12168695973E+04  0.46999998093E+01 0.  1.
</event>
<event>
 5   0  0.1308224E-05  0.2300786E+04  0.7818609E-02  0.8477611E-01
       -1   -1    0    0    0  501  0.00000000000E+00  0.00000000000E+00  0.10726615585E+04  0.10726615585E+04  0.50400001928E-02 0. -1.
        1   -1    0    0  501    0  0.00000000000E+00  0.00000000000E+00 -0.12337568717E+04  0.12337568718E+04  0.50400001928E-02 0.  1.
    10030    2    1    2    0    0  0.00000000000E+00  0.00000000000E+00 -0.16109531321E+03  0.23064184303E+04  0.23007855780E+04 0.  0.
        5    1    3    3  502    0  0.39516285284E+03 -0.73729847652E+03  0.71108105522E+03  0.10979167003E+04  0.46999998093E+01 0. -1.
       -5    1    3    3    0  502 -0.39516285284E+03  0.73729847652E+03 -0.87217636843E+03  0.12085017300E+04  0.46999998093E+01 0.  1.
</event>
<event>
 5   0  0.2938972E-05  0.2298009E+04  0.7818609E-02  0.8478706E-01
       -2   -1    0    0    0  501  0.00000000000E+00  0.00000000000E+00  0.68519953901E+03  0.68519953901E+03  0.25500000920E-02 0. -1.
        2   -1    0    0  501    0  0.00000000000E+00  0.00000000000E+00 -0.19267547835E+04  0.19267547835E+04  0.25500000920E-02 0.  1.
    10030    2    1    2    0    0  0.00000000000E+00  0.00000000000E+00 -0.12415552445E+04  0.26119543225E+04  0.22980091292E+04 0.  0.
        2    1    3    3  502    0  0.10102138424E+04 -0.46543300989E+03 -0.29321991865E+03  0.11502772774E+04  0.25500000920E-02 0. -1.
       -2    1    3    3    0  502 -0.10102138424E+04  0.46543300989E+03 -0.94833532581E+03  0.14616770451E+04  0.25500000920E-02 0.  1.
</event>
<event>
 5   0  0.2994157E-05  0.2295430E+04  0.7818609E-02  0.8479725E-01
       -2   -1    0    0    0  501  0.00000000000E+00  0.00000000000E+00  0.64012620436E+03  0.64012620436E+03  0.25500000920E-02 0.  1.
        2   -1    0    0  501    0  0.00000000000E+00  0.00000000000E+00 -0.20577970831E+04  0.20577970831E+04  0.25500000920E-02 0. -1.
    10030    2    1    2    0    0  0.00000000000E+00  0.00000000000E+00 -0.14176708788E+04  0.26979232875E+04  0.22954301001E+04 0.  0.
        4    1    3    3  502    0 -0.83926384116E+03 -0.34247575696E+02 -0.16280964881E+04  0.18320034058E+04  0.12699999809E+01 0. -1.
       -4    1    3    3    0  502  0.83926384116E+03  0.34247575696E+02  0.21042560931E+03  0.86591988167E+03  0.12699999809E+01 0.  1.
</event>
<event>
 5   0  0.1284837E-05  0.2312115E+04  0.7818609E-02  0.8473160E-01
       -1   -1    0    0    0  501  0.00000000000E+00  0.00000000000E+00  0.56423207290E+03  0.56423207293E+03  0.50400001928E-02 0.  1.
        1   -1    0    0  501    0  0.00000000000E+00  0.00000000000E+00 -0.23686514414E+04  0.23686514414E+04  0.50400001928E-02 0. -1.
    10030    2    1    2    0    0  0.00000000000E+00  0.00000000000E+00 -0.18044193685E+04  0.29328835143E+04  0.23121151466E+04 0.  0.
        4    1    3    3  502    0  0.49562088387E+02  0.34188714364E+03  0.49722559700E+03  0.60545695702E+03  0.12699999809E+01 0.  1.
       -4    1    3    3    0  502 -0.49562088387E+02 -0.34188714364E+03 -0.23016449655E+04  0.23274265573E+04  0.12699999809E+01 0. -1.
</event>
<event>
 5   0  0.2910126E-05  0.2302555E+04  0.7818609E-02  0.8476914E-01
       -2   -1    0    0    0  501  0.00000000000E+00  0.00000000000E+00  0.79695442868E+03  0.79695442868E+03  0.25500000920E-02 0. -1.
        2   -1    0    0  501    0  0.00000000000E+00  0.00000000000E+00 -0.16631319659E+04  0.16631319659E+04  0.25500000920E-02 0.  1.
    10030    2    1    2    0    0  0.00000000000E+00  0.00000000000E+00 -0.86617753718E+03  0.24600863945E+04  0.23025554375E+04 0.  0.
        5    1    3    3  502    0 -0.13733796165E+03 -0.86126196790E+03  0.36984849039E+03  0.94733515131E+03  0.46999998093E+01 0. -1.
       -5    1    3    3    0  502  0.13733796165E+03  0.86126196790E+03 -0.12360260276E+04  0.15127512432E+04  0.46999998093E+01 0.  1.
</event>
<event>
 5   0  0.2871888E-05  0.2297326E+04  0.7818609E-02  0.8478976E-01
        2   -1    0    0  501    0  0.00000000000E+00  0.00000000000E+00  0.18837934415E+04  0.18837934415E+04  0.25500000920E-02 0. -1.
       -2   -1    0    0    0  501  0.00000000000E+00  0.00000000000E+00 -0.70040947036E+03  0.70040947037E+03  0.25500000920E-02 0.  1.
    10030    2    1    2    0    0  0.00000000000E+00  0.00000000000E+00  0.11833839711E+04  0.25842029118E+04  0.22973260688E+04 0.  0.
        3    1    3    3  502    0  0.98380484505E+03  0.20661914413E+03 -0.33462185602E+02  0.10058246228E+04  0.10100000352E+00 0.  1.
       -3    1    3    3    0  502 -0.98380484505E+03 -0.20661914413E+03  0.12168461567E+04  0.15783782890E+04  0.10100000352E+00 0. -1.
</event>
<event>
 5   0  0.2994157E-05  0.2296812E+04  0.7818609E-02  0.8479179E-01
       -2   -1    0    0    0  501  0.00000000000E+00  0.00000000000E+00  0.18132928968E+04  0.18132928968E+04  0.25500000920E-02 0. -1.
        2   -1    0    0  501    0  0.00000000000E+00  0.00000000000E+00 -0.72731585117E+03  0.72731585117E+03  0.25500000920E-02 0.  1.
    10030    2    1    2    0    0  0.00000000000E+00  0.00000000000E+00  0.10859770457E+04  0.25406087480E+04  0.22968122837E+04 0.  0.
        4    1    3    3  502    0  0.10019956505E+04 -0.54825681931E+03  0.67505243906E+03  0.13267547746E+04  0.12699999809E+01 0.  1.
       -4    1    3    3    0  502 -0.10019956505E+04  0.54825681931E+03  0.41092460661E+03  0.12138539734E+04  0.12699999809E+01 0. -1.
</event>
<event>
 5   0  0.1303224E-05  0.2319299E+04  0.7818609E-02  0.8470350E-01
       -1   -1    0    0    0  501  0.00000000000E+00  0.00000000000E+00  0.94016384481E+03  0.94016384482E+03  0.50400001928E-02 0. -1.
        1   -1    0    0  501    0  0.00000000000E+00  0.00000000000E+00 -0.14303755119E+04  0.14303755119E+04  0.50400001928E-02 0.  1.
    10030    2    1    2    0    0  0.00000000000E+00  0.00000000000E+00 -0.49021166706E+03  0.23705393567E+04  0.23192993259E+04 0.  0.
        2    1    3    3  502    0  0.56710427039E+03  0.58900159034E+03 -0.10856224890E+04  0.13590828950E+04  0.25500000920E-02 0.  1.
       -2    1    3    3    0  502 -0.56710427039E+03 -0.58900159034E+03  0.59541082196E+03  0.10114564617E+04  0.25500000920E-02 0. -1.
</event>
<event>
 5   0  0.2871888E-05  0.2299757E+04  0.7818609E-02  0.8478017E-01
       -2   -1    0    0    0  501  0.00000000000E+00  0.00000000000E+00  0.65865462616E+03  0.65865462616E+03  0.25500000920E-02 0.  1.
        2   -1    0    0  501    0  0.00000000000E+00  0.00000000000E+00 -0.20074573414E+04  0.20074573414E+04  0.25500000920E-02 0. -1.
    10030    2    1    2    0    0  0.00000000000E+00  0.00000000000E+00 -0.13488027153E+04  0.26661119676E+04  0.22997574348E+04 0.  0.
        3    1    3    3  502    0 -0.64198702181E+02  0.11114512796E+04 -0.34086159783E+03  0.11643161337E+04  0.10100000352E+00 0.  1.
       -3    1    3    3    0  502  0.64198702181E+02 -0.11114512796E+04 -0.10079411175E+04  0.15017958339E+04  0.10100000352E+00 0. -1.
</event>
<event>
 5   0  0.1308224E-05  0.2293814E+04  0.7818609E-02  0.8480364E-01
        1   -1    0    0  501    0  0.00000000000E+00  0.00000000000E+00  0.13190532077E+04  0.13190532077E+04  0.50400001928E-02 0.  1.
       -1   -1    0    0    0  501  0.00000000000E+00  0.00000000000E+00 -0.99722692569E+03  0.99722692571E+03  0.50400001928E-02 0. -1.
    10030    2    1    2    0    0  0.00000000000E+00  0.00000000000E+00  0.32182628199E+03  0.23162801334E+04  0.22938137458E+04 0.  0.
        5    1    3    3  502    0 -0.11158400303E+04 -0.11493972240E+02  0.42835083871E+03  0.11952981283E+04  0.46999998093E+01 0. -1.
       -5    1    3    3    0  502  0.11158400303E+04  0.11493972240E+02 -0.10652455671E+03  0.11209820051E+04  0.46999998093E+01 0.  1.
</event>
<event>
 5   0  0.2994157E-05  0.2276153E+04  0.7818609E-02  0.8487383E-01
        2   -1    0    0  501    0  0.00000000000E+00  0.00000000000E+00  0.17966700024E+04  0.17966700024E+04  0.25500000920E-02 0.  1.
       -2   -1    0    0    0  501  0.00000000000E+00  0.00000000000E+00 -0.72089936887E+03  0.72089936887E+03  0.25500000920E-02 0. -1.
    10030    2    1    2    0    0  0.00000000000E+00  0.00000000000E+00  0.10757706336E+04  0.25175693713E+04  0.22761531327E+04 0.  0.
        4    1    3    3  502    0 -0.10396141799E+04 -0.27332166742E+03  0.12445685679E+03  0.10821245303E+04  0.12699999809E+01 0.  1.
       -4    1    3    3    0  502  0.10396141799E+04  0.27332166742E+03  0.95131377678E+03  0.14354448410E+04  0.12699999809E+01 0. -1.
</event>
<event>
 5   0  0.1327820E-05  0.2308530E+04  0.7818609E-02  0.8474565E-01
        1   -1    0    0  501    0  0.00000000000E+00  0.00000000000E+00  0.12725195135E+04  0.12725195135E+04  0.50400001928E-02 0. -1.
       -1   -1    0    0    0  501  0.00000000000E+00  0.00000000000E+00 -0.10469997224E+04  0.10469997224E+04  0.50400001928E-02 0.  1.
    10030    2    1    2    0    0  0.00000000000E+00  0.00000000000E+00  0.22551979108E+03  0.23195192359E+04  0.23085299023E+04 0.  0.
        1    1    3    3  502    0  0.10730231966E+04  0.28936479744E+03  0.42604024840E+03  0.11902189126E+04  0.50400001928E-02 0. -1.
       -1    1    3    3    0  502 -0.10730231966E+04 -0.28936479744E+03 -0.20052045732E+03  0.11293003234E+04  0.50400001928E-02 0.  1.
</event>
<event>
 5   0  0.2910126E-05  0.2288629E+04  0.7818609E-02  0.8482418E-01
       -2   -1    0    0    0  501  0.00000000000E+00  0.00000000000E+00  0.11324076232E+04  0.11324076232E+04  0.25500000920E-02 0. -1.
        2   -1    0    0  501    0  0.00000000000E+00  0.00000000000E+00 -0.11563467212E+04  0.11563467212E+04  0.25500000920E-02 0.  1.
    10030    2    1    2    0    0  0.00000000000E+00  0.00000000000E+00 -0.23939098055E+02  0.22887543444E+04  0.22886291461E+04 0.  0.
        5    1    3    3  502    0  0.83593698820E+03 -0.20323255125E+03 -0.76655680479E+03  0.11522697354E+04  0.46999998093E+01 0.  1.
       -5    1    3    3    0  502 -0.83593698820E+03  0.20323255125E+03  0.74261770674E+03  0.11364846090E+04  0.46999998093E+01 0. -1.
</event>
<event>
 5   0  0.1308224E-05  0.2298706E+04  0.7818609E-02  0.8478431E-01
       -1   -1    0    0    0  501  0.00000000000E+00  0.00000000000E+00  0.11256147212E+04  0.11256147212E+04  0.50400001928E-02 0.  1.
        1   -1    0    0  501    0  0.00000000000E+00  0.00000000000E+00 -0.11735919681E+04  0.11735919681E+04  0.50400001928E-02 0. -1.
    10030    2    1    2    0    0  0.00000000000E+00  0.00000000000E+00 -0.47977246867E+02  0.22992066893E+04  0.22987060673E+04 0.  0.
        5    1    3    3  502    0 -0.42463031727E+03  0.45662819938E+03  0.94171120330E+03  0.11294522120E+04  0.46999998093E+01 0.  1.
       -5    1    3    3    0  502  0.42463031727E+03 -0.45662819938E+03 -0.98968845017E+03  0.11697544773E+04  0.46999998093E+01 0. -1.
</event>
<event>
 5   0  0.1308224E-05  0.2137190E+04  0.7818609E-02  0.8545035E-01
        1   -1    0    0  501    0  0.00000000000E+00  0.00000000000E+00  0.21267715943E+04  0.21267715943E+04  0.50400001928E-02 0.  1.
       -1   -1    0    0    0  501  0.00000000000E+00  0.00000000000E+00 -0.53691508851E+03  0.53691508854E+03  0.50400001928E-02 0. -1.
    10030    2    1    2    0    0  0.00000000000E+00  0.00000000000E+00  0.15898565058E+04  0.26636866828E+04  0.21371904537E+04 0.  0.
        5    1    3    3  502    0  0.34357258358E+03  0.49721885562E+02  0.20545181947E+04  0.20836462004E+04  0.46999998093E+01 0.  1.
       -5    1    3    3    0  502 -0.34357258358E+03 -0.49721885562E+02 -0.46466168893E+03  0.58004048242E+03  0.46999998093E+01 0. -1.
</event>
<event>
 5   0  0.2910126E-05  0.2307081E+04  0.7818609E-02  0.8475134E-01
        2   -1    0    0  501    0  0.00000000000E+00  0.00000000000E+00  0.14792673886E+04  0.14792673886E+04  0.25500000920E-02 0.  1.
       -2   -1    0    0    0  501  0.00000000000E+00  0.00000000000E+00 -0.89953696562E+03  0.89953696562E+03  0.25500000920E-02 0. -1.
    10030    2    1    2    0    0  0.00000000000E+00  0.00000000000E+00  0.57973042296E+03  0.23788043542E+04  0.23070810112E+04 0.  0.
        5    1    3    3  502    0  0.50018224442E+03 -0.81764979021E+03  0.95161202034E+03  0.13506742702E+04  0.46999998093E+01 0.  1.
       -5    1    3    3    0  502 -0.50018224442E+03  0.81764979021E+03 -0.37188159738E+03  0.10281300840E+04  0.46999998093E+01 0. -1.
</event>
<event>
 5   0  0.1284837E-05  0.2303950E+04  0.7818609E-02  0.8476365E-01
       -1   -1    0    0    0  501  0.00000000000E+00  0.00000000000E+00  0.54138254270E+03  0.54138254272E+03  0.50400001928E-02 0. -1.
        1   -1    0    0  501    0  0.00000000000E+00  0.00000000000E+00 -0.24512181817E+04  0.24512181817E+04  0.50400001928E-02 0.  1.
    10030    2    1    2    0    0  0.00000000000E+00  0.00000000000E+00 -0.19098356390E+04  0.29926007244E+04  0.23039502876E+04 0.  0.
        4    1    3    3  502    0  0.18105150395E+03 -0.12958169382E+03 -0.24230045633E+04  0.24332126478E+04  0.12699999809E+01 0.  1.
       -4    1    3    3    0  502 -0.18105150395E+03  0.12958169382E+03  0.51316892435E+03  0.55938807663E+03  0.12699999809E+01 0. -1.
</event>
<event>
 5   0  0.1284837E-05  0.2296989E+04  0.7818609E-02  0.8479109E-01
        1   -1    0    0  501    0  0.00000000000E+00  0.00000000000E+00  0.67903470598E+03  0.67903470599E+03  0.50400001928E-02 0.  1.
       -1   -1    0    0    0  501  0.00000000000E+00  0.00000000000E+00 -0.19425214123E+04  0.19425214123E+04  0.50400001928E-02 0. -1.
    10030    2    1    2    0    0  0.00000000000E+00  0.00000000000E+00 -0.12634867063E+04  0.26215561183E+04  0.22969888603E+04 0.  0.
        4    1    3    3  502    0  0.22589409362E+01  0.90777472672E+03 -0.14347018982E+04  0.16977724249E+04  0.12699999809E+01 0. -1.
       -4    1    3    3    0  502 -0.22589409362E+01 -0.90777472672E+03  0.17121519188E+03  0.92378369336E+03  0.12699999809E+01 0.  1.
</event>
<event>
 5   0  0.1308224E-05  0.2187912E+04  0.7818609E-02  0.8523476E-01
       -1   -1    0    0    0  501  0.00000000000E+00  0.00000000000E+00  0.81187123802E+03  0.81187123804E+03  0.50400001928E-02 0.  1.
        1   -1    0    0  501    0  0.00000000000E+00  0.00000000000E+00 -0.14740508489E+04  0.14740508489E+04  0.50400001928E-02 0. -1.
    10030    2    1    2    0    0  0.00000000000E+00  0.00000000000E+00 -0.66217961085E+03  0.22859220869E+04  0.21879117785E+04 0.  0.
        5    1    3    3  502    0  0.12421355114E+02 -0.41343257078E+03  0.72701424370E+03  0.83645237831E+03  0.46999998093E+01 0.  1.
       -5    1    3    3    0  502 -0.12421355114E+02  0.41343257078E+03 -0.13891938546E+04  0.14494697086E+04  0.46999998093E+01 0. -1.
</event>
<event>
 5   0  0.1284837E-05  0.2298488E+04  0.7818609E-02  0.8478518E-01
        1   -1    0    0  501    0  0.00000000000E+00  0.00000000000E+00  0.10302811219E+04  0.10302811220E+04  0.50400001928E-02 0.  1.
       -1   -1    0    0    0  501  0.00000000000E+00  0.00000000000E+00 -0.12819428312E+04  0.12819428312E+04  0.50400001928E-02 0. -1.
    10030    2    1    2    0    0  0.00000000000E+00  0.00000000000E+00 -0.25166170926E+03  0.23122239532E+04  0.22984877624E+04 0.  0.
        4    1    3    3  502    0  0.84227562766E+03  0.28906881516E+03 -0.85665082966E+03  0.12356541869E+04  0.12699999809E+01 0. -1.
       -4    1    3    3    0  502 -0.84227562766E+03 -0.28906881516E+03  0.60498912040E+03  0.10765697662E+04  0.12699999809E+01 0.  1.
</event>
<event>
 5   0  0.1284837E-05  0.2293622E+04  0.7818609E-02  0.8480440E-01
       -1   -1    0    0    0  501  0.00000000000E+00  0.00000000000E+00  0.92635015259E+03  0.92635015261E+03  0.50400001928E-02 0. -1.
        1   -1    0    0  501    0  0.00000000000E+00  0.00000000000E+00 -0.14197396239E+04  0.14197396240E+04  0.50400001928E-02 0.  1.
    10030    2    1    2    0    0  0.00000000000E+00  0.00000000000E+00 -0.49338947135E+03  0.23460897766E+04  0.22936224775E+04 0.  0.
        4    1    3    3  502    0 -0.20079200967E+03 -0.84604115902E+03  0.51812009695E+03  0.10122021150E+04  0.12699999809E+01 0. -1.
       -4    1    3    3    0  502  0.20079200967E+03  0.84604115902E+03 -0.10115095683E+04  0.13338876615E+04  0.12699999809E+01 0.  1.
</event>
<event>
 5   0  0.1284837E-05  0.2295419E+04  0.7818609E-02  0.8479729E-01
        1   -1    0    0  501    0  0.00000000000E+00  0.00000000000E+00  0.61543669355E+03  0.61543669357E+03  0.50400001928E-02 0. -1.
       -1   -1    0    0    0  501  0.00000000000E+00  0.00000000000E+00 -0.21403297639E+04  0.21403297639E+04  0.50400001928E-02 0.  1.
    10030    2    1    2    0    0  0.00000000000E+00  0.00000000000E+00 -0.15248930703E+04  0.27557664575E+04  0.22954193282E+04 0.  0.
        4    1    3    3  502    0  0.22251281350E+03  0.10487237904E+04 -0.12543826687E+04  0.16500942497E+04  0.12699999809E+01 0. -1.
       -4    1    3    3    0  502 -0.22251281350E+03 -0.10487237904E+04 -0.27051040165E+03  0.11056722077E+04  0.12699999809E+01 0.  1.
</event>
<event>
 5   0  0.1327820E-05  0.2286060E+04  0.7818609E-02  0.8483438E-01
       -1   -1    0    0    0  501  0.00000000000E+00  0.00000000000E+00  0.19328646523E+04  0.19328646523E+04  0.50400001928E-02 0.  1.
        1   -1    0    0  501    0  0.00000000000E+00  0.00000000000E+00 -0.67594862198E+03  0.67594862200E+03  0.50400001928E-02 0. -1.
    10030    2    1    2    0    0  0.00000000000E+00  0.00000000000E+00  0.12569160303E+04  0.26088132743E+04  0.22860596652E+04 0.  0.
        1    1    3    3  502    0  0.65982218794E+03  0.81917493451E+03  0.11389437972E+04  0.15503566900E+04  0.50400001928E-02 0. -1.
       -1    1    3    3    0  502 -0.65982218794E+03 -0.81917493451E+03  0.11797223311E+03  0.10584565843E+04  0.50400001928E-02 0.  1.
</event>
<event>
 5   0  0.2938972E-05  0.2303493E+04  0.7818609E-02  0.8476545E-01
        2   -1    0    0  501    0  0.00000000000E+00  0.00000000000E+00  0.21267044174E+04  0.21267044174E+04  0.25500000920E-02 0.  1.
       -2   -1    0    0    0  501  0.00000000000E+00  0.00000000000E+00 -0.62374437001E+03  0.62374437002E+03  0.25500000920E-02 0. -1.
    10030    2    1    2    0    0  0.00000000000E+00  0.00000000000E+00  0.15029600474E+04  0.27504487874E+04  0.23034929191E+04 0.  0.
        2    1    3    3  502    0 -0.67443308402E+03  0.55986124652E+03  0.16435882661E+04  0.18627095825E+04  0.25500000920E-02 0.  1.
       -2    1    3    3    0  502  0.67443308402E+03 -0.55986124652E+03 -0.14062821868E+03  0.88773920498E+03  0.25500000920E-02 0. -1.
</event>
<event>
 5   0  0.1327820E-05  0.2231746E+04  0.7818609E-02  0.8505330E-01
       -1   -1    0    0    0  501  0.00000000000E+00  0.00000000000E+00  0.14986812099E+04  0.14986812099E+04  0.50400001928E-02 0.  1.
        1   -1    0    0  501    0  0.00000000000E+00  0.00000000000E+00 -0.83084531643E+03  0.83084531645E+03  0.50400001928E-02 0. -1.
    10030    2    1    2    0    0  0.00000000000E+00  0.00000000000E+00  0.66783589343E+03  0.23295265263E+04  0.22317457418E+04 0.  0.
        1    1    3    3  502    0 -0.77023040792E+02  0.10445679603E+04 -0.67804518966E+02  0.10495962201E+04  0.50400001928E-02 0. -1.
       -1    1    3    3    0  502  0.77023040792E+02 -0.10445679603E+04  0.73564041239E+03  0.12799303062E+04  0.50400001928E-02 0.  1.
</event>
<event>
 5   0  0.1327820E-05  0.2305903E+04  0.7818609E-02  0.8475597E-01
        1   -1    0    0  501    0  0.00000000000E+00  0.00000000000E+00  0.21782694258E+04  0.21782694258E+04  0.50400001928E-02 0.  1.
       -1   -1    0    0    0  501  0.00000000000E+00  0.00000000000E+00 -0.61025357001E+03  0.61025357003E+03  0.50400001928E-02 0. -1.
    10030    2    1    2    0    0  0.00000000000E+00  0.00000000000E+00  0.15680158558E+04  0.27885229958E+04  0.23059025943E+04 0.  0.
        1    1    3    3  502    0  0.45730254791E+03  0.30239358385E+03  0.20105538267E+04  0.20839611777E+04  0.50400001928E-02 0.  1.
       -1    1    3    3    0  502 -0.45730254791E+03 -0.30239358385E+03 -0.44253797093E+03  0.70456181817E+03  0.50400001928E-02 0. -1.
</event>
<event>
 5   0  0.2910126E-05  0.2313361E+04  0.7818609E-02  0.8472671E-01
        2   -1    0    0  501    0  0.00000000000E+00  0.00000000000E+00  0.13177207976E+04  0.13177207976E+04  0.25500000920E-02 0.  1.
       -2   -1    0    0    0  501  0.00000000000E+00  0.00000000000E+00 -0.10153214990E+04  0.10153214990E+04  0.25500000920E-02 0. -1.
    10030    2    1    2    0    0  0.00000000000E+00  0.00000000000E+00  0.30239929852E+03  0.23330422966E+04  0.23133614119E+04 0.  0.
        5    1    3    3  502    0 -0.15803567384E+03 -0.68494215037E+03 -0.77518303737E+03  0.10464472538E+04  0.46999998093E+01 0. -1.
       -5    1    3    3    0  502  0.15803567384E+03  0.68494215037E+03  0.10775823359E+04  0.12865950428E+04  0.46999998093E+01 0.  1.
</event>
<event>
 5   0  0.1017200E-05  0.2303080E+04  0.7818609E-02  0.8476708E-01
       -4   -1    0    0    0  501  0.00000000000E+00  0.00000000000E+00  0.11812659025E+04  0.11812665852E+04  0.12699999809E+01 0. -1.
        4   -1    0    0  501    0  0.00000000000E+00  0.00000000000E+00 -0.11225604864E+04  0.11225612048E+04  0.12699999809E+01 0.  1.
    10030    2    1    2    0    0  0.00000000000E+00  0.00000000000E+00  0.58705416184E+02  0.23038277900E+04  0.23030797121E+04 0.  0.
        2    1    3    3  502    0 -0.95304640323E+03 -0.62756605078E+03 -0.12531784110E+03  0.11479726286E+04  0.25500000920E-02 0.  1.
       -2    1    3    3    0  502  0.95304640323E+03  0.62756605078E+03  0.18402325729E+03  0.11558551614E+04  0.25500000920E-02 0. -1.
</event>
<event>
 5   0  0.1371753E-05  0.2338312E+04  0.7818609E-02  0.8462967E-01
        1   -1    0    0  501    0  0.00000000000E+00  0.00000000000E+00  0.23283029527E+04  0.23283029527E+04  0.50400001928E-02 0. -1.
       -1   -1    0    0    0  501  0.00000000000E+00  0.00000000000E+00 -0.58709098173E+03  0.58709098175E+03  0.50400001928E-02 0.  1.
    10030    2    1    2    0    0  0.00000000000E+00  0.00000000000E+00  0.17412119710E+04  0.29153939345E+04  0.23383119264E+04 0.  0.
        3    1    3    3  502    0 -0.84428423949E+03 -0.39802296678E+03  0.17484124673E+04  0.19819647639E+04  0.10100000352E+00 0. -1.
       -3    1    3    3    0  502  0.84428423949E+03  0.39802296678E+03 -0.72004963729E+01  0.93342917058E+03  0.10100000352E+00 0.  1.
</event>
<event>
 5   0  0.1284837E-05  0.2265998E+04  0.7818609E-02  0.8491449E-01
       -1   -1    0    0    0  501  0.00000000000E+00  0.00000000000E+00  0.10512480035E+04  0.10512480035E+04  0.50400001928E-02 0.  1.
        1   -1    0    0  501    0  0.00000000000E+00  0.00000000000E+00 -0.12211076696E+04  0.12211076696E+04  0.50400001928E-02 0. -1.
    10030    2    1    2    0    0  0.00000000000E+00  0.00000000000E+00 -0.16985966610E+03  0.22723556732E+04  0.22659982346E+04 0.  0.
        4    1    3    3  502    0 -0.14907198641E+03 -0.72871351079E+03 -0.94198520534E+03  0.12002431328E+04  0.12699999809E+01 0. -1.
       -4    1    3    3    0  502  0.14907198641E+03  0.72871351079E+03  0.77212553924E+03  0.10721125404E+04  0.12699999809E+01 0.  1.
</event>
<event>
 5   0  0.1284837E-05  0.2301633E+04  0.7818609E-02  0.8477277E-01
        1   -1    0    0  501    0  0.00000000000E+00  0.00000000000E+00  0.21255120312E+04  0.21255120312E+04  0.50400001928E-02 0. -1.
       -1   -1    0    0    0  501  0.00000000000E+00  0.00000000000E+00 -0.62308708438E+03  0.62308708440E+03  0.50400001928E-02 0.  1.
    10030    2    1    2    0    0  0.00000000000E+00  0.00000000000E+00  0.15024249468E+04  0.27485991156E+04  0.23016334151E+04 0.  0.
        4    1    3    3  502    0  0.23835261767E+03 -0.53236259320E+01 -0.59327140895E+03  0.63938477376E+03  0.12699999809E+01 0.  1.
       -4    1    3    3    0  502 -0.23835261767E+03  0.53236259320E+01  0.20956963557E+04  0.21092143418E+04  0.12699999809E+01 0. -1.
</event>
<event>
 5   0  0.2994157E-05  0.2276368E+04  0.7818609E-02  0.8487298E-01
        2   -1    0    0  501    0  0.00000000000E+00  0.00000000000E+00  0.17256386066E+04  0.17256386066E+04  0.25500000920E-02 0.  1.
       -2   -1    0    0    0  501  0.00000000000E+00  0.00000000000E+00 -0.75071469658E+03  0.75071469658E+03  0.25500000920E-02 0. -1.
    10030    2    1    2    0    0  0.00000000000E+00  0.00000000000E+00  0.97492391001E+03  0.24763533032E+04  0.22763675125E+04 0.  0.
        4    1    3    3  502    0 -0.30977421830E+03  0.66295332390E+03  0.14358261707E+04  0.16115413682E+04  0.12699999809E+01 0.  1.
       -4    1    3    3    0  502  0.30977421830E+03 -0.66295332390E+03 -0.46090226073E+03  0.86481193496E+03  0.12699999809E+01 0. -1.
</event>
<event>
 5   0  0.1371753E-05  0.2297995E+04  0.7818609E-02  0.8478712E-01
       -1   -1    0    0    0  501  0.00000000000E+00  0.00000000000E+00  0.80606276345E+03  0.80606276347E+03  0.50400001928E-02 0. -1.
        1   -1    0    0  501    0  0.00000000000E+00  0.00000000000E+00 -0.16378319545E+04  0.16378319546E+04  0.50400001928E-02 0.  1.
    10030    2    1    2    0    0  0.00000000000E+00  0.00000000000E+00 -0.83176919109E+03  0.24438947180E+04  0.22979950839E+04 0.  0.
        3    1    3    3  502    0 -0.30413445706E+03  0.79727108993E+02 -0.15911931425E+04  0.16219586329E+04  0.10100000352E+00 0.  1.
       -3    1    3    3    0  502  0.30413445706E+03 -0.79727108993E+02  0.75942395140E+03  0.82193608513E+03  0.10100000352E+00 0. -1.
</event>
<event>
 5   0  0.2938972E-05  0.2317678E+04  0.7818609E-02  0.8470983E-01
        2   -1    0    0  501    0  0.00000000000E+00  0.00000000000E+00  0.20561344641E+04  0.20561344641E+04  0.25500000920E-02 0. -1.
       -2   -1    0    0    0  501  0.00000000000E+00  0.00000000000E+00 -0.65312264224E+03  0.65312264224E+03  0.25500000920E-02 0.  1.
    10030    2    1    2    0    0  0.00000000000E+00  0.00000000000E+00  0.14030118219E+04  0.27092571063E+04  0.23176781261E+04 0.  0.
        2    1    3    3  502    0 -0.10824582797E+04 -0.41250798463E+03  0.73900743980E+03  0.13740490387E+04  0.25500000920E-02 0. -1.
       -2    1    3    3    0  502  0.10824582797E+04  0.41250798463E+03  0.66400438206E+03  0.13352080677E+04  0.25500000920E-02 0.  1.
</event>
<event>
 5   0  0.2910126E-05  0.2329557E+04  0.7818609E-02  0.8466358E-01
        2   -1    0    0  501    0  0.00000000000E+00  0.00000000000E+00  0.16352167712E+04  0.16352167712E+04  0.25500000920E-02 0.  1.
       -2   -1    0    0    0  501  0.00000000000E+00  0.00000000000E+00 -0.82968113936E+03  0.82968113937E+03  0.25500000920E-02 0. -1.
    10030    2    1    2    0    0  0.00000000000E+00  0.00000000000E+00  0.80553563186E+03  0.24648979106E+04  0.23295566221E+04 0.  0.
        5    1    3    3  502    0 -0.11329230121E+03  0.36157770271E+03 -0.76263554480E+03  0.85159182993E+03  0.46999998093E+01 0. -1.
       -5    1    3    3    0  502  0.11329230121E+03 -0.36157770271E+03  0.15681711767E+04  0.16133060807E+04  0.46999998093E+01 0.  1.
</event>
<event>
 5   0  0.2871888E-05  0.2295629E+04  0.7818609E-02  0.8479647E-01
        2   -1    0    0  501    0  0.00000000000E+00  0.00000000000E+00  0.11652918589E+04  0.11652918589E+04  0.25500000920E-02 0.  1.
       -2   -1    0    0    0  501  0.00000000000E+00  0.00000000000E+00 -0.11305988122E+04  0.11305988122E+04  0.25500000920E-02 0. -1.
    10030    2    1    2    0    0  0.00000000000E+00  0.00000000000E+00  0.34693046664E+02  0.22958906711E+04  0.22956285341E+04 0.  0.
        3    1    3    3  502    0  0.91986118902E+03 -0.63304909524E+03 -0.24835620094E+03  0.11439303199E+04  0.10100000352E+00 0. -1.
       -3    1    3    3    0  502 -0.91986118902E+03  0.63304909524E+03  0.28304924760E+03  0.11519603512E+04  0.10100000352E+00 0.  1.
</event>
<event>
 5   0  0.1303224E-05  0.2253749E+04  0.7818609E-02  0.8496384E-01
        1   -1    0    0  501    0  0.00000000000E+00  0.00000000000E+00  0.19508856364E+04  0.19508856365E+04  0.50400001928E-02 0.  1.
       -1   -1    0    0    0  501  0.00000000000E+00  0.00000000000E+00 -0.65090768915E+03  0.65090768917E+03  0.50400001928E-02 0. -1.
    10030    2    1    2    0    0  0.00000000000E+00  0.00000000000E+00  0.12999779473E+04  0.26017933256E+04  0.22537492864E+04 0.  0.
        2    1    3    3  502    0  0.41309782970E+03 -0.95278695593E+02 -0.55533576655E+03  0.69865990321E+03  0.25500000920E-02 0. -1.
       -2    1    3    3    0  502 -0.41309782970E+03  0.95278695593E+02  0.18553137138E+04  0.19031334224E+04  0.25500000920E-02 0.  1.
</event>
<event>
 5   0  0.2871888E-05  0.2256844E+04  0.7818609E-02  0.8495134E-01
        2   -1    0    0  501    0  0.00000000000E+00  0.00000000000E+00  0.14706382079E+04  0.14706382079E+04  0.25500000920E-02 0.  1.
       -2   -1    0    0    0  501  0.00000000000E+00  0.00000000000E+00 -0.86583955571E+03  0.86583955571E+03  0.25500000920E-02 0. -1.
    10030    2    1    2    0    0  0.00000000000E+00  0.00000000000E+00  0.60479865224E+03  0.23364777637E+04  0.22568444630E+04 0.  0.
        3    1    3    3  502    0  0.86933414451E+03 -0.62026892214E+02  0.10444522781E+04  0.13603197277E+04  0.10100000352E+00 0.  1.
       -3    1    3    3    0  502 -0.86933414451E+03  0.62026892214E+02 -0.43965362588E+03  0.97615803594E+03  0.10100000352E+00 0. -1.
</event>
<event>
 5   0  0.1308224E-05  0.2294933E+04  0.7818609E-02  0.8479922E-01
        1   -1    0    0  501    0  0.00000000000E+00  0.00000000000E+00  0.14873198604E+04  0.14873198604E+04  0.50400001928E-02 0.  1.
       -1   -1    0    0    0  501  0.00000000000E+00  0.00000000000E+00 -0.88526993039E+03  0.88526993041E+03  0.50400001928E-02 0. -1.
    10030    2    1    2    0    0  0.00000000000E+00  0.00000000000E+00  0.60204993005E+03  0.23725897909E+04  0.22949331575E+04 0.  0.
        5    1    3    3  502    0 -0.96447495802E+03  0.17002786531E+03 -0.31715158896E+03  0.10294312216E+04  0.46999998093E+01 0. -1.
       -5    1    3    3    0  502  0.96447495802E+03 -0.17002786531E+03  0.91920151901E+03  0.13431585693E+04  0.46999998093E+01 0.  1.
</event>
<event>
 5   0  0.1371753E-05  0.2261076E+04  0.7818609E-02  0.8493428E-01
       -1   -1    0    0    0  501  0.00000000000E+00  0.00000000000E+00  0.90550148356E+03  0.90550148357E+03  0.50400001928E-02 0. -1.
        1   -1    0    0  501    0  0.00000000000E+00  0.00000000000E+00 -0.14115005351E+04  0.14115005351E+04  0.50400001928E-02 0.  1.
    10030    2    1    2    0    0  0.00000000000E+00  0.00000000000E+00 -0.50599905152E+03  0.23170020187E+04  0.22610756985E+04 0.  0.
        3    1    3    3  502    0  0.28632819521E+02 -0.27301709492E+03  0.87082983217E+03  0.91307326062E+03  0.10100000352E+00 0. -1.
       -3    1    3    3    0  502 -0.28632819521E+02  0.27301709492E+03 -0.13768288837E+04  0.14039287580E+04  0.10100000352E+00 0.  1.
</event>
<event>
 5   0  0.1284837E-05  0.2289454E+04  0.7818609E-02  0.8482091E-01
        1   -1    0    0  501    0  0.00000000000E+00  0.00000000000E+00  0.68272785232E+03  0.68272785234E+03  0.50400001928E-02 0. -1.
       -1   -1    0    0    0  501  0.00000000000E+00  0.00000000000E+00 -0.19193590176E+04  0.19193590176E+04  0.50400001928E-02 0.  1.
    10030    2    1    2    0    0  0.00000000000E+00  0.00000000000E+00 -0.12366311652E+04  0.26020868699E+04  0.22894539610E+04 0.  0.
        4    1    3    3  502    0 -0.55189784471E+02 -0.10139952927E+04 -0.17804473400E+02  0.10156529811E+04  0.12699999809E+01 0. -1.
       -4    1    3    3    0  502  0.55189784471E+02  0.10139952927E+04 -0.12188266918E+04  0.15864338888E+04  0.12699999809E+01 0.  1.
</event>
<event>
 5   0  0.2994157E-05  0.2299544E+04  0.7818609E-02  0.8478101E-01
        2   -1    0    0  501    0  0.00000000000E+00  0.00000000000E+00  0.24003862187E+04  0.24003862187E+04  0.25500000920E-02 0. -1.
       -2   -1    0    0    0  501  0.00000000000E+00  0.00000000000E+00 -0.55073461597E+03  0.55073461598E+03  0.25500000920E-02 0.  1.
    10030    2    1    2    0    0  0.00000000000E+00  0.00000000000E+00  0.18496516028E+04  0.29511208347E+04  0.22995441134E+04 0.  0.
        4    1    3    3  502    0  0.49390757675E+03 -0.95205395503E+03  0.39316741986E+03  0.11423369295E+04  0.12699999809E+01 0.  1.
       -4    1    3    3    0  502 -0.49390757675E+03  0.95205395503E+03  0.14564841829E+04  0.18087839052E+04  0.12699999809E+01 0. -1.
</event>
<event>
 5   0  0.1284837E-05  0.2298658E+04  0.7818609E-02  0.8478451E-01
        1   -1    0    0  501    0  0.00000000000E+00  0.00000000000E+00  0.81265261815E+03  0.81265261817E+03  0.50400001928E-02 0.  1.
       -1   -1    0    0    0  501  0.00000000000E+00  0.00000000000E+00 -0.16254878185E+04  0.16254878185E+04  0.50400001928E-02 0. -1.
    10030    2    1    2    0    0  0.00000000000E+00  0.00000000000E+00 -0.81283520032E+03  0.24381404366E+04  0.22986578097E+04 0.  0.
        4    1    3    3  502    0 -0.46529653783E+03 -0.10016581668E+04 -0.69102393081E+02  0.11066149759E+04  0.12699999809E+01 0. -1.
       -4    1    3    3    0  502  0.46529653783E+03  0.10016581668E+04 -0.74373280724E+03  0.13315254608E+04  0.12699999809E+01 0.  1.
</event>
<event>
 5   0  0.2910126E-05  0.2299208E+04  0.7818609E-02  0.8478233E-01
        2   -1    0    0  501    0  0.00000000000E+00  0.00000000000E+00  0.30906076630E+04  0.30906076630E+04  0.25500000920E-02 0.  1.
       -2   -1    0    0    0  501  0.00000000000E+00  0.00000000000E+00 -0.42761479623E+03  0.42761479624E+03  0.25500000920E-02 0. -1.
    10030    2    1    2    0    0  0.00000000000E+00  0.00000000000E+00  0.26629928668E+04  0.35182224592E+04  0.22992081820E+04 0.  0.
        5    1    3    3  502    0  0.21451566846E+03  0.36072198529E+03 -0.30618455070E+03  0.51952708473E+03  0.46999998093E+01 0. -1.
       -5    1    3    3    0  502 -0.21451566846E+03 -0.36072198529E+03  0.29691774175E+04  0.29986953745E+04  0.46999998093E+01 0.  1.
</event>
<event>
 5   0  0.1371753E-05  0.2234525E+04  0.7818609E-02  0.8504194E-01
        1   -1    0    0  501    0  0.00000000000E+00  0.00000000000E+00  0.84399676070E+03  0.84399676072E+03  0.50400001928E-02 0. -1.
       -1   -1    0    0    0  501  0.00000000000E+00  0.00000000000E+00 -0.14790056570E+04  0.14790056570E+04  0.50400001928E-02 0.  1.
    10030    2    1    2    0    0  0.00000000000E+00  0.00000000000E+00 -0.63500889627E+03  0.23230024177E+04  0.22345254383E+04 0.  0.
        3    1    3    3  502    0 -0.96824738581E+02  0.27888948184E+03 -0.14377241610E+04  0.14677210724E+04  0.10100000352E+00 0.  1.
       -3    1    3    3    0  502  0.96824738581E+02 -0.27888948184E+03  0.80271526475E+03  0.85528134526E+03  0.10100000352E+00 0. -1.
</event>
<event>
 5   0  0.2938972E-05  0.2305883E+04  0.7818609E-02  0.8475605E-01
        2   -1    0    0  501    0  0.00000000000E+00  0.00000000000E+00  0.19768927416E+04  0.19768927416E+04  0.25500000920E-02 0.  1.
       -2   -1    0    0    0  501  0.00000000000E+00  0.00000000000E+00 -0.67240572568E+03  0.67240572569E+03  0.25500000920E-02 0. -1.
    10030    2    1    2    0    0  0.00000000000E+00  0.00000000000E+00  0.13044870160E+04  0.26492984673E+04  0.23058829099E+04 0.  0.
        2    1    3    3  502    0 -0.58614111148E+03 -0.57439475122E+03 -0.27816527786E+03  0.86652562259E+03  0.25500000920E-02 0. -1.
       -2    1    3    3    0  502  0.58614111148E+03  0.57439475122E+03  0.15826522938E+04  0.17827728447E+04  0.25500000920E-02 0.  1.
</event>
<event>
 5   0  0.2994157E-05  0.2295177E+04  0.7818609E-02  0.8479825E-01
        2   -1    0    0  501    0  0.00000000000E+00  0.00000000000E+00  0.13721626007E+04  0.13721626007E+04  0.25500000920E-02 0. -1.
       -2   -1    0    0    0  501  0.00000000000E+00  0.00000000000E+00 -0.95976899202E+03  0.95976899202E+03  0.25500000920E-02 0.  1.
    10030    2    1    2    0    0  0.00000000000E+00  0.00000000000E+00  0.41239360865E+03  0.23319315927E+04  0.22951767829E+04 0.  0.
        4    1    3    3  502    0  0.90063919156E+03  0.71076254777E+03  0.23155954346E+03  0.11704511044E+04  0.12699999809E+01 0.  1.
       -4    1    3    3    0  502 -0.90063919156E+03 -0.71076254777E+03  0.18083406519E+03  0.11614804883E+04  0.12699999809E+01 0. -1.
</event>
<event>
 5   0  0.2938972E-05  0.2296477E+04  0.7818609E-02  0.8479311E-01
       -2   -1    0    0    0  501  0.00000000000E+00  0.00000000000E+00  0.12109233689E+04  0.12109233689E+04  0.25500000920E-02 0. -1.
        2   -1    0    0  501    0  0.00000000000E+00  0.00000000000E+00 -0.10887990607E+04  0.10887990607E+04  0.25500000920E-02 0.  1.
    10030    2    1    2    0    0  0.00000000000E+00  0.00000000000E+00  0.12212430826E+03  0.22997224296E+04  0.22964774996E+04 0.  0.
        2    1    3    3  502    0 -0.33154298092E+03  0.65585407435E+03  0.94457117613E+03  0.11967790196E+04  0.25500000920E-02 0. -1.
       -2    1    3    3    0  502  0.33154298092E+03 -0.65585407435E+03 -0.82244686787E+03  0.11029434099E+04  0.25500000920E-02 0.  1.
</event>
<event>
 5   0  0.1284837E-05  0.2389710E+04  0.7818609E-02  0.8443366E-01
        1   -1    0    0  501    0  0.00000000000E+00  0.00000000000E+00  0.11280264055E+04  0.11280264055E+04  0.50400001928E-02 0. -1.
       -1   -1    0    0    0  501  0.00000000000E+00  0.00000000000E+00 -0.12656427855E+04  0.12656427856E+04  0.50400001928E-02 0.  1.
    10030    2    1    2    0    0  0.00000000000E+00  0.00000000000E+00 -0.13761638008E+03  0.23936691910E+04  0.23897100092E+04 0.  0.
        4    1    3    3  502    0  0.80516870107E+03 -0.40287082576E+03  0.71803469006E+03  0.11515975723E+04  0.12699999809E+01 0. -1.
       -4    1    3    3    0  502 -0.80516870107E+03  0.40287082576E+03 -0.85565107014E+03  0.12420716188E+04  0.12699999809E+01 0.  1.
</event>
<event>
 5   0  0.2910126E-05  0.2311075E+04  0.7818609E-02  0.8473567E-01
        2   -1    0    0  501    0  0.00000000000E+00  0.00000000000E+00  0.14942324247E+04  0.14942324247E+04  0.25500000920E-02 0. -1.
       -2   -1    0    0    0  501  0.00000000000E+00  0.00000000000E+00 -0.89361363520E+03  0.89361363521E+03  0.25500000920E-02 0.  1.
    10030    2    1    2    0    0  0.00000000000E+00  0.00000000000E+00  0.60061878954E+03  0.23878460599E+04  0.23110746149E+04 0.  0.
        5    1    3    3  502    0  0.61883181517E+03 -0.91053389520E+03 -0.62377811455E+02  0.11026957292E+04  0.46999998093E+01 0. -1.
       -5    1    3    3    0  502 -0.61883181517E+03  0.91053389520E+03  0.66299660099E+03  0.12851503308E+04  0.46999998093E+01 0.  1.
</event>
<event>
 5   0  0.1303224E-05  0.2325951E+04  0.7818609E-02  0.8467759E-01
       -1   -1    0    0    0  501  0.00000000000E+00  0.00000000000E+00  0.10301255256E+04  0.10301255256E+04  0.50400001928E-02 0. -1.
        1   -1    0    0  501    0  0.00000000000E+00  0.00000000000E+00 -0.13129587321E+04  0.13129587321E+04  0.50400001928E-02 0.  1.
    10030    2    1    2    0    0  0.00000000000E+00  0.00000000000E+00 -0.28283320647E+03  0.23430842577E+04  0.23259512497E+04 0.  0.
        2    1    3    3  502    0  0.10143478551E+04  0.26942374617E+03 -0.64612766788E+03  0.12324656950E+04  0.25500000920E-02 0. -1.
       -2    1    3    3    0  502 -0.10143478551E+04 -0.26942374617E+03  0.36329446141E+03  0.11106185627E+04  0.25500000920E-02 0.  1.
</event>
<event>
 5   0  0.1327820E-05  0.2275488E+04  0.7818609E-02  0.8487649E-01
       -1   -1    0    0    0  501  0.00000000000E+00  0.00000000000E+00  0.11863363880E+04  0.11863363880E+04  0.50400001928E-02 0.  1.
        1   -1    0    0  501    0  0.00000000000E+00  0.00000000000E+00 -0.10911419892E+04  0.10911419892E+04  0.50400001928E-02 0. -1.
    10030    2    1    2    0    0  0.00000000000E+00  0.00000000000E+00  0.95194398781E+02  0.22774783772E+04  0.22754880323E+04 0.  0.
        1    1    3    3  502    0  0.66621677045E+03  0.51350262523E+03  0.81438199951E+03  0.11707893801E+04  0.50400001928E-02 0.  1.
       -1    1    3    3    0  502 -0.66621677045E+03 -0.51350262523E+03 -0.71918760073E+03  0.11066889971E+04  0.50400001928E-02 0. -1.
</event>
<event>
 5   0  0.1308224E-05  0.2292585E+04  0.7818609E-02  0.8480850E-01
       -1   -1    0    0    0  501  0.00000000000E+00  0.00000000000E+00  0.14888584379E+04  0.14888584379E+04  0.50400001928E-02 0.  1.
        1   -1    0    0  501    0  0.00000000000E+00  0.00000000000E+00 -0.88254656243E+03  0.88254656244E+03  0.50400001928E-02 0. -1.
    10030    2    1    2    0    0  0.00000000000E+00  0.00000000000E+00  0.60631187544E+03  0.23714050003E+04  0.22925853496E+04 0.  0.
        5    1    3    3  502    0  0.14990933813E+03 -0.11364084420E+04  0.31167621794E+03  0.11878809332E+04  0.46999998093E+01 0. -1.
       -5    1    3    3    0  502 -0.14990933813E+03  0.11364084420E+04  0.29463565749E+03  0.11835240671E+04  0.46999998093E+01 0.  1.
</event>
<event>
 5   0  0.1284837E-05  0.2293756E+04  0.7818609E-02  0.8480387E-01
        1   -1    0    0  501    0  0.00000000000E+00  0.00000000000E+00  0.20481234916E+04  0.20481234916E+04  0.50400001928E-02 0.  1.
       -1   -1    0    0    0  501  0.00000000000E+00  0.00000000000E+00 -0.64221205605E+03  0.64221205607E+03  0.50400001928E-02 0. -1.
    10030    2    1    2    0    0  0.00000000000E+00  0.00000000000E+00  0.14059114356E+04  0.26903355477E+04  0.22937563939E+04 0.  0.
        4    1    3    3  502    0 -0.22809940380E+03 -0.76242358081E+03 -0.26566596996E+03  0.83898693380E+03  0.12699999809E+01 0. -1.
       -4    1    3    3    0  502  0.22809940380E+03  0.76242358081E+03  0.16715774055E+04  0.18513486139E+04  0.12699999809E+01 0.  1.
</event>
<event>
 5   0  0.2816178E-05  0.2301921E+04  0.7818609E-02  0.8477164E-01
        2   -1    0    0  501    0  0.00000000000E+00  0.00000000000E+00  0.14171438025E+04  0.14171438025E+04  0.25500000920E-02 0. -1.
       -2   -1    0    0    0  501  0.00000000000E+00  0.00000000000E+00 -0.93477465039E+03  0.93477465040E+03  0.25500000920E-02 0.  1.
    10030    2    1    2    0    0  0.00000000000E+00  0.00000000000E+00  0.48236915211E+03  0.23519184529E+04  0.23019210261E+04 0.  0.
        1    1    3    3  502    0  0.20776906134E+03 -0.19057692294E+03  0.13813170854E+04  0.14097958848E+04  0.50400001928E-02 0. -1.
       -1    1    3    3    0  502 -0.20776906134E+03  0.19057692294E+03 -0.89894793332E+03  0.94212256806E+03  0.50400001928E-02 0.  1.
</event>
<event>
 5   0  0.1327820E-05  0.2270071E+04  0.7818609E-02  0.8489816E-01
       -1   -1    0    0    0  501  0.00000000000E+00  0.00000000000E+00  0.14400592299E+04  0.14400592299E+04  0.50400001928E-02 0.  1.
        1   -1    0    0  501    0  0.00000000000E+00  0.00000000000E+00 -0.89461960805E+03  0.89461960807E+03  0.50400001928E-02 0. -1.
    10030    2    1    2    0    0  0.00000000000E+00  0.00000000000E+00  0.54543962184E+03  0.23346788380E+04  0.22700706807E+04 0.  0.
        1    1    3    3  502    0  0.66678343297E+03  0.86467304038E+03 -0.46012820394E+02  0.10928754700E+04  0.50400001928E-02 0. -1.
       -1    1    3    3    0  502 -0.66678343297E+03 -0.86467304038E+03  0.59145244223E+03  0.12418033680E+04  0.50400001928E-02 0.  1.
</event>
<event>
 5   0  0.2871888E-05  0.2282394E+04  0.7818609E-02  0.8484895E-01
       -2   -1    0    0    0  501  0.00000000000E+00  0.00000000000E+00  0.47803045710E+03  0.47803045710E+03  0.25500000920E-02 0.  1.
        2   -1    0    0  501    0  0.00000000000E+00  0.00000000000E+00 -0.27243670125E+04  0.27243670125E+04  0.25500000920E-02 0. -1.
    10030    2    1    2    0    0  0.00000000000E+00  0.00000000000E+00 -0.22463365554E+04  0.32023974696E+04  0.22823938383E+04 0.  0.
        3    1    3    3  502    0 -0.47595679187E+02 -0.10313264429E+04 -0.18054075096E+04  0.20797586078E+04  0.10100000352E+00 0. -1.
       -3    1    3    3    0  502  0.47595679187E+02  0.10313264429E+04 -0.44092904582E+03  0.11226388619E+04  0.10100000352E+00 0.  1.
</event>
<event>
 5   0  0.2816178E-05  0.2298189E+04  0.7818609E-02  0.8478636E-01
       -2   -1    0    0    0  501  0.00000000000E+00  0.00000000000E+00  0.10792461631E+04  0.10792461631E+04  0.25500000920E-02 0.  1.
        2   -1    0    0  501    0  0.00000000000E+00  0.00000000000E+00 -0.12234628977E+04  0.12234628977E+04  0.25500000920E-02 0. -1.
    10030    2    1    2    0    0  0.00000000000E+00  0.00000000000E+00 -0.14421673454E+03  0.23027090608E+04  0.22981885371E+04 0.  0.
        1    1    3    3  502    0 -0.31251388864E+03  0.10153873547E+03  0.10311672188E+04  0.10822573070E+04  0.50400001928E-02 0.  1.
       -1    1    3    3    0  502  0.31251388864E+03 -0.10153873547E+03 -0.11753839534E+04  0.12204517538E+04  0.50400001928E-02 0. -1.
</event>
<event>
 5   0  0.2816178E-05  0.2274410E+04  0.7818609E-02  0.8488080E-01
        2   -1    0    0  501    0  0.00000000000E+00  0.00000000000E+00  0.10884615458E+04  0.10884615458E+04  0.25500000920E-02 0.  1.
       -2   -1    0    0    0  501  0.00000000000E+00  0.00000000000E+00 -0.11881310579E+04  0.11881310579E+04  0.25500000920E-02 0. -1.
    10030    2    1    2    0    0  0.00000000000E+00  0.00000000000E+00 -0.99669512086E+02  0.22765926038E+04  0.22744097854E+04 0.  0.
        1    1    3    3  502    0  0.23838994112E+03  0.10481420866E+04 -0.42140978882E+03  0.11545639038E+04  0.50400001928E-02 0. -1.
       -1    1    3    3    0  502 -0.23838994112E+03 -0.10481420866E+04  0.32174027673E+03  0.11220287000E+04  0.50400001928E-02 0.  1.
</event>
<event>
 5   0  0.2910126E-05  0.2306409E+04  0.7818609E-02  0.8475398E-01
        2   -1    0    0  501    0  0.00000000000E+00  0.00000000000E+00  0.23705900063E+04  0.23705900063E+04  0.25500000920E-02 0. -1.
       -2   -1    0    0    0  501  0.00000000000E+00  0.00000000000E+00 -0.56099161335E+03  0.56099161335E+03  0.25500000920E-02 0.  1.
    10030    2    1    2    0    0  0.00000000000E+00  0.00000000000E+00  0.18095983929E+04  0.29315816196E+04  0.23064094278E+04 0.  0.
        5    1    3    3  502    0  0.11066081799E+04 -0.32444262338E+03  0.90961287924E+03  0.14687621863E+04  0.46999998093E+01 0.  1.
       -5    1    3    3    0  502 -0.11066081799E+04  0.32444262338E+03  0.89998551368E+03  0.14628194333E+04  0.46999998093E+01 0. -1.
</event>
<event>
 5   0  0.1308224E-05  0.2288734E+04  0.7818609E-02  0.8482376E-01
        1   -1    0    0  501    0  0.00000000000E+00  0.00000000000E+00  0.17117825837E+04  0.17117825837E+04  0.50400001928E-02 0. -1.
       -1   -1    0    0    0  501  0.00000000000E+00  0.00000000000E+00 -0.76503618070E+03  0.76503618072E+03  0.50400001928E-02 0.  1.
    10030    2    1    2    0    0  0.00000000000E+00  0.00000000000E+00  0.94674640304E+03  0.24768187645E+04  0.22887338072E+04 0.  0.
        5    1    3    3  502    0 -0.70278025962E+03 -0.42524044708E+03 -0.38886172213E+03  0.90882619905E+03  0.46999998093E+01 0.  1.
       -5    1    3    3    0  502  0.70278025962E+03  0.42524044708E+03  0.13356081252E+04  0.15679925654E+04  0.46999998093E+01 0. -1.
</event>
<event>
 5   0  0.2871888E-05  0.2317485E+04  0.7818609E-02  0.8471059E-01
       -2   -1    0    0    0  501  0.00000000000E+00  0.00000000000E+00  0.93946717172E+03  0.93946717173E+03  0.25500000920E-02 0. -1.
        2   -1    0    0  501    0  0.00000000000E+00  0.00000000000E+00 -0.14291972639E+04  0.14291972639E+04  0.25500000920E-02 0.  1.
    10030    2    1    2    0    0  0.00000000000E+00  0.00000000000E+00 -0.48973009220E+03  0.23686644357E+04  0.23174847671E+04 0.  0.
        3    1    3    3  502    0 -0.30487617451E+03 -0.83850512131E+03 -0.10005465239E+04  0.13405721454E+04  0.10100000352E+00 0.  1.
       -3    1    3    3    0  502  0.30487617451E+03  0.83850512131E+03  0.51081643170E+03  0.10280922903E+04  0.10100000352E+00 0. -1.
</event>
<event>
 5   0  0.1303224E-05  0.2315609E+04  0.7818609E-02  0.8471792E-01
        1   -1    0    0  501    0  0.00000000000E+00  0.00000000000E+00  0.21023681959E+04  0.21023681959E+04  0.50400001928E-02 0.  1.
       -1   -1    0    0    0  501  0.00000000000E+00  0.00000000000E+00 -0.63761988923E+03  0.63761988925E+03  0.50400001928E-02 0. -1.
    10030    2    1    2    0    0  0.00000000000E+00  0.00000000000E+00  0.14647483066E+04  0.27399880851E+04  0.23156094457E+04 0.  0.
        2    1    3    3  502    0 -0.54434593169E+03 -0.10021937250E+04  0.96845632852E+03  0.14961993236E+04  0.25500000920E-02 0.  1.
       -2    1    3    3    0  502  0.54434593169E+03  0.10021937250E+04  0.49629197812E+03  0.12437887615E+04  0.25500000920E-02 0. -1.
</event>
<event>
 5   0  0.1327820E-05  0.2294420E+04  0.7818609E-02  0.8480124E-01
        1   -1    0    0  501    0  0.00000000000E+00  0.00000000000E+00  0.22142072333E+04  0.22142072333E+04  0.50400001928E-02 0.  1.
       -1   -1    0    0    0  501  0.00000000000E+00  0.00000000000E+00 -0.59438475108E+03  0.59438475111E+03  0.50400001928E-02 0. -1.
    10030    2    1    2    0    0  0.00000000000E+00  0.00000000000E+00  0.16198224822E+04  0.28085919844E+04  0.22944202015E+04 0.  0.
        1    1    3    3  502    0  0.66246824429E+03 -0.88572342283E+03  0.43717260054E+03  0.11893233535E+04  0.50400001928E-02 0.  1.
       -1    1    3    3    0  502 -0.66246824429E+03  0.88572342283E+03  0.11826498817E+04  0.16192686309E+04  0.50400001928E-02 0. -1.
</event>
<event>
 5   0  0.1371753E-05  0.2308384E+04  0.7818609E-02  0.8474623E-01
        1   -1    0    0  501    0  0.00000000000E+00  0.00000000000E+00  0.14859693176E+04  0.14859693176E+04  0.50400001928E-02 0.  1.
       -1   -1    0    0    0  501  0.00000000000E+00  0.00000000000E+00 -0.89649174100E+03  0.89649174101E+03  0.50400001928E-02 0. -1.
    10030    2    1    2    0    0  0.00000000000E+00  0.00000000000E+00  0.58947757662E+03  0.23824610586E+04  0.23083840414E+04 0.  0.
        3    1    3    3  502    0  0.42045890633E+03  0.72426763938E+03  0.11144615596E+04  0.13940494551E+04  0.10100000352E+00 0.  1.
       -3    1    3    3    0  502 -0.42045890633E+03 -0.72426763938E+03 -0.52498398296E+03  0.98841160350E+03  0.10100000352E+00 0. -1.
</event>
<event>
 5   0  0.1371753E-05  0.2335447E+04  0.7818609E-02  0.8464074E-01
        1   -1    0    0  501    0  0.00000000000E+00  0.00000000000E+00  0.66664728001E+03  0.66664728003E+03  0.50400001928E-02 0.  1.
       -1   -1    0    0    0  501  0.00000000000E+00  0.00000000000E+00 -0.20454274676E+04  0.20454274676E+04  0.50400001928E-02 0. -1.
    10030    2    1    2    0    0  0.00000000000E+00  0.00000000000E+00 -0.13787801875E+04  0.27120747476E+04  0.23354474156E+04 0.  0.
        3    1    3    3  502    0  0.83059198794E+03  0.63082120577E+03 -0.79576140772E+02  0.10460166425E+04  0.10100000352E+00 0.  1.
       -3    1    3    3    0  502 -0.83059198794E+03 -0.63082120577E+03 -0.12992040468E+04  0.16660581051E+04  0.10100000352E+00 0. -1.
</event>
<event>
 5   0  0.2938972E-05  0.2302056E+04  0.7818609E-02  0.8477111E-01
       -2   -1    0    0    0  501  0.00000000000E+00  0.00000000000E+00  0.58619095029E+03  0.58619095029E+03  0.25500000920E-02 0.  1.
        2   -1    0    0  501    0  0.00000000000E+00  0.00000000000E+00 -0.22601262508E+04  0.22601262508E+04  0.25500000920E-02 0. -1.
    10030    2    1    2    0    0  0.00000000000E+00  0.00000000000E+00 -0.16739353005E+04  0.28463172011E+04  0.23020560851E+04 0.  0.
        2    1    3    3  502    0  0.94603117802E+03 -0.22543864004E+03 -0.75720025987E+02  0.97546455218E+03  0.25500000920E-02 0. -1.
       -2    1    3    3    0  502 -0.94603117802E+03  0.22543864004E+03 -0.15982152745E+04  0.18708526489E+04  0.25500000920E-02 0.  1.
</event>
<event>
 5   0  0.1308224E-05  0.2289483E+04  0.7818609E-02  0.8482079E-01
        1   -1    0    0  501    0  0.00000000000E+00  0.00000000000E+00  0.12175250520E+04  0.12175250520E+04  0.50400001928E-02 0.  1.
       -1   -1    0    0    0  501  0.00000000000E+00  0.00000000000E+00 -0.10763087400E+04  0.10763087400E+04  0.50400001928E-02 0. -1.
    10030    2    1    2    0    0  0.00000000000E+00  0.00000000000E+00  0.14121631198E+03  0.22938337920E+04  0.22894827840E+04 0.  0.
        5    1    3    3  502    0  0.75732943260E+03 -0.75187070135E+03 -0.34436896908E+03  0.11213694743E+04  0.46999998093E+01 0. -1.
       -5    1    3    3    0  502 -0.75732943260E+03  0.75187070135E+03  0.48558528106E+03  0.11724643177E+04  0.46999998093E+01 0.  1.
</event>
<event>
 5   0  0.2910126E-05  0.2298799E+04  0.7818609E-02  0.8478395E-01
       -2   -1    0    0    0  501  0.00000000000E+00  0.00000000000E+00  0.93535897990E+03  0.93535897990E+03  0.25500000920E-02 0. -1.
        2   -1    0    0  501    0  0.00000000000E+00  0.00000000000E+00 -0.14124199524E+04  0.14124199524E+04  0.25500000920E-02 0.  1.
    10030    2    1    2    0    0  0.00000000000E+00  0.00000000000E+00 -0.47706097255E+03  0.23477789323E+04  0.22987994135E+04 0.  0.
        5    1    3    3  502    0  0.45788232531E+03  0.53098096671E+03  0.69164410446E+03  0.98488104260E+03  0.46999998093E+01 0. -1.
       -5    1    3    3    0  502 -0.45788232531E+03 -0.53098096671E+03 -0.11687050770E+04  0.13628978897E+04  0.46999998093E+01 0.  1.
</event>
<event>
 5   0  0.1303224E-05  0.2305941E+04  0.7818609E-02  0.8475582E-01
        1   -1    0    0  501    0  0.00000000000E+00  0.00000000000E+00  0.11404672669E+04  0.11404672669E+04  0.50400001928E-02 0.  1.
       -1   -1    0    0    0  501  0.00000000000E+00  0.00000000000E+00 -0.11656105884E+04  0.11656105884E+04  0.50400001928E-02 0. -1.
    10030    2    1    2    0    0  0.00000000000E+00  0.00000000000E+00 -0.25143321525E+02  0.23060778553E+04  0.23059407815E+04 0.  0.
        2    1    3    3  502    0  0.23345123984E+03  0.70620107111E+03 -0.89360149091E+03  0.11626448550E+04  0.25500000920E-02 0. -1.
       -2    1    3    3    0  502 -0.23345123984E+03 -0.70620107111E+03  0.86845816938E+03  0.11434330003E+04  0.25500000920E-02 0.  1.
</event>
<event>
 5   0  0.1017200E-05  0.2304173E+04  0.7818609E-02  0.8476278E-01
        4   -1    0    0  501    0  0.00000000000E+00  0.00000000000E+00  0.18332201216E+04  0.18332205615E+04  0.12699999809E+01 0.  1.
       -4   -1    0    0    0  501  0.00000000000E+00  0.00000000000E+00 -0.72402713514E+03  0.72402824898E+03  0.12699999809E+01 0. -1.
    10030    2    1    2    0    0  0.00000000000E+00  0.00000000000E+00  0.11091929864E+04  0.25572488104E+04  0.23041728228E+04 0.  0.
        1    1    3    3  502    0 -0.75947555316E+03 -0.66254460863E+03  0.11740533959E+04  0.15473105217E+04  0.50400001928E-02 0.  1.
       -1    1    3    3    0  502  0.75947555316E+03  0.66254460863E+03 -0.64860409466E+02  0.10099382887E+04  0.50400001928E-02 0. -1.
</event>
<event>
 5   0  0.1327820E-05  0.2307546E+04  0.7818609E-02  0.8474952E-01
        1   -1    0    0  501    0  0.00000000000E+00  0.00000000000E+00  0.13805038717E+04  0.13805038717E+04  0.50400001928E-02 0. -1.
       -1   -1    0    0    0  501  0.00000000000E+00  0.00000000000E+00 -0.96427989246E+03  0.96427989248E+03  0.50400001928E-02 0.  1.
    10030    2    1    2    0    0  0.00000000000E+00  0.00000000000E+00  0.41622397925E+03  0.23447837642E+04  0.23075459909E+04 0.  0.
        1    1    3    3  502    0 -0.17537131674E+02  0.25765239412E+03  0.13507582912E+04  0.13752237158E+04  0.50400001928E-02 0. -1.
       -1    1    3    3    0  502  0.17537131674E+02 -0.25765239412E+03 -0.93453431196E+03  0.96956004840E+03  0.50400001928E-02 0.  1.
</event>
<event>
 5   0  0.1303224E-05  0.2199374E+04  0.7818609E-02  0.8518689E-01
       -1   -1    0    0    0  501  0.00000000000E+00  0.00000000000E+00  0.10186529249E+04  0.10186529249E+04  0.50400001928E-02 0. -1.
        1   -1    0    0  501    0  0.00000000000E+00  0.00000000000E+00 -0.11871673397E+04  0.11871673397E+04  0.50400001928E-02 0.  1.
    10030    2    1    2    0    0  0.00000000000E+00  0.00000000000E+00 -0.16851441483E+03  0.22058202646E+04  0.21993739863E+04 0.  0.
        2    1    3    3  502    0 -0.70444225600E+03 -0.73253350307E+03 -0.50556850663E+03  0.11350963572E+04  0.25500000920E-02 0.  1.
       -2    1    3    3    0  502  0.70444225600E+03  0.73253350307E+03  0.33705409180E+03  0.10707239074E+04  0.25500000920E-02 0. -1.
</event>
<event>
 5   0  0.2816178E-05  0.2300446E+04  0.7818609E-02  0.8477745E-01
        2   -1    0    0  501    0  0.00000000000E+00  0.00000000000E+00  0.23015824786E+04  0.23015824786E+04  0.25500000920E-02 0.  1.
       -2   -1    0    0    0  501  0.00000000000E+00  0.00000000000E+00 -0.57482734239E+03  0.57482734240E+03  0.25500000920E-02 0. -1.
    10030    2    1    2    0    0  0.00000000000E+00  0.00000000000E+00  0.17267551362E+04  0.28764098210E+04  0.23004456433E+04 0.  0.
        1    1    3    3  502    0  0.10329504973E+04 -0.50088398608E+03  0.95303047275E+03  0.14920249929E+04  0.50400001928E-02 0. -1.
       -1    1    3    3    0  502 -0.10329504973E+04  0.50088398608E+03  0.77372466343E+03  0.13843848281E+04  0.50400001928E-02 0.  1.
</event>
<event>
 5   0  0.2816178E-05  0.2300306E+04  0.7818609E-02  0.8477800E-01
       -2   -1    0    0    0  501  0.00000000000E+00  0.00000000000E+00  0.89164758497E+03  0.89164758497E+03  0.25500000920E-02 0.  1.
        2   -1    0    0  501    0  0.00000000000E+00  0.00000000000E+00 -0.14836039153E+04  0.14836039153E+04  0.25500000920E-02 0. -1.
    10030    2    1    2    0    0  0.00000000000E+00  0.00000000000E+00 -0.59195633034E+03  0.23752515003E+04  0.23003059346E+04 0.  0.
        1    1    3    3  502    0 -0.42741877876E+03 -0.96549688803E+03 -0.76688567676E+03  0.13049845572E+04  0.50400001928E-02 0.  1.
       -1    1    3    3    0  502  0.42741877876E+03  0.96549688803E+03  0.17492934643E+03  0.10702669431E+04  0.50400001928E-02 0. -1.
</event>
<event>
 5   0  0.1284837E-05  0.2290803E+04  0.7818609E-02  0.8481556E-01
       -1   -1    0    0    0  501  0.00000000000E+00  0.00000000000E+00  0.59526685045E+03  0.59526685047E+03  0.50400001928E-02 0. -1.
        1   -1    0    0  501    0  0.00000000000E+00  0.00000000000E+00 -0.22039610381E+04  0.22039610381E+04  0.50400001928E-02 0.  1.
    10030    2    1    2    0    0  0.00000000000E+00  0.00000000000E+00 -0.16086941876E+04  0.27992278885E+04  0.22908033051E+04 0.  0.
        4    1    3    3  502    0 -0.83114269701E+03  0.45498358180E+01  0.15868279802E+03  0.84616826169E+03  0.12699999809E+01 0. -1.
       -4    1    3    3    0  502  0.83114269701E+03 -0.45498358180E+01 -0.17673769856E+04  0.19530596269E+04  0.12699999809E+01 0.  1.
</event>
<event>
 5   0  0.2910126E-05  0.2264754E+04  0.7818609E-02  0.8491949E-01
        2   -1    0    0  501    0  0.00000000000E+00  0.00000000000E+00  0.25561656462E+04  0.25561656462E+04  0.25500000920E-02 0.  1.
       -2   -1    0    0    0  501  0.00000000000E+00  0.00000000000E+00 -0.50164095201E+03  0.50164095201E+03  0.25500000920E-02 0. -1.
    10030    2    1    2    0    0  0.00000000000E+00  0.00000000000E+00  0.20545246942E+04  0.30578065982E+04  0.22647537334E+04 0.  0.
        5    1    3    3  502    0 -0.59404031777E+03  0.76447144881E+03  0.23426795739E+03  0.99609440368E+03  0.46999998093E+01 0. -1.
       -5    1    3    3    0  502  0.59404031777E+03 -0.76447144881E+03  0.18202567368E+04  0.20617121946E+04  0.46999998093E+01 0.  1.
</event>
<event>
 5   0  0.1308224E-05  0.2300946E+04  0.7818609E-02  0.8477548E-01
        1   -1    0    0  501    0  0.00000000000E+00  0.00000000000E+00  0.20127871958E+04  0.20127871958E+04  0.50400001928E-02 0.  1.
       -1   -1    0    0    0  501  0.00000000000E+00  0.00000000000E+00 -0.65758972616E+03  0.65758972618E+03  0.50400001928E-02 0. -1.
    10030    2    1    2    0    0  0.00000000000E+00  0.00000000000E+00  0.13551974697E+04  0.26703769220E+04  0.23009460497E+04 0.  0.
        5    1    3    3  502    0 -0.48248652747E+03 -0.93081556688E+03  0.12788799542E+03  0.10562141346E+04  0.46999998093E+01 0. -1.
       -5    1    3    3    0  502  0.48248652747E+03  0.93081556688E+03  0.12273094742E+04  0.16141627874E+04  0.46999998093E+01 0.  1.
</event>
<event>
 5   0  0.1303224E-05  0.2301398E+04  0.7818609E-02  0.8477370E-01
       -1   -1    0    0    0  501  0.00000000000E+00  0.00000000000E+00  0.11003856099E+04  0.11003856099E+04  0.50400001928E-02 0. -1.
        1   -1    0    0  501    0  0.00000000000E+00  0.00000000000E+00 -0.12033128569E+04  0.12033128569E+04  0.50400001928E-02 0.  1.
    10030    2    1    2    0    0  0.00000000000E+00  0.00000000000E+00 -0.10292724705E+03  0.23036984668E+04  0.23013979682E+04 0.  0.
        2    1    3    3  502    0  0.33602524740E+03 -0.73428944505E+03 -0.87204778779E+03  0.11885122213E+04  0.25500000920E-02 0.  1.
       -2    1    3    3    0  502 -0.33602524740E+03  0.73428944505E+03  0.76912054074E+03  0.11151862455E+04  0.25500000920E-02 0. -1.
</event>
<event>
 5   0  0.2910126E-05  0.2296597E+04  0.7818609E-02  0.8479264E-01
       -2   -1    0    0    0  501  0.00000000000E+00  0.00000000000E+00  0.11303209802E+04  0.11303209802E+04  0.25500000920E-02 0.  1.
        2   -1    0    0  501    0  0.00000000000E+00  0.00000000000E+00 -0.11665622321E+04  0.11665622321E+04  0.25500000920E-02 0. -1.
    10030    2    1    2    0    0  0.00000000000E+00  0.00000000000E+00 -0.36241251930E+02  0.22968832123E+04  0.22965972791E+04 0.  0.
        5    1    3    3  502    0 -0.62888535419E+03 -0.27020103609E+03 -0.94022364119E+03  0.11629909604E+04  0.46999998093E+01 0. -1.
       -5    1    3    3    0  502  0.62888535419E+03  0.27020103609E+03  0.90398238926E+03  0.11338922518E+04  0.46999998093E+01 0.  1.
</event>
<event>
 5   0  0.2816178E-05  0.2340573E+04  0.7818609E-02  0.8462093E-01
       -2   -1    0    0    0  501  0.00000000000E+00  0.00000000000E+00  0.10765959224E+04  0.10765959224E+04  0.25500000920E-02 0. -1.
        2   -1    0    0  501    0  0.00000000000E+00  0.00000000000E+00 -0.12721302572E+04  0.12721302572E+04  0.25500000920E-02 0.  1.
    10030    2    1    2    0    0  0.00000000000E+00  0.00000000000E+00 -0.19553433477E+03  0.23487261796E+04  0.23405727911E+04 0.  0.
        1    1    3    3  502    0 -0.96609130535E+03  0.57704399362E+03  0.22469014607E+03  0.11475181230E+04  0.50400001928E-02 0. -1.
       -1    1    3    3    0  502  0.96609130535E+03 -0.57704399362E+03 -0.42022448084E+03  0.12012080566E+04  0.50400001928E-02 0.  1.
</event>
<event>
 5   0  0.1303224E-05  0.2298441E+04  0.7818609E-02  0.8478536E-01
        1   -1    0    0  501    0  0.00000000000E+00  0.00000000000E+00  0.14790917869E+04  0.14790917869E+04  0.50400001928E-02 0. -1.
       -1   -1    0    0    0  501  0.00000000000E+00  0.00000000000E+00 -0.89291820436E+03  0.89291820437E+03  0.50400001928E-02 0.  1.
    10030    2    1    2    0    0  0.00000000000E+00  0.00000000000E+00  0.58617358250E+03  0.23720099912E+04  0.22984411956E+04 0.  0.
        2    1    3    3  502    0 -0.46412613860E+03  0.78545815431E+03 -0.42810186975E+03  0.10077841017E+04  0.25500000920E-02 0.  1.
       -2    1    3    3    0  502  0.46412613860E+03 -0.78545815431E+03  0.10142754522E+04  0.13642258896E+04  0.25500000920E-02 0. -1.
</event>
<event>
 5   0  0.1017200E-05  0.2282902E+04  0.7818609E-02  0.8484693E-01
        3   -1    0    0  501    0  0.00000000000E+00  0.00000000000E+00  0.64942917426E+03  0.64942918211E+03  0.10100000352E+00 0.  1.
       -3   -1    0    0    0  501  0.00000000000E+00  0.00000000000E+00 -0.20062390838E+04  0.20062390864E+04  0.10100000352E+00 0. -1.
    10030    2    1    2    0    0  0.00000000000E+00  0.00000000000E+00 -0.13568099096E+04  0.26556682685E+04  0.22829018423E+04 0.  0.
        2    1    3    3  502    0 -0.57995403202E+02  0.98788281740E+03 -0.13401852666E+04  0.16659449200E+04  0.25500000920E-02 0. -1.
       -2    1    3    3    0  502  0.57995403202E+02 -0.98788281740E+03 -0.16624642948E+02  0.98972334845E+03  0.25500000920E-02 0.  1.
</event>
<event>
 5   0  0.1371753E-05  0.2286839E+04  0.7818609E-02  0.8483128E-01
        1   -1    0    0  501    0  0.00000000000E+00  0.00000000000E+00  0.94703395743E+03  0.94703395745E+03  0.50400001928E-02 0.  1.
       -1   -1    0    0    0  501  0.00000000000E+00  0.00000000000E+00 -0.13805293357E+04  0.13805293357E+04  0.50400001928E-02 0. -1.
    10030    2    1    2    0    0  0.00000000000E+00  0.00000000000E+00 -0.43349537831E+03  0.23275632932E+04  0.22868390063E+04 0.  0.
        3    1    3    3  502    0 -0.25161992796E+03 -0.20862298581E+03  0.89847094018E+03  0.95607854223E+03  0.10100000352E+00 0.  1.
       -3    1    3    3    0  502  0.25161992796E+03  0.20862298581E+03 -0.13319663185E+04  0.13714847510E+04  0.10100000352E+00 0. -1.
</event>
<event>
 5   0  0.1371753E-05  0.2288232E+04  0.7818609E-02  0.8482576E-01
        1   -1    0    0  501    0  0.00000000000E+00  0.00000000000E+00  0.17247530377E+04  0.17247530377E+04  0.50400001928E-02 0. -1.
       -1   -1    0    0    0  501  0.00000000000E+00  0.00000000000E+00 -0.75895002376E+03  0.75895002377E+03  0.50400001928E-02 0.  1.
    10030    2    1    2    0    0  0.00000000000E+00  0.00000000000E+00  0.96580301393E+03  0.24837030615E+04  0.22882319454E+04 0.  0.
        3    1    3    3  502    0  0.99020955892E+03 -0.25215915569E+03  0.10415547964E+04  0.14590872539E+04  0.10100000352E+00 0. -1.
       -3    1    3    3    0  502 -0.99020955892E+03  0.25215915569E+03 -0.75751782478E+02  0.10246158076E+04  0.10100000352E+00 0.  1.
</event>
<event>
 5   0  0.1308224E-05  0.2302875E+04  0.7818609E-02  0.8476788E-01
       -1   -1    0    0    0  501  0.00000000000E+00  0.00000000000E+00  0.56379112471E+03  0.56379112473E+03  0.50400001928E-02 0.  1.
        1   -1    0    0  501    0  0.00000000000E+00  0.00000000000E+00 -0.23515956321E+04  0.23515956321E+04  0.50400001928E-02 0. -1.
    10030    2    1    2    0    0  0.00000000000E+00  0.00000000000E+00 -0.17878045073E+04  0.29153867568E+04  0.23028753734E+04 0.  0.
        5    1    3    3  502    0 -0.21863332782E+03 -0.10964243290E+03 -0.23183172342E+04  0.23311882986E+04  0.46999998093E+01 0. -1.
       -5    1    3    3    0  502  0.21863332782E+03  0.10964243290E+03  0.53051272689E+03  0.58419845816E+03  0.46999998093E+01 0.  1.
</event>
<event>
 5   0  0.1284837E-05  0.2281751E+04  0.7818609E-02  0.8485151E-01
        1   -1    0    0  501    0  0.00000000000E+00  0.00000000000E+00  0.17253579950E+04  0.17253579950E+04  0.50400001928E-02 0. -1.
       -1   -1    0    0    0  501  0.00000000000E+00  0.00000000000E+00 -0.75439230649E+03  0.75439230651E+03  0.50400001928E-02 0.  1.
    10030    2    1    2    0    0  0.00000000000E+00  0.00000000000E+00  0.97096568849E+03  0.24797503015E+04  0.22817509044E+04 0.  0.
        4    1    3    3  502    0 -0.10949264300E+04  0.30605650262E+03  0.38203511871E+03  0.11993693821E+04  0.12699999809E+01 0.  1.
       -4    1    3    3    0  502  0.10949264300E+04 -0.30605650262E+03  0.58893056978E+03  0.12803809194E+04  0.12699999809E+01 0. -1.
</event>
<event>
 5   0  0.1308224E-05  0.2297279E+04  0.7818609E-02  0.8478995E-01
        1   -1    0    0  501    0  0.00000000000E+00  0.00000000000E+00  0.11325402053E+04  0.11325402053E+04  0.50400001928E-02 0. -1.
       -1   -1    0    0    0  501  0.00000000000E+00  0.00000000000E+00 -0.11649675839E+04  0.11649675839E+04  0.50400001928E-02 0.  1.
    10030    2    1    2    0    0  0.00000000000E+00  0.00000000000E+00 -0.32427378611E+02  0.22975077892E+04  0.22972789353E+04 0.  0.
        5    1    3    3  502    0 -0.87199354449E+03  0.23945999335E+03 -0.72454740811E+03  0.11587514257E+04  0.46999998093E+01 0.  1.
       -5    1    3    3    0  502  0.87199354449E+03 -0.23945999335E+03  0.69212002950E+03  0.11387563634E+04  0.46999998093E+01 0. -1.
</event>
<event>
 5   0  0.2994157E-05  0.2304351E+04  0.7818609E-02  0.8476208E-01
       -2   -1    0    0    0  501  0.00000000000E+00  0.00000000000E+00  0.54687245778E+03  0.54687245779E+03  0.25500000920E-02 0.  1.
        2   -1    0    0  501    0  0.00000000000E+00  0.00000000000E+00 -0.24274554755E+04  0.24274554755E+04  0.25500000920E-02 0. -1.
    10030    2    1    2    0    0  0.00000000000E+00  0.00000000000E+00 -0.18805830177E+04  0.29743279333E+04  0.23043511382E+04 0.  0.
        4    1    3    3  502    0 -0.38590684131E+03  0.99589627221E+02  0.45506493863E+03  0.60491974285E+03  0.12699999809E+01 0.  1.
       -4    1    3    3    0  502  0.38590684131E+03 -0.99589627221E+02 -0.23356479563E+04  0.23694081904E+04  0.12699999809E+01 0. -1.
</event>
<event>
 5   0  0.1308224E-05  0.2300135E+04  0.7818609E-02  0.8477868E-01
        1   -1    0    0  501    0  0.00000000000E+00  0.00000000000E+00  0.11833901713E+04  0.11833901714E+04  0.50400001928E-02 0. -1.
       -1   -1    0    0    0  501  0.00000000000E+00  0.00000000000E+00 -0.11176832703E+04  0.11176832703E+04  0.50400001928E-02 0.  1.
    10030    2    1    2    0    0  0.00000000000E+00  0.00000000000E+00  0.65706901057E+02  0.23010734417E+04  0.23001351237E+04 0.  0.
        5    1    3    3  502    0  0.94125924725E+03 -0.65988433597E+03 -0.20462989417E+01  0.11495401623E+04  0.46999998093E+01 0.  1.
       -5    1    3    3    0  502 -0.94125924725E+03  0.65988433597E+03  0.67753199999E+02  0.11515332794E+04  0.46999998093E+01 0. -1.
</event>
<event>
 5   0  0.2871888E-05  0.2204256E+04  0.7818609E-02  0.8516659E-01
        2   -1    0    0  501    0  0.00000000000E+00  0.00000000000E+00  0.76626789025E+03  0.76626789025E+03  0.25500000920E-02 0.  1.
       -2   -1    0    0    0  501  0.00000000000E+00  0.00000000000E+00 -0.15851970364E+04  0.15851970364E+04  0.25500000920E-02 0. -1.
    10030    2    1    2    0    0  0.00000000000E+00  0.00000000000E+00 -0.81892914617E+03  0.23514649267E+04  0.22042555104E+04 0.  0.
        3    1    3    3  502    0 -0.27906007375E+03 -0.70056246867E+03  0.44796933654E+03  0.87711962351E+03  0.10100000352E+00 0.  1.
       -3    1    3    3    0  502  0.27906007375E+03  0.70056246867E+03 -0.12668984827E+04  0.14743453032E+04  0.10100000352E+00 0. -1.
</event>
<event>
 5   0  0.2871888E-05  0.2305094E+04  0.7818609E-02  0.8475915E-01
        2   -1    0    0  501    0  0.00000000000E+00  0.00000000000E+00  0.17670425871E+04  0.17670425871E+04  0.25500000920E-02 0. -1.
       -2   -1    0    0    0  501  0.00000000000E+00  0.00000000000E+00 -0.75174445373E+03  0.75174445373E+03  0.25500000920E-02 0.  1.
    10030    2    1    2    0    0  0.00000000000E+00  0.00000000000E+00  0.10152981333E+04  0.25187870408E+04  0.23050938934E+04 0.  0.
        3    1    3    3  502    0  0.45880756263E+03 -0.18643682298E+03 -0.62955233340E+03  0.80099888837E+03  0.10100000352E+00 0.  1.
       -3    1    3    3    0  502 -0.45880756263E+03  0.18643682298E+03  0.16448504667E+04  0.17177881524E+04  0.10100000352E+00 0. -1.
</event>
<event>
 5   0  0.1017200E-05  0.2325271E+04  0.7818609E-02  0.8468023E-01
        4   -1    0    0  501    0  0.00000000000E+00  0.00000000000E+00  0.15147060689E+04  0.15147066013E+04  0.12699999809E+01 0.  1.
       -4   -1    0    0    0  501  0.00000000000E+00  0.00000000000E+00 -0.89239720292E+03  0.89239810661E+03  0.12699999809E+01 0. -1.
    10030    2    1    2    0    0  0.00000000000E+00  0.00000000000E+00  0.62230886597E+03  0.24071047079E+04  0.23252708983E+04 0.  0.
        3    1    3    3  502    0  0.11123228674E+04 -0.15823354497E+03  0.15967562817E+01  0.11235223968E+04  0.10100000352E+00 0.  1.
       -3    1    3    3    0  502 -0.11123228674E+04  0.15823354497E+03  0.62071210969E+03  0.12835823112E+04  0.10100000352E+00 0. -1.
</event>
<event>
 5   0  0.2910126E-05  0.2246910E+04  0.7818609E-02  0.8499153E-01
        2   -1    0    0  501    0  0.00000000000E+00  0.00000000000E+00  0.18938669997E+04  0.18938669997E+04  0.25500000920E-02 0.  1.
       -2   -1    0    0    0  501  0.00000000000E+00  0.00000000000E+00 -0.66644150460E+03  0.66644150461E+03  0.25500000920E-02 0. -1.
    10030    2    1    2    0    0  0.00000000000E+00  0.00000000000E+00  0.12274254951E+04  0.25603085043E+04  0.22469103879E+04 0.  0.
        5    1    3    3  502    0  0.44016170593E+03  0.44454974565E+03  0.16770143053E+04  0.17899066663E+04  0.46999998093E+01 0.  1.
       -5    1    3    3    0  502 -0.44016170593E+03 -0.44454974565E+03 -0.44958881024E+03  0.77040183802E+03  0.46999998093E+01 0. -1.
</event>
<event>
 5   0  0.1308224E-05  0.2295975E+04  0.7818609E-02  0.8479510E-01
       -1   -1    0    0    0  501  0.00000000000E+00  0.00000000000E+00  0.14952804859E+04  0.14952804859E+04  0.50400001928E-02 0.  1.
        1   -1    0    0  501    0  0.00000000000E+00  0.00000000000E+00 -0.88135663952E+03  0.88135663954E+03  0.50400001928E-02 0. -1.
    10030    2    1    2    0    0  0.00000000000E+00  0.00000000000E+00  0.61392384634E+03  0.23766371254E+04  0.22959750732E+04 0.  0.
        5    1    3    3  502    0  0.11215471917E+04  0.65398611970E+02  0.62644004375E+02  0.11252072889E+04  0.46999998093E+01 0. -1.
       -5    1    3    3    0  502 -0.11215471917E+04 -0.65398611970E+02  0.55127984196E+03  0.12514298365E+04  0.46999998093E+01 0.  1.
</event>
<event>
 5   0  0.1303224E-05  0.2292160E+04  0.7818609E-02  0.8481019E-01
        1   -1    0    0  501    0  0.00000000000E+00  0.00000000000E+00  0.71932924698E+03  0.71932924700E+03  0.50400001928E-02 0. -1.
       -1   -1    0    0    0  501  0.00000000000E+00  0.00000000000E+00 -0.18260059911E+04  0.18260059911E+04  0.50400001928E-02 0.  1.
    10030    2    1    2    0    0  0.00000000000E+00  0.00000000000E+00 -0.11066767441E+04  0.25453352381E+04  0.22921601293E+04 0.  0.
        2    1    3    3  502    0  0.48078686571E+03 -0.97636415395E+03 -0.95226226661E+03  0.14461142402E+04  0.25500000920E-02 0.  1.
       -2    1    3    3    0  502 -0.48078686571E+03  0.97636415395E+03 -0.15441447752E+03  0.10992209979E+04  0.25500000920E-02 0. -1.
</event>
<event>
 5   0  0.2910126E-05  0.2244771E+04  0.7818609E-02  0.8500021E-01
       -2   -1    0    0    0  501  0.00000000000E+00  0.00000000000E+00  0.12059113398E+04  0.12059113398E+04  0.25500000920E-02 0.  1.
        2   -1    0    0  501    0  0.00000000000E+00  0.00000000000E+00 -0.10446446891E+04  0.10446446891E+04  0.25500000920E-02 0. -1.
    10030    2    1    2    0    0  0.00000000000E+00  0.00000000000E+00  0.16126665066E+03  0.22505560290E+04  0.22447707025E+04 0.  0.
        5    1    3    3  502    0 -0.21051843351E+03 -0.64949323164E+03 -0.81248650170E+03  0.10612802996E+04  0.46999998093E+01 0. -1.
       -5    1    3    3    0  502  0.21051843351E+03  0.64949323164E+03  0.97375315235E+03  0.11892757294E+04  0.46999998093E+01 0.  1.
</event>
<event>
 5   0  0.2816178E-05  0.2300696E+04  0.7818609E-02  0.8477647E-01
        2   -1    0    0  501    0  0.00000000000E+00  0.00000000000E+00  0.13944168378E+04  0.13944168379E+04  0.25500000920E-02 0.  1.
       -2   -1    0    0    0  501  0.00000000000E+00  0.00000000000E+00 -0.94899924227E+03  0.94899924228E+03  0.25500000920E-02 0. -1.
    10030    2    1    2    0    0  0.00000000000E+00  0.00000000000E+00  0.44541759557E+03  0.23434160801E+04  0.23006960012E+04 0.  0.
        1    1    3    3  502    0 -0.25510340210E+03 -0.56359366835E+02  0.13637992168E+04  0.13885972878E+04  0.50400001928E-02 0.  1.
       -1    1    3    3    0  502  0.25510340210E+03  0.56359366835E+02 -0.91838162120E+03  0.95481879233E+03  0.50400001928E-02 0. -1.
</event>
<event>
 5   0  0.1303224E-05  0.2307157E+04  0.7818609E-02  0.8475105E-01
       -1   -1    0    0    0  501  0.00000000000E+00  0.00000000000E+00  0.91639414866E+03  0.91639414867E+03  0.50400001928E-02 0. -1.
        1   -1    0    0  501    0  0.00000000000E+00  0.00000000000E+00 -0.14521513386E+04  0.14521513386E+04  0.50400001928E-02 0.  1.
    10030    2    1    2    0    0  0.00000000000E+00  0.00000000000E+00 -0.53575718993E+03  0.23685454873E+04  0.23071566827E+04 0.  0.
        2    1    3    3  502    0  0.89648550420E+03 -0.35661041844E+03 -0.91706975750E+03  0.13311176469E+04  0.25500000920E-02 0.  1.
       -2    1    3    3    0  502 -0.89648550420E+03  0.35661041844E+03  0.38131256756E+03  0.10374278404E+04  0.25500000920E-02 0. -1.
</event>
<event>
 5   0  0.2816178E-05  0.2371110E+04  0.7818609E-02  0.8450400E-01
        2   -1    0    0  501    0  0.00000000000E+00  0.00000000000E+00  0.21484248819E+04  0.21484248820E+04  0.25500000920E-02 0. -1.
       -2   -1    0    0    0  501  0.00000000000E+00  0.00000000000E+00 -0.65421886862E+03  0.65421886863E+03  0.25500000920E-02 0.  1.
    10030    2    1    2    0    0  0.00000000000E+00  0.00000000000E+00  0.14942060133E+04  0.28026437506E+04  0.23711095256E+04 0.  0.
        1    1    3    3  502    0 -0.51056809122E+03  0.35821105289E+03 -0.44463179158E+03  0.76595846121E+03  0.50400001928E-02 0.  1.
       -1    1    3    3    0  502  0.51056809122E+03 -0.35821105289E+03  0.19388378049E+04  0.20366852894E+04  0.50400001928E-02 0. -1.
</event>
<event>
 5   0  0.1284837E-05  0.2318998E+04  0.7818609E-02  0.8470468E-01
        1   -1    0    0  501    0  0.00000000000E+00  0.00000000000E+00  0.15387062393E+04  0.15387062393E+04  0.50400001928E-02 0.  1.
       -1   -1    0    0    0  501  0.00000000000E+00  0.00000000000E+00 -0.87374554206E+03  0.87374554207E+03  0.50400001928E-02 0. -1.
    10030    2    1    2    0    0  0.00000000000E+00  0.00000000000E+00  0.66496069720E+03  0.24124517813E+04  0.23189978155E+04 0.  0.
        4    1    3    3  502    0 -0.67894845578E+03  0.93163067559E+03  0.20284142946E+03  0.11704926227E+04  0.12699999809E+01 0. -1.
       -4    1    3    3    0  502  0.67894845578E+03 -0.93163067559E+03  0.46211926774E+03  0.12419591587E+04  0.12699999809E+01 0.  1.
</event>
<event>
 5   0  0.2871888E-05  0.2307717E+04  0.7818609E-02  0.8474884E-01
        2   -1    0    0  501    0  0.00000000000E+00  0.00000000000E+00  0.85376763391E+03  0.85376763392E+03  0.25500000920E-02 0. -1.
       -2   -1    0    0    0  501  0.00000000000E+00  0.00000000000E+00 -0.15594289813E+04  0.15594289813E+04  0.25500000920E-02 0.  1.
    10030    2    1    2    0    0  0.00000000000E+00  0.00000000000E+00 -0.70566134737E+03  0.24131966152E+04  0.23077174798E+04 0.  0.
        3    1    3    3  502    0 -0.26664692557E+03  0.11118764374E+04 -0.51489904016E+03  0.12539899628E+04  0.10100000352E+00 0. -1.
       -3    1    3    3    0  502  0.26664692557E+03 -0.11118764374E+04 -0.19076230721E+03  0.11592066524E+04  0.10100000352E+00 0.  1.
</event>
<event>
 5   0  0.1284837E-05  0.2302058E+04  0.7818609E-02  0.8477110E-01
       -1   -1    0    0    0  501  0.00000000000E+00  0.00000000000E+00  0.12545412668E+04  0.12545412668E+04  0.50400001928E-02 0.  1.
        1   -1    0    0  501    0  0.00000000000E+00  0.00000000000E+00 -0.10560571022E+04  0.10560571023E+04  0.50400001928E-02 0. -1.
    10030    2    1    2    0    0  0.00000000000E+00  0.00000000000E+00  0.19848416455E+03  0.23105983691E+04  0.23020575274E+04 0.  0.
        4    1    3    3  502    0 -0.31559105775E+03 -0.77916634039E+03 -0.68991134093E+03  0.10875096197E+04  0.12699999809E+01 0. -1.
       -4    1    3    3    0  502  0.31559105775E+03  0.77916634039E+03  0.88839550548E+03  0.12230887494E+04  0.12699999809E+01 0.  1.
</event>
<event>
 5   0  0.2871888E-05  0.2290640E+04  0.7818609E-02  0.8481621E-01
       -2   -1    0    0    0  501  0.00000000000E+00  0.00000000000E+00  0.20516682064E+04  0.20516682065E+04  0.25500000920E-02 0.  1.
        2   -1    0    0  501    0  0.00000000000E+00  0.00000000000E+00 -0.63936146193E+03  0.63936146194E+03  0.25500000920E-02 0. -1.
    10030    2    1    2    0    0  0.00000000000E+00  0.00000000000E+00  0.14123067445E+04  0.26910296684E+04  0.22906397219E+04 0.  0.
        3    1    3    3  502    0  0.10942078340E+04  0.25847446730E+03  0.44968818751E+03  0.12109167231E+04  0.10100000352E+00 0.  1.
       -3    1    3    3    0  502 -0.10942078340E+04 -0.25847446730E+03  0.96261855700E+03  0.14801129452E+04  0.10100000352E+00 0. -1.
</event>
<event>
 5   0  0.2994157E-05  0.2280752E+04  0.7818609E-02  0.8485549E-01
        2   -1    0    0  501    0  0.00000000000E+00  0.00000000000E+00  0.13243834529E+04  0.13243834529E+04  0.25500000920E-02 0. -1.
       -2   -1    0    0    0  501  0.00000000000E+00  0.00000000000E+00 -0.98193433158E+03  0.98193433158E+03  0.25500000920E-02 0.  1.
    10030    2    1    2    0    0  0.00000000000E+00  0.00000000000E+00  0.34244912135E+03  0.23063177845E+04  0.22807521396E+04 0.  0.
        4    1    3    3  502    0  0.46106691076E+03  0.49014830538E+03 -0.75976257772E+03  0.10149230734E+04  0.12699999809E+01 0.  1.
       -4    1    3    3    0  502 -0.46106691076E+03 -0.49014830538E+03  0.11022116991E+04  0.12913947111E+04  0.12699999809E+01 0. -1.
</event>
<event>
 5   0  0.2938972E-05  0.2433213E+04  0.7818609E-02  0.8427173E-01
        2   -1    0    0  501    0  0.00000000000E+00  0.00000000000E+00  0.99985214236E+03  0.99985214236E+03  0.25500000920E-02 0. -1.
       -2   -1    0    0    0  501  0.00000000000E+00  0.00000000000E+00 -0.14803508387E+04  0.14803508387E+04  0.25500000920E-02 0.  1.
    10030    2    1    2    0    0  0.00000000000E+00  0.00000000000E+00 -0.48049869635E+03  0.24802029811E+04  0.24332134781E+04 0.  0.
        2    1    3    3  502    0  0.78708275487E+03  0.30956256783E+03 -0.11316685914E+04  0.14127993655E+04  0.25500000920E-02 0. -1.
       -2    1    3    3    0  502 -0.78708275487E+03 -0.30956256783E+03  0.65116989501E+03  0.10674036156E+04  0.25500000920E-02 0.  1.
</event>
<event>
 5   0  0.2938972E-05  0.2312318E+04  0.7818609E-02  0.8473080E-01
       -2   -1    0    0    0  501  0.00000000000E+00  0.00000000000E+00  0.86897153257E+03  0.86897153257E+03  0.25500000920E-02 0.  1.
        2   -1    0    0  501    0  0.00000000000E+00  0.00000000000E+00 -0.15382591090E+04  0.15382591090E+04  0.25500000920E-02 0. -1.
    10030    2    1    2    0    0  0.00000000000E+00  0.00000000000E+00 -0.66928757645E+03  0.24072306416E+04  0.23123177770E+04 0.  0.
        2    1    3    3  502    0 -0.33926265144E+03 -0.24745847292E+02 -0.14849847148E+04  0.15234471132E+04  0.25500000920E-02 0. -1.
       -2    1    3    3    0  502  0.33926265144E+03  0.24745847292E+02  0.81569713831E+03  0.88378352840E+03  0.25500000920E-02 0.  1.
</event>
<event>
 5   0  0.1284837E-05  0.2311142E+04  0.7818609E-02  0.8473541E-01
       -1   -1    0    0    0  501  0.00000000000E+00  0.00000000000E+00  0.11029284075E+04  0.11029284075E+04  0.50400001928E-02 0. -1.
        1   -1    0    0  501    0  0.00000000000E+00  0.00000000000E+00 -0.12107266998E+04  0.12107266998E+04  0.50400001928E-02 0.  1.
    10030    2    1    2    0    0  0.00000000000E+00  0.00000000000E+00 -0.10779829236E+03  0.23136551073E+04  0.23111424629E+04 0.  0.
        4    1    3    3  502    0  0.40732022907E+03 -0.65031265207E+03  0.81105810997E+03  0.11165272881E+04  0.12699999809E+01 0. -1.
       -4    1    3    3    0  502 -0.40732022907E+03  0.65031265207E+03 -0.91885640233E+03  0.11971278192E+04  0.12699999809E+01 0.  1.
</event>
<event>
 5   0  0.2938972E-05  0.2297202E+04  0.7818609E-02  0.8479025E-01
       -2   -1    0    0    0  501  0.00000000000E+00  0.00000000000E+00  0.15176122209E+04  0.15176122209E+04  0.25500000920E-02 0.  1.
        2   -1    0    0  501    0  0.00000000000E+00  0.00000000000E+00 -0.86931554400E+03  0.86931554400E+03  0.25500000920E-02 0. -1.
    10030    2    1    2    0    0  0.00000000000E+00  0.00000000000E+00  0.64829667690E+03  0.23869277649E+04  0.22972016833E+04 0.  0.
        2    1    3    3  502    0  0.41543311275E+03 -0.64101737035E+03  0.12154379566E+04  0.14355407924E+04  0.25500000920E-02 0.  1.
       -2    1    3    3    0  502 -0.41543311275E+03  0.64101737035E+03 -0.56714127973E+03  0.95138697250E+03  0.25500000920E-02 0. -1.
</event>
<event>
 5   0  0.2910126E-05  0.2304261E+04  0.7818609E-02  0.8476243E-01
        2   -1    0    0  501    0  0.00000000000E+00  0.00000000000E+00  0.10023459813E+04  0.10023459813E+04  0.25500000920E-02 0.  1.
       -2   -1    0    0    0  501  0.00000000000E+00  0.00000000000E+00 -0.13242978198E+04  0.13242978198E+04  0.25500000920E-02 0. -1.
    10030    2    1    2    0    0  0.00000000000E+00  0.00000000000E+00 -0.32195183854E+03  0.23266438011E+04  0.23042609208E+04 0.  0.
        5    1    3    3  502    0 -0.31004505101E+03  0.95372216327E+03  0.41169164584E+03  0.10840784103E+04  0.46999998093E+01 0.  1.
       -5    1    3    3    0  502  0.31004505101E+03 -0.95372216327E+03 -0.73364348438E+03  0.12425653908E+04  0.46999998093E+01 0. -1.
</event>
<event>
 5   0  0.2910126E-05  0.2170529E+04  0.7818609E-02  0.8530796E-01
       -2   -1    0    0    0  501  0.00000000000E+00  0.00000000000E+00  0.11213157263E+04  0.11213157263E+04  0.25500000920E-02 0. -1.
        2   -1    0    0  501    0  0.00000000000E+00  0.00000000000E+00 -0.10503723424E+04  0.10503723424E+04  0.25500000920E-02 0.  1.
    10030    2    1    2    0    0  0.00000000000E+00  0.00000000000E+00  0.70943383950E+02  0.21716880687E+04  0.21705289918E+04 0.  0.
        5    1    3    3  502    0  0.30988651593E+03 -0.21545502010E+03 -0.98258157541E+03  0.10525868899E+04  0.46999998093E+01 0.  1.
       -5    1    3    3    0  502 -0.30988651593E+03  0.21545502010E+03  0.10535249594E+04  0.11191011788E+04  0.46999998093E+01 0. -1.
</event>
<event>
 5   0  0.2871888E-05  0.2286730E+04  0.7818609E-02  0.8483172E-01
        2   -1    0    0  501    0  0.00000000000E+00  0.00000000000E+00  0.11294807671E+04  0.11294807671E+04  0.25500000920E-02 0.  1.
       -2   -1    0    0    0  501  0.00000000000E+00  0.00000000000E+00 -0.11574202041E+04  0.11574202041E+04  0.25500000920E-02 0. -1.
    10030    2    1    2    0    0  0.00000000000E+00  0.00000000000E+00 -0.27939437019E+02  0.22869009712E+04  0.22867302945E+04 0.  0.
        3    1    3    3  502    0  0.22866838149E+03 -0.51789842164E+03 -0.10074097787E+04  0.11555875026E+04  0.10100000352E+00 0. -1.
       -3    1    3    3    0  502 -0.22866838149E+03  0.51789842164E+03  0.97947034164E+03  0.11313134686E+04  0.10100000352E+00 0.  1.
</event>
<event>
 5   0  0.1308224E-05  0.2288367E+04  0.7818609E-02  0.8482522E-01
        1   -1    0    0  501    0  0.00000000000E+00  0.00000000000E+00  0.21690511674E+04  0.21690511674E+04  0.50400001928E-02 0.  1.
       -1   -1    0    0    0  501  0.00000000000E+00  0.00000000000E+00 -0.60356144005E+03  0.60356144007E+03  0.50400001928E-02 0. -1.
    10030    2    1    2    0    0  0.00000000000E+00  0.00000000000E+00  0.15654897273E+04  0.27726126075E+04  0.22883667942E+04 0.  0.
        5    1    3    3  502    0 -0.34348505073E+03  0.49673533103E+02  0.21037265180E+04  0.21321671587E+04  0.46999998093E+01 0.  1.
       -5    1    3    3    0  502  0.34348505073E+03 -0.49673533103E+02 -0.53823679070E+03  0.64044544875E+03  0.46999998093E+01 0. -1.
</event>
<event>
 5   0  0.1327820E-05  0.2294065E+04  0.7818609E-02  0.8480265E-01
        1   -1    0    0  501    0  0.00000000000E+00  0.00000000000E+00  0.17369521234E+04  0.17369521234E+04  0.50400001928E-02 0. -1.
       -1   -1    0    0    0  501  0.00000000000E+00  0.00000000000E+00 -0.75746694546E+03  0.75746694547E+03  0.50400001928E-02 0.  1.
    10030    2    1    2    0    0  0.00000000000E+00  0.00000000000E+00  0.97948517794E+03  0.24944190689E+04  0.22940652295E+04 0.  0.
        1    1    3    3  502    0  0.21837188732E+03  0.11220625736E+04  0.59274214976E+03  0.12876544398E+04  0.50400001928E-02 0. -1.
       -1    1    3    3    0  502 -0.21837188732E+03 -0.11220625736E+04  0.38674302818E+03  0.12067646291E+04  0.50400001928E-02 0.  1.
</event>
<event>
 5   0  0.2871888E-05  0.2281479E+04  0.7818609E-02  0.8485259E-01
       -2   -1    0    0    0  501  0.00000000000E+00  0.00000000000E+00  0.78813961561E+03  0.78813961561E+03  0.25500000920E-02 0.  1.
        2   -1    0    0  501    0  0.00000000000E+00  0.00000000000E+00 -0.16510869990E+04  0.16510869990E+04  0.25500000920E-02 0. -1.
    10030    2    1    2    0    0  0.00000000000E+00  0.00000000000E+00 -0.86294738344E+03  0.24392266147E+04  0.22814794084E+04 0.  0.
        3    1    3    3  502    0  0.66020580230E+03 -0.71182661019E+01  0.56309591231E+03  0.86775537322E+03  0.10100000352E+00 0.  1.
       -3    1    3    3    0  502 -0.66020580230E+03  0.71182661019E+01 -0.14260432957E+04  0.15714712414E+04  0.10100000352E+00 0. -1.
</event>
<event>
 5   0  0.1303224E-05  0.2286766E+04  0.7818609E-02  0.8483157E-01
       -1   -1    0    0    0  501  0.00000000000E+00  0.00000000000E+00  0.10224746839E+04  0.10224746839E+04  0.50400001928E-02 0.  1.
        1   -1    0    0  501    0  0.00000000000E+00  0.00000000000E+00 -0.12785892953E+04  0.12785892954E+04  0.50400001928E-02 0. -1.
    10030    2    1    2    0    0  0.00000000000E+00  0.00000000000E+00 -0.25611461149E+03  0.23010639792E+04  0.22867664381E+04 0.  0.
        2    1    3    3  502    0 -0.22367843667E+03  0.45286706199E+02 -0.12554381724E+04  0.12760125131E+04  0.25500000920E-02 0. -1.
       -2    1    3    3    0  502  0.22367843667E+03 -0.45286706199E+02  0.99932356092E+03  0.10250514661E+04  0.25500000920E-02 0.  1.
</event>
<event>
 5   0  0.2994157E-05  0.2284944E+04  0.7818609E-02  0.8483881E-01
       -2   -1    0    0    0  501  0.00000000000E+00  0.00000000000E+00  0.72154195527E+03  0.72154195527E+03  0.25500000920E-02 0.  1.
        2   -1    0    0  501    0  0.00000000000E+00  0.00000000000E+00 -0.18089627747E+04  0.18089627747E+04  0.25500000920E-02 0. -1.
    10030    2    1    2    0    0  0.00000000000E+00  0.00000000000E+00 -0.10874208195E+04  0.25305047300E+04  0.22849442335E+04 0.  0.
        4    1    3    3  502    0 -0.69323752080E+03 -0.30535531405E+03  0.40343181971E+03  0.85824179234E+03  0.12699999809E+01 0.  1.
       -4    1    3    3    0  502  0.69323752080E+03  0.30535531405E+03 -0.14908526392E+04  0.16722629377E+04  0.12699999809E+01 0. -1.
</event>
<event>
 5   0  0.1284837E-05  0.2330811E+04  0.7818609E-02  0.8465871E-01
        1   -1    0    0  501    0  0.00000000000E+00  0.00000000000E+00  0.15656108570E+04  0.15656108570E+04  0.50400001928E-02 0.  1.
       -1   -1    0    0    0  501  0.00000000000E+00  0.00000000000E+00 -0.86750197025E+03  0.86750197026E+03  0.50400001928E-02 0. -1.
    10030    2    1    2    0    0  0.00000000000E+00  0.00000000000E+00  0.69810888677E+03  0.24331128273E+04  0.23308114494E+04 0.  0.
        4    1    3    3  502    0  0.37975419126E+03 -0.10044046357E+04  0.82184249291E+03  0.13522087908E+04  0.12699999809E+01 0.  1.
       -4    1    3    3    0  502 -0.37975419126E+03  0.10044046357E+04 -0.12373360613E+03  0.10809040365E+04  0.12699999809E+01 0. -1.
</event>
<event>
 5   0  0.2994157E-05  0.2311169E+04  0.7818609E-02  0.8473530E-01
       -2   -1    0    0    0  501  0.00000000000E+00  0.00000000000E+00  0.92121783366E+03  0.92121783367E+03  0.25500000920E-02 0. -1.
        2   -1    0    0  501    0  0.00000000000E+00  0.00000000000E+00 -0.14495767953E+04  0.14495767953E+04  0.25500000920E-02 0.  1.
    10030    2    1    2    0    0  0.00000000000E+00  0.00000000000E+00 -0.52835896166E+03  0.23707946290E+04  0.23111693968E+04 0.  0.
        4    1    3    3  502    0 -0.93902422354E+03  0.28740286821E+03 -0.88899741988E+03  0.13246452078E+04  0.12699999809E+01 0.  1.
       -4    1    3    3    0  502  0.93902422354E+03 -0.28740286821E+03  0.36063845823E+03  0.10461494212E+04  0.12699999809E+01 0. -1.
</event>
<event>
 5   0  0.2816178E-05  0.2306505E+04  0.7818609E-02  0.8475361E-01
       -2   -1    0    0    0  501  0.00000000000E+00  0.00000000000E+00  0.73782252680E+03  0.73782252680E+03  0.25500000920E-02 0. -1.
        2   -1    0    0  501    0  0.00000000000E+00  0.00000000000E+00 -0.18025900503E+04  0.18025900503E+04  0.25500000920E-02 0.  1.
    10030    2    1    2    0    0  0.00000000000E+00  0.00000000000E+00 -0.10647675235E+04  0.25404125771E+04  0.23065051881E+04 0.  0.
        1    1    3    3  502    0 -0.37942274071E+02  0.33343322402E+03 -0.17476232347E+04  0.17795517137E+04  0.50400001928E-02 0.  1.
       -1    1    3    3    0  502  0.37942274071E+02 -0.33343322402E+03  0.68285571126E+03  0.76086086341E+03  0.50400001928E-02 0. -1.
</event>
<event>
 5   0  0.2938972E-05  0.2342309E+04  0.7818609E-02  0.8461424E-01
        2   -1    0    0  501    0  0.00000000000E+00  0.00000000000E+00  0.11723570267E+04  0.11723570267E+04  0.25500000920E-02 0.  1.
       -2   -1    0    0    0  501  0.00000000000E+00  0.00000000000E+00 -0.11699528137E+04  0.11699528137E+04  0.25500000920E-02 0. -1.
    10030    2    1    2    0    0  0.00000000000E+00  0.00000000000E+00  0.24042130173E+01  0.23423098404E+04  0.23423086065E+04 0.  0.
        2    1    3    3  502    0  0.33631875453E+03  0.10756027567E+04 -0.31749981390E+03  0.11708277955E+04  0.25500000920E-02 0. -1.
       -2    1    3    3    0  502 -0.33631875453E+03 -0.10756027567E+04  0.31990402692E+03  0.11714820448E+04  0.25500000920E-02 0.  1.
</event>
<event>
 5   0  0.1371753E-05  0.2278392E+04  0.7818609E-02  0.8486490E-01
        1   -1    0    0  501    0  0.00000000000E+00  0.00000000000E+00  0.19429093188E+04  0.19429093188E+04  0.50400001928E-02 0. -1.
       -1   -1    0    0    0  501  0.00000000000E+00  0.00000000000E+00 -0.66795049983E+03  0.66795049985E+03  0.50400001928E-02 0.  1.
    10030    2    1    2    0    0  0.00000000000E+00  0.00000000000E+00  0.12749588190E+04  0.26108598186E+04  0.22783917579E+04 0.  0.
        3    1    3    3  502    0  0.47894811718E+03  0.54225823670E+03  0.16458466827E+04  0.17978449898E+04  0.10100000352E+00 0. -1.
       -3    1    3    3    0  502 -0.47894811718E+03 -0.54225823670E+03 -0.37088786375E+03  0.81301482883E+03  0.10100000352E+00 0.  1.
</event>
<event>
 5   0  0.1327820E-05  0.2321209E+04  0.7818609E-02  0.8469605E-01
        1   -1    0    0  501    0  0.00000000000E+00  0.00000000000E+00  0.10457793305E+04  0.10457793305E+04  0.50400001928E-02 0.  1.
       -1   -1    0    0    0  501  0.00000000000E+00  0.00000000000E+00 -0.12880378466E+04  0.12880378466E+04  0.50400001928E-02 0. -1.
    10030    2    1    2    0    0  0.00000000000E+00  0.00000000000E+00 -0.24225851606E+03  0.23338171771E+04  0.23212094751E+04 0.  0.
        1    1    3    3  502    0 -0.99099385990E+03 -0.24559508106E+02 -0.72800639009E+03  0.12299045914E+04  0.50400001928E-02 0. -1.
       -1    1    3    3    0  502  0.99099385990E+03  0.24559508106E+02  0.48574787403E+03  0.11039125857E+04  0.50400001928E-02 0.  1.
</event>
<event>
 5   0  0.1303224E-05  0.2288994E+04  0.7818609E-02  0.8482273E-01
        1   -1    0    0  501    0  0.00000000000E+00  0.00000000000E+00  0.18871889548E+04  0.18871889549E+04  0.50400001928E-02 0.  1.
       -1   -1    0    0    0  501  0.00000000000E+00  0.00000000000E+00 -0.69408709879E+03  0.69408709881E+03  0.50400001928E-02 0. -1.
    10030    2    1    2    0    0  0.00000000000E+00  0.00000000000E+00  0.11931018561E+04  0.25812760537E+04  0.22889941080E+04 0.  0.
        2    1    3    3  502    0  0.10289205570E+04 -0.83973433579E+02  0.11537536270E+04  0.15481848992E+04  0.25500000920E-02 0.  1.
       -2    1    3    3    0  502 -0.10289205570E+04  0.83973433579E+02  0.39348229030E+02  0.10330911544E+04  0.25500000920E-02 0. -1.
</event>
<event>
 5   0  0.2938972E-05  0.2294152E+04  0.7818609E-02  0.8480231E-01
        2   -1    0    0  501    0  0.00000000000E+00  0.00000000000E+00  0.88972182236E+03  0.88972182236E+03  0.25500000920E-02 0. -1.
       -2   -1    0    0    0  501  0.00000000000E+00  0.00000000000E+00 -0.14788702628E+04  0.14788702628E+04  0.25500000920E-02 0.  1.
    10030    2    1    2    0    0  0.00000000000E+00  0.00000000000E+00 -0.58914844045E+03  0.23685920852E+04  0.22941518217E+04 0.  0.
        2    1    3    3  502    0  0.71415590453E+03 -0.89753460261E+03 -0.30903314982E+03  0.11878924642E+04  0.25500000920E-02 0. -1.
       -2    1    3    3    0  502 -0.71415590453E+03  0.89753460261E+03 -0.28011529063E+03  0.11806996210E+04  0.25500000920E-02 0.  1.
</event>
<event>
 5   0  0.2910126E-05  0.2338508E+04  0.7818609E-02  0.8462891E-01
        2   -1    0    0  501    0  0.00000000000E+00  0.00000000000E+00  0.16284020708E+04  0.16284020708E+04  0.25500000920E-02 0. -1.
       -2   -1    0    0    0  501  0.00000000000E+00  0.00000000000E+00 -0.83956867030E+03  0.83956867031E+03  0.25500000920E-02 0.  1.
    10030    2    1    2    0    0  0.00000000000E+00  0.00000000000E+00  0.78883340046E+03  0.24679707411E+04  0.23385083804E+04 0.  0.
        5    1    3    3  502    0 -0.96721876882E+03  0.40954339821E+03  0.93656353685E+03  0.14072708660E+04  0.46999998093E+01 0. -1.
       -5    1    3    3    0  502  0.96721876882E+03 -0.40954339821E+03 -0.14773013638E+03  0.10606998751E+04  0.46999998093E+01 0.  1.
</event>
<event>
 5   0  0.1327820E-05  0.2229213E+04  0.7818609E-02  0.8506366E-01
        1   -1    0    0  501    0  0.00000000000E+00  0.00000000000E+00  0.15665301138E+04  0.15665301138E+04  0.50400001928E-02 0. -1.
       -1   -1    0    0    0  501  0.00000000000E+00  0.00000000000E+00 -0.79305733120E+03  0.79305733122E+03  0.50400001928E-02 0.  1.
    10030    2    1    2    0    0  0.00000000000E+00  0.00000000000E+00  0.77347278256E+03  0.23595874450E+04  0.22292134858E+04 0.  0.
        1    1    3    3  502    0 -0.83838523671E+03  0.73204799963E+03  0.32354468094E+03  0.11590794794E+04  0.50400001928E-02 0.  1.
       -1    1    3    3    0  502  0.83838523671E+03 -0.73204799963E+03  0.44992810161E+03  0.12005079656E+04  0.50400001928E-02 0. -1.
</event>
<event>
 5   0  0.2816178E-05  0.2185059E+04  0.7818609E-02  0.8524673E-01
       -2   -1    0    0    0  501  0.00000000000E+00  0.00000000000E+00  0.80743708130E+03  0.80743708131E+03  0.25500000920E-02 0.  1.
        2   -1    0    0  501    0  0.00000000000E+00  0.00000000000E+00 -0.14782835101E+04  0.14782835101E+04  0.25500000920E-02 0. -1.
    10030    2    1    2    0    0  0.00000000000E+00  0.00000000000E+00 -0.67084642882E+03  0.22857205914E+04  0.21850591962E+04 0.  0.
        1    1    3    3  502    0  0.85833657092E+03 -0.67879761742E+02 -0.10389159034E+04  0.13493315328E+04  0.50400001928E-02 0. -1.
       -1    1    3    3    0  502 -0.85833657092E+03  0.67879761742E+02  0.36806947457E+03  0.93638905865E+03  0.50400001928E-02 0.  1.
</event>
<event>
 5   0  0.1327820E-05  0.2307921E+04  0.7818609E-02  0.8474804E-01
       -1   -1    0    0    0  501  0.00000000000E+00  0.00000000000E+00  0.10948044654E+04  0.10948044654E+04  0.50400001928E-02 0. -1.
        1   -1    0    0  501    0  0.00000000000E+00  0.00000000000E+00 -0.12163131634E+04  0.12163131634E+04  0.50400001928E-02 0.  1.
    10030    2    1    2    0    0  0.00000000000E+00  0.00000000000E+00 -0.12150869802E+03  0.23111176289E+04  0.23079212142E+04 0.  0.
        1    1    3    3  502    0 -0.11052758086E+04  0.30820972900E+03  0.61878448319E+02  0.11491113055E+04  0.50400001928E-02 0. -1.
       -1    1    3    3    0  502  0.11052758086E+04 -0.30820972900E+03 -0.18338714634E+03  0.11620063234E+04  0.50400001928E-02 0.  1.
</event>
<event>
 5   0  0.2910126E-05  0.2251844E+04  0.7818609E-02  0.8497154E-01
       -2   -1    0    0    0  501  0.00000000000E+00  0.00000000000E+00  0.68261597974E+03  0.68261597974E+03  0.25500000920E-02 0. -1.
        2   -1    0    0  501    0  0.00000000000E+00  0.00000000000E+00 -0.18571211456E+04  0.18571211457E+04  0.25500000920E-02 0.  1.
    10030    2    1    2    0    0  0.00000000000E+00  0.00000000000E+00 -0.11745051659E+04  0.25397371254E+04  0.22518441956E+04 0.  0.
        5    1    3    3  502    0 -0.93992912342E+03 -0.42978092485E+03 -0.10910105944E+04  0.15028321954E+04  0.46999998093E+01 0.  1.
       -5    1    3    3    0  502  0.93992912342E+03  0.42978092485E+03 -0.83494571544E+02  0.10369049300E+04  0.46999998093E+01 0. -1.
</event>
<event>
 5   0  0.2816178E-05  0.2268380E+04  0.7818609E-02  0.8490494E-01
       -2   -1    0    0    0  501  0.00000000000E+00  0.00000000000E+00  0.85324811272E+03  0.85324811273E+03  0.25500000920E-02 0.  1.
        2   -1    0    0  501    0  0.00000000000E+00  0.00000000000E+00 -0.15076358019E+04  0.15076358019E+04  0.25500000920E-02 0. -1.
    10030    2    1    2    0    0  0.00000000000E+00  0.00000000000E+00 -0.65438768921E+03  0.23608839147E+04  0.22683803937E+04 0.  0.
        1    1    3    3  502    0 -0.45013050746E+03  0.96389234580E+03 -0.73652792070E+03  0.12939008100E+04  0.50400001928E-02 0. -1.
       -1    1    3    3    0  502  0.45013050746E+03 -0.96389234580E+03  0.82140231484E+02  0.10669831047E+04  0.50400001928E-02 0.  1.
</event>
<event>
 5   0  0.2910126E-05  0.2298540E+04  0.7818609E-02  0.8478497E-01
        2   -1    0    0  501    0  0.00000000000E+00  0.00000000000E+00  0.13184328511E+04  0.13184328511E+04  0.25500000920E-02 0.  1.
       -2   -1    0    0    0  501  0.00000000000E+00  0.00000000000E+00 -0.10018117085E+04  0.10018117085E+04  0.25500000920E-02 0. -1.
    10030    2    1    2    0    0  0.00000000000E+00  0.00000000000E+00  0.31662114266E+03  0.23202445596E+04  0.22985399427E+04 0.  0.
        5    1    3    3  502    0 -0.15037511708E+03  0.83509041158E+03 -0.62412851864E+03  0.10533504493E+04  0.46999998093E+01 0. -1.
       -5    1    3    3    0  502  0.15037511708E+03 -0.83509041158E+03  0.94074966130E+03  0.12668941103E+04  0.46999998093E+01 0.  1.
</event>
<event>
 5   0  0.2910126E-05  0.2268660E+04  0.7818609E-02  0.8490381E-01
        2   -1    0    0  501    0  0.00000000000E+00  0.00000000000E+00  0.13335027027E+04  0.13335027027E+04  0.25500000920E-02 0. -1.
       -2   -1    0    0    0  501  0.00000000000E+00  0.00000000000E+00 -0.96490595329E+03  0.96490595329E+03  0.25500000920E-02 0.  1.
    10030    2    1    2    0    0  0.00000000000E+00  0.00000000000E+00  0.36859674946E+03  0.22984086560E+04  0.22686601302E+04 0.  0.
        5    1    3    3  502    0  0.48071585391E+03  0.80804602980E+03  0.82717133670E+03  0.12523021316E+04  0.46999998093E+01 0. -1.
       -5    1    3    3    0  502 -0.48071585391E+03 -0.80804602980E+03 -0.45857458724E+03  0.10461065245E+04  0.46999998093E+01 0.  1.
</event>
<event>
 5   0  0.1017200E-05  0.2300040E+04  0.7818609E-02  0.8477905E-01
        4   -1    0    0  501    0  0.00000000000E+00  0.00000000000E+00  0.16747893402E+04  0.16747898218E+04  0.12699999809E+01 0. -1.
       -4   -1    0    0    0  501  0.00000000000E+00  0.00000000000E+00 -0.78967764991E+03  0.78967867115E+03  0.12699999809E+01 0.  1.
    10030    2    1    2    0    0  0.00000000000E+00  0.00000000000E+00  0.88511169033E+03  0.24644684929E+04  0.23000396188E+04 0.  0.
        3    1    3    3  502    0  0.10223842701E+04 -0.45317104258E+03  0.15522085004E+03  0.11290381358E+04  0.10100000352E+00 0. -1.
       -3    1    3    3    0  502 -0.10223842701E+04  0.45317104258E+03  0.72989084029E+03  0.13354303571E+04  0.10100000352E+00 0.  1.
</event>
<event>
 5   0  0.2816178E-05  0.2289116E+04  0.7818609E-02  0.8482225E-01
        2   -1    0    0  501    0  0.00000000000E+00  0.00000000000E+00  0.14441242946E+04  0.14441242946E+04  0.25500000920E-02 0. -1.
       -2   -1    0    0    0  501  0.00000000000E+00  0.00000000000E+00 -0.90713279744E+03  0.90713279744E+03  0.25500000920E-02 0.  1.
    10030    2    1    2    0    0  0.00000000000E+00  0.00000000000E+00  0.53699149718E+03  0.23512570921E+04  0.22891155595E+04 0.  0.
        1    1    3    3  502    0  0.78511400052E+03 -0.67362883960E+03  0.77151731235E+03  0.12905110502E+04  0.50400001928E-02 0. -1.
       -1    1    3    3    0  502 -0.78511400052E+03  0.67362883960E+03 -0.23452581517E+03  0.10607460419E+04  0.50400001928E-02 0.  1.
</event>
<event>
 5   0  0.1303224E-05  0.2291410E+04  0.7818609E-02  0.8481316E-01
        1   -1    0    0  501    0  0.00000000000E+00  0.00000000000E+00  0.96524678002E+03  0.96524678003E+03  0.50400001928E-02 0. -1.
       -1   -1    0    0    0  501  0.00000000000E+00  0.00000000000E+00 -0.13599006761E+04  0.13599006761E+04  0.50400001928E-02 0.  1.
    10030    2    1    2    0    0  0.00000000000E+00  0.00000000000E+00 -0.39465389604E+03  0.23251474561E+04  0.22914098269E+04 0.  0.
        2    1    3    3  502    0 -0.95417008969E+03 -0.47683760490E+02  0.44438074928E+03  0.10536548540E+04  0.25500000920E-02 0. -1.
       -2    1    3    3    0  502  0.95417008969E+03  0.47683760490E+02 -0.83903464532E+03  0.12714926021E+04  0.25500000920E-02 0.  1.
</event>
<event>
 5   0  0.2994157E-05  0.2301566E+04  0.7818609E-02  0.8477304E-01
        2   -1    0    0  501    0  0.00000000000E+00  0.00000000000E+00  0.15591542004E+04  0.15591542004E+04  0.25500000920E-02 0. -1.
       -2   -1    0    0    0  501  0.00000000000E+00  0.00000000000E+00 -0.84937137235E+03  0.84937137235E+03  0.25500000920E-02 0.  1.
    10030    2    1    2    0    0  0.00000000000E+00  0.00000000000E+00  0.70978282802E+03  0.24085255727E+04  0.23015655045E+04 0.  0.
        4    1    3    3  502    0 -0.71562386652E+03 -0.58528851112E+03 -0.36224344009E+03  0.99292602059E+03  0.12699999809E+01 0.  1.
       -4    1    3    3    0  502  0.71562386652E+03  0.58528851112E+03  0.10720262681E+04  0.14155995521E+04  0.12699999809E+01 0. -1.
</event>
<event>
 5   0  0.1371753E-05  0.2212459E+04  0.7818609E-02  0.8513260E-01
       -1   -1    0    0    0  501  0.00000000000E+00  0.00000000000E+00  0.10001705535E+04  0.10001705535E+04  0.50400001928E-02 0. -1.
        1   -1    0    0  501    0  0.00000000000E+00  0.00000000000E+00 -0.12235354833E+04  0.12235354834E+04  0.50400001928E-02 0.  1.
    10030    2    1    2    0    0  0.00000000000E+00  0.00000000000E+00 -0.22336492984E+03  0.22237060369E+04  0.22124594113E+04 0.  0.
        3    1    3    3  502    0  0.20041139293E+02  0.24558098921E+03 -0.11956043500E+04  0.12207298807E+04  0.10100000352E+00 0.  1.
       -3    1    3    3    0  502 -0.20041139293E+02 -0.24558098921E+03  0.97223942020E+03  0.10029761562E+04  0.10100000352E+00 0. -1.
</event>
<event>
 5   0  0.2871888E-05  0.2327169E+04  0.7818609E-02  0.8467285E-01
       -2   -1    0    0    0  501  0.00000000000E+00  0.00000000000E+00  0.13900674127E+04  0.13900674127E+04  0.25500000920E-02 0. -1.
        2   -1    0    0  501    0  0.00000000000E+00  0.00000000000E+00 -0.97400244309E+03  0.97400244309E+03  0.25500000920E-02 0.  1.
    10030    2    1    2    0    0  0.00000000000E+00  0.00000000000E+00  0.41606496962E+03  0.23640698558E+04  0.23271691439E+04 0.  0.
        3    1    3    3  502    0 -0.98428518682E+03  0.57240402499E+03  0.45155290241E+03  0.12248933548E+04  0.10100000352E+00 0.  1.
       -3    1    3    3    0  502  0.98428518682E+03 -0.57240402499E+03 -0.35487932794E+02  0.11391765010E+04  0.10100000352E+00 0. -1.
</event>
<event>
 5   0  0.1284837E-05  0.2312110E+04  0.7818609E-02  0.8473162E-01
       -1   -1    0    0    0  501  0.00000000000E+00  0.00000000000E+00  0.11969024750E+04  0.11969024750E+04  0.50400001928E-02 0.  1.
        1   -1    0    0  501    0  0.00000000000E+00  0.00000000000E+00 -0.11166015230E+04  0.11166015230E+04  0.50400001928E-02 0. -1.
    10030    2    1    2    0    0  0.00000000000E+00  0.00000000000E+00  0.80300951987E+02  0.23135039980E+04  0.23121099684E+04 0.  0.
        4    1    3    3  502    0 -0.74650392157E+03 -0.36675727032E+03  0.84355581484E+03  0.11846379303E+04  0.12699999809E+01 0.  1.
       -4    1    3    3    0  502  0.74650392157E+03  0.36675727032E+03 -0.76325486286E+03  0.11288660677E+04  0.12699999809E+01 0. -1.
</event>
<event>
 5   0  0.2816178E-05  0.2319672E+04  0.7818609E-02  0.8470205E-01
        2   -1    0    0  501    0  0.00000000000E+00  0.00000000000E+00  0.13533608961E+04  0.13533608961E+04  0.25500000920E-02 0. -1.
       -2   -1    0    0    0  501  0.00000000000E+00  0.00000000000E+00 -0.99398422218E+03  0.99398422218E+03  0.25500000920E-02 0.  1.
    10030    2    1    2    0    0  0.00000000000E+00  0.00000000000E+00  0.35937667397E+03  0.23473451183E+04  0.23196718541E+04 0.  0.
        1    1    3    3  502    0  0.66078447628E+03  0.95163478166E+03  0.23487791606E+03  0.11821220399E+04  0.50400001928E-02 0.  1.
       -1    1    3    3    0  502 -0.66078447628E+03 -0.95163478166E+03  0.12449875791E+03  0.11652230784E+04  0.50400001928E-02 0. -1.
</event>
<event>
 5   0  0.1308224E-05  0.2304457E+04  0.7818609E-02  0.8476166E-01
        1   -1    0    0  501    0  0.00000000000E+00  0.00000000000E+00  0.23924089183E+04  0.23924089183E+04  0.50400001928E-02 0.  1.
       -1   -1    0    0    0  501  0.00000000000E+00  0.00000000000E+00 -0.55493443338E+03  0.55493443341E+03  0.50400001928E-02 0. -1.
    10030    2    1    2    0    0  0.00000000000E+00  0.00000000000E+00  0.18374744849E+04  0.29473433517E+04  0.23044566280E+04 0.  0.
        5    1    3    3  502    0  0.16313443449E+03  0.10054516416E+04  0.22991410855E+03  0.10442358137E+04  0.46999998093E+01 0. -1.
       -5    1    3    3    0  502 -0.16313443449E+03 -0.10054516416E+04  0.16075603764E+04  0.19031075380E+04  0.46999998093E+01 0.  1.
</event>
<event>
 5   0  0.1284837E-05  0.2342868E+04  0.7818609E-02  0.8461208E-01
        1   -1    0    0  501    0  0.00000000000E+00  0.00000000000E+00  0.14904791270E+04  0.14904791270E+04  0.50400001928E-02 0. -1.
       -1   -1    0    0    0  501  0.00000000000E+00  0.00000000000E+00 -0.92068225867E+03  0.92068225869E+03  0.50400001928E-02 0.  1.
    10030    2    1    2    0    0  0.00000000000E+00  0.00000000000E+00  0.56979686836E+03  0.24111613857E+04  0.23428680622E+04 0.  0.
        4    1    3    3  502    0 -0.15701803265E+03  0.40517033529E+03 -0.83467163311E+03  0.94100797615E+03  0.12699999809E+01 0.  1.
       -4    1    3    3    0  502  0.15701803265E+03 -0.40517033529E+03  0.14044685015E+04  0.14701534096E+04  0.12699999809E+01 0. -1.
</event>
<event>
 5   0  0.2871888E-05  0.2312582E+04  0.7818609E-02  0.8472977E-01
       -2   -1    0    0    0  501  0.00000000000E+00  0.00000000000E+00  0.46487729162E+03  0.46487729163E+03  0.25500000920E-02 0. -1.
        2   -1    0    0  501    0  0.00000000000E+00  0.00000000000E+00 -0.28760466539E+04  0.28760466539E+04  0.25500000920E-02 0.  1.
    10030    2    1    2    0    0  0.00000000000E+00  0.00000000000E+00 -0.24111693622E+04  0.33409239455E+04  0.23125819155E+04 0.  0.
        3    1    3    3  502    0  0.61934835391E+03  0.43138362496E+03  0.59906175867E+02  0.75714792179E+03  0.10100000352E+00 0. -1.
       -3    1    3    3    0  502 -0.61934835391E+03 -0.43138362496E+03 -0.24710755381E+04  0.25837760237E+04  0.10100000352E+00 0.  1.
</event>
<event>
 5   0  0.1308224E-05  0.2295798E+04  0.7818609E-02  0.8479580E-01
       -1   -1    0    0    0  501  0.00000000000E+00  0.00000000000E+00  0.12559483449E+04  0.12559483449E+04  0.50400001928E-02 0. -1.
        1   -1    0    0  501    0  0.00000000000E+00  0.00000000000E+00 -0.10491453933E+04  0.10491453933E+04  0.50400001928E-02 0.  1.
    10030    2    1    2    0    0  0.00000000000E+00  0.00000000000E+00  0.20680295164E+03  0.23050937382E+04  0.22957982666E+04 0.  0.
        5    1    3    3  502    0  0.64072395336E+03  0.83130824187E+03  0.57009497804E+03  0.11944165736E+04  0.46999998093E+01 0. -1.
       -5    1    3    3    0  502 -0.64072395336E+03 -0.83130824187E+03 -0.36329202641E+03  0.11106771645E+04  0.46999998093E+01 0.  1.
</event>
<event>
 5   0  0.1371753E-05  0.2312036E+04  0.7818609E-02  0.8473190E-01
       -1   -1    0    0    0  501  0.00000000000E+00  0.00000000000E+00  0.74853974878E+03  0.74853974880E+03  0.50400001928E-02 0.  1.
        1   -1    0    0  501    0  0.00000000000E+00  0.00000000000E+00 -0.17853134728E+04  0.17853134728E+04  0.50400001928E-02 0. -1.
    10030    2    1    2    0    0  0.00000000000E+00  0.00000000000E+00 -0.10367737240E+04  0.25338532216E+04  0.23120364171E+04 0.  0.
        3    1    3    3  502    0 -0.81334009106E+03 -0.59667623764E+02 -0.14163194541E+04  0.16343326269E+04  0.10100000352E+00 0. -1.
       -3    1    3    3    0  502  0.81334009106E+03  0.59667623764E+02  0.37954573002E+03  0.89952059478E+03  0.10100000352E+00 0.  1.
</event>
<event>
 5   0  0.1303224E-05  0.2387213E+04  0.7818609E-02  0.8444306E-01
        1   -1    0    0  501    0  0.00000000000E+00  0.00000000000E+00  0.16540895041E+04  0.16540895041E+04  0.50400001928E-02 0. -1.
       -1   -1    0    0    0  501  0.00000000000E+00  0.00000000000E+00 -0.86131793624E+03  0.86131793625E+03  0.50400001928E-02 0.  1.
    10030    2    1    2    0    0  0.00000000000E+00  0.00000000000E+00  0.79277156783E+03  0.25154074403E+04  0.23872134031E+04 0.  0.
        2    1    3    3  502    0  0.10865513073E+04  0.24280879199E+03  0.84977956627E+03  0.14005981451E+04  0.25500000920E-02 0. -1.
       -2    1    3    3    0  502 -0.10865513073E+04 -0.24280879199E+03 -0.57007998433E+02  0.11148092952E+04  0.25500000920E-02 0.  1.
</event>
<event>
 5   0  0.2938972E-05  0.2298339E+04  0.7818609E-02  0.8478576E-01
        2   -1    0    0  501    0  0.00000000000E+00  0.00000000000E+00  0.13505432295E+04  0.13505432295E+04  0.25500000920E-02 0.  1.
       -2   -1    0    0    0  501  0.00000000000E+00  0.00000000000E+00 -0.97782215292E+03  0.97782215293E+03  0.25500000920E-02 0. -1.
    10030    2    1    2    0    0  0.00000000000E+00  0.00000000000E+00  0.37272107655E+03  0.23283653824E+04  0.22983394773E+04 0.  0.
        2    1    3    3  502    0 -0.76048145017E+02 -0.11466503661E+04  0.18721163368E+03  0.11643189332E+04  0.25500000920E-02 0. -1.
       -2    1    3    3    0  502  0.76048145017E+02  0.11466503661E+04  0.18550944287E+03  0.11640464492E+04  0.25500000920E-02 0.  1.
</event>
<event>
 5   0  0.1303224E-05  0.2303246E+04  0.7818609E-02  0.8476642E-01
       -1   -1    0    0    0  501  0.00000000000E+00  0.00000000000E+00  0.81323657794E+03  0.81323657795E+03  0.50400001928E-02 0.  1.
        1   -1    0    0  501    0  0.00000000000E+00  0.00000000000E+00 -0.16308121381E+04  0.16308121381E+04  0.50400001928E-02 0. -1.
    10030    2    1    2    0    0  0.00000000000E+00  0.00000000000E+00 -0.81757556018E+03  0.24440487161E+04  0.23032464762E+04 0.  0.
        2    1    3    3  502    0 -0.39160490874E+03  0.47920941260E+03 -0.14393650309E+04  0.15667698484E+04  0.25500000920E-02 0. -1.
       -2    1    3    3    0  502  0.39160490874E+03 -0.47920941260E+03  0.62178947076E+03  0.87727886765E+03  0.25500000920E-02 0.  1.
</event>
<event>
 5   0  0.1303224E-05  0.2302716E+04  0.7818609E-02  0.8476851E-01
        1   -1    0    0  501    0  0.00000000000E+00  0.00000000000E+00  0.18542298834E+04  0.18542298834E+04  0.50400001928E-02 0. -1.
       -1   -1    0    0    0  501  0.00000000000E+00  0.00000000000E+00 -0.71491934730E+03  0.71491934732E+03  0.50400001928E-02 0.  1.
    10030    2    1    2    0    0  0.00000000000E+00  0.00000000000E+00  0.11393105361E+04  0.25691492307E+04  0.23027156299E+04 0.  0.
        2    1    3    3  502    0 -0.65797268852E+03  0.74083053355E+03  0.12239059687E+04  0.15747075152E+04  0.25500000920E-02 0. -1.
       -2    1    3    3    0  502  0.65797268852E+03 -0.74083053355E+03 -0.84595432600E+02  0.99444171549E+03  0.25500000920E-02 0.  1.
</event>
<event>
 5   0  0.1371753E-05  0.2313909E+04  0.7818609E-02  0.8472457E-01
       -1   -1    0    0    0  501  0.00000000000E+00  0.00000000000E+00  0.72120202361E+03  0.72120202363E+03  0.50400001928E-02 0. -1.
        1   -1    0    0  501    0  0.00000000000E+00  0.00000000000E+00 -0.18559896624E+04  0.18559896624E+04  0.50400001928E-02 0.  1.
    10030    2    1    2    0    0  0.00000000000E+00  0.00000000000E+00 -0.11347876388E+04  0.25771916860E+04  0.23139088144E+04 0.  0.
        3    1    3    3  502    0 -0.86567202141E+03  0.38490657955E+02 -0.14212184653E+04  0.16645514458E+04  0.10100000352E+00 0.  1.
       -3    1    3    3    0  502  0.86567202141E+03 -0.38490657955E+02  0.28643082656E+03  0.91264024019E+03  0.10100000352E+00 0. -1.
</event>
<event>
 5   0  0.2816178E-05  0.2286478E+04  0.7818609E-02  0.8483272E-01
        2   -1    0    0  501    0  0.00000000000E+00  0.00000000000E+00  0.10714441891E+04  0.10714441891E+04  0.25500000920E-02 0.  1.
       -2   -1    0    0    0  501  0.00000000000E+00  0.00000000000E+00 -0.12198442906E+04  0.12198442906E+04  0.25500000920E-02 0. -1.
    10030    2    1    2    0    0  0.00000000000E+00  0.00000000000E+00 -0.14840010143E+03  0.22912884797E+04  0.22864777075E+04 0.  0.
        1    1    3    3  502    0 -0.81917838297E+03  0.14283990821E+03  0.71201336689E+03  0.10947234798E+04  0.50400001928E-02 0.  1.
       -1    1    3    3    0  502  0.81917838297E+03 -0.14283990821E+03 -0.86041346833E+03  0.11965649999E+04  0.50400001928E-02 0. -1.
</event>
<event>
 5   0  0.2994157E-05  0.2299837E+04  0.7818609E-02  0.8477985E-01
       -2   -1    0    0    0  501  0.00000000000E+00  0.00000000000E+00  0.86161928022E+03  0.86161928022E+03  0.25500000920E-02 0.  1.
        2   -1    0    0  501    0  0.00000000000E+00  0.00000000000E+00 -0.15346835852E+04  0.15346835852E+04  0.25500000920E-02 0. -1.
    10030    2    1    2    0    0  0.00000000000E+00  0.00000000000E+00 -0.67306430498E+03  0.23963028654E+04  0.22998373560E+04 0.  0.
        4    1    3    3  502    0  0.26762757185E+03  0.42122283747E+03  0.74290331096E+03  0.89496376371E+03  0.12699999809E+01 0.  1.
       -4    1    3    3    0  502 -0.26762757185E+03 -0.42122283747E+03 -0.14159676159E+04  0.15013391017E+04  0.12699999809E+01 0. -1.
</event>
<event>
 5   0  0.1327820E-05  0.2290802E+04  0.7818609E-02  0.8481557E-01
        1   -1    0    0  501    0  0.00000000000E+00  0.00000000000E+00  0.93350055938E+03  0.93350055939E+03  0.50400001928E-02 0. -1.
       -1   -1    0    0    0  501  0.00000000000E+00  0.00000000000E+00 -0.14054020544E+04  0.14054020544E+04  0.50400001928E-02 0.  1.
    10030    2    1    2    0    0  0.00000000000E+00  0.00000000000E+00 -0.47190149500E+03  0.23389026138E+04  0.22908021337E+04 0.  0.
        1    1    3    3  502    0 -0.65719593048E+03  0.13565671961E+03 -0.11836838866E+04  0.13606677699E+04  0.50400001928E-02 0.  1.
       -1    1    3    3    0  502  0.65719593048E+03 -0.13565671961E+03  0.71178239165E+03  0.97823484384E+03  0.50400001928E-02 0. -1.
</event>
<event>
 5   0  0.2816178E-05  0.2328411E+04  0.7818609E-02  0.8466802E-01
       -2   -1    0    0    0  501  0.00000000000E+00  0.00000000000E+00  0.11064804418E+04  0.11064804418E+04  0.25500000920E-02 0.  1.
        2   -1    0    0  501    0  0.00000000000E+00  0.00000000000E+00 -0.12249424486E+04  0.12249424486E+04  0.25500000920E-02 0. -1.
    10030    2    1    2    0    0  0.00000000000E+00  0.00000000000E+00 -0.11846200681E+03  0.23314228905E+04  0.23284113570E+04 0.  0.
        1    1    3    3  502    0 -0.37787961189E+03 -0.10955102359E+04  0.52444338163E+02  0.11600371057E+04  0.50400001928E-02 0.  1.
       -1    1    3    3    0  502  0.37787961189E+03  0.10955102359E+04 -0.17090634498E+03  0.11713857848E+04  0.50400001928E-02 0. -1.
</event>
<event>
 5   0  0.2994157E-05  0.2297738E+04  0.7818609E-02  0.8478814E-01
       -2   -1    0    0    0  501  0.00000000000E+00  0.00000000000E+00  0.15241371677E+04  0.15241371677E+04  0.25500000920E-02 0.  1.
        2   -1    0    0  501    0  0.00000000000E+00  0.00000000000E+00 -0.86599803963E+03  0.86599803964E+03  0.25500000920E-02 0. -1.
    10030    2    1    2    0    0  0.00000000000E+00  0.00000000000E+00  0.65813912803E+03  0.23901352073E+04  0.22977378435E+04 0.  0.
        4    1    3    3  502    0 -0.15303529971E+03  0.41655674675E+03  0.14313799901E+04  0.14985958812E+04  0.12699999809E+01 0.  1.
       -4    1    3    3    0  502  0.15303529971E+03 -0.41655674675E+03 -0.77324086209E+03  0.89153932607E+03  0.12699999809E+01 0. -1.
</event>
<event>
 5   0  0.2910126E-05  0.2359235E+04  0.7818609E-02  0.8454925E-01
       -2   -1    0    0    0  501  0.00000000000E+00  0.00000000000E+00  0.15786802144E+04  0.15786802144E+04  0.25500000920E-02 0.  1.
        2   -1    0    0  501    0  0.00000000000E+00  0.00000000000E+00 -0.88143105197E+03  0.88143105197E+03  0.25500000920E-02 0. -1.
    10030    2    1    2    0    0  0.00000000000E+00  0.00000000000E+00  0.69724916239E+03  0.24601112663E+04  0.23592352677E+04 0.  0.
        5    1    3    3  502    0  0.53649732991E+03  0.10418243437E+04  0.20776221172E+03  0.11901321669E+04  0.46999998093E+01 0. -1.
       -5    1    3    3    0  502 -0.53649732991E+03 -0.10418243437E+04  0.48948695067E+03  0.12699790994E+04  0.46999998093E+01 0.  1.
</event>
<event>
 5   0  0.2816178E-05  0.2304084E+04  0.7818609E-02  0.8476312E-01
        2   -1    0    0  501    0  0.00000000000E+00  0.00000000000E+00  0.18575372439E+04  0.18575372440E+04  0.25500000920E-02 0. -1.
       -2   -1    0    0    0  501  0.00000000000E+00  0.00000000000E+00 -0.71449512368E+03  0.71449512369E+03  0.25500000920E-02 0.  1.
    10030    2    1    2    0    0  0.00000000000E+00  0.00000000000E+00  0.11430421203E+04  0.25720323676E+04  0.23040844627E+04 0.  0.
        1    1    3    3  502    0 -0.49833107800E+03  0.96659370305E+03  0.14708899004E+03  0.10973934669E+04  0.50400001928E-02 0.  1.
       -1    1    3    3    0  502  0.49833107800E+03 -0.96659370305E+03  0.99595313022E+03  0.14746389008E+04  0.50400001928E-02 0. -1.
</event>
<event>
 5   0  0.2910126E-05  0.2431602E+04  0.7818609E-02  0.8427766E-01
        2   -1    0    0  501    0  0.00000000000E+00  0.00000000000E+00  0.17929574423E+04  0.17929574423E+04  0.25500000920E-02 0.  1.
       -2   -1    0    0    0  501  0.00000000000E+00  0.00000000000E+00 -0.82443221129E+03  0.82443221130E+03  0.25500000920E-02 0. -1.
    10030    2    1    2    0    0  0.00000000000E+00  0.00000000000E+00  0.96852523101E+03  0.26173896536E+04  0.24316018333E+04 0.  0.
        5    1    3    3  502    0 -0.35794192334E+03 -0.31443586774E+03 -0.71975239464E+03  0.86316738527E+03  0.46999998093E+01 0. -1.
       -5    1    3    3    0  502  0.35794192334E+03  0.31443586774E+03  0.16882776257E+04  0.17542222683E+04  0.46999998093E+01 0.  1.
</event>
<event>
 5   0  0.2816178E-05  0.2313966E+04  0.7818609E-02  0.8472435E-01
        2   -1    0    0  501    0  0.00000000000E+00  0.00000000000E+00  0.15340133686E+04  0.15340133686E+04  0.25500000920E-02 0. -1.
       -2   -1    0    0    0  501  0.00000000000E+00  0.00000000000E+00 -0.87261899954E+03  0.87261899954E+03  0.25500000920E-02 0.  1.
    10030    2    1    2    0    0  0.00000000000E+00  0.00000000000E+00  0.66139436901E+03  0.24066323681E+04  0.23139656099E+04 0.  0.
        1    1    3    3  502    0 -0.17742823284E+03  0.66904461242E+03 -0.63352639829E+03  0.93832679199E+03  0.50400001928E-02 0.  1.
       -1    1    3    3    0  502  0.17742823284E+03 -0.66904461242E+03  0.12949207673E+04  0.14683055761E+04  0.50400001928E-02 0. -1.
</event>
<event>
 5   0  0.1284837E-05  0.2286434E+04  0.7818609E-02  0.8483289E-01
        1   -1    0    0  501    0  0.00000000000E+00  0.00000000000E+00  0.19198121918E+04  0.19198121918E+04  0.50400001928E-02 0. -1.
       -1   -1    0    0    0  501  0.00000000000E+00  0.00000000000E+00 -0.68076735726E+03  0.68076735728E+03  0.50400001928E-02 0.  1.
    10030    2    1    2    0    0  0.00000000000E+00  0.00000000000E+00  0.12390448345E+04  0.26005795491E+04  0.22864343177E+04 0.  0.
        4    1    3    3  502    0  0.93703177436E+03  0.55766048505E+03  0.22893006090E+03  0.11141922403E+04  0.12699999809E+01 0.  1.
       -4    1    3    3    0  502 -0.93703177436E+03 -0.55766048505E+03  0.10101147736E+04  0.14863873087E+04  0.12699999809E+01 0. -1.
</event>
<event>
 5   0  0.1371753E-05  0.2299955E+04  0.7818609E-02  0.8477939E-01
       -1   -1    0    0    0  501  0.00000000000E+00  0.00000000000E+00  0.78030037607E+03  0.78030037608E+03  0.50400001928E-02 0. -1.
        1   -1    0    0  501    0  0.00000000000E+00  0.00000000000E+00 -0.16947934444E+04  0.16947934444E+04  0.50400001928E-02 0.  1.
    10030    2    1    2    0    0  0.00000000000E+00  0.00000000000E+00 -0.91449306832E+03  0.24750938205E+04  0.22999547492E+04 0.  0.
        3    1    3    3  502    0  0.87500354837E+03 -0.35538193461E+03 -0.11633514799E+04  0.14984372543E+04  0.10100000352E+00 0.  1.
       -3    1    3    3    0  502 -0.87500354837E+03  0.35538193461E+03  0.24885841155E+03  0.97665656620E+03  0.10100000352E+00 0. -1.
</event>
<event>
 5   0  0.2816178E-05  0.2283864E+04  0.7818609E-02  0.8484311E-01
       -2   -1    0    0    0  501  0.00000000000E+00  0.00000000000E+00  0.13169598965E+04  0.13169598965E+04  0.25500000920E-02 0. -1.
        2   -1    0    0  501    0  0.00000000000E+00  0.00000000000E+00 -0.99016590445E+03  0.99016590446E+03  0.25500000920E-02 0.  1.
    10030    2    1    2    0    0  0.00000000000E+00  0.00000000000E+00  0.32679399200E+03  0.23071258009E+04  0.22838640827E+04 0.  0.
        1    1    3    3  502    0  0.94805704345E+03  0.25750715441E+03 -0.42467199616E+03  0.10702655729E+04  0.50400001928E-02 0.  1.
       -1    1    3    3    0  502 -0.94805704345E+03 -0.25750715441E+03  0.75146598816E+03  0.12368602280E+04  0.50400001928E-02 0. -1.
</event>
<event>
 5   0  0.1303224E-05  0.2312614E+04  0.7818609E-02  0.8472964E-01
       -1   -1    0    0    0  501  0.00000000000E+00  0.00000000000E+00  0.65327995987E+03  0.65327995989E+03  0.50400001928E-02 0.  1.
        1   -1    0    0  501    0  0.00000000000E+00  0.00000000000E+00 -0.20466652482E+04  0.20466652482E+04  0.50400001928E-02 0. -1.
    10030    2    1    2    0    0  0.00000000000E+00  0.00000000000E+00 -0.13933852884E+04  0.26999452081E+04  0.23126135788E+04 0.  0.
        2    1    3    3  502    0 -0.39258274230E+02  0.10153774810E+04 -0.52442357785E+02  0.10174884972E+04  0.25500000920E-02 0.  1.
       -2    1    3    3    0  502  0.39258274230E+02 -0.10153774810E+04 -0.13409429306E+04  0.16824567109E+04  0.25500000920E-02 0. -1.
</event>
<event>
 5   0  0.2938972E-05  0.2300258E+04  0.7818609E-02  0.8477819E-01
        2   -1    0    0  501    0  0.00000000000E+00  0.00000000000E+00  0.42684626133E+03  0.42684626133E+03  0.25500000920E-02 0.  1.
       -2   -1    0    0    0  501  0.00000000000E+00  0.00000000000E+00 -0.30989997090E+04  0.30989997090E+04  0.25500000920E-02 0. -1.
    10030    2    1    2    0    0  0.00000000000E+00  0.00000000000E+00 -0.26721534476E+04  0.35258459703E+04  0.23002577592E+04 0.  0.
        2    1    3    3  502    0  0.86778433189E+03 -0.21335229031E+03 -0.24458819608E+04  0.26040175523E+04  0.25500000920E-02 0. -1.
       -2    1    3    3    0  502 -0.86778433189E+03  0.21335229031E+03 -0.22627148682E+03  0.92182841799E+03  0.25500000920E-02 0.  1.
</event>
<event>
 5   0  0.1284837E-05  0.2287098E+04  0.7818609E-02  0.8483026E-01
       -1   -1    0    0    0  501  0.00000000000E+00  0.00000000000E+00  0.14398265121E+04  0.14398265121E+04  0.50400001928E-02 0. -1.
        1   -1    0    0  501    0  0.00000000000E+00  0.00000000000E+00 -0.90823705060E+03  0.90823705061E+03  0.50400001928E-02 0.  1.
    10030    2    1    2    0    0  0.00000000000E+00  0.00000000000E+00  0.53158946145E+03  0.23480635627E+04  0.22870975359E+04 0.  0.
        4    1    3    3  502    0 -0.59554133070E+03 -0.68220473306E+03 -0.45112429034E+03  0.10117250183E+04  0.12699999809E+01 0.  1.
       -4    1    3    3    0  502  0.59554133070E+03  0.68220473306E+03  0.98271375179E+03  0.13363385444E+04  0.12699999809E+01 0. -1.
</event>
<event>
 5   0  0.2910126E-05  0.2269008E+04  0.7818609E-02  0.8490242E-01
        2   -1    0    0  501    0  0.00000000000E+00  0.00000000000E+00  0.10754283554E+04  0.10754283554E+04  0.25500000920E-02 0. -1.
       -2   -1    0    0    0  501  0.00000000000E+00  0.00000000000E+00 -0.11968245155E+04  0.11968245155E+04  0.25500000920E-02 0.  1.
    10030    2    1    2    0    0  0.00000000000E+00  0.00000000000E+00 -0.12139616010E+03  0.22722528708E+04  0.22690077305E+04 0.  0.
        5    1    3    3  502    0  0.76204329101E+03 -0.75060334409E+03 -0.43934143884E+03  0.11563556319E+04  0.46999998093E+01 0.  1.
       -5    1    3    3    0  502 -0.76204329101E+03  0.75060334409E+03  0.31794527875E+03  0.11158972389E+04  0.46999998093E+01 0. -1.
</event>
<event>
 5   0  0.1284837E-05  0.2319866E+04  0.7818609E-02  0.8470129E-01
        1   -1    0    0  501    0  0.00000000000E+00  0.00000000000E+00  0.71521390250E+03  0.71521390252E+03  0.50400001928E-02 0. -1.
       -1   -1    0    0    0  501  0.00000000000E+00  0.00000000000E+00 -0.18811773162E+04  0.18811773162E+04  0.50400001928E-02 0.  1.
    10030    2    1    2    0    0  0.00000000000E+00  0.00000000000E+00 -0.11659634137E+04  0.25963912187E+04  0.23198656596E+04 0.  0.
        4    1    3    3  502    0  0.10570588919E+04  0.45692872131E+03 -0.42755724851E+03  0.12283990276E+04  0.12699999809E+01 0.  1.
       -4    1    3    3    0  502 -0.10570588919E+04 -0.45692872131E+03 -0.73840616518E+03  0.13679921911E+04  0.12699999809E+01 0. -1.
</event>
<event>
 5   0  0.2816178E-05  0.2290356E+04  0.7818609E-02  0.8481733E-01
        2   -1    0    0  501    0  0.00000000000E+00  0.00000000000E+00  0.21615912407E+04  0.21615912407E+04  0.25500000920E-02 0.  1.
       -2   -1    0    0    0  501  0.00000000000E+00  0.00000000000E+00 -0.60669757818E+03  0.60669757818E+03  0.25500000920E-02 0. -1.
    10030    2    1    2    0    0  0.00000000000E+00  0.00000000000E+00  0.15548936625E+04  0.27682888189E+04  0.22903555800E+04 0.  0.
        1    1    3    3  502    0 -0.27206077795E+03 -0.51195465151E+03  0.19711092022E+04  0.20546012068E+04  0.50400001928E-02 0.  1.
       -1    1    3    3    0  502  0.27206077795E+03  0.51195465151E+03 -0.41621553967E+03  0.71368761205E+03  0.50400001928E-02 0. -1.
</event>
<event>
 5   0  0.1303224E-05  0.2281631E+04  0.7818609E-02  0.8485199E-01
        1   -1    0    0  501    0  0.00000000000E+00  0.00000000000E+00  0.12604115298E+04  0.12604115298E+04  0.50400001928E-02 0. -1.
       -1   -1    0    0    0  501  0.00000000000E+00  0.00000000000E+00 -0.10325678168E+04  0.10325678168E+04  0.50400001928E-02 0.  1.
    10030    2    1    2    0    0  0.00000000000E+00  0.00000000000E+00  0.22784371305E+03  0.22929793466E+04  0.22816313301E+04 0.  0.
        2    1    3    3  502    0  0.11234422023E+04  0.13799289544E+03  0.25709431270E+03  0.11607161181E+04  0.25500000920E-02 0.  1.
       -2    1    3    3    0  502 -0.11234422023E+04 -0.13799289544E+03 -0.29250599652E+02  0.11322632285E+04  0.25500000920E-02 0. -1.
</event>
<event>
 5   0  0.1303224E-05  0.2223527E+04  0.7818609E-02  0.8508699E-01
        1   -1    0    0  501    0  0.00000000000E+00  0.00000000000E+00  0.12272326795E+04  0.12272326795E+04  0.50400001928E-02 0.  1.
       -1   -1    0    0    0  501  0.00000000000E+00  0.00000000000E+00 -0.10071587412E+04  0.10071587413E+04  0.50400001928E-02 0. -1.
    10030    2    1    2    0    0  0.00000000000E+00  0.00000000000E+00  0.22007393825E+03  0.22343914208E+04  0.22235270367E+04 0.  0.
        2    1    3    3  502    0 -0.77209417851E+02 -0.54911766704E+03 -0.85827214313E+03  0.10218231638E+04  0.25500000920E-02 0. -1.
       -2    1    3    3    0  502  0.77209417851E+02  0.54911766704E+03  0.10783460814E+04  0.12125682569E+04  0.25500000920E-02 0.  1.
</event>
<event>
 5   0  0.1308224E-05  0.2306949E+04  0.7818609E-02  0.8475186E-01
       -1   -1    0    0    0  501  0.00000000000E+00  0.00000000000E+00  0.12840257434E+04  0.12840257434E+04  0.50400001928E-02 0. -1.
        1   -1    0    0  501    0  0.00000000000E+00  0.00000000000E+00 -0.10361963977E+04  0.10361963977E+04  0.50400001928E-02 0.  1.
    10030    2    1    2    0    0  0.00000000000E+00  0.00000000000E+00  0.24782934572E+03  0.23202221412E+04  0.23069485039E+04 0.  0.
        5    1    3    3  502    0 -0.50169321488E+03  0.85391562984E+03 -0.47076803935E+03  0.10965913649E+04  0.46999998093E+01 0. -1.
       -5    1    3    3    0  502  0.50169321488E+03 -0.85391562984E+03  0.71859738507E+03  0.12236307762E+04  0.46999998093E+01 0.  1.
</event>
<event>
 5   0  0.1308224E-05  0.2298081E+04  0.7818609E-02  0.8478678E-01
       -1   -1    0    0    0  501  0.00000000000E+00  0.00000000000E+00  0.12130447166E+04  0.12130447166E+04  0.50400001928E-02 0.  1.
        1   -1    0    0  501    0  0.00000000000E+00  0.00000000000E+00 -0.10884129423E+04  0.10884129423E+04  0.50400001928E-02 0. -1.
    10030    2    1    2    0    0  0.00000000000E+00  0.00000000000E+00  0.12463177429E+03  0.23014576589E+04  0.22980805636E+04 0.  0.
        5    1    3    3  502    0  0.10253315744E+04  0.33235778816E+03  0.46102773781E+03  0.11723204348E+04  0.46999998093E+01 0.  1.
       -5    1    3    3    0  502 -0.10253315744E+04 -0.33235778816E+03 -0.33639596352E+03  0.11291372242E+04  0.46999998093E+01 0. -1.
</event>
<event>
 5   0  0.1284837E-05  0.2311493E+04  0.7818609E-02  0.8473403E-01
       -1   -1    0    0    0  501  0.00000000000E+00  0.00000000000E+00  0.97333828465E+03  0.97333828466E+03  0.50400001928E-02 0. -1.
        1   -1    0    0  501    0  0.00000000000E+00  0.00000000000E+00 -0.13723391304E+04  0.13723391305E+04  0.50400001928E-02 0.  1.
    10030    2    1    2    0    0  0.00000000000E+00  0.00000000000E+00 -0.39900084579E+03  0.23456774151E+04  0.23114932102E+04 0.  0.
        4    1    3    3  502    0 -0.26693060460E+03 -0.83016254591E+03 -0.96922077079E+03  0.13037685054E+04  0.12699999809E+01 0.  1.
       -4    1    3    3    0  502  0.26693060460E+03  0.83016254591E+03  0.57021992500E+03  0.10419089097E+04  0.12699999809E+01 0. -1.
</event>
<event>
 5   0  0.2994157E-05  0.2241101E+04  0.7818609E-02  0.8501513E-01
       -2   -1    0    0    0  501  0.00000000000E+00  0.00000000000E+00  0.10279738117E+04  0.10279738117E+04  0.25500000920E-02 0.  1.
        2   -1    0    0  501    0  0.00000000000E+00  0.00000000000E+00 -0.12214647403E+04  0.12214647403E+04  0.25500000920E-02 0. -1.
    10030    2    1    2    0    0  0.00000000000E+00  0.00000000000E+00 -0.19349092857E+03  0.22494385520E+04  0.22411013051E+04 0.  0.
        4    1    3    3  502    0  0.69402684537E+02  0.21351818366E+03  0.10051662100E+04  0.10299356630E+04  0.12699999809E+01 0.  1.
       -4    1    3    3    0  502 -0.69402684537E+02 -0.21351818366E+03 -0.11986571386E+04  0.12195028889E+04  0.12699999809E+01 0. -1.
</event>
<event>
 5   0  0.2816178E-05  0.2293890E+04  0.7818609E-02  0.8480334E-01
        2   -1    0    0  501    0  0.00000000000E+00  0.00000000000E+00  0.16719526807E+04  0.16719526807E+04  0.25500000920E-02 0.  1.
       -2   -1    0    0    0  501  0.00000000000E+00  0.00000000000E+00 -0.78679406370E+03  0.78679406371E+03  0.25500000920E-02 0. -1.
    10030    2    1    2    0    0  0.00000000000E+00  0.00000000000E+00  0.88515861705E+03  0.24587467445E+04  0.22938896608E+04 0.  0.
        1    1    3    3  502    0  0.44626036684E+03  0.10068549973E+04  0.78587359388E+03  0.13529606817E+04  0.50400001928E-02 0.  1.
       -1    1    3    3    0  502 -0.44626036684E+03 -0.10068549973E+04  0.99285023166E+02  0.11057860627E+04  0.50400001928E-02 0. -1.
</event>
<event>
 5   0  0.2910126E-05  0.2295089E+04  0.7818609E-02  0.8479860E-01
        2   -1    0    0  501    0  0.00000000000E+00  0.00000000000E+00  0.21439854182E+04  0.21439854182E+04  0.25500000920E-02 0. -1.
       -2   -1    0    0    0  501  0.00000000000E+00  0.00000000000E+00 -0.61421026126E+03  0.61421026127E+03  0.25500000920E-02 0.  1.
    10030    2    1    2    0    0  0.00000000000E+00  0.00000000000E+00  0.15297751569E+04  0.27581956794E+04  0.22950885332E+04 0.  0.
        5    1    3    3  502    0 -0.30126446482E+03  0.10888831105E+04  0.52330537431E+03  0.12451093570E+04  0.46999998093E+01 0.  1.
       -5    1    3    3    0  502  0.30126446482E+03 -0.10888831105E+04  0.10064697826E+04  0.15130863225E+04  0.46999998093E+01 0. -1.
</event>
<event>
 5   0  0.2938972E-05  0.2189399E+04  0.7818609E-02  0.8522853E-01
       -2   -1    0    0    0  501  0.00000000000E+00  0.00000000000E+00  0.54993367247E+03  0.54993367248E+03  0.25500000920E-02 0. -1.
        2   -1    0    0  501    0  0.00000000000E+00  0.00000000000E+00 -0.21791122458E+04  0.21791122458E+04  0.25500000920E-02 0.  1.
    10030    2    1    2    0    0  0.00000000000E+00  0.00000000000E+00 -0.16291785733E+04  0.27290459183E+04  0.21893991871E+04 0.  0.
        2    1    3    3  502    0 -0.82247807013E+03  0.52374155084E+03 -0.14348210875E+04  0.17347872898E+04  0.25500000920E-02 0.  1.
       -2    1    3    3    0  502  0.82247807013E+03 -0.52374155084E+03 -0.19435748587E+03  0.99425862845E+03  0.25500000920E-02 0. -1.
</event>
<event>
 5   0  0.1303224E-05  0.2296904E+04  0.7818609E-02  0.8479143E-01
        1   -1    0    0  501    0  0.00000000000E+00  0.00000000000E+00  0.78293457031E+03  0.78293457033E+03  0.50400001928E-02 0. -1.
       -1   -1    0    0    0  501  0.00000000000E+00  0.00000000000E+00 -0.16846133616E+04  0.16846133616E+04  0.50400001928E-02 0.  1.
    10030    2    1    2    0    0  0.00000000000E+00  0.00000000000E+00 -0.90167879133E+03  0.24675479320E+04  0.22969040367E+04 0.  0.
        2    1    3    3  502    0  0.88782571924E+03 -0.40285768294E+03  0.20122479133E+03  0.99549999352E+03  0.25500000920E-02 0. -1.
       -2    1    3    3    0  502 -0.88782571924E+03  0.40285768294E+03 -0.11029035827E+04  0.14720479385E+04  0.25500000920E-02 0.  1.
</event>
<event>
 5   0  0.1327820E-05  0.2126788E+04  0.7818609E-02  0.8549534E-01
        1   -1    0    0  501    0  0.00000000000E+00  0.00000000000E+00  0.78301046316E+03  0.78301046318E+03  0.50400001928E-02 0. -1.
       -1   -1    0    0    0  501  0.00000000000E+00  0.00000000000E+00 -0.14441787616E+04  0.14441787616E+04  0.50400001928E-02 0.  1.
    10030    2    1    2    0    0  0.00000000000E+00  0.00000000000E+00 -0.66116829841E+03  0.22271892248E+04  0.21267882650E+04 0.  0.
        1    1    3    3  502    0 -0.46740309904E+03  0.41721495220E+03 -0.12303746128E+04  0.13807083911E+04  0.50400001928E-02 0.  1.
       -1    1    3    3    0  502  0.46740309904E+03 -0.41721495220E+03  0.56920631443E+03  0.84648083365E+03  0.50400001928E-02 0. -1.
</event>
<event>
 5   0  0.2910126E-05  0.2301089E+04  0.7818609E-02  0.8477492E-01
       -2   -1    0    0    0  501  0.00000000000E+00  0.00000000000E+00  0.42102144402E+03  0.42102144403E+03  0.25500000920E-02 0. -1.
        2   -1    0    0  501    0  0.00000000000E+00  0.00000000000E+00 -0.31441440895E+04  0.31441440895E+04  0.25500000920E-02 0.  1.
    10030    2    1    2    0    0  0.00000000000E+00  0.00000000000E+00 -0.27231226454E+04  0.35651655335E+04  0.23010885118E+04 0.  0.
        5    1    3    3  502    0 -0.50692178037E+02 -0.87301285619E+03 -0.25199537697E+04  0.26673789074E+04  0.46999998093E+01 0.  1.
       -5    1    3    3    0  502  0.50692178037E+02  0.87301285619E+03 -0.20316887572E+03  0.89778662612E+03  0.46999998093E+01 0. -1.
</event>
<event>
 5   0  0.2816178E-05  0.2282929E+04  0.7818609E-02  0.8484682E-01
       -2   -1    0    0    0  501  0.00000000000E+00  0.00000000000E+00  0.74227095166E+03  0.74227095167E+03  0.25500000920E-02 0. -1.
        2   -1    0    0  501    0  0.00000000000E+00  0.00000000000E+00 -0.17553446980E+04  0.17553446980E+04  0.25500000920E-02 0.  1.
    10030    2    1    2    0    0  0.00000000000E+00  0.00000000000E+00 -0.10130737463E+04  0.24976156496E+04  0.22829291530E+04 0.  0.
        1    1    3    3  502    0 -0.37094877413E+03 -0.16360536668E+03  0.66084611356E+03  0.77529819739E+03  0.50400001928E-02 0. -1.
       -1    1    3    3    0  502  0.37094877413E+03  0.16360536668E+03 -0.16739198599E+04  0.17223174522E+04  0.50400001928E-02 0.  1.
</event>
<event>
 5   0  0.1308224E-05  0.2474711E+04  0.7818609E-02  0.8412051E-01
       -1   -1    0    0    0  501  0.00000000000E+00  0.00000000000E+00  0.11003362959E+04  0.11003362960E+04  0.50400001928E-02 0.  1.
        1   -1    0    0  501    0  0.00000000000E+00  0.00000000000E+00 -0.13914372436E+04  0.13914372436E+04  0.50400001928E-02 0. -1.
    10030    2    1    2    0    0  0.00000000000E+00  0.00000000000E+00 -0.29110094766E+03  0.24917735396E+04  0.24747112177E+04 0.  0.
        5    1    3    3  502    0 -0.42026189347E+03  0.15054765259E+03  0.10164173892E+04  0.11101401055E+04  0.46999998093E+01 0.  1.
       -5    1    3    3    0  502  0.42026189347E+03 -0.15054765259E+03 -0.13075183369E+04  0.13816334340E+04  0.46999998093E+01 0. -1.
</event>
<event>
 5   0  0.1371753E-05  0.2297657E+04  0.7818609E-02  0.8478845E-01
       -1   -1    0    0    0  501  0.00000000000E+00  0.00000000000E+00  0.65920976936E+03  0.65920976938E+03  0.50400001928E-02 0.  1.
        1   -1    0    0  501    0  0.00000000000E+00  0.00000000000E+00 -0.20021053325E+04  0.20021053325E+04  0.50400001928E-02 0. -1.
    10030    2    1    2    0    0  0.00000000000E+00  0.00000000000E+00 -0.13428955631E+04  0.26613151019E+04  0.22976574109E+04 0.  0.
        3    1    3    3  502    0 -0.30054848397E+02  0.26381313216E+03 -0.19660774712E+04  0.19839257283E+04  0.10100000352E+00 0. -1.
       -3    1    3    3    0  502  0.30054848397E+02 -0.26381313216E+03  0.62318190808E+03  0.67738937353E+03  0.10100000352E+00 0.  1.
</event>
<event>
 5   0  0.2910126E-05  0.2290693E+04  0.7818609E-02  0.8481600E-01
        2   -1    0    0  501    0  0.00000000000E+00  0.00000000000E+00  0.16710763670E+04  0.16710763670E+04  0.25500000920E-02 0.  1.
       -2   -1    0    0    0  501  0.00000000000E+00  0.00000000000E+00 -0.78501432714E+03  0.78501432715E+03  0.25500000920E-02 0. -1.
    10030    2    1    2    0    0  0.00000000000E+00  0.00000000000E+00  0.88606203989E+03  0.24560906942E+04  0.22906932487E+04 0.  0.
        5    1    3    3  502    0  0.21004456115E+03 -0.60238957662E+03 -0.57686273139E+03  0.86010733083E+03  0.46999998093E+01 0. -1.
       -5    1    3    3    0  502 -0.21004456115E+03  0.60238957662E+03  0.14629247713E+04  0.15959833634E+04  0.46999998093E+01 0.  1.
</event>
<event>
 5   0  0.1371753E-05  0.2314144E+04  0.7818609E-02  0.8472365E-01
       -1   -1    0    0    0  501  0.00000000000E+00  0.00000000000E+00  0.13847069692E+04  0.13847069692E+04  0.50400001928E-02 0.  1.
        1   -1    0    0  501    0  0.00000000000E+00  0.00000000000E+00 -0.96685804083E+03  0.96685804084E+03  0.50400001928E-02 0. -1.
    10030    2    1    2    0    0  0.00000000000E+00  0.00000000000E+00  0.41784892835E+03  0.23515650100E+04  0.23141435283E+04 0.  0.
        3    1    3    3  502    0  0.32823492742E+03  0.59384884729E+03  0.11613212337E+04  0.13450136204E+04  0.10100000352E+00 0.  1.
       -3    1    3    3    0  502 -0.32823492742E+03 -0.59384884729E+03 -0.74347230534E+03  0.10065513896E+04  0.10100000352E+00 0. -1.
</event>
<event>
 5   0  0.2871888E-05  0.2310167E+04  0.7818609E-02  0.8473923E-01
       -2   -1    0    0    0  501  0.00000000000E+00  0.00000000000E+00  0.15236226119E+04  0.15236226119E+04  0.25500000920E-02 0.  1.
        2   -1    0    0  501    0  0.00000000000E+00  0.00000000000E+00 -0.87568758250E+03  0.87568758251E+03  0.25500000920E-02 0. -1.
    10030    2    1    2    0    0  0.00000000000E+00  0.00000000000E+00  0.64793502943E+03  0.23993101944E+04  0.23101665756E+04 0.  0.
        3    1    3    3  502    0 -0.11302663615E+04  0.22870767889E+03  0.39292332288E+03  0.12182766509E+04  0.10100000352E+00 0.  1.
       -3    1    3    3    0  502  0.11302663615E+04 -0.22870767889E+03  0.25501170655E+03  0.11810335435E+04  0.10100000352E+00 0. -1.
</event>
<event>
 5   0  0.1303224E-05  0.2287257E+04  0.7818609E-02  0.8482962E-01
        1   -1    0    0  501    0  0.00000000000E+00  0.00000000000E+00  0.17115602784E+04  0.17115602784E+04  0.50400001928E-02 0. -1.
       -1   -1    0    0    0  501  0.00000000000E+00  0.00000000000E+00 -0.76414853705E+03  0.76414853706E+03  0.50400001928E-02 0.  1.
    10030    2    1    2    0    0  0.00000000000E+00  0.00000000000E+00  0.94741174139E+03  0.24757088155E+04  0.22872571197E+04 0.  0.
        2    1    3    3  502    0 -0.60064336164E+03  0.96979980699E+03  0.38575747845E+03  0.12041980509E+04  0.25500000920E-02 0. -1.
       -2    1    3    3    0  502  0.60064336164E+03 -0.96979980699E+03  0.56165426294E+03  0.12715107646E+04  0.25500000920E-02 0.  1.
</event>
<event>
 5   0  0.2816178E-05  0.2325113E+04  0.7818609E-02  0.8468085E-01
        2   -1    0    0  501    0  0.00000000000E+00  0.00000000000E+00  0.14680551066E+04  0.14680551066E+04  0.25500000920E-02 0.  1.
       -2   -1    0    0    0  501  0.00000000000E+00  0.00000000000E+00 -0.92063166646E+03  0.92063166647E+03  0.25500000920E-02 0. -1.
    10030    2    1    2    0    0  0.00000000000E+00  0.00000000000E+00  0.54742344013E+03  0.23886867731E+04  0.23251133471E+04 0.  0.
        1    1    3    3  502    0  0.62321883260E+03  0.24493913701E+03  0.12500332912E+04  0.14180903085E+04  0.50400001928E-02 0.  1.
       -1    1    3    3    0  502 -0.62321883260E+03 -0.24493913701E+03 -0.70260985103E+03  0.97059646452E+03  0.50400001928E-02 0. -1.
</event>
<event>
 5   0  0.1303224E-05  0.2310864E+04  0.7818609E-02  0.8473650E-01
       -1   -1    0    0    0  501  0.00000000000E+00  0.00000000000E+00  0.12142205500E+04  0.12142205500E+04  0.50400001928E-02 0. -1.
        1   -1    0    0  501    0  0.00000000000E+00  0.00000000000E+00 -0.10994902486E+04  0.10994902486E+04  0.50400001928E-02 0.  1.
    10030    2    1    2    0    0  0.00000000000E+00  0.00000000000E+00  0.11473030135E+03  0.23137107986E+04  0.23108644741E+04 0.  0.
        2    1    3    3  502    0 -0.90805828045E+03 -0.10154469939E+03 -0.65071345489E+03  0.11217438063E+04  0.25500000920E-02 0.  1.
       -2    1    3    3    0  502  0.90805828045E+03  0.10154469939E+03  0.76544375624E+03  0.11919669923E+04  0.25500000920E-02 0. -1.
</event>
<event>
 5   0  0.2994157E-05  0.2259065E+04  0.7818609E-02  0.8494238E-01
       -2   -1    0    0    0  501  0.00000000000E+00  0.00000000000E+00  0.15739955062E+04  0.15739955062E+04  0.25500000920E-02 0.  1.
        2   -1    0    0  501    0  0.00000000000E+00  0.00000000000E+00 -0.81057630590E+03  0.81057630591E+03  0.25500000920E-02 0. -1.
    10030    2    1    2    0    0  0.00000000000E+00  0.00000000000E+00  0.76341920032E+03  0.23845718121E+04  0.22590648180E+04 0.  0.
        4    1    3    3  502    0 -0.81151896482E+03 -0.33303148685E+03  0.11328397663E+04  0.14327597672E+04  0.12699999809E+01 0.  1.
       -4    1    3    3    0  502  0.81151896482E+03  0.33303148685E+03 -0.36942056594E+03  0.95181204496E+03  0.12699999809E+01 0. -1.
</event>
<event>
 5   0  0.1284837E-05  0.2311836E+04  0.7818609E-02  0.8473269E-01
        1   -1    0    0  501    0  0.00000000000E+00  0.00000000000E+00  0.21338625326E+04  0.21338625326E+04  0.50400001928E-02 0. -1.
       -1   -1    0    0    0  501  0.00000000000E+00  0.00000000000E+00 -0.62616305272E+03  0.62616305274E+03  0.50400001928E-02 0.  1.
    10030    2    1    2    0    0  0.00000000000E+00  0.00000000000E+00  0.15076994798E+04  0.27600255853E+04  0.23118355283E+04 0.  0.
        4    1    3    3  502    0  0.46428114001E+03  0.20319156837E+03  0.19941514949E+04  0.20575435811E+04  0.12699999809E+01 0. -1.
       -4    1    3    3    0  502 -0.46428114001E+03 -0.20319156837E+03 -0.48645201506E+03  0.70248200424E+03  0.12699999809E+01 0.  1.
</event>
<event>
 5   0  0.1017200E-05  0.2314167E+04  0.7818609E-02  0.8472356E-01
       -4   -1    0    0    0  501  0.00000000000E+00  0.00000000000E+00  0.14388271273E+04  0.14388276878E+04  0.12699999809E+01 0. -1.
        4   -1    0    0  501    0  0.00000000000E+00  0.00000000000E+00 -0.93050846455E+03  0.93050933123E+03  0.12699999809E+01 0.  1.
    10030    2    1    2    0    0  0.00000000000E+00  0.00000000000E+00  0.50831866271E+03  0.23693370190E+04  0.23141672469E+04 0.  0.
        5    1    3    3  502    0 -0.12685149882E+02  0.98511880728E+03 -0.36710189758E+03  0.10513828374E+04  0.46999998093E+01 0. -1.
       -5    1    3    3    0  502  0.12685149882E+02 -0.98511880728E+03  0.87542056030E+03  0.13179541816E+04  0.46999998093E+01 0.  1.
</event>
<event>
 5   0  0.1308224E-05  0.2303168E+04  0.7818609E-02  0.8476673E-01
       -1   -1    0    0    0  501  0.00000000000E+00  0.00000000000E+00  0.39003581582E+03  0.39003581585E+03  0.50400001928E-02 0. -1.
        1   -1    0    0  501    0  0.00000000000E+00  0.00000000000E+00 -0.34000607030E+04  0.34000607030E+04  0.50400001928E-02 0.  1.
    10030    2    1    2    0    0  0.00000000000E+00  0.00000000000E+00 -0.30100248872E+04  0.37900965189E+04  0.23031677752E+04 0.  0.
        5    1    3    3  502    0  0.30459491789E+03 -0.88791569167E+03 -0.40731968784E+03  0.10232808791E+04  0.46999998093E+01 0. -1.
       -5    1    3    3    0  502 -0.30459491789E+03  0.88791569167E+03 -0.26027051994E+04  0.27668156397E+04  0.46999998093E+01 0.  1.
</event>
<event>
 5   0  0.1303224E-05  0.2314790E+04  0.7818609E-02  0.8472112E-01
       -1   -1    0    0    0  501  0.00000000000E+00  0.00000000000E+00  0.57471317523E+03  0.57471317525E+03  0.50400001928E-02 0. -1.
        1   -1    0    0  501    0  0.00000000000E+00  0.00000000000E+00 -0.23308387759E+04  0.23308387759E+04  0.50400001928E-02 0.  1.
    10030    2    1    2    0    0  0.00000000000E+00  0.00000000000E+00 -0.17561256007E+04  0.29055519512E+04  0.23147904907E+04 0.  0.
        2    1    3    3  502    0  0.99255683393E+03 -0.24873327287E+03 -0.19917262844E+03  0.10424524188E+04  0.25500000920E-02 0.  1.
       -2    1    3    3    0  502 -0.99255683393E+03  0.24873327287E+03 -0.15569529722E+04  0.18630995323E+04  0.25500000920E-02 0. -1.
</event>
<event>
 5   0  0.1371753E-05  0.2295635E+04  0.7818609E-02  0.8479644E-01
        1   -1    0    0  501    0  0.00000000000E+00  0.00000000000E+00  0.18852366592E+04  0.18852366592E+04  0.50400001928E-02 0. -1.
       -1   -1    0    0    0  501  0.00000000000E+00  0.00000000000E+00 -0.69884342567E+03  0.69884342569E+03  0.50400001928E-02 0.  1.
    10030    2    1    2    0    0  0.00000000000E+00  0.00000000000E+00  0.11863932335E+04  0.25840800849E+04  0.22956352020E+04 0.  0.
        3    1    3    3  502    0  0.31925970453E+03 -0.36522827346E+03  0.17641785463E+04  0.18296569089E+04  0.10100000352E+00 0. -1.
       -3    1    3    3    0  502 -0.31925970453E+03  0.36522827346E+03 -0.57778531278E+03  0.75442317603E+03  0.10100000352E+00 0.  1.
</event>
<event>
 5   0  0.1308224E-05  0.2299583E+04  0.7818609E-02  0.8478085E-01
       -1   -1    0    0    0  501  0.00000000000E+00  0.00000000000E+00  0.11941020756E+04  0.11941020756E+04  0.50400001928E-02 0. -1.
        1   -1    0    0  501    0  0.00000000000E+00  0.00000000000E+00 -0.11071254434E+04  0.11071254434E+04  0.50400001928E-02 0.  1.
    10030    2    1    2    0    0  0.00000000000E+00  0.00000000000E+00  0.86976632208E+02  0.23012275190E+04  0.22995832579E+04 0.  0.
        5    1    3    3  502    0 -0.26349291705E+03 -0.59778665410E+03  0.99032619505E+03  0.11864002123E+04  0.46999998093E+01 0.  1.
       -5    1    3    3    0  502  0.26349291705E+03  0.59778665410E+03 -0.90334956284E+03  0.11148273067E+04  0.46999998093E+01 0. -1.
</event>
<event>
 5   0  0.1308224E-05  0.2320365E+04  0.7818609E-02  0.8469935E-01
        1   -1    0    0  501    0  0.00000000000E+00  0.00000000000E+00  0.10711800458E+04  0.10711800458E+04  0.50400001928E-02 0.  1.
       -1   -1    0    0    0  501  0.00000000000E+00  0.00000000000E+00 -0.12565796067E+04  0.12565796067E+04  0.50400001928E-02 0. -1.
    10030    2    1    2    0    0  0.00000000000E+00  0.00000000000E+00 -0.18539956088E+03  0.23277596525E+04  0.23203646271E+04 0.  0.
        5    1    3    3  502    0  0.95637743221E+02 -0.53118630915E+02  0.10659845792E+04  0.10715938503E+04  0.46999998093E+01 0.  1.
       -5    1    3    3    0  502 -0.95637743221E+02  0.53118630915E+02 -0.12513841401E+04  0.12561658023E+04  0.46999998093E+01 0. -1.
</event>
<event>
 5   0  0.1308224E-05  0.2291336E+04  0.7818609E-02  0.8481345E-01
       -1   -1    0    0    0  501  0.00000000000E+00  0.00000000000E+00  0.86976652711E+03  0.86976652713E+03  0.50400001928E-02 0. -1.
        1   -1    0    0  501    0  0.00000000000E+00  0.00000000000E+00 -0.15090887612E+04  0.15090887612E+04  0.50400001928E-02 0.  1.
    10030    2    1    2    0    0  0.00000000000E+00  0.00000000000E+00 -0.63932223406E+03  0.23788552883E+04  0.22913357597E+04 0.  0.
        5    1    3    3  502    0 -0.47884337164E+03  0.24210695873E+03 -0.13705625557E+04  0.14718595596E+04  0.46999998093E+01 0.  1.
       -5    1    3    3    0  502  0.47884337164E+03 -0.24210695873E+03  0.73124032161E+03  0.90699572876E+03  0.46999998093E+01 0. -1.
</event>
<event>
 5   0  0.2994157E-05  0.2296332E+04  0.7818609E-02  0.8479369E-01
       -2   -1    0    0    0  501  0.00000000000E+00  0.00000000000E+00  0.12107224780E+04  0.12107224780E+04  0.25500000920E-02 0. -1.
        2   -1    0    0  501    0  0.00000000000E+00  0.00000000000E+00 -0.10888413828E+04  0.10888413828E+04  0.25500000920E-02 0.  1.
    10030    2    1    2    0    0  0.00000000000E+00  0.00000000000E+00  0.12188109518E+03  0.22995638608E+04  0.22963316286E+04 0.  0.
        4    1    3    3  502    0  0.19303709337E+03 -0.72900920700E+02 -0.10701204852E+04  0.10898336246E+04  0.12699999809E+01 0.  1.
       -4    1    3    3    0  502 -0.19303709337E+03  0.72900920700E+02  0.11920015804E+04  0.12097302361E+04  0.12699999809E+01 0. -1.
</event>
<event>
 5   0  0.1284837E-05  0.2299900E+04  0.7818609E-02  0.8477960E-01
       -1   -1    0    0    0  501  0.00000000000E+00  0.00000000000E+00  0.11975734289E+04  0.11975734289E+04  0.50400001928E-02 0.  1.
        1   -1    0    0  501    0  0.00000000000E+00  0.00000000000E+00 -0.11042205748E+04  0.11042205748E+04  0.50400001928E-02 0. -1.
    10030    2    1    2    0    0  0.00000000000E+00  0.00000000000E+00  0.93352854118E+02  0.23017940037E+04  0.22999001892E+04 0.  0.
        4    1    3    3  502    0 -0.87867815281E+03  0.72550504257E+03 -0.10821128729E+03  0.11446152885E+04  0.12699999809E+01 0.  1.
       -4    1    3    3    0  502  0.87867815281E+03 -0.72550504257E+03  0.20156414141E+03  0.11571787152E+04  0.12699999809E+01 0. -1.
</event>
<event>
 5   0  0.2871888E-05  0.2337370E+04  0.7818609E-02  0.8463331E-01
        2   -1    0    0  501    0  0.00000000000E+00  0.00000000000E+00  0.20042560709E+04  0.20042560709E+04  0.25500000920E-02 0.  1.
       -2   -1    0    0    0  501  0.00000000000E+00  0.00000000000E+00 -0.68146209408E+03  0.68146209408E+03  0.25500000920E-02 0. -1.
    10030    2    1    2    0    0  0.00000000000E+00  0.00000000000E+00  0.13227939768E+04  0.26857181650E+04  0.23373699229E+04 0.  0.
        3    1    3    3  502    0  0.87227216281E+03 -0.73577579235E+02  0.15511028770E+04  0.17810649992E+04  0.10100000352E+00 0.  1.
       -3    1    3    3    0  502 -0.87227216281E+03  0.73577579235E+02 -0.22830890021E+03  0.90465316575E+03  0.10100000352E+00 0. -1.
</event>
<event>
 5   0  0.2816178E-05  0.2290709E+04  0.7818609E-02  0.8481593E-01
        2   -1    0    0  501    0  0.00000000000E+00  0.00000000000E+00  0.15226926743E+04  0.15226926743E+04  0.25500000920E-02 0.  1.
       -2   -1    0    0    0  501  0.00000000000E+00  0.00000000000E+00 -0.86152468227E+03  0.86152468228E+03  0.25500000920E-02 0. -1.
    10030    2    1    2    0    0  0.00000000000E+00  0.00000000000E+00  0.66116799204E+03  0.23842173566E+04  0.22907093420E+04 0.  0.
        1    1    3    3  502    0  0.10834128083E+04  0.21239394045E+03  0.64789401741E+03  0.12801020104E+04  0.50400001928E-02 0.  1.
       -1    1    3    3    0  502 -0.10834128083E+04 -0.21239394045E+03  0.13273974625E+02  0.11041153462E+04  0.50400001928E-02 0. -1.
</event>
<event>
 5   0  0.1284837E-05  0.2287634E+04  0.7818609E-02  0.8482813E-01
        1   -1    0    0  501    0  0.00000000000E+00  0.00000000000E+00  0.15982605745E+04  0.15982605745E+04  0.50400001928E-02 0. -1.
       -1   -1    0    0    0  501  0.00000000000E+00  0.00000000000E+00 -0.81858851788E+03  0.81858851789E+03  0.50400001928E-02 0.  1.
    10030    2    1    2    0    0  0.00000000000E+00  0.00000000000E+00  0.77967205663E+03  0.24168490924E+04  0.22876343719E+04 0.  0.
        4    1    3    3  502    0 -0.85311708405E+02  0.10869239359E+04  0.75525490694E+03  0.13263081532E+04  0.12699999809E+01 0. -1.
       -4    1    3    3    0  502  0.85311708405E+02 -0.10869239359E+04  0.24417149689E+02  0.10905409392E+04  0.12699999809E+01 0.  1.
</event>
<event>
 5   0  0.2816178E-05  0.2287832E+04  0.7818609E-02  0.8482734E-01
        2   -1    0    0  501    0  0.00000000000E+00  0.00000000000E+00  0.12749049182E+04  0.12749049182E+04  0.25500000920E-02 0.  1.
       -2   -1    0    0    0  501  0.00000000000E+00  0.00000000000E+00 -0.10263856419E+04  0.10263856419E+04  0.25500000920E-02 0. -1.
    10030    2    1    2    0    0  0.00000000000E+00  0.00000000000E+00  0.24851927631E+03  0.23012905601E+04  0.22878322516E+04 0.  0.
        1    1    3    3  502    0  0.12925300175E+03 -0.42831696365E+03 -0.93473089411E+03  0.10362835540E+04  0.50400001928E-02 0. -1.
       -1    1    3    3    0  502 -0.12925300175E+03  0.42831696365E+03  0.11832501704E+04  0.12650070062E+04  0.50400001928E-02 0.  1.
</event>
<event>
 5   0  0.2871888E-05  0.2285959E+04  0.7818609E-02  0.8483478E-01
        2   -1    0    0  501    0  0.00000000000E+00  0.00000000000E+00  0.21928346015E+04  0.21928346015E+04  0.25500000920E-02 0.  1.
       -2   -1    0    0    0  501  0.00000000000E+00  0.00000000000E+00 -0.59575970942E+03  0.59575970942E+03  0.25500000920E-02 0. -1.
    10030    2    1    2    0    0  0.00000000000E+00  0.00000000000E+00  0.15970748921E+04  0.27885943109E+04  0.22859593216E+04 0.  0.
        3    1    3    3  502    0  0.14387660784E+03 -0.10066719303E+04  0.16195957449E+03  0.10297182952E+04  0.10100000352E+00 0. -1.
       -3    1    3    3    0  502 -0.14387660784E+03  0.10066719303E+04  0.14351153176E+04  0.17588760157E+04  0.10100000352E+00 0.  1.
</event>
<event>
 5   0  0.1303224E-05  0.2300575E+04  0.7818609E-02  0.8477695E-01
       -1   -1    0    0    0  501  0.00000000000E+00  0.00000000000E+00  0.63616095841E+03  0.63616095843E+03  0.50400001928E-02 0. -1.
        1   -1    0    0  501    0  0.00000000000E+00  0.00000000000E+00 -0.20799151374E+04  0.20799151374E+04  0.50400001928E-02 0.  1.
    10030    2    1    2    0    0  0.00000000000E+00  0.00000000000E+00 -0.14437541790E+04  0.27160760958E+04  0.23005745432E+04 0.  0.
        2    1    3    3  502    0  0.68820519586E+03  0.58192348033E+03 -0.15657428253E+04  0.18066023148E+04  0.25500000920E-02 0.  1.
       -2    1    3    3    0  502 -0.68820519586E+03 -0.58192348033E+03  0.12198864638E+03  0.90947378105E+03  0.25500000920E-02 0. -1.
</event>
<event>
 5   0  0.2871888E-05  0.2299793E+04  0.7818609E-02  0.8478003E-01
       -2   -1    0    0    0  501  0.00000000000E+00  0.00000000000E+00  0.93646790661E+03  0.93646790662E+03  0.25500000920E-02 0. -1.
        2   -1    0    0  501    0  0.00000000000E+00  0.00000000000E+00 -0.14119667680E+04  0.14119667680E+04  0.25500000920E-02 0.  1.
    10030    2    1    2    0    0  0.00000000000E+00  0.00000000000E+00 -0.47549886141E+03  0.23484346746E+04  0.22997926545E+04 0.  0.
        3    1    3    3  502    0  0.44519316646E+03  0.92075636831E+03  0.29898379379E+03  0.10655423804E+04  0.10100000352E+00 0. -1.
       -3    1    3    3    0  502 -0.44519316646E+03 -0.92075636831E+03 -0.77448265520E+03  0.12828922943E+04  0.10100000352E+00 0.  1.
</event>
<event>
 5   0  0.1284837E-05  0.2293123E+04  0.7818609E-02  0.8480638E-01
       -1   -1    0    0    0  501  0.00000000000E+00  0.00000000000E+00  0.98717685970E+03  0.98717685971E+03  0.50400001928E-02 0.  1.
        1   -1    0    0  501    0  0.00000000000E+00  0.00000000000E+00 -0.13316793727E+04  0.13316793727E+04  0.50400001928E-02 0. -1.
    10030    2    1    2    0    0  0.00000000000E+00  0.00000000000E+00 -0.34450251303E+03  0.23188562324E+04  0.22931228151E+04 0.  0.
        4    1    3    3  502    0  0.50423095826E+03  0.64721212661E+03 -0.98215678317E+03  0.12797523025E+04  0.12699999809E+01 0. -1.
       -4    1    3    3    0  502 -0.50423095826E+03 -0.64721212661E+03  0.63765427014E+03  0.10391039300E+04  0.12699999809E+01 0.  1.
</event>
<event>
 5   0  0.1303224E-05  0.2302662E+04  0.7818609E-02  0.8476872E-01
       -1   -1    0    0    0  501  0.00000000000E+00  0.00000000000E+00  0.10849674979E+04  0.10849674979E+04  0.50400001928E-02 0. -1.
        1   -1    0    0  501    0  0.00000000000E+00  0.00000000000E+00 -0.12217539527E+04  0.12217539527E+04  0.50400001928E-02 0.  1.
    10030    2    1    2    0    0  0.00000000000E+00  0.00000000000E+00 -0.13678645477E+03  0.23067214506E+04  0.23026622237E+04 0.  0.
        2    1    3    3  502    0 -0.43274267723E+02 -0.81780030748E+03 -0.87907461021E+03  0.12014333837E+04  0.25500000920E-02 0.  1.
       -2    1    3    3    0  502  0.43274267723E+02  0.81780030748E+03  0.74228815545E+03  0.11052880669E+04  0.25500000920E-02 0. -1.
</event>
<event>
 5   0  0.1327820E-05  0.2304602E+04  0.7818609E-02  0.8476109E-01
        1   -1    0    0  501    0  0.00000000000E+00  0.00000000000E+00  0.20719628805E+04  0.20719628805E+04  0.50400001928E-02 0.  1.
       -1   -1    0    0    0  501  0.00000000000E+00  0.00000000000E+00 -0.64084029925E+03  0.64084029927E+03  0.50400001928E-02 0. -1.
    10030    2    1    2    0    0  0.00000000000E+00  0.00000000000E+00  0.14311225812E+04  0.27128031797E+04  0.23046017551E+04 0.  0.
        1    1    3    3  502    0 -0.45099292437E+03  0.63159378984E+03 -0.28706411539E+03  0.82747274249E+03  0.50400001928E-02 0. -1.
       -1    1    3    3    0  502  0.45099292437E+03 -0.63159378984E+03  0.17181866966E+04  0.18853304373E+04  0.50400001928E-02 0.  1.
</event>
<event>
 5   0  0.2816178E-05  0.2267636E+04  0.7818609E-02  0.8490792E-01
       -2   -1    0    0    0  501  0.00000000000E+00  0.00000000000E+00  0.10544227332E+04  0.10544227332E+04  0.25500000920E-02 0.  1.
        2   -1    0    0  501    0  0.00000000000E+00  0.00000000000E+00 -0.12191910378E+04  0.12191910378E+04  0.25500000920E-02 0. -1.
    10030    2    1    2    0    0  0.00000000000E+00  0.00000000000E+00 -0.16476830458E+03  0.22736137711E+04  0.22676355496E+04 0.  0.
        1    1    3    3  502    0 -0.55813085333E+03  0.44333514485E+03 -0.96646076833E+03  0.12008757291E+04  0.50400001928E-02 0. -1.
       -1    1    3    3    0  502  0.55813085333E+03 -0.44333514485E+03  0.80169246375E+03  0.10727380419E+04  0.50400001928E-02 0.  1.
</event>
<event>
 5   0  0.1327820E-05  0.2313360E+04  0.7818609E-02  0.8472672E-01
        1   -1    0    0  501    0  0.00000000000E+00  0.00000000000E+00  0.17797795303E+04  0.17797795303E+04  0.50400001928E-02 0.  1.
       -1   -1    0    0    0  501  0.00000000000E+00  0.00000000000E+00 -0.75172707464E+03  0.75172707465E+03  0.50400001928E-02 0. -1.
    10030    2    1    2    0    0  0.00000000000E+00  0.00000000000E+00  0.10280524557E+04  0.25315066050E+04  0.23133598595E+04 0.  0.
        1    1    3    3  502    0  0.38000804167E+03 -0.79586779544E+03  0.13329951375E+04  0.15983390430E+04  0.50400001928E-02 0.  1.
       -1    1    3    3    0  502 -0.38000804167E+03  0.79586779544E+03 -0.30494268186E+03  0.93316756201E+03  0.50400001928E-02 0. -1.
</event>
<event>
 5   0  0.1284837E-05  0.2300614E+04  0.7818609E-02  0.8477679E-01
        1   -1    0    0  501    0  0.00000000000E+00  0.00000000000E+00  0.18662587905E+04  0.18662587905E+04  0.50400001928E-02 0.  1.
       -1   -1    0    0    0  501  0.00000000000E+00  0.00000000000E+00 -0.70901543097E+03  0.70901543099E+03  0.50400001928E-02 0. -1.
    10030    2    1    2    0    0  0.00000000000E+00  0.00000000000E+00  0.11572433595E+04  0.25752742215E+04  0.23006140751E+04 0.  0.
        4    1    3    3  502    0  0.13313009531E+03  0.57868181477E+03  0.16814343104E+04  0.17832047605E+04  0.12699999809E+01 0.  1.
       -4    1    3    3    0  502 -0.13313009531E+03 -0.57868181477E+03 -0.52419095089E+03  0.79206946092E+03  0.12699999809E+01 0. -1.
</event>
<event>
 5   0  0.2938972E-05  0.2312789E+04  0.7818609E-02  0.8472896E-01
       -2   -1    0    0    0  501  0.00000000000E+00  0.00000000000E+00  0.11349911318E+04  0.11349911318E+04  0.25500000920E-02 0.  1.
        2   -1    0    0  501    0  0.00000000000E+00  0.00000000000E+00 -0.11782014008E+04  0.11782014008E+04  0.25500000920E-02 0. -1.
    10030    2    1    2    0    0  0.00000000000E+00  0.00000000000E+00 -0.43210268997E+02  0.23131925326E+04  0.23127889151E+04 0.  0.
        2    1    3    3  502    0 -0.26617447790E+03  0.96834836755E+03 -0.59502946653E+03  0.11673077913E+04  0.25500000920E-02 0. -1.
       -2    1    3    3    0  502  0.26617447790E+03 -0.96834836755E+03  0.55181919753E+03  0.11458847413E+04  0.25500000920E-02 0.  1.
</event>
<event>
 5   0  0.2938972E-05  0.2298389E+04  0.7818609E-02  0.8478557E-01
        2   -1    0    0  501    0  0.00000000000E+00  0.00000000000E+00  0.12012481719E+04  0.12012481719E+04  0.25500000920E-02 0.  1.
       -2   -1    0    0    0  501  0.00000000000E+00  0.00000000000E+00 -0.10993962775E+04  0.10993962775E+04  0.25500000920E-02 0. -1.
    10030    2    1    2    0    0  0.00000000000E+00  0.00000000000E+00  0.10185189441E+03  0.23006444493E+04  0.22983887995E+04 0.  0.
        2    1    3    3  502    0  0.22195917840E+02  0.11455959419E+04  0.13913193495E+03  0.11542271944E+04  0.25500000920E-02 0. -1.
       -2    1    3    3    0  502 -0.22195917840E+02 -0.11455959419E+04 -0.37280040543E+02  0.11464172549E+04  0.25500000920E-02 0.  1.
</event>
<event>
 5   0  0.2910126E-05  0.2309897E+04  0.7818609E-02  0.8474029E-01
        2   -1    0    0  501    0  0.00000000000E+00  0.00000000000E+00  0.19453295572E+04  0.19453295572E+04  0.25500000920E-02 0. -1.
       -2   -1    0    0    0  501  0.00000000000E+00  0.00000000000E+00 -0.68569692955E+03  0.68569692956E+03  0.25500000920E-02 0.  1.
    10030    2    1    2    0    0  0.00000000000E+00  0.00000000000E+00  0.12596326277E+04  0.26310264868E+04  0.23098974041E+04 0.  0.
        5    1    3    3  502    0  0.82827414367E+02 -0.25337055952E+02 -0.68198134114E+03  0.68747580804E+03  0.46999998093E+01 0.  1.
       -5    1    3    3    0  502 -0.82827414367E+02  0.25337055952E+02  0.19416139688E+04  0.19435506787E+04  0.46999998093E+01 0. -1.
</event>
<event>
 5   0  0.2816178E-05  0.2286593E+04  0.7818609E-02  0.8483226E-01
        2   -1    0    0  501    0  0.00000000000E+00  0.00000000000E+00  0.15197552572E+04  0.15197552572E+04  0.25500000920E-02 0. -1.
       -2   -1    0    0    0  501  0.00000000000E+00  0.00000000000E+00 -0.86009048147E+03  0.86009048147E+03  0.25500000920E-02 0.  1.
    10030    2    1    2    0    0  0.00000000000E+00  0.00000000000E+00  0.65966477578E+03  0.23798457387E+04  0.22865931260E+04 0.  0.
        1    1    3    3  502    0 -0.81761670057E+03  0.79008008873E+03  0.45474107802E+03  0.12245460644E+04  0.50400001928E-02 0. -1.
       -1    1    3    3    0  502  0.81761670057E+03 -0.79008008873E+03  0.20492369776E+03  0.11552996744E+04  0.50400001928E-02 0.  1.
</event>
<event>
 5   0  0.1371753E-05  0.2308984E+04  0.7818609E-02  0.8474387E-01
       -1   -1    0    0    0  501  0.00000000000E+00  0.00000000000E+00  0.14628543278E+04  0.14628543278E+04  0.50400001928E-02 0.  1.
        1   -1    0    0  501    0  0.00000000000E+00  0.00000000000E+00 -0.91113114015E+03  0.91113114016E+03  0.50400001928E-02 0. -1.
    10030    2    1    2    0    0  0.00000000000E+00  0.00000000000E+00  0.55172318761E+03  0.23739854679E+04  0.23089843062E+04 0.  0.
        3    1    3    3  502    0  0.19291856559E+03  0.11382560330E+04  0.27299902132E+03  0.11863274613E+04  0.10100000352E+00 0.  1.
       -3    1    3    3    0  502 -0.19291856559E+03 -0.11382560330E+04  0.27872416630E+03  0.11876580066E+04  0.10100000352E+00 0. -1.
</event>
<event>
 5   0  0.2994157E-05  0.2072470E+04  0.7818609E-02  0.8573468E-01
        2   -1    0    0  501    0  0.00000000000E+00  0.00000000000E+00  0.80720924422E+03  0.80720924422E+03  0.25500000920E-02 0.  1.
       -2   -1    0    0    0  501  0.00000000000E+00  0.00000000000E+00 -0.13302414829E+04  0.13302414829E+04  0.25500000920E-02 0. -1.
    10030    2    1    2    0    0  0.00000000000E+00  0.00000000000E+00 -0.52303223868E+03  0.21374507271E+04  0.20724702382E+04 0.  0.
        4    1    3    3  502    0 -0.89481082163E+03  0.49480213813E+03 -0.43491262687E+03  0.11111553304E+04  0.12699999809E+01 0. -1.
       -4    1    3    3    0  502  0.89481082163E+03 -0.49480213813E+03 -0.88119611810E+02  0.10262953967E+04  0.12699999809E+01 0.  1.
</event>
<event>
 5   0  0.2910126E-05  0.2276217E+04  0.7818609E-02  0.8487358E-01
       -2   -1    0    0    0  501  0.00000000000E+00  0.00000000000E+00  0.19045295346E+04  0.19045295347E+04  0.25500000920E-02 0. -1.
        2   -1    0    0  501    0  0.00000000000E+00  0.00000000000E+00 -0.68011075111E+03  0.68011075112E+03  0.25500000920E-02 0.  1.
    10030    2    1    2    0    0  0.00000000000E+00  0.00000000000E+00  0.12244187835E+04  0.25846402858E+04  0.22762170479E+04 0.  0.
        5    1    3    3  502    0 -0.83273219550E+03  0.21850264138E+03 -0.23301826061E+03  0.89191138208E+03  0.46999998093E+01 0.  1.
       -5    1    3    3    0  502  0.83273219550E+03 -0.21850264138E+03  0.14574370441E+04  0.16927289037E+04  0.46999998093E+01 0. -1.
</event>
<event>
 5   0  0.2871888E-05  0.2296893E+04  0.7818609E-02  0.8479147E-01
        2   -1    0    0  501    0  0.00000000000E+00  0.00000000000E+00  0.15353105096E+04  0.15353105096E+04  0.25500000920E-02 0. -1.
       -2   -1    0    0    0  501  0.00000000000E+00  0.00000000000E+00 -0.85906386393E+03  0.85906386394E+03  0.25500000920E-02 0.  1.
    10030    2    1    2    0    0  0.00000000000E+00  0.00000000000E+00  0.67624664568E+03  0.23943743736E+04  0.22968933617E+04 0.  0.
        3    1    3    3  502    0 -0.38089908080E+03  0.35380691813E+03  0.14056282392E+04  0.14986841569E+04  0.10100000352E+00 0. -1.
       -3    1    3    3    0  502  0.38089908080E+03 -0.35380691813E+03 -0.72938159352E+03  0.89569021667E+03  0.10100000352E+00 0.  1.
</event>
<event>
 5   0  0.1327820E-05  0.2309966E+04  0.7818609E-02  0.8474002E-01
       -1   -1    0    0    0  501  0.00000000000E+00  0.00000000000E+00  0.11404599229E+04  0.11404599230E+04  0.50400001928E-02 0.  1.
        1   -1    0    0  501    0  0.00000000000E+00  0.00000000000E+00 -0.11696906281E+04  0.11696906281E+04  0.50400001928E-02 0. -1.
    10030    2    1    2    0    0  0.00000000000E+00  0.00000000000E+00 -0.29230705122E+02  0.23101505510E+04  0.23099656132E+04 0.  0.
        1    1    3    3  502    0 -0.45467706208E+03  0.29696894042E+03 -0.10340416051E+04  0.11679742392E+04  0.50400001928E-02 0. -1.
       -1    1    3    3    0  502  0.45467706208E+03 -0.29696894042E+03  0.10048109000E+04  0.11421763118E+04  0.50400001928E-02 0.  1.
</event>
<event>
 5   0  0.1303224E-05  0.2318321E+04  0.7818609E-02  0.8470732E-01
        1   -1    0    0  501    0  0.00000000000E+00  0.00000000000E+00  0.87997456737E+03  0.87997456739E+03  0.50400001928E-02 0. -1.
       -1   -1    0    0    0  501  0.00000000000E+00  0.00000000000E+00 -0.15269232700E+04  0.15269232700E+04  0.50400001928E-02 0.  1.
    10030    2    1    2    0    0  0.00000000000E+00  0.00000000000E+00 -0.64694870263E+03  0.24068978374E+04  0.23183214997E+04 0.  0.
        2    1    3    3  502    0 -0.69442763521E+03  0.22253542820E+03 -0.12589570702E+04  0.14548967874E+04  0.25500000920E-02 0.  1.
       -2    1    3    3    0  502  0.69442763521E+03 -0.22253542820E+03  0.61200836753E+03  0.95200105004E+03  0.25500000920E-02 0. -1.
</event>
<event>
 5   0  0.1303224E-05  0.2220334E+04  0.7818609E-02  0.8510012E-01
        1   -1    0    0  501    0  0.00000000000E+00  0.00000000000E+00  0.88424630554E+03  0.88424630555E+03  0.50400001928E-02 0.  1.
       -1   -1    0    0    0  501  0.00000000000E+00  0.00000000000E+00 -0.13938095870E+04  0.13938095870E+04  0.50400001928E-02 0. -1.
    10030    2    1    2    0    0  0.00000000000E+00  0.00000000000E+00 -0.50956328141E+03  0.22780558925E+04  0.22203341892E+04 0.  0.
        2    1    3    3  502    0 -0.17826377692E+03  0.23625356863E+03 -0.13525873694E+04  0.13845888613E+04  0.25500000920E-02 0. -1.
       -2    1    3    3    0  502  0.17826377692E+03 -0.23625356863E+03  0.84302408803E+03  0.89346703121E+03  0.25500000920E-02 0.  1.
</event>
<event>
 5   0  0.2938972E-05  0.2515226E+04  0.7818609E-02  0.8397581E-01
       -2   -1    0    0    0  501  0.00000000000E+00  0.00000000000E+00  0.18325136543E+04  0.18325136543E+04  0.25500000920E-02 0.  1.
        2   -1    0    0  501    0  0.00000000000E+00  0.00000000000E+00 -0.86307146727E+03  0.86307146727E+03  0.25500000920E-02 0. -1.
    10030    2    1    2    0    0  0.00000000000E+00  0.00000000000E+00  0.96944218708E+03  0.26955851216E+04  0.25152258336E+04 0.  0.
        2    1    3    3  502    0 -0.10527859175E+04  0.68537438950E+03  0.42137236202E+03  0.13250097771E+04  0.25500000920E-02 0.  1.
       -2    1    3    3    0  502  0.10527859175E+04 -0.68537438950E+03  0.54806982506E+03  0.13705753445E+04  0.25500000920E-02 0. -1.
</event>
<event>
 5   0  0.2994157E-05  0.2258704E+04  0.7818609E-02  0.8494384E-01
       -2   -1    0    0    0  501  0.00000000000E+00  0.00000000000E+00  0.56880311198E+03  0.56880311198E+03  0.25500000920E-02 0. -1.
        2   -1    0    0  501    0  0.00000000000E+00  0.00000000000E+00 -0.22423158655E+04  0.22423158655E+04  0.25500000920E-02 0.  1.
    10030    2    1    2    0    0  0.00000000000E+00  0.00000000000E+00 -0.16735127535E+04  0.28111189775E+04  0.22587042678E+04 0.  0.
        4    1    3    3  502    0  0.77514865207E+03 -0.74795698570E+03 -0.41444565508E+03  0.11541498599E+04  0.12699999809E+01 0.  1.
       -4    1    3    3    0  502 -0.77514865207E+03  0.74795698570E+03 -0.12590670985E+04  0.16569691176E+04  0.12699999809E+01 0. -1.
</event>
<event>
 5   0  0.2910126E-05  0.2300033E+04  0.7818609E-02  0.8477908E-01
       -2   -1    0    0    0  501  0.00000000000E+00  0.00000000000E+00  0.12810059502E+04  0.12810059502E+04  0.25500000920E-02 0. -1.
        2   -1    0    0  501    0  0.00000000000E+00  0.00000000000E+00 -0.10324215863E+04  0.10324215864E+04  0.25500000920E-02 0.  1.
    10030    2    1    2    0    0  0.00000000000E+00  0.00000000000E+00  0.24858436388E+03  0.23134275366E+04  0.23000332130E+04 0.  0.
        5    1    3    3  502    0 -0.49874875613E+03 -0.78659691524E+03  0.80278041827E+03  0.12296192576E+04  0.46999998093E+01 0. -1.
       -5    1    3    3    0  502  0.49874875613E+03  0.78659691524E+03 -0.55419605438E+03  0.10838082789E+04  0.46999998093E+01 0.  1.
</event>
<event>
 5   0  0.1327820E-05  0.2295243E+04  0.7818609E-02  0.8479799E-01
       -1   -1    0    0    0  501  0.00000000000E+00  0.00000000000E+00  0.96113822402E+03  0.96113822403E+03  0.50400001928E-02 0.  1.
        1   -1    0    0  501    0  0.00000000000E+00  0.00000000000E+00 -0.13702873386E+04  0.13702873386E+04  0.50400001928E-02 0. -1.
    10030    2    1    2    0    0  0.00000000000E+00  0.00000000000E+00 -0.40914911455E+03  0.23314255626E+04  0.22952433762E+04 0.  0.
        1    1    3    3  502    0  0.82131539692E+03 -0.29400106977E+03 -0.96201030949E+03  0.12986375344E+04  0.50400001928E-02 0. -1.
       -1    1    3    3    0  502 -0.82131539692E+03  0.29400106977E+03  0.55286119494E+03  0.10327880282E+04  0.50400001928E-02 0.  1.
</event>
<event>
 5   0  0.1284837E-05  0.2280574E+04  0.7818609E-02  0.8485620E-01
        1   -1    0    0  501    0  0.00000000000E+00  0.00000000000E+00  0.10172526651E+04  0.10172526651E+04  0.50400001928E-02 0. -1.
       -1   -1    0    0    0  501  0.00000000000E+00  0.00000000000E+00 -0.12782024593E+04  0.12782024593E+04  0.50400001928E-02 0.  1.
    10030    2    1    2    0    0  0.00000000000E+00  0.00000000000E+00 -0.26094979420E+03  0.22954551244E+04  0.22805743647E+04 0.  0.
        4    1    3    3  502    0  0.70156448709E+02 -0.45675098764E+03  0.91878088475E+03  0.10284470424E+04  0.12699999809E+01 0. -1.
       -4    1    3    3    0  502 -0.70156448709E+02  0.45675098764E+03 -0.11797306790E+04  0.12670080820E+04  0.12699999809E+01 0.  1.
</event>
<event>
 5   0  0.2938972E-05  0.2296733E+04  0.7818609E-02  0.8479210E-01
        2   -1    0    0  501    0  0.00000000000E+00  0.00000000000E+00  0.13107412891E+04  0.13107412891E+04  0.25500000920E-02 0.  1.
       -2   -1    0    0    0  501  0.00000000000E+00  0.00000000000E+00 -0.10061065139E+04  0.10061065139E+04  0.25500000920E-02 0. -1.
    10030    2    1    2    0    0  0.00000000000E+00  0.00000000000E+00  0.30463477522E+03  0.23168478030E+04  0.22967327654E+04 0.  0.
        2    1    3    3  502    0  0.21902715397E+03 -0.11241976088E+04  0.23642743816E+03  0.11694832582E+04  0.25500000920E-02 0. -1.
       -2    1    3    3    0  502 -0.21902715397E+03  0.11241976088E+04  0.68207337053E+02  0.11473645448E+04  0.25500000920E-02 0.  1.
</event>
<event>
 5   0  0.2816178E-05  0.2308097E+04  0.7818609E-02  0.8474735E-01
       -2   -1    0    0    0  501  0.00000000000E+00  0.00000000000E+00  0.56014668165E+03  0.56014668166E+03  0.25500000920E-02 0. -1.
        2   -1    0    0  501    0  0.00000000000E+00  0.00000000000E+00 -0.23776423712E+04  0.23776423712E+04  0.25500000920E-02 0.  1.
    10030    2    1    2    0    0  0.00000000000E+00  0.00000000000E+00 -0.18174956895E+04  0.29377890528E+04  0.23080974714E+04 0.  0.
        1    1    3    3  502    0  0.37475601853E+03  0.52460587138E+03 -0.21270519367E+04  0.22226118273E+04  0.50400001928E-02 0.  1.
       -1    1    3    3    0  502 -0.37475601853E+03 -0.52460587138E+03  0.30955624714E+03  0.71517722550E+03  0.50400001928E-02 0. -1.
</event>
<event>
 5   0  0.2816178E-05  0.2278287E+04  0.7818609E-02  0.8486532E-01
        2   -1    0    0  501    0  0.00000000000E+00  0.00000000000E+00  0.76278542553E+03  0.76278542553E+03  0.25500000920E-02 0.  1.
       -2   -1    0    0    0  501  0.00000000000E+00  0.00000000000E+00 -0.17011969543E+04  0.17011969543E+04  0.25500000920E-02 0. -1.
    10030    2    1    2    0    0  0.00000000000E+00  0.00000000000E+00 -0.93841152879E+03  0.24639823799E+04  0.22782872889E+04 0.  0.
        1    1    3    3  502    0 -0.11170987248E+04 -0.16010189605E+03 -0.63712183726E+03  0.12959422879E+04  0.50400001928E-02 0. -1.
       -1    1    3    3    0  502  0.11170987248E+04  0.16010189605E+03 -0.30128969153E+03  0.11680400919E+04  0.50400001928E-02 0.  1.
</event>
<event>
 5   0  0.1303224E-05  0.2292788E+04  0.7818609E-02  0.8480770E-01
        1   -1    0    0  501    0  0.00000000000E+00  0.00000000000E+00  0.11875253719E+04  0.11875253719E+04  0.50400001928E-02 0. -1.
       -1   -1    0    0    0  501  0.00000000000E+00  0.00000000000E+00 -0.11066872823E+04  0.11066872823E+04  0.50400001928E-02 0.  1.
    10030    2    1    2    0    0  0.00000000000E+00  0.00000000000E+00  0.80838089574E+02  0.22942126542E+04  0.22927880203E+04 0.  0.
        2    1    3    3  502    0 -0.23708278508E+03 -0.79929580887E+03 -0.74692258103E+03  0.11193638279E+04  0.25500000920E-02 0.  1.
       -2    1    3    3    0  502  0.23708278508E+03  0.79929580887E+03  0.82776067061E+03  0.11748488264E+04  0.25500000920E-02 0. -1.
</event>
<event>
 5   0  0.2910126E-05  0.2310963E+04  0.7818609E-02  0.8473611E-01
       -2   -1    0    0    0  501  0.00000000000E+00  0.00000000000E+00  0.89388940743E+03  0.89388940743E+03  0.25500000920E-02 0. -1.
        2   -1    0    0  501    0  0.00000000000E+00  0.00000000000E+00 -0.14936266622E+04  0.14936266622E+04  0.25500000920E-02 0.  1.
    10030    2    1    2    0    0  0.00000000000E+00  0.00000000000E+00 -0.59973725473E+03  0.23875160696E+04  0.23109626150E+04 0.  0.
        5    1    3    3  502    0 -0.72039431873E+02  0.80228850456E+02  0.88867051278E+03  0.89520037895E+03  0.46999998093E+01 0. -1.
       -5    1    3    3    0  502  0.72039431873E+02 -0.80228850456E+02 -0.14884077675E+04  0.14923156907E+04  0.46999998093E+01 0.  1.
</event>
<event>
 5   0  0.1284837E-05  0.2351963E+04  0.7818609E-02  0.8457710E-01
        1   -1    0    0  501    0  0.00000000000E+00  0.00000000000E+00  0.11837797806E+04  0.11837797806E+04  0.50400001928E-02 0. -1.
       -1   -1    0    0    0  501  0.00000000000E+00  0.00000000000E+00 -0.11682344357E+04  0.11682344357E+04  0.50400001928E-02 0.  1.
    10030    2    1    2    0    0  0.00000000000E+00  0.00000000000E+00  0.15545344873E+02  0.23520142164E+04  0.23519628433E+04 0.  0.
        4    1    3    3  502    0  0.64054949830E+02 -0.29389785082E+02  0.11816653815E+04  0.11837658058E+04  0.12699999809E+01 0. -1.
       -4    1    3    3    0  502 -0.64054949830E+02  0.29389785082E+02 -0.11661200367E+04  0.11682484106E+04  0.12699999809E+01 0.  1.
</event>
<event>
 5   0  0.1327820E-05  0.2310614E+04  0.7818609E-02  0.8473748E-01
        1   -1    0    0  501    0  0.00000000000E+00  0.00000000000E+00  0.11708195569E+04  0.11708195569E+04  0.50400001928E-02 0.  1.
       -1   -1    0    0    0  501  0.00000000000E+00  0.00000000000E+00 -0.11400002400E+04  0.11400002400E+04  0.50400001928E-02 0. -1.
    10030    2    1    2    0    0  0.00000000000E+00  0.00000000000E+00  0.30819316867E+02  0.23108197969E+04  0.23106142698E+04 0.  0.
        1    1    3    3  502    0  0.62182887128E+03  0.96240225495E+03  0.16322446423E+03  0.11573812990E+04  0.50400001928E-02 0. -1.
       -1    1    3    3    0  502 -0.62182887128E+03 -0.96240225495E+03 -0.13240514736E+03  0.11534384980E+04  0.50400001928E-02 0.  1.
</event>
<event>
 5   0  0.1327820E-05  0.2301379E+04  0.7818609E-02  0.8477377E-01
       -1   -1    0    0    0  501  0.00000000000E+00  0.00000000000E+00  0.12974298069E+04  0.12974298069E+04  0.50400001928E-02 0. -1.
        1   -1    0    0  501    0  0.00000000000E+00  0.00000000000E+00 -0.10205458468E+04  0.10205458468E+04  0.50400001928E-02 0.  1.
    10030    2    1    2    0    0  0.00000000000E+00  0.00000000000E+00  0.27688396007E+03  0.23179756537E+04  0.23013792394E+04 0.  0.
        1    1    3    3  502    0 -0.99292290903E+03 -0.47581107608E+03  0.47521006866E+03  0.11992150319E+04  0.50400001928E-02 0. -1.
       -1    1    3    3    0  502  0.99292290903E+03  0.47581107608E+03 -0.19832610860E+03  0.11187606217E+04  0.50400001928E-02 0.  1.
</event>
<event>
 5   0  0.1303224E-05  0.2286381E+04  0.7818609E-02  0.8483310E-01
       -1   -1    0    0    0  501  0.00000000000E+00  0.00000000000E+00  0.77329366922E+03  0.77329366924E+03  0.50400001928E-02 0. -1.
        1   -1    0    0  501    0  0.00000000000E+00  0.00000000000E+00 -0.16900233370E+04  0.16900233370E+04  0.50400001928E-02 0.  1.
    10030    2    1    2    0    0  0.00000000000E+00  0.00000000000E+00 -0.91672966775E+03  0.24633170062E+04  0.22863808496E+04 0.  0.
        2    1    3    3  502    0  0.50726583805E+02  0.13717929475E+03  0.76317206347E+03  0.77706045047E+03  0.25500000920E-02 0. -1.
       -2    1    3    3    0  502 -0.50726583805E+02 -0.13717929475E+03 -0.16799017312E+04  0.16862565557E+04  0.25500000920E-02 0.  1.
</event>
<event>
 5   0  0.1371753E-05  0.2334471E+04  0.7818609E-02  0.8464453E-01
       -1   -1    0    0    0  501  0.00000000000E+00  0.00000000000E+00  0.72257725367E+03  0.72257725368E+03  0.50400001928E-02 0.  1.
        1   -1    0    0  501    0  0.00000000000E+00  0.00000000000E+00 -0.18855260565E+04  0.18855260565E+04  0.50400001928E-02 0. -1.
    10030    2    1    2    0    0  0.00000000000E+00  0.00000000000E+00 -0.11629488028E+04  0.26081033101E+04  0.23344705949E+04 0.  0.
        3    1    3    3  502    0 -0.20145157187E+03 -0.91609904051E+03  0.19466218991E+03  0.95797367720E+03  0.10100000352E+00 0.  1.
       -3    1    3    3    0  502  0.20145157187E+03  0.91609904051E+03 -0.13576109927E+04  0.16501296329E+04  0.10100000352E+00 0. -1.
</event>
<event>
 5   0  0.2871888E-05  0.2297207E+04  0.7818609E-02  0.8479023E-01
       -2   -1    0    0    0  501  0.00000000000E+00  0.00000000000E+00  0.58918529480E+03  0.58918529481E+03  0.25500000920E-02 0.  1.
        2   -1    0    0  501    0  0.00000000000E+00  0.00000000000E+00 -0.22391761016E+04  0.22391761016E+04  0.25500000920E-02 0. -1.
    10030    2    1    2    0    0  0.00000000000E+00  0.00000000000E+00 -0.16499908068E+04  0.28283613964E+04  0.22972066790E+04 0.  0.
        3    1    3    3  502    0  0.89610403219E+03 -0.59922740772E+03 -0.13131754486E+04  0.16989719514E+04  0.10100000352E+00 0. -1.
       -3    1    3    3    0  502 -0.89610403219E+03  0.59922740772E+03 -0.33681535813E+03  0.11293894449E+04  0.10100000352E+00 0.  1.
</event>
<event>
 5   0  0.1371753E-05  0.2316979E+04  0.7818609E-02  0.8471256E-01
        1   -1    0    0  501    0  0.00000000000E+00  0.00000000000E+00  0.22299132439E+04  0.22299132439E+04  0.50400001928E-02 0.  1.
       -1   -1    0    0    0  501  0.00000000000E+00  0.00000000000E+00 -0.60186128642E+03  0.60186128645E+03  0.50400001928E-02 0. -1.
    10030    2    1    2    0    0  0.00000000000E+00  0.00000000000E+00  0.16280519575E+04  0.28317745304E+04  0.23169794593E+04 0.  0.
        3    1    3    3  502    0  0.71850153153E+03  0.35285735464E+03  0.18375606316E+04  0.20043407516E+04  0.10100000352E+00 0.  1.
       -3    1    3    3    0  502 -0.71850153153E+03 -0.35285735464E+03 -0.20950867409E+03  0.82743377878E+03  0.10100000352E+00 0. -1.
</event>
<event>
 5   0  0.2994157E-05  0.2312126E+04  0.7818609E-02  0.8473155E-01
       -2   -1    0    0    0  501  0.00000000000E+00  0.00000000000E+00  0.66564211550E+03  0.66564211550E+03  0.25500000920E-02 0.  1.
        2   -1    0    0  501    0  0.00000000000E+00  0.00000000000E+00 -0.20078084769E+04  0.20078084769E+04  0.25500000920E-02 0. -1.
    10030    2    1    2    0    0  0.00000000000E+00  0.00000000000E+00 -0.13421663614E+04  0.26734505924E+04  0.23121261921E+04 0.  0.
        4    1    3    3  502    0 -0.71657533470E+03  0.56428856974E+03  0.15026062506E+03  0.92438177642E+03  0.12699999809E+01 0.  1.
       -4    1    3    3    0  502  0.71657533470E+03 -0.56428856974E+03 -0.14924269865E+04  0.17490688160E+04  0.12699999809E+01 0. -1.
</event>
<event>
 5   0  0.2871888E-05  0.2306149E+04  0.7818609E-02  0.8475500E-01
        2   -1    0    0  501    0  0.00000000000E+00  0.00000000000E+00  0.13694549225E+04  0.13694549225E+04  0.25500000920E-02 0.  1.
       -2   -1    0    0    0  501  0.00000000000E+00  0.00000000000E+00 -0.97088352555E+03  0.97088352555E+03  0.25500000920E-02 0. -1.
    10030    2    1    2    0    0  0.00000000000E+00  0.00000000000E+00  0.39857139694E+03  0.23403384480E+04  0.23061493648E+04 0.  0.
        3    1    3    3  502    0  0.63593130534E+03  0.35959333150E+03  0.11046242191E+04  0.13243529230E+04  0.10100000352E+00 0.  1.
       -3    1    3    3    0  502 -0.63593130534E+03 -0.35959333150E+03 -0.70605282214E+03  0.10159855250E+04  0.10100000352E+00 0. -1.
</event>
<event>
 5   0  0.2938972E-05  0.2299334E+04  0.7818609E-02  0.8478184E-01
       -2   -1    0    0    0  501  0.00000000000E+00  0.00000000000E+00  0.79246055332E+03  0.79246055332E+03  0.25500000920E-02 0.  1.
        2   -1    0    0  501    0  0.00000000000E+00  0.00000000000E+00 -0.16678858503E+04  0.16678858503E+04  0.25500000920E-02 0. -1.
    10030    2    1    2    0    0  0.00000000000E+00  0.00000000000E+00 -0.87542529702E+03  0.24603464037E+04  0.22993335937E+04 0.  0.
        2    1    3    3  502    0  0.10233817332E+04  0.16607106552E+03 -0.96933782181E+03  0.14193327952E+04  0.25500000920E-02 0. -1.
       -2    1    3    3    0  502 -0.10233817332E+04 -0.16607106552E+03  0.93912524795E+02  0.10410136085E+04  0.25500000920E-02 0.  1.
</event>
<event>
 5   0  0.1308224E-05  0.2307176E+04  0.7818609E-02  0.8475097E-01
       -1   -1    0    0    0  501  0.00000000000E+00  0.00000000000E+00  0.67482060314E+03  0.67482060316E+03  0.50400001928E-02 0. -1.
        1   -1    0    0  501    0  0.00000000000E+00  0.00000000000E+00 -0.19720285855E+04  0.19720285855E+04  0.50400001928E-02 0.  1.
    10030    2    1    2    0    0  0.00000000000E+00  0.00000000000E+00 -0.12972079824E+04  0.26468491887E+04  0.23071762131E+04 0.  0.
        5    1    3    3  502    0  0.10463316838E+04  0.45595398239E+03 -0.84070640089E+03  0.14175730560E+04  0.46999998093E+01 0. -1.
       -5    1    3    3    0  502 -0.10463316838E+04 -0.45595398239E+03 -0.45650158149E+03  0.12292761327E+04  0.46999998093E+01 0.  1.
</event>
<event>
 5   0  0.1327820E-05  0.2299214E+04  0.7818609E-02  0.8478231E-01
       -1   -1    0    0    0  501  0.00000000000E+00  0.00000000000E+00  0.14380808612E+04  0.14380808612E+04  0.50400001928E-02 0. -1.
        1   -1    0    0  501    0  0.00000000000E+00  0.00000000000E+00 -0.91900014427E+03  0.91900014428E+03  0.50400001928E-02 0.  1.
    10030    2    1    2    0    0  0.00000000000E+00  0.00000000000E+00  0.51908071695E+03  0.23570810055E+04  0.22992142301E+04 0.  0.
        1    1    3    3  502    0 -0.26036143031E+03 -0.55490855710E+03  0.12565841289E+04  0.13981113168E+04  0.50400001928E-02 0. -1.
       -1    1    3    3    0  502  0.26036143031E+03  0.55490855710E+03 -0.73750341197E+03  0.95896968869E+03  0.50400001928E-02 0.  1.
</event>
<event>
 5   0  0.2816178E-05  0.2306217E+04  0.7818609E-02  0.8475474E-01
        2   -1    0    0  501    0  0.00000000000E+00  0.00000000000E+00  0.21501895033E+04  0.21501895033E+04  0.25500000920E-02 0.  1.
       -2   -1    0    0    0  501  0.00000000000E+00  0.00000000000E+00 -0.61839190476E+03  0.61839190477E+03  0.25500000920E-02 0. -1.
    10030    2    1    2    0    0  0.00000000000E+00  0.00000000000E+00  0.15317975985E+04  0.27685814081E+04  0.23062174941E+04 0.  0.
        1    1    3    3  502    0 -0.19821337864E+03  0.10439371150E+04  0.22826535597E+03  0.10868294790E+04  0.50400001928E-02 0. -1.
       -1    1    3    3    0  502  0.19821337864E+03 -0.10439371150E+04  0.13035322426E+04  0.16817519291E+04  0.50400001928E-02 0.  1.
</event>
<event>
 5   0  0.2994157E-05  0.2303983E+04  0.7818609E-02  0.8476352E-01
       -2   -1    0    0    0  501  0.00000000000E+00  0.00000000000E+00  0.60209334304E+03  0.60209334305E+03  0.25500000920E-02 0. -1.
        2   -1    0    0  501    0  0.00000000000E+00  0.00000000000E+00 -0.22041182712E+04  0.22041182712E+04  0.25500000920E-02 0.  1.
    10030    2    1    2    0    0  0.00000000000E+00  0.00000000000E+00 -0.16020249282E+04  0.28062116143E+04  0.23039834534E+04 0.  0.
        4    1    3    3  502    0 -0.96001494922E+03 -0.62859521000E+03 -0.67726469052E+03  0.13324600237E+04  0.12699999809E+01 0. -1.
       -4    1    3    3    0  502  0.96001494922E+03  0.62859521000E+03 -0.92476023768E+03  0.14737515906E+04  0.12699999809E+01 0.  1.
</event>
<event>
 5   0  0.2910126E-05  0.2310085E+04  0.7818609E-02  0.8473955E-01
        2   -1    0    0  501    0  0.00000000000E+00  0.00000000000E+00  0.80967377536E+03  0.80967377537E+03  0.25500000920E-02 0.  1.
       -2   -1    0    0    0  501  0.00000000000E+00  0.00000000000E+00 -0.16477296848E+04  0.16477296848E+04  0.25500000920E-02 0. -1.
    10030    2    1    2    0    0  0.00000000000E+00  0.00000000000E+00 -0.83805590944E+03  0.24574034602E+04  0.23100852925E+04 0.  0.
        5    1    3    3  502    0  0.64649755547E+03 -0.94701497924E+03 -0.27122505493E+03  0.11782960496E+04  0.46999998093E+01 0.  1.
       -5    1    3    3    0  502 -0.64649755547E+03  0.94701497924E+03 -0.56683085451E+03  0.12791074106E+04  0.46999998093E+01 0. -1.
</event>
<event>
 5   0  0.2871888E-05  0.2285798E+04  0.7818609E-02  0.8483542E-01
        2   -1    0    0  501    0  0.00000000000E+00  0.00000000000E+00  0.14553875090E+04  0.14553875090E+04  0.25500000920E-02 0.  1.
       -2   -1    0    0    0  501  0.00000000000E+00  0.00000000000E+00 -0.89750553727E+03  0.89750553727E+03  0.25500000920E-02 0. -1.
    10030    2    1    2    0    0  0.00000000000E+00  0.00000000000E+00  0.55788197170E+03  0.23528930462E+04  0.22857981960E+04 0.  0.
        3    1    3    3  502    0  0.66826748002E+03  0.12802608440E+03 -0.66629773966E+03  0.95232598999E+03  0.10100000352E+00 0. -1.
       -3    1    3    3    0  502 -0.66826748002E+03 -0.12802608440E+03  0.12241797114E+04  0.14005670562E+04  0.10100000352E+00 0.  1.
</event>
<event>
 5   0  0.2994157E-05  0.2408318E+04  0.7818609E-02  0.8436396E-01
       -2   -1    0    0    0  501  0.00000000000E+00  0.00000000000E+00  0.82882597695E+03  0.82882597695E+03  0.25500000920E-02 0.  1.
        2   -1    0    0  501    0  0.00000000000E+00  0.00000000000E+00 -0.17494607927E+04  0.17494607927E+04  0.25500000920E-02 0. -1.
    10030    2    1    2    0    0  0.00000000000E+00  0.00000000000E+00 -0.92063481576E+03  0.25782867697E+04  0.24083177121E+04 0.  0.
        4    1    3    3  502    0  0.82823152891E+03  0.44267371046E+03 -0.12672145190E+04  0.15772640012E+04  0.12699999809E+01 0. -1.
       -4    1    3    3    0  502 -0.82823152891E+03 -0.44267371046E+03  0.34657970322E+03  0.10010227685E+04  0.12699999809E+01 0.  1.
</event>
<event>
 5   0  0.1308224E-05  0.2303261E+04  0.7818609E-02  0.8476636E-01
        1   -1    0    0  501    0  0.00000000000E+00  0.00000000000E+00  0.14826039511E+04  0.14826039512E+04  0.50400001928E-02 0.  1.
       -1   -1    0    0    0  501  0.00000000000E+00  0.00000000000E+00 -0.89454308948E+03  0.89454308949E+03  0.50400001928E-02 0. -1.
    10030    2    1    2    0    0  0.00000000000E+00  0.00000000000E+00  0.58806086167E+03  0.23771470406E+04  0.23032612696E+04 0.  0.
        5    1    3    3  502    0  0.81923840479E+03 -0.30982074983E+03 -0.47767920727E+03  0.99766726716E+03  0.46999998093E+01 0. -1.
       -5    1    3    3    0  502 -0.81923840479E+03  0.30982074983E+03  0.10657400689E+04  0.13794797735E+04  0.46999998093E+01 0.  1.
</event>
<event>
 5   0  0.1303224E-05  0.2113919E+04  0.7818609E-02  0.8555136E-01
       -1   -1    0    0    0  501  0.00000000000E+00  0.00000000000E+00  0.13867747214E+04  0.13867747215E+04  0.50400001928E-02 0. -1.
        1   -1    0    0  501    0  0.00000000000E+00  0.00000000000E+00 -0.80558415877E+03  0.80558415878E+03  0.50400001928E-02 0.  1.
    10030    2    1    2    0    0  0.00000000000E+00  0.00000000000E+00  0.58119056267E+03  0.21923588802E+04  0.21139193432E+04 0.  0.
        2    1    3    3  502    0 -0.74943522433E+03  0.27478683202E+03 -0.42793506610E+03  0.90569828272E+03  0.25500000920E-02 0.  1.
       -2    1    3    3    0  502  0.74943522433E+03 -0.27478683202E+03  0.10091256288E+04  0.12866605975E+04  0.25500000920E-02 0. -1.
</event>
<event>
 5   0  0.2994157E-05  0.2300212E+04  0.7818609E-02  0.8477838E-01
       -2   -1    0    0    0  501  0.00000000000E+00  0.00000000000E+00  0.10990870238E+04  0.10990870238E+04  0.25500000920E-02 0.  1.
        2   -1    0    0  501    0  0.00000000000E+00  0.00000000000E+00 -0.12034927945E+04  0.12034927945E+04  0.25500000920E-02 0. -1.
    10030    2    1    2    0    0  0.00000000000E+00  0.00000000000E+00 -0.10440577069E+03  0.23025798184E+04  0.23002115674E+04 0.  0.
        4    1    3    3  502    0 -0.87159292356E+02  0.10354736597E+04 -0.54559904145E+03  0.11736619484E+04  0.12699999809E+01 0.  1.
       -4    1    3    3    0  502  0.87159292356E+02 -0.10354736597E+04  0.44119327076E+03  0.11289178700E+04  0.12699999809E+01 0. -1.
</event>
<event>
 5   0  0.2871888E-05  0.2301318E+04  0.7818609E-02  0.8477402E-01
       -2   -1    0    0    0  501  0.00000000000E+00  0.00000000000E+00  0.82794734195E+03  0.82794734195E+03  0.25500000920E-02 0.  1.
        2   -1    0    0  501    0  0.00000000000E+00  0.00000000000E+00 -0.15991546424E+04  0.15991546424E+04  0.25500000920E-02 0. -1.
    10030    2    1    2    0    0  0.00000000000E+00  0.00000000000E+00 -0.77120730046E+03  0.24271019844E+04  0.23013177404E+04 0.  0.
        3    1    3    3  502    0 -0.95983275082E+01 -0.23949883062E+03 -0.15725333885E+04  0.15906957868E+04  0.10100000352E+00 0. -1.
       -3    1    3    3    0  502  0.95983275082E+01  0.23949883062E+03  0.80132608807E+03  0.83640619760E+03  0.10100000352E+00 0.  1.
</event>
<event>
 5   0  0.1017200E-05  0.2301335E+04  0.7818609E-02  0.8477395E-01
        3   -1    0    0  501    0  0.00000000000E+00  0.00000000000E+00  0.11459028505E+04  0.11459028549E+04  0.10100000352E+00 0. -1.
       -3   -1    0    0    0  501  0.00000000000E+00  0.00000000000E+00 -0.11554519264E+04  0.11554519309E+04  0.10100000352E+00 0.  1.
    10030    2    1    2    0    0  0.00000000000E+00  0.00000000000E+00 -0.95490759650E+01  0.23013547858E+04  0.23013349746E+04 0.  0.
        5    1    3    3  502    0 -0.44779416794E+03  0.10285712600E+04 -0.26077502820E+03  0.11517396229E+04  0.46999998093E+01 0.  1.
       -5    1    3    3    0  502  0.44779416794E+03 -0.10285712600E+04  0.25122595224E+03  0.11496151629E+04  0.46999998093E+01 0. -1.
</event>
<event>
 5   0  0.2938972E-05  0.2304426E+04  0.7818609E-02  0.8476178E-01
        2   -1    0    0  501    0  0.00000000000E+00  0.00000000000E+00  0.10823597547E+04  0.10823597547E+04  0.25500000920E-02 0. -1.
       -2   -1    0    0    0  501  0.00000000000E+00  0.00000000000E+00 -0.12265749575E+04  0.12265749575E+04  0.25500000920E-02 0.  1.
    10030    2    1    2    0    0  0.00000000000E+00  0.00000000000E+00 -0.14421520277E+03  0.23089347122E+04  0.23044264970E+04 0.  0.
        2    1    3    3  502    0  0.68569655185E+03  0.82883316105E+03 -0.48577264633E+03  0.11803047208E+04  0.25500000920E-02 0. -1.
       -2    1    3    3    0  502 -0.68569655185E+03 -0.82883316105E+03  0.34155744356E+03  0.11286299913E+04  0.25500000920E-02 0.  1.
</event>
<event>
 5   0  0.2994157E-05  0.2335202E+04  0.7818609E-02  0.8464170E-01
       -2   -1    0    0    0  501  0.00000000000E+00  0.00000000000E+00  0.13322574194E+04  0.13322574194E+04  0.25500000920E-02 0. -1.
        2   -1    0    0  501    0  0.00000000000E+00  0.00000000000E+00 -0.10232943832E+04  0.10232943832E+04  0.25500000920E-02 0.  1.
    10030    2    1    2    0    0  0.00000000000E+00  0.00000000000E+00  0.30896303623E+03  0.23555518026E+04  0.23352015195E+04 0.  0.
        4    1    3    3  502    0 -0.11242795771E+04 -0.30830145465E+03  0.88833130829E+02  0.11691652118E+04  0.12699999809E+01 0.  1.
       -4    1    3    3    0  502  0.11242795771E+04  0.30830145465E+03  0.22012990540E+03  0.11863865907E+04  0.12699999809E+01 0. -1.
</event>
<event>
 5   0  0.1327820E-05  0.2296356E+04  0.7818609E-02  0.8479359E-01
        1   -1    0    0  501    0  0.00000000000E+00  0.00000000000E+00  0.95365416953E+03  0.95365416954E+03  0.50400001928E-02 0.  1.
       -1   -1    0    0    0  501  0.00000000000E+00  0.00000000000E+00 -0.13823808236E+04  0.13823808236E+04  0.50400001928E-02 0. -1.
    10030    2    1    2    0    0  0.00000000000E+00  0.00000000000E+00 -0.42872665409E+03  0.23360349932E+04  0.22963564500E+04 0.  0.
        1    1    3    3  502    0  0.79935418333E+03 -0.52616992446E+03  0.43102084550E+03  0.10495717551E+04  0.50400001928E-02 0.  1.
       -1    1    3    3    0  502 -0.79935418333E+03  0.52616992446E+03 -0.85974749959E+03  0.12864632381E+04  0.50400001928E-02 0. -1.
</event>
<event>
 5   0  0.2938972E-05  0.2305477E+04  0.7818609E-02  0.8475765E-01
        2   -1    0    0  501    0  0.00000000000E+00  0.00000000000E+00  0.10539873686E+04  0.10539873686E+04  0.25500000920E-02 0.  1.
       -2   -1    0    0    0  501  0.00000000000E+00  0.00000000000E+00 -0.12607423427E+04  0.12607423428E+04  0.25500000920E-02 0. -1.
    10030    2    1    2    0    0  0.00000000000E+00  0.00000000000E+00 -0.20675497418E+03  0.23147297113E+04  0.23054773946E+04 0.  0.
        2    1    3    3  502    0  0.33975434921E+03  0.37471373397E+02 -0.12086903961E+04  0.12560929883E+04  0.25500000920E-02 0. -1.
       -2    1    3    3    0  502 -0.33975434921E+03 -0.37471373397E+02  0.10019354219E+04  0.10586367230E+04  0.25500000920E-02 0.  1.
</event>
<event>
 5   0  0.1308224E-05  0.2328191E+04  0.7818609E-02  0.8466888E-01
        1   -1    0    0  501    0  0.00000000000E+00  0.00000000000E+00  0.14564723399E+04  0.14564723400E+04  0.50400001928E-02 0. -1.
       -1   -1    0    0    0  501  0.00000000000E+00  0.00000000000E+00 -0.93041163041E+03  0.93041163043E+03  0.50400001928E-02 0.  1.
    10030    2    1    2    0    0  0.00000000000E+00  0.00000000000E+00  0.52606070954E+03  0.23868839704E+04  0.23281914049E+04 0.  0.
        5    1    3    3  502    0  0.76854755918E+03 -0.63098420855E+03 -0.35744613537E+03  0.10566911809E+04  0.46999998093E+01 0.  1.
       -5    1    3    3    0  502 -0.76854755918E+03  0.63098420855E+03  0.88350684491E+03  0.13301927895E+04  0.46999998093E+01 0. -1.
</event>
<event>
 5   0  0.1371753E-05  0.2300767E+04  0.7818609E-02  0.8477619E-01
       -1   -1    0    0    0  501  0.00000000000E+00  0.00000000000E+00  0.84583592064E+03  0.84583592066E+03  0.50400001928E-02 0. -1.
        1   -1    0    0  501    0  0.00000000000E+00  0.00000000000E+00 -0.15645848437E+04  0.15645848437E+04  0.50400001928E-02 0.  1.
    10030    2    1    2    0    0  0.00000000000E+00  0.00000000000E+00 -0.71874892307E+03  0.24104207644E+04  0.23007668824E+04 0.  0.
        3    1    3    3  502    0  0.60974814819E+03 -0.19086760698E+02  0.66241603087E+03  0.90052879843E+03  0.10100000352E+00 0. -1.
       -3    1    3    3    0  502 -0.60974814819E+03  0.19086760698E+02 -0.13811649539E+04  0.15098919659E+04  0.10100000352E+00 0.  1.
</event>
<event>
 5   0  0.2910126E-05  0.2299332E+04  0.7818609E-02  0.8478185E-01
       -2   -1    0    0    0  501  0.00000000000E+00  0.00000000000E+00  0.74060407725E+03  0.74060407726E+03  0.25500000920E-02 0. -1.
        2   -1    0    0  501    0  0.00000000000E+00  0.00000000000E+00 -0.17846671259E+04  0.17846671259E+04  0.25500000920E-02 0.  1.
    10030    2    1    2    0    0  0.00000000000E+00  0.00000000000E+00 -0.10440630486E+04  0.25252712031E+04  0.22993318594E+04 0.  0.
        5    1    3    3  502    0  0.65704055848E+03 -0.58857036389E+03 -0.13317667152E+04  0.15974173038E+04  0.46999998093E+01 0.  1.
       -5    1    3    3    0  502 -0.65704055848E+03  0.58857036389E+03  0.28770366659E+03  0.92785389933E+03  0.46999998093E+01 0. -1.
</event>
<event>
 5   0  0.1308224E-05  0.2300281E+04  0.7818609E-02  0.8477810E-01
        1   -1    0    0  501    0  0.00000000000E+00  0.00000000000E+00  0.17945745065E+04  0.17945745065E+04  0.50400001928E-02 0.  1.
       -1   -1    0    0    0  501  0.00000000000E+00  0.00000000000E+00 -0.73712342526E+03  0.73712342528E+03  0.50400001928E-02 0. -1.
    10030    2    1    2    0    0  0.00000000000E+00  0.00000000000E+00  0.10574510812E+04  0.25316979317E+04  0.23002807717E+04 0.  0.
        5    1    3    3  502    0 -0.10329681839E+04 -0.36456998301E+03  0.14293872216E+03  0.11047117768E+04  0.46999998093E+01 0. -1.
       -5    1    3    3    0  502  0.10329681839E+04  0.36456998301E+03  0.91451235904E+03  0.14269861549E+04  0.46999998093E+01 0.  1.
</event>
<event>
 5   0  0.2871888E-05  0.2322281E+04  0.7818609E-02  0.8469187E-01
       -2   -1    0    0    0  501  0.00000000000E+00  0.00000000000E+00  0.55111882855E+03  0.55111882855E+03  0.25500000920E-02 0. -1.
        2   -1    0    0  501    0  0.00000000000E+00  0.00000000000E+00 -0.24463831330E+04  0.24463831330E+04  0.25500000920E-02 0.  1.
    10030    2    1    2    0    0  0.00000000000E+00  0.00000000000E+00 -0.18952643045E+04  0.29975019616E+04  0.23222814700E+04 0.  0.
        3    1    3    3  502    0 -0.31199083702E+02  0.48132439035E+03  0.41569195474E+03  0.63674670239E+03  0.10100000352E+00 0. -1.
       -3    1    3    3    0  502  0.31199083702E+02 -0.48132439035E+03 -0.23109562592E+04  0.23607552592E+04  0.10100000352E+00 0.  1.
</event>
<event>
 5   0  0.1327820E-05  0.2295696E+04  0.7818609E-02  0.8479620E-01
       -1   -1    0    0    0  501  0.00000000000E+00  0.00000000000E+00  0.15558855726E+04  0.15558855726E+04  0.50400001928E-02 0.  1.
        1   -1    0    0  501    0  0.00000000000E+00  0.00000000000E+00 -0.84681965572E+03  0.84681965574E+03  0.50400001928E-02 0. -1.
    10030    2    1    2    0    0  0.00000000000E+00  0.00000000000E+00  0.70906591690E+03  0.24027052284E+04  0.22956955242E+04 0.  0.
        1    1    3    3  502    0 -0.72453095891E+03 -0.22605210896E+03 -0.54671575743E+03  0.93538376393E+03  0.50400001928E-02 0. -1.
       -1    1    3    3    0  502  0.72453095891E+03  0.22605210896E+03  0.12557816743E+04  0.14673214644E+04  0.50400001928E-02 0.  1.
</event>
<event>
 5   0  0.1308224E-05  0.2317201E+04  0.7818609E-02  0.8471170E-01
       -1   -1    0    0    0  501  0.00000000000E+00  0.00000000000E+00  0.10619715968E+04  0.10619715969E+04  0.50400001928E-02 0.  1.
        1   -1    0    0  501    0  0.00000000000E+00  0.00000000000E+00 -0.12640218030E+04  0.12640218030E+04  0.50400001928E-02 0. -1.
    10030    2    1    2    0    0  0.00000000000E+00  0.00000000000E+00 -0.20205020611E+03  0.23259933998E+04  0.23172011156E+04 0.  0.
        5    1    3    3  502    0  0.92695008726E+01  0.92918663206E+03  0.59359728472E+03  0.11026574932E+04  0.46999998093E+01 0.  1.
       -5    1    3    3    0  502 -0.92695008726E+01 -0.92918663206E+03 -0.79564749083E+03  0.12233359067E+04  0.46999998093E+01 0. -1.
</event>
<event>
 5   0  0.2871888E-05  0.2253889E+04  0.7818609E-02  0.8496327E-01
        2   -1    0    0  501    0  0.00000000000E+00  0.00000000000E+00  0.12202249510E+04  0.12202249510E+04  0.25500000920E-02 0. -1.
       -2   -1    0    0    0  501  0.00000000000E+00  0.00000000000E+00 -0.10407944922E+04  0.10407944922E+04  0.25500000920E-02 0.  1.
    10030    2    1    2    0    0  0.00000000000E+00  0.00000000000E+00  0.17943045879E+03  0.22610194432E+04  0.22538885582E+04 0.  0.
        3    1    3    3  502    0 -0.60700840587E+03  0.57133076259E+03 -0.67105430829E+03  0.10701364118E+04  0.10100000352E+00 0.  1.
       -3    1    3    3    0  502  0.60700840587E+03 -0.57133076259E+03  0.85048476708E+03  0.11908830313E+04  0.10100000352E+00 0. -1.
</event>
<event>
 5   0  0.2910126E-05  0.2273629E+04  0.7818609E-02  0.8488392E-01
       -2   -1    0    0    0  501  0.00000000000E+00  0.00000000000E+00  0.62270470505E+03  0.62270470506E+03  0.25500000920E-02 0.  1.
        2   -1    0    0  501    0  0.00000000000E+00  0.00000000000E+00 -0.20753765129E+04  0.20753765129E+04  0.25500000920E-02 0. -1.
    10030    2    1    2    0    0  0.00000000000E+00  0.00000000000E+00 -0.14526718078E+04  0.26980812179E+04  0.22736285707E+04 0.  0.
        5    1    3    3  502    0 -0.98838309085E+03  0.25661932042E+03 -0.13350380960E+03  0.10298543426E+04  0.46999998093E+01 0.  1.
       -5    1    3    3    0  502  0.98838309085E+03 -0.25661932042E+03 -0.13191679982E+04  0.16682268753E+04  0.46999998093E+01 0. -1.
</event>
<event>
 5   0  0.2910126E-05  0.2307282E+04  0.7818609E-02  0.8475056E-01
        2   -1    0    0  501    0  0.00000000000E+00  0.00000000000E+00  0.14892922273E+04  0.14892922273E+04  0.25500000920E-02 0.  1.
       -2   -1    0    0    0  501  0.00000000000E+00  0.00000000000E+00 -0.89363729888E+03  0.89363729888E+03  0.25500000920E-02 0. -1.
    10030    2    1    2    0    0  0.00000000000E+00  0.00000000000E+00  0.59565492838E+03  0.23829295261E+04  0.23072815894E+04 0.  0.
        5    1    3    3  502    0 -0.15955447849E+03  0.75442722996E+03  0.11840082761E+04  0.14129811622E+04  0.46999998093E+01 0.  1.
       -5    1    3    3    0  502  0.15955447849E+03 -0.75442722996E+03 -0.58835334772E+03  0.96994836393E+03  0.46999998093E+01 0. -1.
</event>
<event>
 5   0  0.1284837E-05  0.2296156E+04  0.7818609E-02  0.8479438E-01
        1   -1    0    0  501    0  0.00000000000E+00  0.00000000000E+00  0.16552887359E+04  0.16552887359E+04  0.50400001928E-02 0. -1.
       -1   -1    0    0    0  501  0.00000000000E+00  0.00000000000E+00 -0.79628617085E+03  0.79628617086E+03  0.50400001928E-02 0.  1.
    10030    2    1    2    0    0  0.00000000000E+00  0.00000000000E+00  0.85900256503E+03  0.24515749067E+04  0.22961563790E+04 0.  0.
        4    1    3    3  502    0 -0.55315970384E+03 -0.19032774547E+03 -0.62522567594E+03  0.85622372508E+03  0.12699999809E+01 0.  1.
       -4    1    3    3    0  502  0.55315970384E+03  0.19032774547E+03  0.14842282410E+04  0.15953511817E+04  0.12699999809E+01 0. -1.
</event>
<event>
 5   0  0.1017200E-05  0.2302406E+04  0.7818609E-02  0.8476973E-01
        3   -1    0    0  501    0  0.00000000000E+00  0.00000000000E+00  0.17568798538E+04  0.17568798567E+04  0.10100000352E+00 0. -1.
       -3   -1    0    0    0  501  0.00000000000E+00  0.00000000000E+00 -0.75433044430E+03  0.75433045106E+03  0.10100000352E+00 0.  1.
    10030    2    1    2    0    0  0.00000000000E+00  0.00000000000E+00  0.10025494095E+04  0.25112103078E+04  0.23024056748E+04 0.  0.
        1    1    3    3  502    0  0.10123595446E+04  0.26469237312E+03 -0.22181475794E+02  0.10466259684E+04  0.50400001928E-02 0.  1.
       -1    1    3    3    0  502 -0.10123595446E+04 -0.26469237312E+03  0.10247308853E+04  0.14645843394E+04  0.50400001928E-02 0. -1.
</event>
<event>
 5   0  0.1284837E-05  0.2290126E+04  0.7818609E-02  0.8481824E-01
       -1   -1    0    0    0  501  0.00000000000E+00  0.00000000000E+00  0.10341908428E+04  0.10341908428E+04  0.50400001928E-02 0.  1.
        1   -1    0    0  501    0  0.00000000000E+00  0.00000000000E+00 -0.12678217311E+04  0.12678217311E+04  0.50400001928E-02 0. -1.
    10030    2    1    2    0    0  0.00000000000E+00  0.00000000000E+00 -0.23363088830E+03  0.23020125738E+04  0.22901263062E+04 0.  0.
        4    1    3    3  502    0  0.46238138642E+03  0.10314140606E+04  0.67319659089E+02  0.11323184447E+04  0.12699999809E+01 0.  1.
       -4    1    3    3    0  502 -0.46238138642E+03 -0.10314140606E+04 -0.30095054739E+03  0.11696941291E+04  0.12699999809E+01 0. -1.
</event>
<event>
 5   0  0.1371753E-05  0.2301660E+04  0.7818609E-02  0.8477267E-01
       -1   -1    0    0    0  501  0.00000000000E+00  0.00000000000E+00  0.92188470281E+03  0.92188470282E+03  0.50400001928E-02 0. -1.
        1   -1    0    0  501    0  0.00000000000E+00  0.00000000000E+00 -0.14366329534E+04  0.14366329534E+04  0.50400001928E-02 0.  1.
    10030    2    1    2    0    0  0.00000000000E+00  0.00000000000E+00 -0.51474825058E+03  0.23585176562E+04  0.23016602211E+04 0.  0.
        3    1    3    3  502    0 -0.27353492055E+03  0.51229404104E+03 -0.12754685097E+04  0.14014586925E+04  0.10100000352E+00 0.  1.
       -3    1    3    3    0  502  0.27353492055E+03 -0.51229404104E+03  0.76072025913E+03  0.95705896375E+03  0.10100000352E+00 0. -1.
</event>
<event>
 5   0  0.1284837E-05  0.2303803E+04  0.7818609E-02  0.8476423E-01
        1   -1    0    0  501    0  0.00000000000E+00  0.00000000000E+00  0.17109943484E+04  0.17109943484E+04  0.50400001928E-02 0.  1.
       -1   -1    0    0    0  501  0.00000000000E+00  0.00000000000E+00 -0.77550056393E+03  0.77550056395E+03  0.50400001928E-02 0. -1.
    10030    2    1    2    0    0  0.00000000000E+00  0.00000000000E+00  0.93549378449E+03  0.24864949124E+04  0.23038030142E+04 0.  0.
        4    1    3    3  502    0  0.65918230495E+03 -0.54704712471E+03 -0.36344988776E+03  0.93052635730E+03  0.12699999809E+01 0. -1.
       -4    1    3    3    0  502 -0.65918230495E+03  0.54704712471E+03  0.12989436722E+04  0.15559685551E+04  0.12699999809E+01 0.  1.
</event>
<event>
 5   0  0.2871888E-05  0.2281054E+04  0.7818609E-02  0.8485429E-01
        2   -1    0    0  501    0  0.00000000000E+00  0.00000000000E+00  0.13699966445E+04  0.13699966445E+04  0.25500000920E-02 0.  1.
       -2   -1    0    0    0  501  0.00000000000E+00  0.00000000000E+00 -0.94949299194E+03  0.94949299194E+03  0.25500000920E-02 0. -1.
    10030    2    1    2    0    0  0.00000000000E+00  0.00000000000E+00  0.42050365255E+03  0.23194896364E+04  0.22810543290E+04 0.  0.
        3    1    3    3  502    0 -0.26865315368E+03 -0.72395543948E+03  0.10637494208E+04  0.13144766395E+04  0.10100000352E+00 0.  1.
       -3    1    3    3    0  502  0.26865315368E+03  0.72395543948E+03 -0.64324576829E+03  0.10050129969E+04  0.10100000352E+00 0. -1.
</event>
<event>
 5   0  0.2910126E-05  0.2300053E+04  0.7818609E-02  0.8477900E-01
       -2   -1    0    0    0  501  0.00000000000E+00  0.00000000000E+00  0.10461501579E+04  0.10461501579E+04  0.25500000920E-02 0. -1.
        2   -1    0    0  501    0  0.00000000000E+00  0.00000000000E+00 -0.12642166483E+04  0.12642166483E+04  0.25500000920E-02 0.  1.
    10030    2    1    2    0    0  0.00000000000E+00  0.00000000000E+00 -0.21806649043E+03  0.23103668062E+04  0.23000525614E+04 0.  0.
        5    1    3    3  502    0 -0.55444153818E+03 -0.92190587227E+03  0.29926524099E+03  0.11166457052E+04  0.46999998093E+01 0. -1.
       -5    1    3    3    0  502  0.55444153818E+03  0.92190587227E+03 -0.51733173142E+03  0.11937211010E+04  0.46999998093E+01 0.  1.
</event>
<event>
 5   0  0.2910126E-05  0.2326938E+04  0.7818609E-02  0.8467375E-01
       -2   -1    0    0    0  501  0.00000000000E+00  0.00000000000E+00  0.81614274741E+03  0.81614274741E+03  0.25500000920E-02 0.  1.
        2   -1    0    0  501    0  0.00000000000E+00  0.00000000000E+00 -0.16586075848E+04  0.16586075848E+04  0.25500000920E-02 0. -1.
    10030    2    1    2    0    0  0.00000000000E+00  0.00000000000E+00 -0.84246483741E+03  0.24747503322E+04  0.23269383758E+04 0.  0.
        5    1    3    3  502    0 -0.21153182595E+03 -0.97459621162E+03  0.21604272815E+03  0.10204313007E+04  0.46999998093E+01 0.  1.
       -5    1    3    3    0  502  0.21153182595E+03  0.97459621162E+03 -0.10585075656E+04  0.14543190315E+04  0.46999998093E+01 0. -1.
</event>
<event>
 5   0  0.1327820E-05  0.2295967E+04  0.7818609E-02  0.8479513E-01
        1   -1    0    0  501    0  0.00000000000E+00  0.00000000000E+00  0.18835629920E+04  0.18835629920E+04  0.50400001928E-02 0. -1.
       -1   -1    0    0    0  501  0.00000000000E+00  0.00000000000E+00 -0.69966654317E+03  0.69966654319E+03  0.50400001928E-02 0.  1.
    10030    2    1    2    0    0  0.00000000000E+00  0.00000000000E+00  0.11838964489E+04  0.25832295352E+04  0.22959669053E+04 0.  0.
        1    1    3    3  502    0 -0.72581907710E+03 -0.13148346624E+02  0.15925300595E+04  0.17501823340E+04  0.50400001928E-02 0. -1.
       -1    1    3    3    0  502  0.72581907710E+03  0.13148346624E+02 -0.40863361066E+03  0.83304720124E+03  0.50400001928E-02 0.  1.
</event>
<event>
 5   0  0.2816178E-05  0.2300457E+04  0.7818609E-02  0.8477741E-01
        2   -1    0    0  501    0  0.00000000000E+00  0.00000000000E+00  0.54874462887E+03  0.54874462887E+03  0.25500000920E-02 0. -1.
       -2   -1    0    0    0  501  0.00000000000E+00  0.00000000000E+00 -0.24110051131E+04  0.24110051131E+04  0.25500000920E-02 0.  1.
    10030    2    1    2    0    0  0.00000000000E+00  0.00000000000E+00 -0.18622604843E+04  0.29597497420E+04  0.23004574380E+04 0.  0.
        1    1    3    3  502    0  0.35424792549E+03  0.61864139910E+02  0.47456029498E+03  0.59542105952E+03  0.50400001928E-02 0. -1.
       -1    1    3    3    0  502 -0.35424792549E+03 -0.61864139910E+02 -0.23368207792E+04  0.23643286825E+04  0.50400001928E-02 0.  1.
</event>
<event>
 5   0  0.2816178E-05  0.2076764E+04  0.7818609E-02  0.8571549E-01
        2   -1    0    0  501    0  0.00000000000E+00  0.00000000000E+00  0.23519431225E+04  0.23519431225E+04  0.25500000920E-02 0. -1.
       -2   -1    0    0    0  501  0.00000000000E+00  0.00000000000E+00 -0.45844508683E+03  0.45844508683E+03  0.25500000920E-02 0.  1.
    10030    2    1    2    0    0  0.00000000000E+00  0.00000000000E+00  0.18934980357E+04  0.28103882094E+04  0.20767636062E+04 0.  0.
        1    1    3    3  502    0  0.50095656257E+03 -0.77404578642E+03  0.15931064491E+04  0.18406771893E+04  0.50400001928E-02 0.  1.
       -1    1    3    3    0  502 -0.50095656257E+03  0.77404578642E+03  0.30039158658E+03  0.96971102003E+03  0.50400001928E-02 0. -1.
</event>
<event>
 5   0  0.1371753E-05  0.2294619E+04  0.7818609E-02  0.8480046E-01
       -1   -1    0    0    0  501  0.00000000000E+00  0.00000000000E+00  0.88927086676E+03  0.88927086677E+03  0.50400001928E-02 0.  1.
        1   -1    0    0  501    0  0.00000000000E+00  0.00000000000E+00 -0.14802226450E+04  0.14802226450E+04  0.50400001928E-02 0. -1.
    10030    2    1    2    0    0  0.00000000000E+00  0.00000000000E+00 -0.59095177827E+03  0.23694935118E+04  0.22946188133E+04 0.  0.
        3    1    3    3  502    0  0.36803274836E+03 -0.10431535161E+04 -0.60988010435E+03  0.12631591800E+04  0.10100000352E+00 0. -1.
       -3    1    3    3    0  502 -0.36803274836E+03  0.10431535161E+04  0.18928326081E+02  0.11063343318E+04  0.10100000352E+00 0.  1.
</event>
<event>
 5   0  0.2994157E-05  0.2450822E+04  0.7818609E-02  0.8420718E-01
       -2   -1    0    0    0  501  0.00000000000E+00  0.00000000000E+00  0.85868524569E+03  0.85868524569E+03  0.25500000920E-02 0.  1.
        2   -1    0    0  501    0  0.00000000000E+00  0.00000000000E+00 -0.17487575923E+04  0.17487575923E+04  0.25500000920E-02 0. -1.
    10030    2    1    2    0    0  0.00000000000E+00  0.00000000000E+00 -0.89007234664E+03  0.26074428380E+04  0.24508221827E+04 0.  0.
        4    1    3    3  502    0 -0.19703087774E+03  0.41220850058E+03 -0.16547549064E+04  0.17166689919E+04  0.12699999809E+01 0. -1.
       -4    1    3    3    0  502  0.19703087774E+03 -0.41220850058E+03  0.76468255977E+03  0.89077384607E+03  0.12699999809E+01 0.  1.
</event>
<event>
 5   0  0.1303224E-05  0.2295040E+04  0.7818609E-02  0.8479879E-01
       -1   -1    0    0    0  501  0.00000000000E+00  0.00000000000E+00  0.12218131329E+04  0.12218131329E+04  0.50400001928E-02 0. -1.
        1   -1    0    0  501    0  0.00000000000E+00  0.00000000000E+00 -0.10777443222E+04  0.10777443222E+04  0.50400001928E-02 0.  1.
    10030    2    1    2    0    0  0.00000000000E+00  0.00000000000E+00  0.14406881065E+03  0.22995574551E+04  0.22950400142E+04 0.  0.
        2    1    3    3  502    0 -0.15714572502E+03  0.73095115449E+03 -0.80020640674E+03  0.10951322580E+04  0.25500000920E-02 0.  1.
       -2    1    3    3    0  502  0.15714572502E+03 -0.73095115449E+03  0.94427521739E+03  0.12044251971E+04  0.25500000920E-02 0. -1.
</event>
<event>
 5   0  0.2938972E-05  0.2300538E+04  0.7818609E-02  0.8477709E-01
        2   -1    0    0  501    0  0.00000000000E+00  0.00000000000E+00  0.53635514302E+03  0.53635514302E+03  0.25500000920E-02 0. -1.
       -2   -1    0    0    0  501  0.00000000000E+00  0.00000000000E+00 -0.24668702013E+04  0.24668702013E+04  0.25500000920E-02 0.  1.
    10030    2    1    2    0    0  0.00000000000E+00  0.00000000000E+00 -0.19305150583E+04  0.30032253444E+04  0.23005377803E+04 0.  0.
        2    1    3    3  502    0  0.75750079113E+03  0.34699287478E+03  0.70008039627E+02  0.83612955295E+03  0.25500000920E-02 0. -1.
       -2    1    3    3    0  502 -0.75750079113E+03 -0.34699287478E+03 -0.20005230979E+04  0.21670957914E+04  0.25500000920E-02 0.  1.
</event>
<event>
 5   0  0.1327820E-05  0.2318762E+04  0.7818609E-02  0.8470560E-01
       -1   -1    0    0    0  501  0.00000000000E+00  0.00000000000E+00  0.19420305485E+04  0.19420305485E+04  0.50400001928E-02 0. -1.
        1   -1    0    0  501    0  0.00000000000E+00  0.00000000000E+00 -0.69214369515E+03  0.69214369516E+03  0.50400001928E-02 0.  1.
    10030    2    1    2    0    0  0.00000000000E+00  0.00000000000E+00  0.12498868533E+04  0.26341742436E+04  0.23187619110E+04 0.  0.
        1    1    3    3  502    0 -0.20211410997E+03 -0.11339301273E+04  0.77529662277E+03  0.13884280681E+04  0.50400001928E-02 0. -1.
       -1    1    3    3    0  502  0.20211410997E+03  0.11339301273E+04  0.47459023056E+03  0.12457461756E+04  0.50400001928E-02 0.  1.
</event>
<event>
 5   0  0.2938972E-05  0.2299733E+04  0.7818609E-02  0.8478026E-01
        2   -1    0    0  501    0  0.00000000000E+00  0.00000000000E+00  0.19276168262E+04  0.19276168262E+04  0.25500000920E-02 0. -1.
       -2   -1    0    0    0  501  0.00000000000E+00  0.00000000000E+00 -0.68592121733E+03  0.68592121734E+03  0.25500000920E-02 0.  1.
    10030    2    1    2    0    0  0.00000000000E+00  0.00000000000E+00  0.12416956088E+04  0.26135380435E+04  0.22997332715E+04 0.  0.
        2    1    3    3  502    0  0.26983554368E+03  0.84030031535E+03 -0.21680142445E+03  0.90880069227E+03  0.25500000920E-02 0.  1.
       -2    1    3    3    0  502 -0.26983554368E+03 -0.84030031535E+03  0.14584970333E+04  0.17047373512E+04  0.25500000920E-02 0. -1.
</event>
<event>
 5   0  0.2910126E-05  0.2319360E+04  0.7818609E-02  0.8470327E-01
       -2   -1    0    0    0  501  0.00000000000E+00  0.00000000000E+00  0.12384172643E+04  0.12384172643E+04  0.25500000920E-02 0.  1.
        2   -1    0    0  501    0  0.00000000000E+00  0.00000000000E+00 -0.10859485442E+04  0.10859485443E+04  0.25500000920E-02 0. -1.
    10030    2    1    2    0    0  0.00000000000E+00  0.00000000000E+00  0.15246872008E+03  0.23243658086E+04  0.23193597611E+04 0.  0.
        5    1    3    3  502    0 -0.10806818477E+04  0.15969912952E+03 -0.31378202487E+03  0.11365994532E+04  0.46999998093E+01 0. -1.
       -5    1    3    3    0  502  0.10806818477E+04 -0.15969912952E+03  0.46625074494E+03  0.11877663554E+04  0.46999998093E+01 0.  1.
</event>
<event>
 5   0  0.2910126E-05  0.2307856E+04  0.7818609E-02  0.8474830E-01
        2   -1    0    0  501    0  0.00000000000E+00  0.00000000000E+00  0.23137878557E+04  0.23137878557E+04  0.25500000920E-02 0. -1.
       -2   -1    0    0    0  501  0.00000000000E+00  0.00000000000E+00 -0.57548482932E+03  0.57548482933E+03  0.25500000920E-02 0.  1.
    10030    2    1    2    0    0  0.00000000000E+00  0.00000000000E+00  0.17383030264E+04  0.28892726851E+04  0.23078559827E+04 0.  0.
        5    1    3    3  502    0  0.55297680558E+03  0.96667110746E+03  0.12474151753E+04  0.16722150242E+04  0.46999998093E+01 0.  1.
       -5    1    3    3    0  502 -0.55297680558E+03 -0.96667110746E+03  0.49088785107E+03  0.12170576609E+04  0.46999998093E+01 0. -1.
</event>
<event>
 5   0  0.2910126E-05  0.2294921E+04  0.7818609E-02  0.8479926E-01
        2   -1    0    0  501    0  0.00000000000E+00  0.00000000000E+00  0.23262865673E+04  0.23262865673E+04  0.25500000920E-02 0.  1.
       -2   -1    0    0    0  501  0.00000000000E+00  0.00000000000E+00 -0.56599462994E+03  0.56599462995E+03  0.25500000920E-02 0. -1.
    10030    2    1    2    0    0  0.00000000000E+00  0.00000000000E+00  0.17602919374E+04  0.28922811973E+04  0.22949210922E+04 0.  0.
        5    1    3    3  502    0 -0.29871336192E+03 -0.11033289259E+04  0.10066738664E+04  0.15231476470E+04  0.46999998093E+01 0.  1.
       -5    1    3    3    0  502  0.29871336192E+03  0.11033289259E+04  0.75361807101E+03  0.13691335502E+04  0.46999998093E+01 0. -1.
</event>
<event>
 5   0  0.1327820E-05  0.2291133E+04  0.7818609E-02  0.8481426E-01
       -1   -1    0    0    0  501  0.00000000000E+00  0.00000000000E+00  0.74430308375E+03  0.74430308376E+03  0.50400001928E-02 0. -1.
        1   -1    0    0  501    0  0.00000000000E+00  0.00000000000E+00 -0.17631556101E+04  0.17631556101E+04  0.50400001928E-02 0.  1.
    10030    2    1    2    0    0  0.00000000000E+00  0.00000000000E+00 -0.10188525263E+04  0.25074586938E+04  0.22911326088E+04 0.  0.
        1    1    3    3  502    0  0.67169937091E+03 -0.72644921231E+03  0.12251287280E+03  0.99695431539E+03  0.50400001928E-02 0. -1.
       -1    1    3    3    0  502 -0.67169937091E+03  0.72644921231E+03 -0.11413653991E+04  0.15105043784E+04  0.50400001928E-02 0.  1.
</event>
<event>
 5   0  0.1371753E-05  0.2298330E+04  0.7818609E-02  0.8478580E-01
        1   -1    0    0  501    0  0.00000000000E+00  0.00000000000E+00  0.12790401492E+04  0.12790401492E+04  0.50400001928E-02 0.  1.
       -1   -1    0    0    0  501  0.00000000000E+00  0.00000000000E+00 -0.10324772120E+04  0.10324772120E+04  0.50400001928E-02 0. -1.
    10030    2    1    2    0    0  0.00000000000E+00  0.00000000000E+00  0.24656293713E+03  0.23115173612E+04  0.22983296607E+04 0.  0.
        3    1    3    3  502    0  0.37802153801E+03  0.57717402069E+03  0.10475484414E+04  0.12543475917E+04  0.10100000352E+00 0.  1.
       -3    1    3    3    0  502 -0.37802153801E+03 -0.57717402069E+03 -0.80098550430E+03  0.10571697696E+04  0.10100000352E+00 0. -1.
</event>
<event>
 5   0  0.1371753E-05  0.2290713E+04  0.7818609E-02  0.8481592E-01
        1   -1    0    0  501    0  0.00000000000E+00  0.00000000000E+00  0.10317108823E+04  0.10317108823E+04  0.50400001928E-02 0. -1.
       -1   -1    0    0    0  501  0.00000000000E+00  0.00000000000E+00 -0.12715201274E+04  0.12715201275E+04  0.50400001928E-02 0.  1.
    10030    2    1    2    0    0  0.00000000000E+00  0.00000000000E+00 -0.23980924515E+03  0.23032310098E+04  0.22907126861E+04 0.  0.
        3    1    3    3  502    0  0.35681357986E+03 -0.77982284379E+03  0.64345545930E+03  0.10721355030E+04  0.10100000352E+00 0. -1.
       -3    1    3    3    0  502 -0.35681357986E+03  0.77982284379E+03 -0.88326470445E+03  0.12310955068E+04  0.10100000352E+00 0.  1.
</event>
<event>
 5   0  0.2816178E-05  0.2181063E+04  0.7818609E-02  0.8526352E-01
        2   -1    0    0  501    0  0.00000000000E+00  0.00000000000E+00  0.12594289595E+04  0.12594289595E+04  0.25500000920E-02 0. -1.
       -2   -1    0    0    0  501  0.00000000000E+00  0.00000000000E+00 -0.94428415661E+03  0.94428415661E+03  0.25500000920E-02 0.  1.
    10030    2    1    2    0    0  0.00000000000E+00  0.00000000000E+00  0.31514480289E+03  0.22037131161E+04  0.21810628719E+04 0.  0.
        1    1    3    3  502    0  0.53420906667E+03 -0.59037657480E+03 -0.59537456690E+03  0.99418041719E+03  0.50400001928E-02 0.  1.
       -1    1    3    3    0  502 -0.53420906667E+03  0.59037657480E+03  0.91051936978E+03  0.12095326989E+04  0.50400001928E-02 0. -1.
</event>
<event>
 5   0  0.1308224E-05  0.2289651E+04  0.7818609E-02  0.8482013E-01
        1   -1    0    0  501    0  0.00000000000E+00  0.00000000000E+00  0.15572932753E+04  0.15572932753E+04  0.50400001928E-02 0. -1.
       -1   -1    0    0    0  501  0.00000000000E+00  0.00000000000E+00 -0.84160506202E+03  0.84160506204E+03  0.50400001928E-02 0.  1.
    10030    2    1    2    0    0  0.00000000000E+00  0.00000000000E+00  0.71568821323E+03  0.23988983373E+04  0.22896514176E+04 0.  0.
        5    1    3    3  502    0  0.94409830941E+03 -0.80813937312E+02 -0.31526691338E+03  0.99863297910E+03  0.46999998093E+01 0.  1.
       -5    1    3    3    0  502 -0.94409830941E+03  0.80813937312E+02  0.10309551266E+04  0.14002653582E+04  0.46999998093E+01 0. -1.
</event>
<event>
 5   0  0.2816178E-05  0.2299084E+04  0.7818609E-02  0.8478283E-01
        2   -1    0    0  501    0  0.00000000000E+00  0.00000000000E+00  0.19172653028E+04  0.19172653028E+04  0.25500000920E-02 0. -1.
       -2   -1    0    0    0  501  0.00000000000E+00  0.00000000000E+00 -0.68923499961E+03  0.68923499962E+03  0.25500000920E-02 0.  1.
    10030    2    1    2    0    0  0.00000000000E+00  0.00000000000E+00  0.12280303032E+04  0.26065003025E+04  0.22990836003E+04 0.  0.
        1    1    3    3  502    0 -0.56010053689E+02 -0.10638152203E+04  0.11037559500E+04  0.15339873357E+04  0.50400001928E-02 0. -1.
       -1    1    3    3    0  502  0.56010053689E+02  0.10638152203E+04  0.12427435325E+03  0.10725129668E+04  0.50400001928E-02 0.  1.
</event>
<event>
 5   0  0.2871888E-05  0.2304277E+04  0.7818609E-02  0.8476237E-01
        2   -1    0    0  501    0  0.00000000000E+00  0.00000000000E+00  0.21560345082E+04  0.21560345082E+04  0.25500000920E-02 0. -1.
       -2   -1    0    0    0  501  0.00000000000E+00  0.00000000000E+00 -0.61567786061E+03  0.61567786062E+03  0.25500000920E-02 0.  1.
    10030    2    1    2    0    0  0.00000000000E+00  0.00000000000E+00  0.15403566476E+04  0.27717123688E+04  0.23042766443E+04 0.  0.
        3    1    3    3  502    0 -0.24109858781E+03  0.36369794951E+03 -0.51243931259E+03  0.67305184556E+03  0.10100000352E+00 0.  1.
       -3    1    3    3    0  502  0.24109858781E+03 -0.36369794951E+03  0.20527959601E+04  0.20986605232E+04  0.10100000352E+00 0. -1.
</event>
<event>
 5   0  0.2938972E-05  0.2283603E+04  0.7818609E-02  0.8484414E-01
        2   -1    0    0  501    0  0.00000000000E+00  0.00000000000E+00  0.16161233566E+04  0.16161233566E+04  0.25500000920E-02 0.  1.
       -2   -1    0    0    0  501  0.00000000000E+00  0.00000000000E+00 -0.80669003030E+03  0.80669003030E+03  0.25500000920E-02 0. -1.
    10030    2    1    2    0    0  0.00000000000E+00  0.00000000000E+00  0.80943332627E+03  0.24228133869E+04  0.22836029423E+04 0.  0.
        2    1    3    3  502    0 -0.70594830888E+03 -0.92338975568E+01 -0.54735153712E+03  0.89333195671E+03  0.25500000920E-02 0. -1.
       -2    1    3    3    0  502  0.70594830888E+03  0.92338975568E+01  0.13567848634E+04  0.15294814302E+04  0.25500000920E-02 0.  1.
</event>
<event>
 5   0  0.1303224E-05  0.2237575E+04  0.7818609E-02  0.8502949E-01
       -1   -1    0    0    0  501  0.00000000000E+00  0.00000000000E+00  0.41900123116E+03  0.41900123119E+03  0.50400001928E-02 0. -1.
        1   -1    0    0  501    0  0.00000000000E+00  0.00000000000E+00 -0.29873085641E+04  0.29873085641E+04  0.50400001928E-02 0.  1.
    10030    2    1    2    0    0  0.00000000000E+00  0.00000000000E+00 -0.25683073329E+04  0.34063097953E+04  0.22375754434E+04 0.  0.
        2    1    3    3  502    0  0.10612225895E+04  0.44909428108E+01 -0.18233917814E+04  0.21097324810E+04  0.25500000920E-02 0.  1.
       -2    1    3    3    0  502 -0.10612225895E+04 -0.44909428108E+01 -0.74491555150E+03  0.12965773142E+04  0.25500000920E-02 0. -1.
</event>
<event>
 5   0  0.2910126E-05  0.2291496E+04  0.7818609E-02  0.8481282E-01
        2   -1    0    0  501    0  0.00000000000E+00  0.00000000000E+00  0.17834396910E+04  0.17834396910E+04  0.25500000920E-02 0. -1.
       -2   -1    0    0    0  501  0.00000000000E+00  0.00000000000E+00 -0.73607101183E+03  0.73607101183E+03  0.25500000920E-02 0.  1.
    10030    2    1    2    0    0  0.00000000000E+00  0.00000000000E+00  0.10473686792E+04  0.25195107028E+04  0.22914958066E+04 0.  0.
        5    1    3    3  502    0 -0.91745862582E+03  0.62155620508E+03  0.20377997243E+03  0.11267700801E+04  0.46999998093E+01 0.  1.
       -5    1    3    3    0  502  0.91745862582E+03 -0.62155620508E+03  0.84358870673E+03  0.13927406228E+04  0.46999998093E+01 0. -1.
</event>
<event>
 5   0  0.2910126E-05  0.2294976E+04  0.7818609E-02  0.8479905E-01
       -2   -1    0    0    0  501  0.00000000000E+00  0.00000000000E+00  0.55359817543E+03  0.55359817543E+03  0.25500000920E-02 0.  1.
        2   -1    0    0  501    0  0.00000000000E+00  0.00000000000E+00 -0.23784922914E+04  0.23784922914E+04  0.25500000920E-02 0. -1.
    10030    2    1    2    0    0  0.00000000000E+00  0.00000000000E+00 -0.18248941160E+04  0.29320904669E+04  0.22949762463E+04 0.  0.
        5    1    3    3  502    0  0.64801462804E+03  0.28552324850E+02  0.29688507459E+03  0.71337299565E+03  0.46999998093E+01 0.  1.
       -5    1    3    3    0  502 -0.64801462804E+03 -0.28552324850E+02 -0.21217791906E+04  0.22187174712E+04  0.46999998093E+01 0. -1.
</event>
<event>
 5   0  0.2816178E-05  0.2297338E+04  0.7818609E-02  0.8478971E-01
       -2   -1    0    0    0  501  0.00000000000E+00  0.00000000000E+00  0.13301989434E+04  0.13301989434E+04  0.25500000920E-02 0.  1.
        2   -1    0    0  501    0  0.00000000000E+00  0.00000000000E+00 -0.99191224088E+03  0.99191224089E+03  0.25500000920E-02 0. -1.
    10030    2    1    2    0    0  0.00000000000E+00  0.00000000000E+00  0.33828670252E+03  0.23221111843E+04  0.22973381247E+04 0.  0.
        1    1    3    3  502    0  0.95780730109E+03  0.57604432164E+03 -0.98702281853E+02  0.11220356621E+04  0.50400001928E-02 0. -1.
       -1    1    3    3    0  502 -0.95780730109E+03 -0.57604432164E+03  0.43698898437E+03  0.12000755222E+04  0.50400001928E-02 0.  1.
</event>
<event>
 5   0  0.2994157E-05  0.2342840E+04  0.7818609E-02  0.8461219E-01
       -2   -1    0    0    0  501  0.00000000000E+00  0.00000000000E+00  0.13363745721E+04  0.13363745721E+04  0.25500000920E-02 0. -1.
        2   -1    0    0  501    0  0.00000000000E+00  0.00000000000E+00 -0.10268261578E+04  0.10268261578E+04  0.25500000920E-02 0.  1.
    10030    2    1    2    0    0  0.00000000000E+00  0.00000000000E+00  0.30954841432E+03  0.23632007298E+04  0.23428396165E+04 0.  0.
        4    1    3    3  502    0 -0.49902794726E+03  0.55005787747E+03 -0.75898506926E+03  0.10619098403E+04  0.12699999809E+01 0.  1.
       -4    1    3    3    0  502  0.49902794726E+03 -0.55005787747E+03  0.10685334836E+04  0.13012908895E+04  0.12699999809E+01 0. -1.
</event>
<event>
 5   0  0.1303224E-05  0.2284209E+04  0.7818609E-02  0.8484173E-01
        1   -1    0    0  501    0  0.00000000000E+00  0.00000000000E+00  0.24845665824E+04  0.24845665824E+04  0.50400001928E-02 0.  1.
       -1   -1    0    0    0  501  0.00000000000E+00  0.00000000000E+00 -0.52500232974E+03  0.52500232976E+03  0.50400001928E-02 0. -1.
    10030    2    1    2    0    0  0.00000000000E+00  0.00000000000E+00  0.19595642526E+04  0.30095689121E+04  0.22842094862E+04 0.  0.
        2    1    3    3  502    0 -0.75188715397E+03  0.13453943919E+03  0.20985149573E+04  0.22332040164E+04  0.25500000920E-02 0.  1.
       -2    1    3    3    0  502  0.75188715397E+03 -0.13453943919E+03 -0.13895070463E+03  0.77636489574E+03  0.25500000920E-02 0. -1.
</event>
<event>
 5   0  0.1303224E-05  0.2350865E+04  0.7818609E-02  0.8458131E-01
        1   -1    0    0  501    0  0.00000000000E+00  0.00000000000E+00  0.12588177160E+04  0.12588177160E+04  0.50400001928E-02 0.  1.
       -1   -1    0    0    0  501  0.00000000000E+00  0.00000000000E+00 -0.10975711409E+04  0.10975711409E+04  0.50400001928E-02 0. -1.
    10030    2    1    2    0    0  0.00000000000E+00  0.00000000000E+00  0.16124657511E+03  0.23563888568E+04  0.23508653697E+04 0.  0.
        2    1    3    3  502    0  0.31681582222E+03  0.11278622895E+04  0.17674640083E+03  0.11847720876E+04  0.25500000920E-02 0.  1.
       -2    1    3    3    0  502 -0.31681582222E+03 -0.11278622895E+04 -0.15499825712E+02  0.11716167692E+04  0.25500000920E-02 0. -1.
</event>
<event>
 5   0  0.2910126E-05  0.2306569E+04  0.7818609E-02  0.8475336E-01
       -2   -1    0    0    0  501  0.00000000000E+00  0.00000000000E+00  0.19593766123E+04  0.19593766123E+04  0.25500000920E-02 0.  1.
        2   -1    0    0  501    0  0.00000000000E+00  0.00000000000E+00 -0.67882053920E+03  0.67882053920E+03  0.25500000920E-02 0. -1.
    10030    2    1    2    0    0  0.00000000000E+00  0.00000000000E+00  0.12805560731E+04  0.26381971515E+04  0.23065689571E+04 0.  0.
        5    1    3    3  502    0 -0.19430481932E+03  0.17502004118E+03 -0.64445055626E+03  0.69550340551E+03  0.46999998093E+01 0. -1.
       -5    1    3    3    0  502  0.19430481932E+03 -0.17502004118E+03  0.19250066294E+04  0.19426937460E+04  0.46999998093E+01 0.  1.
</event>
<event>
 5   0  0.2871888E-05  0.2301218E+04  0.7818609E-02  0.8477441E-01
        2   -1    0    0  501    0  0.00000000000E+00  0.00000000000E+00  0.18838785820E+04  0.18838785820E+04  0.25500000920E-02 0. -1.
       -2   -1    0    0    0  501  0.00000000000E+00  0.00000000000E+00 -0.70275302833E+03  0.70275302834E+03  0.25500000920E-02 0.  1.
    10030    2    1    2    0    0  0.00000000000E+00  0.00000000000E+00  0.11811255537E+04  0.25866316104E+04  0.23012182674E+04 0.  0.
        3    1    3    3  502    0  0.66995792737E+03  0.21885787065E+03  0.16128460653E+04  0.17601178462E+04  0.10100000352E+00 0. -1.
       -3    1    3    3    0  502 -0.66995792737E+03 -0.21885787065E+03 -0.43172051161E+03  0.82651376415E+03  0.10100000352E+00 0.  1.
</event>
<event>
 5   0  0.1303224E-05  0.2312697E+04  0.7818609E-02  0.8472932E-01
       -1   -1    0    0    0  501  0.00000000000E+00  0.00000000000E+00  0.12647773340E+04  0.12647773340E+04  0.50400001928E-02 0. -1.
        1   -1    0    0  501    0  0.00000000000E+00  0.00000000000E+00 -0.10572148466E+04  0.10572148466E+04  0.50400001928E-02 0.  1.
    10030    2    1    2    0    0  0.00000000000E+00  0.00000000000E+00  0.20756248732E+03  0.23219921806E+04  0.23126965864E+04 0.  0.
        2    1    3    3  502    0 -0.11429971538E+04 -0.17356480931E+03  0.79723744483E+02  0.11588455945E+04  0.25500000920E-02 0.  1.
       -2    1    3    3    0  502  0.11429971538E+04  0.17356480931E+03  0.12783874284E+03  0.11631465861E+04  0.25500000920E-02 0. -1.
</event>
<event>
 5   0  0.2994157E-05  0.2304225E+04  0.7818609E-02  0.8476257E-01
       -2   -1    0    0    0  501  0.00000000000E+00  0.00000000000E+00  0.68184376683E+03  0.68184376684E+03  0.25500000920E-02 0. -1.
        2   -1    0    0  501    0  0.00000000000E+00  0.00000000000E+00 -0.19467262114E+04  0.19467262114E+04  0.25500000920E-02 0.  1.
    10030    2    1    2    0    0  0.00000000000E+00  0.00000000000E+00 -0.12648824446E+04  0.26285699783E+04  0.23042249308E+04 0.  0.
        4    1    3    3  502    0  0.81831838827E+03  0.19116352806E+03 -0.15315266768E+04  0.17469298938E+04  0.12699999809E+01 0.  1.
       -4    1    3    3    0  502 -0.81831838827E+03 -0.19116352806E+03  0.26664423225E+03  0.88164008447E+03  0.12699999809E+01 0. -1.
</event>
<event>
 5   0  0.1284837E-05  0.2363214E+04  0.7818609E-02  0.8453406E-01
       -1   -1    0    0    0  501  0.00000000000E+00  0.00000000000E+00  0.97861466676E+03  0.97861466677E+03  0.50400001928E-02 0. -1.
        1   -1    0    0  501    0  0.00000000000E+00  0.00000000000E+00 -0.14267051738E+04  0.14267051739E+04  0.50400001928E-02 0.  1.
    10030    2    1    2    0    0  0.00000000000E+00  0.00000000000E+00 -0.44809050709E+03  0.24053198406E+04  0.23632135818E+04 0.  0.
        4    1    3    3  502    0  0.27395367808E+03  0.57700531489E+03  0.78775288556E+03  0.10141705837E+04  0.12699999809E+01 0. -1.
       -4    1    3    3    0  502 -0.27395367808E+03 -0.57700531489E+03 -0.12358433926E+04  0.13911492570E+04  0.12699999809E+01 0.  1.
</event>
<event>
 5   0  0.1371753E-05  0.2246189E+04  0.7818609E-02  0.8499446E-01
        1   -1    0    0  501    0  0.00000000000E+00  0.00000000000E+00  0.21740181461E+04  0.21740181461E+04  0.50400001928E-02 0.  1.
       -1   -1    0    0    0  501  0.00000000000E+00  0.00000000000E+00 -0.58018885867E+03  0.58018885869E+03  0.50400001928E-02 0. -1.
    10030    2    1    2    0    0  0.00000000000E+00  0.00000000000E+00  0.15938292874E+04  0.27542070048E+04  0.22461888674E+04 0.  0.
        3    1    3    3  502    0  0.69211007462E+03  0.53070757125E+03 -0.70702092516E+02  0.87502324407E+03  0.10100000352E+00 0. -1.
       -3    1    3    3    0  502 -0.69211007462E+03 -0.53070757125E+03  0.16645313800E+04  0.18791837607E+04  0.10100000352E+00 0.  1.
</event>
<event>
 5   0  0.2816178E-05  0.2304032E+04  0.7818609E-02  0.8476333E-01
       -2   -1    0    0    0  501  0.00000000000E+00  0.00000000000E+00  0.66742234726E+03  0.66742234727E+03  0.25500000920E-02 0.  1.
        2   -1    0    0  501    0  0.00000000000E+00  0.00000000000E+00 -0.19884567631E+04  0.19884567631E+04  0.25500000920E-02 0. -1.
    10030    2    1    2    0    0  0.00000000000E+00  0.00000000000E+00 -0.13210344158E+04  0.26558791103E+04  0.23040316667E+04 0.  0.
        1    1    3    3  502    0 -0.10837366679E+03 -0.71461475223E+02 -0.19799989584E+04  0.19842498506E+04  0.50400001928E-02 0. -1.
       -1    1    3    3    0  502  0.10837366679E+03  0.71461475223E+02  0.65896454263E+03  0.67162925976E+03  0.50400001928E-02 0.  1.
</event>
<event>
 5   0  0.1303224E-05  0.2308907E+04  0.7818609E-02  0.8474418E-01
       -1   -1    0    0    0  501  0.00000000000E+00  0.00000000000E+00  0.13921067442E+04  0.13921067442E+04  0.50400001928E-02 0.  1.
        1   -1    0    0  501    0  0.00000000000E+00  0.00000000000E+00 -0.95737104209E+03  0.95737104210E+03  0.50400001928E-02 0. -1.
    10030    2    1    2    0    0  0.00000000000E+00  0.00000000000E+00  0.43473570215E+03  0.23494777863E+04  0.23089068274E+04 0.  0.
        2    1    3    3  502    0 -0.10180308671E+04  0.47311226859E+03  0.49143410601E+03  0.12254507520E+04  0.25500000920E-02 0. -1.
       -2    1    3    3    0  502  0.10180308671E+04 -0.47311226859E+03 -0.56698403855E+02  0.11240270344E+04  0.25500000920E-02 0.  1.
</event>
<event>
 5   0  0.2816178E-05  0.2294486E+04  0.7818609E-02  0.8480098E-01
       -2   -1    0    0    0  501  0.00000000000E+00  0.00000000000E+00  0.10884697818E+04  0.10884697818E+04  0.25500000920E-02 0.  1.
        2   -1    0    0  501    0  0.00000000000E+00  0.00000000000E+00 -0.12091897988E+04  0.12091897988E+04  0.25500000920E-02 0. -1.
    10030    2    1    2    0    0  0.00000000000E+00  0.00000000000E+00 -0.12072001704E+03  0.22976595806E+04  0.22944860483E+04 0.  0.
        1    1    3    3  502    0  0.79786553986E+03  0.18007875593E+03 -0.86592823993E+03  0.11911546897E+04  0.50400001928E-02 0. -1.
       -1    1    3    3    0  502 -0.79786553986E+03 -0.18007875593E+03  0.74520822289E+03  0.11065048909E+04  0.50400001928E-02 0.  1.
</event>
<event>
 5   0  0.2871888E-05  0.2297540E+04  0.7818609E-02  0.8478892E-01
        2   -1    0    0  501    0  0.00000000000E+00  0.00000000000E+00  0.11778711004E+04  0.11778711004E+04  0.25500000920E-02 0.  1.
       -2   -1    0    0    0  501  0.00000000000E+00  0.00000000000E+00 -0.11203878893E+04  0.11203878893E+04  0.25500000920E-02 0. -1.
    10030    2    1    2    0    0  0.00000000000E+00  0.00000000000E+00  0.57483211070E+02  0.22982589897E+04  0.22975400027E+04 0.  0.
        3    1    3    3  502    0 -0.38419327106E+02  0.94998001686E+03  0.67371809147E+03  0.11652614102E+04  0.10100000352E+00 0.  1.
       -3    1    3    3    0  502  0.38419327106E+02 -0.94998001686E+03 -0.61623488040E+03  0.11329975795E+04  0.10100000352E+00 0. -1.
</event>
<event>
 5   0  0.1327820E-05  0.2295497E+04  0.7818609E-02  0.8479699E-01
        1   -1    0    0  501    0  0.00000000000E+00  0.00000000000E+00  0.11493199168E+04  0.11493199168E+04  0.50400001928E-02 0. -1.
       -1   -1    0    0    0  501  0.00000000000E+00  0.00000000000E+00 -0.11461795948E+04  0.11461795948E+04  0.50400001928E-02 0.  1.
    10030    2    1    2    0    0  0.00000000000E+00  0.00000000000E+00  0.31403219974E+01  0.22954995116E+04  0.22954973636E+04 0.  0.
        1    1    3    3  502    0  0.89728717033E+03  0.34362480973E+02  0.71642885106E+03  0.11487277070E+04  0.50400001928E-02 0. -1.
       -1    1    3    3    0  502 -0.89728717033E+03 -0.34362480973E+02 -0.71328852906E+03  0.11467718046E+04  0.50400001928E-02 0.  1.
</event>
<event>
 5   0  0.1327820E-05  0.2290452E+04  0.7818609E-02  0.8481695E-01
       -1   -1    0    0    0  501  0.00000000000E+00  0.00000000000E+00  0.12851771335E+04  0.12851771335E+04  0.50400001928E-02 0.  1.
        1   -1    0    0  501    0  0.00000000000E+00  0.00000000000E+00 -0.10205154191E+04  0.10205154191E+04  0.50400001928E-02 0. -1.
    10030    2    1    2    0    0  0.00000000000E+00  0.00000000000E+00  0.26466171442E+03  0.23056925526E+04  0.22904524278E+04 0.  0.
        1    1    3    3  502    0 -0.58466749879E+03 -0.98441008285E+03  0.10678910047E+03  0.11499144348E+04  0.50400001928E-02 0.  1.
       -1    1    3    3    0  502  0.58466749879E+03  0.98441008285E+03  0.15787261394E+03  0.11557781178E+04  0.50400001928E-02 0. -1.
</event>
<event>
 5   0  0.2816178E-05  0.2303927E+04  0.7818609E-02  0.8476374E-01
       -2   -1    0    0    0  501  0.00000000000E+00  0.00000000000E+00  0.68399774950E+03  0.68399774950E+03  0.25500000920E-02 0. -1.
        2   -1    0    0  501    0  0.00000000000E+00  0.00000000000E+00 -0.19400937425E+04  0.19400937425E+04  0.25500000920E-02 0.  1.
    10030    2    1    2    0    0  0.00000000000E+00  0.00000000000E+00 -0.12560959930E+04  0.26240914920E+04  0.23039268683E+04 0.  0.
        1    1    3    3  502    0 -0.53265082175E+03 -0.78786726161E+03 -0.13684346885E+04  0.16664528846E+04  0.50400001928E-02 0.  1.
       -1    1    3    3    0  502  0.53265082175E+03  0.78786726161E+03  0.11233869552E+03  0.95763860739E+03  0.50400001928E-02 0. -1.
</event>
<event>
 5   0  0.1303224E-05  0.2286586E+04  0.7818609E-02  0.8483229E-01
       -1   -1    0    0    0  501  0.00000000000E+00  0.00000000000E+00  0.11422107596E+04  0.11422107596E+04  0.50400001928E-02 0. -1.
        1   -1    0    0  501    0  0.00000000000E+00  0.00000000000E+00 -0.11443766120E+04  0.11443766120E+04  0.50400001928E-02 0.  1.
    10030    2    1    2    0    0  0.00000000000E+00  0.00000000000E+00 -0.21658524277E+01  0.22865873716E+04  0.22865863458E+04 0.  0.
        2    1    3    3  502    0 -0.33158667434E+03  0.16648921297E+03 -0.10824949420E+04  0.11443179978E+04  0.25500000920E-02 0.  1.
       -2    1    3    3    0  502  0.33158667434E+03 -0.16648921297E+03  0.10803290895E+04  0.11422693738E+04  0.25500000920E-02 0. -1.
</event>
<event>
 5   0  0.1327820E-05  0.2318761E+04  0.7818609E-02  0.8470560E-01
        1   -1    0    0  501    0  0.00000000000E+00  0.00000000000E+00  0.84414726154E+03  0.84414726156E+03  0.50400001928E-02 0. -1.
       -1   -1    0    0    0  501  0.00000000000E+00  0.00000000000E+00 -0.15923331545E+04  0.15923331546E+04  0.50400001928E-02 0.  1.
    10030    2    1    2    0    0  0.00000000000E+00  0.00000000000E+00 -0.74818589300E+03  0.24364804161E+04  0.23187614555E+04 0.  0.
        1    1    3    3  502    0 -0.36292197136E+03 -0.51138991028E+03  0.65057112647E+03  0.90358994475E+03  0.50400001928E-02 0. -1.
       -1    1    3    3    0  502  0.36292197136E+03  0.51138991028E+03 -0.13987570195E+04  0.15328904714E+04  0.50400001928E-02 0.  1.
</event>
<event>
 5   0  0.2871888E-05  0.2273519E+04  0.7818609E-02  0.8488436E-01
        2   -1    0    0  501    0  0.00000000000E+00  0.00000000000E+00  0.86134142795E+03  0.86134142795E+03  0.25500000920E-02 0. -1.
       -2   -1    0    0    0  501  0.00000000000E+00  0.00000000000E+00 -0.15002443069E+04  0.15002443069E+04  0.25500000920E-02 0.  1.
    10030    2    1    2    0    0  0.00000000000E+00  0.00000000000E+00 -0.63890287894E+03  0.23615857348E+04  0.22735193631E+04 0.  0.
        3    1    3    3  502    0  0.25004594615E+03  0.11015943980E+04 -0.45161752918E+03  0.12165490519E+04  0.10100000352E+00 0.  1.
       -3    1    3    3    0  502 -0.25004594615E+03 -0.11015943980E+04 -0.18728534976E+03  0.11450366829E+04  0.10100000352E+00 0. -1.
</event>
<event>
 5   0  0.1284837E-05  0.2292893E+04  0.7818609E-02  0.8480728E-01
       -1   -1    0    0    0  501  0.00000000000E+00  0.00000000000E+00  0.52570600247E+03  0.52570600250E+03  0.50400001928E-02 0. -1.
        1   -1    0    0  501    0  0.00000000000E+00  0.00000000000E+00 -0.25001423633E+04  0.25001423633E+04  0.50400001928E-02 0.  1.
    10030    2    1    2    0    0  0.00000000000E+00  0.00000000000E+00 -0.19744363608E+04  0.30258483658E+04  0.22928932356E+04 0.  0.
        4    1    3    3  502    0 -0.18002528654E+03  0.91695532946E+03 -0.11073676252E+03  0.94099969367E+03  0.12699999809E+01 0. -1.
       -4    1    3    3    0  502  0.18002528654E+03 -0.91695532946E+03 -0.18636995983E+04  0.20848486721E+04  0.12699999809E+01 0.  1.
</event>
<event>
 5   0  0.1327820E-05  0.2305460E+04  0.7818609E-02  0.8475772E-01
       -1   -1    0    0    0  501  0.00000000000E+00  0.00000000000E+00  0.13430851400E+04  0.13430851400E+04  0.50400001928E-02 0.  1.
        1   -1    0    0  501    0  0.00000000000E+00  0.00000000000E+00 -0.98935342882E+03  0.98935342884E+03  0.50400001928E-02 0. -1.
    10030    2    1    2    0    0  0.00000000000E+00  0.00000000000E+00  0.35373171115E+03  0.23324385688E+04  0.23054595103E+04 0.  0.
        1    1    3    3  502    0 -0.60319438850E+03  0.54661140544E+03 -0.64887061336E+03  0.10409901881E+04  0.50400001928E-02 0. -1.
       -1    1    3    3    0  502  0.60319438850E+03 -0.54661140544E+03  0.10026023245E+04  0.12914483807E+04  0.50400001928E-02 0.  1.
</event>
<event>
 5   0  0.1284837E-05  0.2204984E+04  0.7818609E-02  0.8516356E-01
       -1   -1    0    0    0  501  0.00000000000E+00  0.00000000000E+00  0.98752082382E+03  0.98752082383E+03  0.50400001928E-02 0. -1.
        1   -1    0    0  501    0  0.00000000000E+00  0.00000000000E+00 -0.12308488396E+04  0.12308488396E+04  0.50400001928E-02 0.  1.
    10030    2    1    2    0    0  0.00000000000E+00  0.00000000000E+00 -0.24332801579E+03  0.22183696635E+04  0.22049842268E+04 0.  0.
        4    1    3    3  502    0 -0.60621000335E+03 -0.78380555868E+03  0.36463923357E+03  0.10558433149E+04  0.12699999809E+01 0. -1.
       -4    1    3    3    0  502  0.60621000335E+03  0.78380555868E+03 -0.60796724936E+03  0.11625263486E+04  0.12699999809E+01 0.  1.
</event>
<event>
 5   0  0.2938972E-05  0.2301192E+04  0.7818609E-02  0.8477451E-01
        2   -1    0    0  501    0  0.00000000000E+00  0.00000000000E+00  0.19245653434E+04  0.19245653434E+04  0.25500000920E-02 0. -1.
       -2   -1    0    0    0  501  0.00000000000E+00  0.00000000000E+00 -0.68788031826E+03  0.68788031826E+03  0.25500000920E-02 0.  1.
    10030    2    1    2    0    0  0.00000000000E+00  0.00000000000E+00  0.12366850251E+04  0.26124456616E+04  0.23011915356E+04 0.  0.
        2    1    3    3  502    0  0.32973395045E+03 -0.23642215799E+03  0.18406576286E+04  0.18848449328E+04  0.25500000920E-02 0. -1.
       -2    1    3    3    0  502 -0.32973395045E+03  0.23642215799E+03 -0.60397260349E+03  0.72760072886E+03  0.25500000920E-02 0.  1.
</event>
<event>
 5   0  0.2994157E-05  0.2299065E+04  0.7818609E-02  0.8478290E-01
       -2   -1    0    0    0  501  0.00000000000E+00  0.00000000000E+00  0.87347882319E+03  0.87347882320E+03  0.25500000920E-02 0. -1.
        2   -1    0    0  501    0  0.00000000000E+00  0.00000000000E+00 -0.15128302746E+04  0.15128302746E+04  0.25500000920E-02 0.  1.
    10030    2    1    2    0    0  0.00000000000E+00  0.00000000000E+00 -0.63935145138E+03  0.23863090978E+04  0.22990652082E+04 0.  0.
        4    1    3    3  502    0 -0.96001583843E+03 -0.23732104038E+03  0.28862876068E+03  0.10301746748E+04  0.12699999809E+01 0. -1.
       -4    1    3    3    0  502  0.96001583843E+03  0.23732104038E+03 -0.92798021205E+03  0.13561344230E+04  0.12699999809E+01 0.  1.
</event>
<event>
 5   0  0.2871888E-05  0.2294533E+04  0.7818609E-02  0.8480080E-01
        2   -1    0    0  501    0  0.00000000000E+00  0.00000000000E+00  0.87767527298E+03  0.87767527298E+03  0.25500000920E-02 0.  1.
       -2   -1    0    0    0  501  0.00000000000E+00  0.00000000000E+00 -0.14996672100E+04  0.14996672100E+04  0.25500000920E-02 0. -1.
    10030    2    1    2    0    0  0.00000000000E+00  0.00000000000E+00 -0.62199193698E+03  0.23773424829E+04  0.22945333538E+04 0.  0.
        3    1    3    3  502    0  0.67304309993E+03 -0.53576947717E+03  0.47546704207E+03  0.98290633599E+03  0.10100000352E+00 0.  1.
       -3    1    3    3    0  502 -0.67304309993E+03  0.53576947717E+03 -0.10974589790E+04  0.13944361470E+04  0.10100000352E+00 0. -1.
</event>
<event>
 5   0  0.1371753E-05  0.2301126E+04  0.7818609E-02  0.8477477E-01
        1   -1    0    0  501    0  0.00000000000E+00  0.00000000000E+00  0.81013017002E+03  0.81013017003E+03  0.50400001928E-02 0.  1.
       -1   -1    0    0    0  501  0.00000000000E+00  0.00000000000E+00 -0.16340518330E+04  0.16340518330E+04  0.50400001928E-02 0. -1.
    10030    2    1    2    0    0  0.00000000000E+00  0.00000000000E+00 -0.82392166297E+03  0.24441820030E+04  0.23011255414E+04 0.  0.
        3    1    3    3  502    0  0.35247841026E+03  0.10950963088E+04 -0.43089377579E+03  0.12284732034E+04  0.10100000352E+00 0. -1.
       -3    1    3    3    0  502 -0.35247841026E+03 -0.10950963088E+04 -0.39302788718E+03  0.12157087996E+04  0.10100000352E+00 0.  1.
</event>
<event>
 5   0  0.2871888E-05  0.2312571E+04  0.7818609E-02  0.8472981E-01
        2   -1    0    0  501    0  0.00000000000E+00  0.00000000000E+00  0.15343505720E+04  0.15343505720E+04  0.25500000920E-02 0. -1.
       -2   -1    0    0    0  501  0.00000000000E+00  0.00000000000E+00 -0.87137567428E+03  0.87137567428E+03  0.25500000920E-02 0.  1.
    10030    2    1    2    0    0  0.00000000000E+00  0.00000000000E+00  0.66297489771E+03  0.24057262463E+04  0.23125706599E+04 0.  0.
        3    1    3    3  502    0 -0.12251979878E+03  0.52048288551E+03 -0.73503386640E+03  0.90894902506E+03  0.10100000352E+00 0.  1.
       -3    1    3    3    0  502  0.12251979878E+03 -0.52048288551E+03  0.13980087641E+04  0.14967772212E+04  0.10100000352E+00 0. -1.
</event>
<event>
 5   0  0.2938972E-05  0.2267255E+04  0.7818609E-02  0.8490945E-01
       -2   -1    0    0    0  501  0.00000000000E+00  0.00000000000E+00  0.51468926645E+03  0.51468926645E+03  0.25500000920E-02 0. -1.
        2   -1    0    0  501    0  0.00000000000E+00  0.00000000000E+00 -0.24968679332E+04  0.24968679332E+04  0.25500000920E-02 0.  1.
    10030    2    1    2    0    0  0.00000000000E+00  0.00000000000E+00 -0.19821786668E+04  0.30115571997E+04  0.22672548379E+04 0.  0.
        2    1    3    3  502    0 -0.59931615029E+03  0.73002962137E+03 -0.18237737549E+04  0.20538436662E+04  0.25500000920E-02 0.  1.
       -2    1    3    3    0  502  0.59931615029E+03 -0.73002962137E+03 -0.15840491184E+03  0.95771353346E+03  0.25500000920E-02 0. -1.
</event>
<event>
 5   0  0.1371753E-05  0.2285770E+04  0.7818609E-02  0.8483553E-01
        1   -1    0    0  501    0  0.00000000000E+00  0.00000000000E+00  0.11571588079E+04  0.11571588079E+04  0.50400001928E-02 0. -1.
       -1   -1    0    0    0  501  0.00000000000E+00  0.00000000000E+00 -0.11287875235E+04  0.11287875235E+04  0.50400001928E-02 0.  1.
    10030    2    1    2    0    0  0.00000000000E+00  0.00000000000E+00  0.28371284446E+02  0.22859463314E+04  0.22857702641E+04 0.  0.
        3    1    3    3  502    0 -0.61111788140E+03  0.52095929282E+03 -0.79909453658E+03  0.11328794015E+04  0.10100000352E+00 0.  1.
       -3    1    3    3    0  502  0.61111788140E+03 -0.52095929282E+03  0.82746582103E+03  0.11530669299E+04  0.10100000352E+00 0. -1.
</event>
<event>
 5   0  0.2910126E-05  0.2298994E+04  0.7818609E-02  0.8478318E-01
        2   -1    0    0  501    0  0.00000000000E+00  0.00000000000E+00  0.21762542397E+04  0.21762542397E+04  0.25500000920E-02 0.  1.
       -2   -1    0    0    0  501  0.00000000000E+00  0.00000000000E+00 -0.60716379290E+03  0.60716379290E+03  0.25500000920E-02 0. -1.
    10030    2    1    2    0    0  0.00000000000E+00  0.00000000000E+00  0.15690904468E+04  0.27834180326E+04  0.22989935002E+04 0.  0.
        5    1    3    3  502    0  0.14784303219E+03  0.85706754645E+03 -0.12542220031E+03  0.87873497693E+03  0.46999998093E+01 0. -1.
       -5    1    3    3    0  502 -0.14784303219E+03 -0.85706754645E+03  0.16945126471E+04  0.19046830557E+04  0.46999998093E+01 0.  1.
</event>
<event>
 5   0  0.1017200E-05  0.2302218E+04  0.7818609E-02  0.8477047E-01
       -3   -1    0    0    0  501  0.00000000000E+00  0.00000000000E+00  0.15163520906E+04  0.15163520940E+04  0.10100000352E+00 0.  1.
        3   -1    0    0  501    0  0.00000000000E+00  0.00000000000E+00 -0.87384176005E+03  0.87384176589E+03  0.10100000352E+00 0. -1.
    10030    2    1    2    0    0  0.00000000000E+00  0.00000000000E+00  0.64251033054E+03  0.23901938599E+04  0.23022178791E+04 0.  0.
        1    1    3    3  502    0 -0.76268488647E+01  0.38028975611E+03 -0.80671184230E+03  0.89188702422E+03  0.50400001928E-02 0. -1.
       -1    1    3    3    0  502  0.76268488647E+01 -0.38028975611E+03  0.14492221728E+04  0.14983068356E+04  0.50400001928E-02 0.  1.
</event>
<event>
 5   0  0.2910126E-05  0.2287535E+04  0.7818609E-02  0.8482852E-01
       -2   -1    0    0    0  501  0.00000000000E+00  0.00000000000E+00  0.84773536168E+03  0.84773536168E+03  0.25500000920E-02 0.  1.
        2   -1    0    0  501    0  0.00000000000E+00  0.00000000000E+00 -0.15431745372E+04  0.15431745372E+04  0.25500000920E-02 0. -1.
    10030    2    1    2    0    0  0.00000000000E+00  0.00000000000E+00 -0.69543917556E+03  0.23909098989E+04  0.22875345894E+04 0.  0.
        5    1    3    3  502    0  0.74170276637E+03  0.80229424385E+03  0.57689274076E+01  0.10926364528E+04  0.46999998093E+01 0. -1.
       -5    1    3    3    0  502 -0.74170276637E+03 -0.80229424385E+03 -0.70120810297E+03  0.12982734462E+04  0.46999998093E+01 0.  1.
</event>
<event>
 5   0  0.2816178E-05  0.2310155E+04  0.7818609E-02  0.8473928E-01
        2   -1    0    0  501    0  0.00000000000E+00  0.00000000000E+00  0.22040216006E+04  0.22040216006E+04  0.25500000920E-02 0.  1.
       -2   -1    0    0    0  501  0.00000000000E+00  0.00000000000E+00 -0.60534981283E+03  0.60534981284E+03  0.25500000920E-02 0. -1.
    10030    2    1    2    0    0  0.00000000000E+00  0.00000000000E+00  0.15986717878E+04  0.28093714135E+04  0.23101550281E+04 0.  0.
        1    1    3    3  502    0  0.44701808196E+03 -0.88269252835E+03  0.15241465376E+04  0.18171389417E+04  0.50400001928E-02 0.  1.
       -1    1    3    3    0  502 -0.44701808196E+03  0.88269252835E+03  0.74525250224E+02  0.99223247183E+03  0.50400001928E-02 0. -1.
</event>
<event>
 5   0  0.2994157E-05  0.2294318E+04  0.7818609E-02  0.8480165E-01
        2   -1    0    0  501    0  0.00000000000E+00  0.00000000000E+00  0.12408991970E+04  0.12408991970E+04  0.25500000920E-02 0. -1.
       -2   -1    0    0    0  501  0.00000000000E+00  0.00000000000E+00 -0.10604997741E+04  0.10604997741E+04  0.25500000920E-02 0.  1.
    10030    2    1    2    0    0  0.00000000000E+00  0.00000000000E+00  0.18039942295E+03  0.23013989711E+04  0.22943176050E+04 0.  0.
        4    1    3    3  502    0 -0.69851833457E+02 -0.92725292153E+03 -0.58365826181E+03  0.10978778796E+04  0.12699999809E+01 0.  1.
       -4    1    3    3    0  502  0.69851833457E+02  0.92725292153E+03  0.76405768477E+03  0.12035210915E+04  0.12699999809E+01 0. -1.
</event>
<event>
 5   0  0.1371753E-05  0.2294154E+04  0.7818609E-02  0.8480229E-01
       -1   -1    0    0    0  501  0.00000000000E+00  0.00000000000E+00  0.79143182747E+03  0.79143182748E+03  0.50400001928E-02 0. -1.
        1   -1    0    0  501    0  0.00000000000E+00  0.00000000000E+00 -0.16625388473E+04  0.16625388473E+04  0.50400001928E-02 0.  1.
    10030    2    1    2    0    0  0.00000000000E+00  0.00000000000E+00 -0.87110701981E+03  0.24539706748E+04  0.22941544483E+04 0.  0.
        3    1    3    3  502    0 -0.59436510880E+02  0.19892412153E+03  0.77116722938E+03  0.79862532569E+03  0.10100000352E+00 0. -1.
       -3    1    3    3    0  502  0.59436510880E+02 -0.19892412153E+03 -0.16422742492E+04  0.16553453491E+04  0.10100000352E+00 0.  1.
</event>
<event>
 5   0  0.1284837E-05  0.2294038E+04  0.7818609E-02  0.8480276E-01
        1   -1    0    0  501    0  0.00000000000E+00  0.00000000000E+00  0.15752430726E+04  0.15752430726E+04  0.50400001928E-02 0. -1.
       -1   -1    0    0    0  501  0.00000000000E+00  0.00000000000E+00 -0.83520589861E+03  0.83520589863E+03  0.50400001928E-02 0.  1.
    10030    2    1    2    0    0  0.00000000000E+00  0.00000000000E+00  0.74003717396E+03  0.24104489712E+04  0.22940377556E+04 0.  0.
        4    1    3    3  502    0  0.94602904026E+02 -0.94849026318E+03 -0.30037590576E+03  0.99940521634E+03  0.12699999809E+01 0.  1.
       -4    1    3    3    0  502 -0.94602904026E+02  0.94849026318E+03  0.10404130797E+04  0.14110437549E+04  0.12699999809E+01 0. -1.
</event>
<event>
 5   0  0.2816178E-05  0.2325830E+04  0.7818609E-02  0.8467806E-01
        2   -1    0    0  501    0  0.00000000000E+00  0.00000000000E+00  0.21380744559E+04  0.21380744559E+04  0.25500000920E-02 0.  1.
       -2   -1    0    0    0  501  0.00000000000E+00  0.00000000000E+00 -0.63251824351E+03  0.63251824352E+03  0.25500000920E-02 0. -1.
    10030    2    1    2    0    0  0.00000000000E+00  0.00000000000E+00  0.15055562123E+04  0.27705926994E+04  0.23258298298E+04 0.  0.
        1    1    3    3  502    0 -0.33097307486E+03  0.97628082106E+03  0.11161022833E+03  0.10368819899E+04  0.50400001928E-02 0. -1.
       -1    1    3    3    0  502  0.33097307486E+03 -0.97628082106E+03  0.13939459840E+04  0.17337107095E+04  0.50400001928E-02 0.  1.
</event>
<event>
 5   0  0.1327820E-05  0.2305422E+04  0.7818609E-02  0.8475786E-01
        1   -1    0    0  501    0  0.00000000000E+00  0.00000000000E+00  0.10158716881E+04  0.10158716881E+04  0.50400001928E-02 0.  1.
       -1   -1    0    0    0  501  0.00000000000E+00  0.00000000000E+00 -0.13079826557E+04  0.13079826557E+04  0.50400001928E-02 0. -1.
    10030    2    1    2    0    0  0.00000000000E+00  0.00000000000E+00 -0.29211096767E+03  0.23238543438E+04  0.23054219123E+04 0.  0.
        1    1    3    3  502    0 -0.15582535017E+03  0.84525149710E+03  0.62820752337E+03  0.10646014867E+04  0.50400001928E-02 0.  1.
       -1    1    3    3    0  502  0.15582535017E+03 -0.84525149710E+03 -0.92031849103E+03  0.12592528571E+04  0.50400001928E-02 0. -1.
</event>
<event>
 5   0  0.2994157E-05  0.2306478E+04  0.7818609E-02  0.8475371E-01
       -2   -1    0    0    0  501  0.00000000000E+00  0.00000000000E+00  0.16698954909E+04  0.16698954909E+04  0.25500000920E-02 0.  1.
        2   -1    0    0  501    0  0.00000000000E+00  0.00000000000E+00 -0.79643351910E+03  0.79643351910E+03  0.25500000920E-02 0. -1.
    10030    2    1    2    0    0  0.00000000000E+00  0.00000000000E+00  0.87346197185E+03  0.24663290100E+04  0.23064784780E+04 0.  0.
        4    1    3    3  502    0  0.11315779034E+04 -0.12416797528E+03  0.23934964130E+03  0.11632609772E+04  0.12699999809E+01 0. -1.
       -4    1    3    3    0  502 -0.11315779034E+04  0.12416797528E+03  0.63411233054E+03  0.13030680328E+04  0.12699999809E+01 0.  1.
</event>
<event>
 5   0  0.2910126E-05  0.2293946E+04  0.7818609E-02  0.8480312E-01
       -2   -1    0    0    0  501  0.00000000000E+00  0.00000000000E+00  0.27518392657E+04  0.27518392657E+04  0.25500000920E-02 0.  1.
        2   -1    0    0  501    0  0.00000000000E+00  0.00000000000E+00 -0.47806084027E+03  0.47806084028E+03  0.25500000920E-02 0. -1.
    10030    2    1    2    0    0  0.00000000000E+00  0.00000000000E+00  0.22737784254E+04  0.32299001059E+04  0.22939455893E+04 0.  0.
        5    1    3    3  502    0  0.94037182308E+03  0.64543081572E+03  0.13072782864E+04  0.17349002022E+04  0.46999998093E+01 0. -1.
       -5    1    3    3    0  502 -0.94037182308E+03 -0.64543081572E+03  0.96650013902E+03  0.14949999038E+04  0.46999998093E+01 0.  1.
</event>
<event>
 5   0  0.2910126E-05  0.2297599E+04  0.7818609E-02  0.8478869E-01
        2   -1    0    0  501    0  0.00000000000E+00  0.00000000000E+00  0.81644428521E+03  0.81644428521E+03  0.25500000920E-02 0.  1.
       -2   -1    0    0    0  501  0.00000000000E+00  0.00000000000E+00 -0.16164482236E+04  0.16164482236E+04  0.25500000920E-02 0. -1.
    10030    2    1    2    0    0  0.00000000000E+00  0.00000000000E+00 -0.80000393841E+03  0.24328925088E+04  0.22975986721E+04 0.  0.
        5    1    3    3  502    0  0.92142870099E+03  0.52424451387E+03 -0.86861645325E+03  0.13705399645E+04  0.46999998093E+01 0. -1.
       -5    1    3    3    0  502 -0.92142870099E+03 -0.52424451387E+03  0.68612514838E+02  0.10623525444E+04  0.46999998093E+01 0.  1.
</event>
<event>
 5   0  0.1284837E-05  0.2297876E+04  0.7818609E-02  0.8478759E-01
        1   -1    0    0  501    0  0.00000000000E+00  0.00000000000E+00  0.75875991859E+03  0.75875991861E+03  0.50400001928E-02 0.  1.
       -1   -1    0    0    0  501  0.00000000000E+00  0.00000000000E+00 -0.17397580539E+04  0.17397580539E+04  0.50400001928E-02 0. -1.
    10030    2    1    2    0    0  0.00000000000E+00  0.00000000000E+00 -0.98099813531E+03  0.24985179725E+04  0.22978761319E+04 0.  0.
        4    1    3    3  502    0  0.21909038408E+03 -0.22416101342E+03  0.71137067262E+03  0.77736645354E+03  0.12699999809E+01 0.  1.
       -4    1    3    3    0  502 -0.21909038408E+03  0.22416101342E+03 -0.16923688079E+04  0.17211515190E+04  0.12699999809E+01 0. -1.
</event>
<event>
 5   0  0.1284837E-05  0.2338325E+04  0.7818609E-02  0.8462961E-01
        1   -1    0    0  501    0  0.00000000000E+00  0.00000000000E+00  0.17073138149E+04  0.17073138149E+04  0.50400001928E-02 0.  1.
       -1   -1    0    0    0  501  0.00000000000E+00  0.00000000000E+00 -0.80063858868E+03  0.80063858870E+03  0.50400001928E-02 0. -1.
    10030    2    1    2    0    0  0.00000000000E+00  0.00000000000E+00  0.90667522625E+03  0.25079524036E+04  0.23383253180E+04 0.  0.
        4    1    3    3  502    0  0.73192491042E+03  0.89143054212E+03  0.24821207576E+03  0.11798191952E+04  0.12699999809E+01 0. -1.
       -4    1    3    3    0  502 -0.73192491042E+03 -0.89143054212E+03  0.65846315049E+03  0.13281332084E+04  0.12699999809E+01 0.  1.
</event>
<event>
 5   0  0.1327820E-05  0.2430549E+04  0.7818609E-02  0.8428154E-01
       -1   -1    0    0    0  501  0.00000000000E+00  0.00000000000E+00  0.94926340050E+03  0.94926340052E+03  0.50400001928E-02 0. -1.
        1   -1    0    0  501    0  0.00000000000E+00  0.00000000000E+00 -0.15558298471E+04  0.15558298471E+04  0.50400001928E-02 0.  1.
    10030    2    1    2    0    0  0.00000000000E+00  0.00000000000E+00 -0.60656644659E+03  0.25050932476E+04  0.24305491818E+04 0.  0.
        1    1    3    3  502    0 -0.82043541082E+03  0.78297164361E+03 -0.75340802349E+03  0.13615368184E+04  0.50400001928E-02 0.  1.
       -1    1    3    3    0  502  0.82043541082E+03 -0.78297164361E+03  0.14684157690E+03  0.11435564292E+04  0.50400001928E-02 0. -1.
</event>
<event>
 5   0  0.2910126E-05  0.2285413E+04  0.7818609E-02  0.8483695E-01
        2   -1    0    0  501    0  0.00000000000E+00  0.00000000000E+00  0.12232310819E+04  0.12232310819E+04  0.25500000920E-02 0.  1.
       -2   -1    0    0    0  501  0.00000000000E+00  0.00000000000E+00 -0.10674826978E+04  0.10674826978E+04  0.25500000920E-02 0. -1.
    10030    2    1    2    0    0  0.00000000000E+00  0.00000000000E+00  0.15574838411E+03  0.22907137797E+04  0.22854128864E+04 0.  0.
        5    1    3    3  502    0 -0.78731137731E+03  0.47966833980E+03 -0.59883249010E+03  0.10993467889E+04  0.46999998093E+01 0. -1.
       -5    1    3    3    0  502  0.78731137731E+03 -0.47966833980E+03  0.75458087422E+03  0.11913669908E+04  0.46999998093E+01 0.  1.
</event>
<event>
 5   0  0.2816178E-05  0.2307874E+04  0.7818609E-02  0.8474823E-01
       -2   -1    0    0    0  501  0.00000000000E+00  0.00000000000E+00  0.61633159624E+03  0.61633159624E+03  0.25500000920E-02 0. -1.
        2   -1    0    0  501    0  0.00000000000E+00  0.00000000000E+00 -0.21604777834E+04  0.21604777834E+04  0.25500000920E-02 0.  1.
    10030    2    1    2    0    0  0.00000000000E+00  0.00000000000E+00 -0.15441461872E+04  0.27768093797E+04  0.23078741048E+04 0.  0.
        1    1    3    3  502    0 -0.52404745933E+03 -0.83494648239E+03 -0.50350705532E+02  0.98706461878E+03  0.50400001928E-02 0. -1.
       -1    1    3    3    0  502  0.52404745933E+03  0.83494648239E+03 -0.14937954817E+04  0.17897447609E+04  0.50400001928E-02 0.  1.
</event>
<event>
 5   0  0.2816178E-05  0.2317056E+04  0.7818609E-02  0.8471227E-01
       -2   -1    0    0    0  501  0.00000000000E+00  0.00000000000E+00  0.14159520612E+04  0.14159520612E+04  0.25500000920E-02 0. -1.
        2   -1    0    0  501    0  0.00000000000E+00  0.00000000000E+00 -0.94790402455E+03  0.94790402455E+03  0.25500000920E-02 0.  1.
    10030    2    1    2    0    0  0.00000000000E+00  0.00000000000E+00  0.46804803668E+03  0.23638560858E+04  0.23170555948E+04 0.  0.
        1    1    3    3  502    0 -0.11423610636E+04  0.19231287637E+03  0.24893481365E+03  0.11848804089E+04  0.50400001928E-02 0. -1.
       -1    1    3    3    0  502  0.11423610636E+04 -0.19231287637E+03  0.21911322302E+03  0.11789756768E+04  0.50400001928E-02 0.  1.
</event>
<event>
 5   0  0.2816178E-05  0.2292703E+04  0.7818609E-02  0.8480804E-01
        2   -1    0    0  501    0  0.00000000000E+00  0.00000000000E+00  0.15258364397E+04  0.15258364397E+04  0.25500000920E-02 0. -1.
       -2   -1    0    0    0  501  0.00000000000E+00  0.00000000000E+00 -0.86124660540E+03  0.86124660540E+03  0.25500000920E-02 0.  1.
    10030    2    1    2    0    0  0.00000000000E+00  0.00000000000E+00  0.66458983429E+03  0.23870830451E+04  0.22927027318E+04 0.  0.
        1    1    3    3  502    0  0.48153897633E+03  0.80795743857E+03 -0.35000337787E+03  0.10035822701E+04  0.50400001928E-02 0.  1.
       -1    1    3    3    0  502 -0.48153897633E+03 -0.80795743857E+03  0.10145932122E+04  0.13835007750E+04  0.50400001928E-02 0. -1.
</event>
<event>
 5   0  0.1303224E-05  0.2303139E+04  0.7818609E-02  0.8476685E-01
       -1   -1    0    0    0  501  0.00000000000E+00  0.00000000000E+00  0.46298529239E+03  0.46298529242E+03  0.50400001928E-02 0. -1.
        1   -1    0    0  501    0  0.00000000000E+00  0.00000000000E+00 -0.28642637593E+04  0.28642637593E+04  0.50400001928E-02 0.  1.
    10030    2    1    2    0    0  0.00000000000E+00  0.00000000000E+00 -0.24012784669E+04  0.33272490517E+04  0.23031387228E+04 0.  0.
        2    1    3    3  502    0 -0.71041311869E+03 -0.20199083137E+03 -0.24770381077E+04  0.25848026777E+04  0.25500000920E-02 0.  1.
       -2    1    3    3    0  502  0.71041311869E+03  0.20199083137E+03  0.75759640852E+02  0.74244637406E+03  0.25500000920E-02 0. -1.
</event>
<event>
 5   0  0.1308224E-05  0.2313558E+04  0.7818609E-02  0.8472595E-01
       -1   -1    0    0    0  501  0.00000000000E+00  0.00000000000E+00  0.68807654382E+03  0.68807654384E+03  0.50400001928E-02 0.  1.
        1   -1    0    0  501    0  0.00000000000E+00  0.00000000000E+00 -0.19447504674E+04  0.19447504674E+04  0.50400001928E-02 0. -1.
    10030    2    1    2    0    0  0.00000000000E+00  0.00000000000E+00 -0.12566739235E+04  0.26328270112E+04  0.23135575897E+04 0.  0.
        5    1    3    3  502    0 -0.70557543144E+03  0.19727020515E+03 -0.16470611490E+04  0.18026604622E+04  0.46999998093E+01 0. -1.
       -5    1    3    3    0  502  0.70557543144E+03 -0.19727020515E+03  0.39038722549E+03  0.83016654902E+03  0.46999998093E+01 0.  1.
</event>
<event>
 5   0  0.2910126E-05  0.2329340E+04  0.7818609E-02  0.8466442E-01
       -2   -1    0    0    0  501  0.00000000000E+00  0.00000000000E+00  0.13812174396E+04  0.13812174396E+04  0.25500000920E-02 0.  1.
        2   -1    0    0  501    0  0.00000000000E+00  0.00000000000E+00 -0.98207259817E+03  0.98207259817E+03  0.25500000920E-02 0. -1.
    10030    2    1    2    0    0  0.00000000000E+00  0.00000000000E+00  0.39914484141E+03  0.23632900378E+04  0.23293396485E+04 0.  0.
        5    1    3    3  502    0 -0.84257439442E+03  0.64728959466E+03 -0.28436850756E+03  0.10999104362E+04  0.46999998093E+01 0. -1.
       -5    1    3    3    0  502  0.84257439442E+03 -0.64728959466E+03  0.68351334897E+03  0.12633796016E+04  0.46999998093E+01 0.  1.
</event>
<event>
 5   0  0.1284837E-05  0.2306859E+04  0.7818609E-02  0.8475222E-01
       -1   -1    0    0    0  501  0.00000000000E+00  0.00000000000E+00  0.58035327743E+03  0.58035327746E+03  0.50400001928E-02 0.  1.
        1   -1    0    0  501    0  0.00000000000E+00  0.00000000000E+00 -0.22923956253E+04  0.22923956253E+04  0.50400001928E-02 0. -1.
    10030    2    1    2    0    0  0.00000000000E+00  0.00000000000E+00 -0.17120423478E+04  0.28727489027E+04  0.23068587424E+04 0.  0.
        4    1    3    3  502    0  0.57077217022E+03 -0.57914770747E+03 -0.18747443291E+04  0.20434923170E+04  0.12699999809E+01 0. -1.
       -4    1    3    3    0  502 -0.57077217022E+03  0.57914770747E+03  0.16270198125E+03  0.82925658572E+03  0.12699999809E+01 0.  1.
</event>
<event>
 5   0  0.2938972E-05  0.2312737E+04  0.7818609E-02  0.8472916E-01
        2   -1    0    0  501    0  0.00000000000E+00  0.00000000000E+00  0.16929781417E+04  0.16929781417E+04  0.25500000920E-02 0.  1.
       -2   -1    0    0    0  501  0.00000000000E+00  0.00000000000E+00 -0.78984386074E+03  0.78984386075E+03  0.25500000920E-02 0. -1.
    10030    2    1    2    0    0  0.00000000000E+00  0.00000000000E+00  0.90313428091E+03  0.24828220024E+04  0.23127372454E+04 0.  0.
        2    1    3    3  502    0  0.21839410876E+03 -0.20485659483E+03  0.16506360022E+04  0.16775760558E+04  0.25500000920E-02 0.  1.
       -2    1    3    3    0  502 -0.21839410876E+03  0.20485659483E+03 -0.74750172129E+03  0.80524594661E+03  0.25500000920E-02 0. -1.
</event>
<event>
 5   0  0.1327820E-05  0.2303500E+04  0.7818609E-02  0.8476542E-01
       -1   -1    0    0    0  501  0.00000000000E+00  0.00000000000E+00  0.83152019814E+03  0.83152019816E+03  0.50400001928E-02 0. -1.
        1   -1    0    0  501    0  0.00000000000E+00  0.00000000000E+00 -0.15953051631E+04  0.15953051631E+04  0.50400001928E-02 0.  1.
    10030    2    1    2    0    0  0.00000000000E+00  0.00000000000E+00 -0.76378496497E+03  0.24268253613E+04  0.23035003498E+04 0.  0.
        1    1    3    3  502    0  0.74731093469E+03  0.23867985585E+03  0.50651363030E+03  0.93380820536E+03  0.50400001928E-02 0. -1.
       -1    1    3    3    0  502 -0.74731093469E+03 -0.23867985585E+03 -0.12702985953E+04  0.14930171559E+04  0.50400001928E-02 0.  1.
</event>
<event>
 5   0  0.2871888E-05  0.2269070E+04  0.7818609E-02  0.8490217E-01
       -2   -1    0    0    0  501  0.00000000000E+00  0.00000000000E+00  0.10359134349E+04  0.10359134350E+04  0.25500000920E-02 0. -1.
        2   -1    0    0  501    0  0.00000000000E+00  0.00000000000E+00 -0.12425458697E+04  0.12425458697E+04  0.25500000920E-02 0.  1.
    10030    2    1    2    0    0  0.00000000000E+00  0.00000000000E+00 -0.20663243471E+03  0.22784593046E+04  0.22690702589E+04 0.  0.
        3    1    3    3  502    0  0.56832061726E+03  0.98086442199E+03 -0.14918467334E+03  0.11433894417E+04  0.10100000352E+00 0. -1.
       -3    1    3    3    0  502 -0.56832061726E+03 -0.98086442199E+03 -0.57447761372E+02  0.11350698630E+04  0.10100000352E+00 0.  1.
</event>
<event>
 5   0  0.2910126E-05  0.2319617E+04  0.7818609E-02  0.8470226E-01
        2   -1    0    0  501    0  0.00000000000E+00  0.00000000000E+00  0.10464454501E+04  0.10464454501E+04  0.25500000920E-02 0. -1.
       -2   -1    0    0    0  501  0.00000000000E+00  0.00000000000E+00 -0.12854526887E+04  0.12854526887E+04  0.25500000920E-02 0.  1.
    10030    2    1    2    0    0  0.00000000000E+00  0.00000000000E+00 -0.23900723866E+03  0.23318981388E+04  0.23196173111E+04 0.  0.
        5    1    3    3  502    0 -0.96186356123E+03  0.16233011535E+03  0.51119456369E+03  0.11013058380E+04  0.46999998093E+01 0. -1.
       -5    1    3    3    0  502  0.96186356123E+03 -0.16233011535E+03 -0.75020180234E+03  0.12305923009E+04  0.46999998093E+01 0.  1.
</event>
<event>
 5   0  0.1327820E-05  0.2279199E+04  0.7818609E-02  0.8486168E-01
       -1   -1    0    0    0  501  0.00000000000E+00  0.00000000000E+00  0.57870527572E+03  0.57870527574E+03  0.50400001928E-02 0. -1.
        1   -1    0    0  501    0  0.00000000000E+00  0.00000000000E+00 -0.22441240967E+04  0.22441240967E+04  0.50400001928E-02 0.  1.
    10030    2    1    2    0    0  0.00000000000E+00  0.00000000000E+00 -0.16654188210E+04  0.28228293725E+04  0.22791985031E+04 0.  0.
        1    1    3    3  502    0  0.10532243582E+04  0.14111372565E+03 -0.32281899248E+03  0.11105884630E+04  0.50400001928E-02 0. -1.
       -1    1    3    3    0  502 -0.10532243582E+04 -0.14111372565E+03 -0.13425998285E+04  0.17122409094E+04  0.50400001928E-02 0.  1.
</event>
<event>
 5   0  0.1284837E-05  0.2251555E+04  0.7818609E-02  0.8497271E-01
       -1   -1    0    0    0  501  0.00000000000E+00  0.00000000000E+00  0.15655207718E+04  0.15655207718E+04  0.50400001928E-02 0. -1.
        1   -1    0    0  501    0  0.00000000000E+00  0.00000000000E+00 -0.80955518500E+03  0.80955518501E+03  0.50400001928E-02 0.  1.
    10030    2    1    2    0    0  0.00000000000E+00  0.00000000000E+00  0.75596558684E+03  0.23750759569E+04  0.22515554251E+04 0.  0.
        4    1    3    3  502    0 -0.58975417719E+03 -0.47623440357E+03 -0.50000346751E+03  0.90808274793E+03  0.12699999809E+01 0.  1.
       -4    1    3    3    0  502  0.58975417719E+03  0.47623440357E+03  0.12559690544E+04  0.14669932089E+04  0.12699999809E+01 0. -1.
</event>
<event>
 5   0  0.1017200E-05  0.2304941E+04  0.7818609E-02  0.8475975E-01
       -3   -1    0    0    0  501  0.00000000000E+00  0.00000000000E+00  0.80644715540E+03  0.80644716173E+03  0.10100000352E+00 0. -1.
        3   -1    0    0  501    0  0.00000000000E+00  0.00000000000E+00 -0.16469627043E+04  0.16469627074E+04  0.10100000352E+00 0.  1.
    10030    2    1    2    0    0  0.00000000000E+00  0.00000000000E+00 -0.84051554892E+03  0.24534098691E+04  0.23049411268E+04 0.  0.
        1    1    3    3  502    0  0.73876473817E+03 -0.64645849345E+03  0.22237503714E+03  0.10065448720E+04  0.50400001928E-02 0. -1.
       -1    1    3    3    0  502 -0.73876473817E+03  0.64645849345E+03 -0.10628905861E+04  0.14468649972E+04  0.50400001928E-02 0.  1.
</event>
<event>
 5   0  0.1308224E-05  0.2325848E+04  0.7818609E-02  0.8467799E-01
        1   -1    0    0  501    0  0.00000000000E+00  0.00000000000E+00  0.17849813107E+04  0.17849813107E+04  0.50400001928E-02 0. -1.
       -1   -1    0    0    0  501  0.00000000000E+00  0.00000000000E+00 -0.75765051510E+03  0.75765051512E+03  0.50400001928E-02 0.  1.
    10030    2    1    2    0    0  0.00000000000E+00  0.00000000000E+00  0.10273307956E+04  0.25426318259E+04  0.23258478106E+04 0.  0.
        5    1    3    3  502    0  0.15258103251E+03 -0.66477383090E+03 -0.51601942620E+03  0.85527969457E+03  0.46999998093E+01 0.  1.
       -5    1    3    3    0  502 -0.15258103251E+03  0.66477383090E+03  0.15433502218E+04  0.16873521313E+04  0.46999998093E+01 0. -1.
</event>
<event>
 5   0  0.2910126E-05  0.2303489E+04  0.7818609E-02  0.8476547E-01
        2   -1    0    0  501    0  0.00000000000E+00  0.00000000000E+00  0.88809413650E+03  0.88809413651E+03  0.25500000920E-02 0.  1.
       -2   -1    0    0    0  501  0.00000000000E+00  0.00000000000E+00 -0.14936657849E+04  0.14936657849E+04  0.25500000920E-02 0. -1.
    10030    2    1    2    0    0  0.00000000000E+00  0.00000000000E+00 -0.60557164842E+03  0.23817599214E+04  0.23034893753E+04 0.  0.
        5    1    3    3  502    0  0.11282710640E+03 -0.29810640360E+03  0.84157093755E+03  0.89992283932E+03  0.46999998093E+01 0.  1.
       -5    1    3    3    0  502 -0.11282710640E+03  0.29810640360E+03 -0.14471425860E+04  0.14818370821E+04  0.46999998093E+01 0. -1.
</event>
<event>
 5   0  0.2910126E-05  0.2295815E+04  0.7818609E-02  0.8479573E-01
        2   -1    0    0  501    0  0.00000000000E+00  0.00000000000E+00  0.87250671873E+03  0.87250671873E+03  0.25500000920E-02 0. -1.
       -2   -1    0    0    0  501  0.00000000000E+00  0.00000000000E+00 -0.15102369578E+04  0.15102369578E+04  0.25500000920E-02 0.  1.
    10030    2    1    2    0    0  0.00000000000E+00  0.00000000000E+00 -0.63773023906E+03  0.23827436765E+04  0.22958152300E+04 0.  0.
        5    1    3    3  502    0  0.43808983024E+03  0.81333811871E+03 -0.10260063437E+04  0.13806348909E+04  0.46999998093E+01 0.  1.
       -5    1    3    3    0  502 -0.43808983024E+03 -0.81333811871E+03  0.38827610466E+03  0.10021087856E+04  0.46999998093E+01 0. -1.
</event>
<event>
 5   0  0.2871888E-05  0.2301643E+04  0.7818609E-02  0.8477273E-01
       -2   -1    0    0    0  501  0.00000000000E+00  0.00000000000E+00  0.56268406138E+03  0.56268406139E+03  0.25500000920E-02 0.  1.
        2   -1    0    0  501    0  0.00000000000E+00  0.00000000000E+00 -0.23537019191E+04  0.23537019191E+04  0.25500000920E-02 0. -1.
    10030    2    1    2    0    0  0.00000000000E+00  0.00000000000E+00 -0.17910178577E+04  0.29163859805E+04  0.23016433739E+04 0.  0.
        3    1    3    3  502    0 -0.30581508660E+03 -0.58131322882E+03 -0.20928523764E+04  0.21935083808E+04  0.10100000352E+00 0. -1.
       -3    1    3    3    0  502  0.30581508660E+03  0.58131322882E+03  0.30183451869E+03  0.72287759964E+03  0.10100000352E+00 0.  1.
</event>
<event>
 5   0  0.2910126E-05  0.2291801E+04  0.7818609E-02  0.8481161E-01
       -2   -1    0    0    0  501  0.00000000000E+00  0.00000000000E+00  0.86191987477E+03  0.86191987478E+03  0.25500000920E-02 0. -1.
        2   -1    0    0  501    0  0.00000000000E+00  0.00000000000E+00 -0.15234448631E+04  0.15234448631E+04  0.25500000920E-02 0.  1.
    10030    2    1    2    0    0  0.00000000000E+00  0.00000000000E+00 -0.66152498829E+03  0.23853647378E+04  0.22918005198E+04 0.  0.
        5    1    3    3  502    0  0.18966113500E+03 -0.74240095740E+03 -0.12175647431E+04  0.14386161827E+04  0.46999998093E+01 0.  1.
       -5    1    3    3    0  502 -0.18966113500E+03  0.74240095740E+03  0.55603975478E+03  0.94674855510E+03  0.46999998093E+01 0. -1.
</event>
<event>
 5   0  0.1303224E-05  0.2311868E+04  0.7818609E-02  0.8473256E-01
       -1   -1    0    0    0  501  0.00000000000E+00  0.00000000000E+00  0.15264870258E+04  0.15264870258E+04  0.50400001928E-02 0. -1.
        1   -1    0    0  501    0  0.00000000000E+00  0.00000000000E+00 -0.87533264420E+03  0.87533264421E+03  0.50400001928E-02 0.  1.
    10030    2    1    2    0    0  0.00000000000E+00  0.00000000000E+00  0.65115438157E+03  0.24018196700E+04  0.23118684432E+04 0.  0.
        2    1    3    3  502    0 -0.10401500052E+04  0.36518618074E+03 -0.35674665652E+02  0.11029712878E+04  0.25500000920E-02 0.  1.
       -2    1    3    3    0  502  0.10401500052E+04 -0.36518618074E+03  0.68682904722E+03  0.12988483822E+04  0.25500000920E-02 0. -1.
</event>
<event>
 5   0  0.2871888E-05  0.2299336E+04  0.7818609E-02  0.8478183E-01
        2   -1    0    0  501    0  0.00000000000E+00  0.00000000000E+00  0.80521316251E+03  0.80521316252E+03  0.25500000920E-02 0.  1.
       -2   -1    0    0    0  501  0.00000000000E+00  0.00000000000E+00 -0.16414736505E+04  0.16414736505E+04  0.25500000920E-02 0. -1.
    10030    2    1    2    0    0  0.00000000000E+00  0.00000000000E+00 -0.83626048797E+03  0.24466868130E+04  0.22993357209E+04 0.  0.
        3    1    3    3  502    0  0.10512298195E+03  0.11430512073E+04 -0.48642484921E+03  0.12466860262E+04  0.10100000352E+00 0.  1.
       -3    1    3    3    0  502 -0.10512298195E+03 -0.11430512073E+04 -0.34983563877E+03  0.12000007868E+04  0.10100000352E+00 0. -1.
</event>
<event>
 5   0  0.2994157E-05  0.2310494E+04  0.7818609E-02  0.8473795E-01
       -2   -1    0    0    0  501  0.00000000000E+00  0.00000000000E+00  0.89362643292E+03  0.89362643292E+03  0.25500000920E-02 0.  1.
        2   -1    0    0  501    0  0.00000000000E+00  0.00000000000E+00 -0.14934608580E+04  0.14934608580E+04  0.25500000920E-02 0. -1.
    10030    2    1    2    0    0  0.00000000000E+00  0.00000000000E+00 -0.59983442511E+03  0.23870872909E+04  0.23104944053E+04 0.  0.
        4    1    3    3  502    0  0.89898084889E+03  0.40730147743E+03 -0.92026629924E+03  0.13494268171E+04  0.12699999809E+01 0. -1.
       -4    1    3    3    0  502 -0.89898084889E+03 -0.40730147743E+03  0.32043187413E+03  0.10376604739E+04  0.12699999809E+01 0.  1.
</event>
<event>
 5   0  0.2871888E-05  0.2288579E+04  0.7818609E-02  0.8482438E-01
        2   -1    0    0  501    0  0.00000000000E+00  0.00000000000E+00  0.12023444928E+04  0.12023444928E+04  0.25500000920E-02 0.  1.
       -2   -1    0    0    0  501  0.00000000000E+00  0.00000000000E+00 -0.10890380665E+04  0.10890380665E+04  0.25500000920E-02 0. -1.
    10030    2    1    2    0    0  0.00000000000E+00  0.00000000000E+00  0.11330642634E+03  0.22913825594E+04  0.22885794037E+04 0.  0.
        3    1    3    3  502    0  0.75979275741E+03  0.35287654959E+03 -0.72378342234E+03  0.11070995195E+04  0.10100000352E+00 0. -1.
       -3    1    3    3    0  502 -0.75979275741E+03 -0.35287654959E+03  0.83708984868E+03  0.11842830398E+04  0.10100000352E+00 0.  1.
</event>
<event>
 5   0  0.1303224E-05  0.2302877E+04  0.7818609E-02  0.8476788E-01
       -1   -1    0    0    0  501  0.00000000000E+00  0.00000000000E+00  0.11055899953E+04  0.11055899953E+04  0.50400001928E-02 0. -1.
        1   -1    0    0  501    0  0.00000000000E+00  0.00000000000E+00 -0.11991881418E+04  0.11991881418E+04  0.50400001928E-02 0.  1.
    10030    2    1    2    0    0  0.00000000000E+00  0.00000000000E+00 -0.93598146542E+02  0.23047781372E+04  0.23028768201E+04 0.  0.
        2    1    3    3  502    0 -0.68981984679E+03  0.59900330992E+03 -0.74820151165E+03  0.11808733583E+04  0.25500000920E-02 0.  1.
       -2    1    3    3    0  502  0.68981984679E+03 -0.59900330992E+03  0.65460336511E+03  0.11239047789E+04  0.25500000920E-02 0. -1.
</event>
<event>
 5   0  0.2938972E-05  0.2312185E+04  0.7818609E-02  0.8473132E-01
        2   -1    0    0  501    0  0.00000000000E+00  0.00000000000E+00  0.14894893494E+04  0.14894893494E+04  0.25500000920E-02 0. -1.
       -2   -1    0    0    0  501  0.00000000000E+00  0.00000000000E+00 -0.89732096176E+03  0.89732096176E+03  0.25500000920E-02 0.  1.
    10030    2    1    2    0    0  0.00000000000E+00  0.00000000000E+00  0.59216838763E+03  0.23868103112E+04  0.23121851271E+04 0.  0.
        2    1    3    3  502    0  0.91107771007E+03 -0.18603789305E+03 -0.41301967691E+03  0.10174762626E+04  0.25500000920E-02 0.  1.
       -2    1    3    3    0  502 -0.91107771007E+03  0.18603789305E+03  0.10051880645E+04  0.13693340486E+04  0.25500000920E-02 0. -1.
</event>
<event>
 5   0  0.1284837E-05  0.2288546E+04  0.7818609E-02  0.8482451E-01
       -1   -1    0    0    0  501  0.00000000000E+00  0.00000000000E+00  0.13297366827E+04  0.13297366827E+04  0.50400001928E-02 0.  1.
        1   -1    0    0  501    0  0.00000000000E+00  0.00000000000E+00 -0.98467669120E+03  0.98467669122E+03  0.50400001928E-02 0. -1.
    10030    2    1    2    0    0  0.00000000000E+00  0.00000000000E+00  0.34505999146E+03  0.23144133739E+04  0.22885460160E+04 0.  0.
        4    1    3    3  502    0  0.42788866421E+03 -0.24288955222E+02  0.12455031132E+04  0.13171781505E+04  0.12699999809E+01 0.  1.
       -4    1    3    3    0  502 -0.42788866421E+03  0.24288955222E+02 -0.90044312175E+03  0.99723522336E+03  0.12699999809E+01 0. -1.
</event>
<event>
 5   0  0.1284837E-05  0.2225468E+04  0.7818609E-02  0.8507902E-01
       -1   -1    0    0    0  501  0.00000000000E+00  0.00000000000E+00  0.76724464501E+03  0.76724464502E+03  0.50400001928E-02 0. -1.
        1   -1    0    0  501    0  0.00000000000E+00  0.00000000000E+00 -0.16137964335E+04  0.16137964335E+04  0.50400001928E-02 0.  1.
    10030    2    1    2    0    0  0.00000000000E+00  0.00000000000E+00 -0.84655178853E+03  0.23810410786E+04  0.22254677457E+04 0.  0.
        4    1    3    3  502    0 -0.91837287099E+02  0.11083827879E+03 -0.16037927536E+04  0.16102397401E+04  0.12699999809E+01 0.  1.
       -4    1    3    3    0  502  0.91837287099E+02 -0.11083827879E+03  0.75724096503E+03  0.77080133846E+03  0.12699999809E+01 0. -1.
</event>
<event>
 5   0  0.2994157E-05  0.2302401E+04  0.7818609E-02  0.8476975E-01
       -2   -1    0    0    0  501  0.00000000000E+00  0.00000000000E+00  0.10737777863E+04  0.10737777863E+04  0.25500000920E-02 0.  1.
        2   -1    0    0  501    0  0.00000000000E+00  0.00000000000E+00 -0.12342057445E+04  0.12342057445E+04  0.25500000920E-02 0. -1.
    10030    2    1    2    0    0  0.00000000000E+00  0.00000000000E+00 -0.16042795824E+03  0.23079835308E+04  0.23024011051E+04 0.  0.
        4    1    3    3  502    0 -0.36120735351E+03  0.13822943569E+03  0.10067041540E+04  0.10784400751E+04  0.12699999809E+01 0.  1.
       -4    1    3    3    0  502  0.36120735351E+03 -0.13822943569E+03 -0.11671321122E+04  0.12295434557E+04  0.12699999809E+01 0. -1.
</event>
<event>
 5   0  0.1371753E-05  0.2291074E+04  0.7818609E-02  0.8481449E-01
        1   -1    0    0  501    0  0.00000000000E+00  0.00000000000E+00  0.13854544299E+04  0.13854544299E+04  0.50400001928E-02 0. -1.
       -1   -1    0    0    0  501  0.00000000000E+00  0.00000000000E+00 -0.94716595589E+03  0.94716595591E+03  0.50400001928E-02 0.  1.
    10030    2    1    2    0    0  0.00000000000E+00  0.00000000000E+00  0.43828847396E+03  0.23326203858E+04  0.22910742192E+04 0.  0.
        3    1    3    3  502    0  0.46815360992E+03 -0.85938625323E+03  0.82537671216E+03  0.12802184430E+04  0.10100000352E+00 0. -1.
       -3    1    3    3    0  502 -0.46815360992E+03  0.85938625323E+03 -0.38708823820E+03  0.10524019427E+04  0.10100000352E+00 0.  1.
</event>
<event>
 5   0  0.1303224E-05  0.2298973E+04  0.7818609E-02  0.8478326E-01
        1   -1    0    0  501    0  0.00000000000E+00  0.00000000000E+00  0.13598866974E+04  0.13598866974E+04  0.50400001928E-02 0.  1.
       -1   -1    0    0    0  501  0.00000000000E+00  0.00000000000E+00 -0.97163909138E+03  0.97163909139E+03  0.50400001928E-02 0. -1.
    10030    2    1    2    0    0  0.00000000000E+00  0.00000000000E+00  0.38824760597E+03  0.23315257888E+04  0.22989728794E+04 0.  0.
        2    1    3    3  502    0  0.75363185384E+03  0.22228838247E+03 -0.65677133430E+03  0.10240711312E+04  0.25500000920E-02 0. -1.
       -2    1    3    3    0  502 -0.75363185384E+03 -0.22228838247E+03  0.10450189403E+04  0.13074546576E+04  0.25500000920E-02 0.  1.
</event>
<event>
 5   0  0.2816178E-05  0.2311237E+04  0.7818609E-02  0.8473504E-01
       -2   -1    0    0    0  501  0.00000000000E+00  0.00000000000E+00  0.89198262039E+03  0.89198262039E+03  0.25500000920E-02 0. -1.
        2   -1    0    0  501    0  0.00000000000E+00  0.00000000000E+00 -0.14971744404E+04  0.14971744404E+04  0.25500000920E-02 0.  1.
    10030    2    1    2    0    0  0.00000000000E+00  0.00000000000E+00 -0.60519182006E+03  0.23891570608E+04  0.23112365353E+04 0.  0.
        1    1    3    3  502    0 -0.10905241079E+04 -0.23177814682E+03  0.11778258800E+02  0.11149451407E+04  0.50400001928E-02 0. -1.
       -1    1    3    3    0  502  0.10905241079E+04  0.23177814682E+03 -0.61697007886E+03  0.12742119202E+04  0.50400001928E-02 0.  1.
</event>
<event>
 5   0  0.2871888E-05  0.2317007E+04  0.7818609E-02  0.8471245E-01
       -2   -1    0    0    0  501  0.00000000000E+00  0.00000000000E+00  0.12892602669E+04  0.12892602669E+04  0.25500000920E-02 0. -1.
        2   -1    0    0  501    0  0.00000000000E+00  0.00000000000E+00 -0.10410083719E+04  0.10410083719E+04  0.25500000920E-02 0.  1.
    10030    2    1    2    0    0  0.00000000000E+00  0.00000000000E+00  0.24825189494E+03  0.23302686388E+04  0.23170073210E+04 0.  0.
        3    1    3    3  502    0  0.10891489220E+04 -0.31951172715E+03 -0.10914467481E+03  0.11402831614E+04  0.10100000352E+00 0.  1.
       -3    1    3    3    0  502 -0.10891489220E+04  0.31951172715E+03  0.35739656975E+03  0.11899854773E+04  0.10100000352E+00 0. -1.
</event>
<event>
 5   0  0.2994157E-05  0.2301565E+04  0.7818609E-02  0.8477304E-01
       -2   -1    0    0    0  501  0.00000000000E+00  0.00000000000E+00  0.92102866885E+03  0.92102866885E+03  0.25500000920E-02 0.  1.
        2   -1    0    0  501    0  0.00000000000E+00  0.00000000000E+00 -0.14378491760E+04  0.14378491760E+04  0.25500000920E-02 0. -1.
    10030    2    1    2    0    0  0.00000000000E+00  0.00000000000E+00 -0.51682050714E+03  0.23588778448E+04  0.23015649568E+04 0.  0.
        4    1    3    3  502    0  0.17142746666E+03 -0.82475866679E+03  0.54513128743E+03  0.10033862507E+04  0.12699999809E+01 0.  1.
       -4    1    3    3    0  502 -0.17142746666E+03  0.82475866679E+03 -0.10619517946E+04  0.13554915941E+04  0.12699999809E+01 0. -1.
</event>
<event>
 5   0  0.1327820E-05  0.2335511E+04  0.7818609E-02  0.8464050E-01
       -1   -1    0    0    0  501  0.00000000000E+00  0.00000000000E+00  0.12501606320E+04  0.12501606321E+04  0.50400001928E-02 0. -1.
        1   -1    0    0  501    0  0.00000000000E+00  0.00000000000E+00 -0.10907821492E+04  0.10907821492E+04  0.50400001928E-02 0.  1.
    10030    2    1    2    0    0  0.00000000000E+00  0.00000000000E+00  0.15937848282E+03  0.23409427813E+04  0.23355109943E+04 0.  0.
        1    1    3    3  502    0  0.10359934171E+04  0.53807614459E+03  0.50559590655E+02  0.11684881557E+04  0.50400001928E-02 0. -1.
       -1    1    3    3    0  502 -0.10359934171E+04 -0.53807614459E+03  0.10881889217E+03  0.11724546256E+04  0.50400001928E-02 0.  1.
</event>
<event>
 5   0  0.2994157E-05  0.2043872E+04  0.7818609E-02  0.8586380E-01
        2   -1    0    0  501    0  0.00000000000E+00  0.00000000000E+00  0.13510451341E+04  0.13510451341E+04  0.25500000920E-02 0. -1.
       -2   -1    0    0    0  501  0.00000000000E+00  0.00000000000E+00 -0.77299616673E+03  0.77299616674E+03  0.25500000920E-02 0.  1.
    10030    2    1    2    0    0  0.00000000000E+00  0.00000000000E+00  0.57804896735E+03  0.21240413008E+04  0.20438715319E+04 0.  0.
        4    1    3    3  502    0  0.29671563260E+03  0.18419705233E+02 -0.72706479255E+03  0.78549619836E+03  0.12699999809E+01 0.  1.
       -4    1    3    3    0  502 -0.29671563260E+03 -0.18419705233E+02  0.13051137599E+04  0.13385451025E+04  0.12699999809E+01 0. -1.
</event>
<event>
 5   0  0.1371753E-05  0.2296328E+04  0.7818609E-02  0.8479370E-01
       -1   -1    0    0    0  501  0.00000000000E+00  0.00000000000E+00  0.11724386379E+04  0.11724386379E+04  0.50400001928E-02 0. -1.
        1   -1    0    0  501    0  0.00000000000E+00  0.00000000000E+00 -0.11243916801E+04  0.11243916801E+04  0.50400001928E-02 0.  1.
    10030    2    1    2    0    0  0.00000000000E+00  0.00000000000E+00  0.48046957802E+02  0.22968303180E+04  0.22963277204E+04 0.  0.
        3    1    3    3  502    0  0.10958062034E+04 -0.16418319928E+03  0.32497615897E+03  0.11547107310E+04  0.10100000352E+00 0. -1.
       -3    1    3    3    0  502 -0.10958062034E+04  0.16418319928E+03 -0.27692920116E+03  0.11421195870E+04  0.10100000352E+00 0.  1.
</event>
<event>
 5   0  0.2871888E-05  0.2296456E+04  0.7818609E-02  0.8479320E-01
        2   -1    0    0  501    0  0.00000000000E+00  0.00000000000E+00  0.11201949521E+04  0.11201949522E+04  0.25500000920E-02 0. -1.
       -2   -1    0    0    0  501  0.00000000000E+00  0.00000000000E+00 -0.11769625134E+04  0.11769625134E+04  0.25500000920E-02 0.  1.
    10030    2    1    2    0    0  0.00000000000E+00  0.00000000000E+00 -0.56767561244E+02  0.22971574655E+04  0.22964559359E+04 0.  0.
        3    1    3    3  502    0  0.10028070395E+04  0.51909808832E+03 -0.23663640939E+03  0.11537250904E+04  0.10100000352E+00 0.  1.
       -3    1    3    3    0  502 -0.10028070395E+04 -0.51909808832E+03  0.17986884815E+03  0.11434323751E+04  0.10100000352E+00 0. -1.
</event>
<event>
 5   0  0.2871888E-05  0.2308751E+04  0.7818609E-02  0.8474479E-01
        2   -1    0    0  501    0  0.00000000000E+00  0.00000000000E+00  0.18394576854E+04  0.18394576854E+04  0.25500000920E-02 0.  1.
       -2   -1    0    0    0  501  0.00000000000E+00  0.00000000000E+00 -0.72444352028E+03  0.72444352029E+03  0.25500000920E-02 0. -1.
    10030    2    1    2    0    0  0.00000000000E+00  0.00000000000E+00  0.11150141652E+04  0.25639012057E+04  0.23087513518E+04 0.  0.
        3    1    3    3  502    0 -0.33524131803E+03  0.42442996366E+03 -0.57502995522E+03  0.78942193722E+03  0.10100000352E+00 0. -1.
       -3    1    3    3    0  502  0.33524131803E+03 -0.42442996366E+03  0.16900441204E+04  0.17744792685E+04  0.10100000352E+00 0.  1.
</event>
<event>
 5   0  0.1284837E-05  0.2210363E+04  0.7818609E-02  0.8514127E-01
        1   -1    0    0  501    0  0.00000000000E+00  0.00000000000E+00  0.12492145957E+04  0.12492145957E+04  0.50400001928E-02 0. -1.
       -1   -1    0    0    0  501  0.00000000000E+00  0.00000000000E+00 -0.97775510083E+03  0.97775510084E+03  0.50400001928E-02 0.  1.
    10030    2    1    2    0    0  0.00000000000E+00  0.00000000000E+00  0.27145949489E+03  0.22269696966E+04  0.22103628146E+04 0.  0.
        4    1    3    3  502    0 -0.52694372703E+02  0.25115073256E+03 -0.94732160271E+03  0.98146483342E+03  0.12699999809E+01 0.  1.
       -4    1    3    3    0  502  0.52694372703E+02 -0.25115073256E+03  0.12187810976E+04  0.12455048632E+04  0.12699999809E+01 0. -1.
</event>
<event>
 5   0  0.1327820E-05  0.2329994E+04  0.7818609E-02  0.8466188E-01
       -1   -1    0    0    0  501  0.00000000000E+00  0.00000000000E+00  0.52940806782E+03  0.52940806785E+03  0.50400001928E-02 0.  1.
        1   -1    0    0  501    0  0.00000000000E+00  0.00000000000E+00 -0.25636512395E+04  0.25636512395E+04  0.50400001928E-02 0. -1.
    10030    2    1    2    0    0  0.00000000000E+00  0.00000000000E+00 -0.20342431717E+04  0.30930593074E+04  0.23299936904E+04 0.  0.
        1    1    3    3  502    0  0.14425735234E+03 -0.74547280808E+03 -0.21900443240E+04  0.23179374522E+04  0.50400001928E-02 0. -1.
       -1    1    3    3    0  502 -0.14425735234E+03  0.74547280808E+03  0.15580115229E+03  0.77512185517E+03  0.50400001928E-02 0.  1.
</event>
<event>
 5   0  0.2816178E-05  0.2293883E+04  0.7818609E-02  0.8480337E-01
        2   -1    0    0  501    0  0.00000000000E+00  0.00000000000E+00  0.96113322691E+03  0.96113322691E+03  0.25500000920E-02 0.  1.
       -2   -1    0    0    0  501  0.00000000000E+00  0.00000000000E+00 -0.13686700419E+04  0.13686700419E+04  0.25500000920E-02 0. -1.
    10030    2    1    2    0    0  0.00000000000E+00  0.00000000000E+00 -0.40753681500E+03  0.23298032688E+04  0.22938825201E+04 0.  0.
        1    1    3    3  502    0  0.96075522050E+02 -0.11066330688E+04  0.86374381848E+02  0.11141489078E+04  0.50400001928E-02 0.  1.
       -1    1    3    3    0  502 -0.96075522050E+02  0.11066330688E+04 -0.49391119685E+03  0.12156543610E+04  0.50400001928E-02 0. -1.
</event>
<event>
 5   0  0.1284837E-05  0.2282034E+04  0.7818609E-02  0.8485039E-01
        1   -1    0    0  501    0  0.00000000000E+00  0.00000000000E+00  0.80214090975E+03  0.80214090977E+03  0.50400001928E-02 0.  1.
       -1   -1    0    0    0  501  0.00000000000E+00  0.00000000000E+00 -0.16230564507E+04  0.16230564507E+04  0.50400001928E-02 0. -1.
    10030    2    1    2    0    0  0.00000000000E+00  0.00000000000E+00 -0.82091554092E+03  0.24251973604E+04  0.22820341610E+04 0.  0.
        4    1    3    3  502    0 -0.17108751226E+03  0.89921820084E+03  0.31349332862E+03  0.96754534238E+03  0.12699999809E+01 0.  1.
       -4    1    3    3    0  502  0.17108751226E+03 -0.89921820084E+03 -0.11344088695E+04  0.14576520181E+04  0.12699999809E+01 0. -1.
</event>
<event>
 5   0  0.2910126E-05  0.2300446E+04  0.7818609E-02  0.8477745E-01
        2   -1    0    0  501    0  0.00000000000E+00  0.00000000000E+00  0.14971191595E+04  0.14971191595E+04  0.25500000920E-02 0. -1.
       -2   -1    0    0    0  501  0.00000000000E+00  0.00000000000E+00 -0.88370556897E+03  0.88370556897E+03  0.25500000920E-02 0.  1.
    10030    2    1    2    0    0  0.00000000000E+00  0.00000000000E+00  0.61341359058E+03  0.23808247285E+04  0.23004456427E+04 0.  0.
        5    1    3    3  502    0  0.90932871439E+03 -0.52404021466E+03  0.79378201084E+03  0.13159060864E+04  0.46999998093E+01 0. -1.
       -5    1    3    3    0  502 -0.90932871439E+03  0.52404021466E+03 -0.18036842026E+03  0.10649186422E+04  0.46999998093E+01 0.  1.
</event>
<event>
 5   0  0.1303224E-05  0.2307360E+04  0.7818609E-02  0.8475025E-01
       -1   -1    0    0    0  501  0.00000000000E+00  0.00000000000E+00  0.57471964040E+03  0.57471964042E+03  0.50400001928E-02 0. -1.
        1   -1    0    0  501    0  0.00000000000E+00  0.00000000000E+00 -0.23158735242E+04  0.23158735242E+04  0.50400001928E-02 0.  1.
    10030    2    1    2    0    0  0.00000000000E+00  0.00000000000E+00 -0.17411538838E+04  0.28905931646E+04  0.23073603959E+04 0.  0.
        2    1    3    3  502    0  0.62969130671E+03  0.26781452383E+03 -0.20341993280E+04  0.21462065760E+04  0.25500000920E-02 0.  1.
       -2    1    3    3    0  502 -0.62969130671E+03 -0.26781452383E+03  0.29304544420E+03  0.74438658860E+03  0.25500000920E-02 0. -1.
</event>
<event>
 5   0  0.1308224E-05  0.2299136E+04  0.7818609E-02  0.8478262E-01
        1   -1    0    0  501    0  0.00000000000E+00  0.00000000000E+00  0.53748689670E+03  0.53748689673E+03  0.50400001928E-02 0.  1.
       -1   -1    0    0    0  501  0.00000000000E+00  0.00000000000E+00 -0.24586757818E+04  0.24586757818E+04  0.50400001928E-02 0. -1.
    10030    2    1    2    0    0  0.00000000000E+00  0.00000000000E+00 -0.19211888851E+04  0.29961626785E+04  0.22991355036E+04 0.  0.
        5    1    3    3  502    0  0.11165309049E+03 -0.11387365288E+04 -0.81608577463E+03  0.14054199999E+04  0.46999998093E+01 0. -1.
       -5    1    3    3    0  502 -0.11165309049E+03  0.11387365288E+04 -0.11051031104E+04  0.15907426786E+04  0.46999998093E+01 0.  1.
</event>
<event>
 5   0  0.1327820E-05  0.2250667E+04  0.7818609E-02  0.8497630E-01
        1   -1    0    0  501    0  0.00000000000E+00  0.00000000000E+00  0.17485907963E+04  0.17485907963E+04  0.50400001928E-02 0. -1.
       -1   -1    0    0    0  501  0.00000000000E+00  0.00000000000E+00 -0.72422633036E+03  0.72422633038E+03  0.50400001928E-02 0.  1.
    10030    2    1    2    0    0  0.00000000000E+00  0.00000000000E+00  0.10243644659E+04  0.24728171267E+04  0.22506670085E+04 0.  0.
        1    1    3    3  502    0 -0.17989943150E+03  0.27981371919E+03 -0.66897119012E+03  0.74711577158E+03  0.50400001928E-02 0.  1.
       -1    1    3    3    0  502  0.17989943150E+03 -0.27981371919E+03  0.16933356561E+04  0.17257013551E+04  0.50400001928E-02 0. -1.
</event>
<event>
 5   0  0.2910126E-05  0.2252615E+04  0.7818609E-02  0.8496842E-01
       -2   -1    0    0    0  501  0.00000000000E+00  0.00000000000E+00  0.84673392242E+03  0.84673392243E+03  0.25500000920E-02 0. -1.
        2   -1    0    0  501    0  0.00000000000E+00  0.00000000000E+00 -0.14981908221E+04  0.14981908221E+04  0.25500000920E-02 0.  1.
    10030    2    1    2    0    0  0.00000000000E+00  0.00000000000E+00 -0.65145689964E+03  0.23449247445E+04  0.22526153611E+04 0.  0.
        5    1    3    3  502    0  0.46043786315E+03 -0.73179262000E+03 -0.10771272509E+04  0.13812127530E+04  0.46999998093E+01 0.  1.
       -5    1    3    3    0  502 -0.46043786315E+03  0.73179262000E+03  0.42567035127E+03  0.96371199145E+03  0.46999998093E+01 0. -1.
</event>
<event>
 5   0  0.1303224E-05  0.2029852E+04  0.7818609E-02  0.8592790E-01
       -1   -1    0    0    0  501  0.00000000000E+00  0.00000000000E+00  0.73103946530E+03  0.73103946532E+03  0.50400001928E-02 0. -1.
        1   -1    0    0  501    0  0.00000000000E+00  0.00000000000E+00 -0.14090549380E+04  0.14090549380E+04  0.50400001928E-02 0.  1.
    10030    2    1    2    0    0  0.00000000000E+00  0.00000000000E+00 -0.67801547266E+03  0.21400944033E+04  0.20298519832E+04 0.  0.
        2    1    3    3  502    0  0.57963648728E+03  0.35018690186E+03  0.45800185596E+03  0.81754206234E+03  0.25500000920E-02 0. -1.
       -2    1    3    3    0  502 -0.57963648728E+03 -0.35018690186E+03 -0.11360173286E+04  0.13225523409E+04  0.25500000920E-02 0.  1.
</event>
<event>
 5   0  0.1371753E-05  0.2284473E+04  0.7818609E-02  0.8484069E-01
       -1   -1    0    0    0  501  0.00000000000E+00  0.00000000000E+00  0.18795304888E+04  0.18795304888E+04  0.50400001928E-02 0. -1.
        1   -1    0    0  501    0  0.00000000000E+00  0.00000000000E+00 -0.69416466961E+03  0.69416466963E+03  0.50400001928E-02 0.  1.
    10030    2    1    2    0    0  0.00000000000E+00  0.00000000000E+00  0.11853658191E+04  0.25736951584E+04  0.22844725087E+04 0.  0.
        3    1    3    3  502    0 -0.34855370635E+02 -0.28000008330E+03 -0.65428402530E+03  0.71253248310E+03  0.10100000352E+00 0.  1.
       -3    1    3    3    0  502  0.34855370635E+02  0.28000008330E+03  0.18396498444E+04  0.18611626753E+04  0.10100000352E+00 0. -1.
</event>
<event>
 5   0  0.2871888E-05  0.2300008E+04  0.7818609E-02  0.8477918E-01
       -2   -1    0    0    0  501  0.00000000000E+00  0.00000000000E+00  0.13634949953E+04  0.13634949953E+04  0.25500000920E-02 0.  1.
        2   -1    0    0  501    0  0.00000000000E+00  0.00000000000E+00 -0.96994056721E+03  0.96994056721E+03  0.25500000920E-02 0. -1.
    10030    2    1    2    0    0  0.00000000000E+00  0.00000000000E+00  0.39355442806E+03  0.23334355625E+04  0.23000079209E+04 0.  0.
        3    1    3    3  502    0 -0.38589629933E+03  0.91291191514E+01  0.12958079592E+04  0.13520789814E+04  0.10100000352E+00 0.  1.
       -3    1    3    3    0  502  0.38589629933E+03 -0.91291191514E+01 -0.90225353111E+03  0.98135658109E+03  0.10100000352E+00 0. -1.
</event>
<event>
 5   0  0.2910126E-05  0.2309138E+04  0.7818609E-02  0.8474327E-01
        2   -1    0    0  501    0  0.00000000000E+00  0.00000000000E+00  0.24454274715E+04  0.24454274715E+04  0.25500000920E-02 0.  1.
       -2   -1    0    0    0  501  0.00000000000E+00  0.00000000000E+00 -0.54511083121E+03  0.54511083121E+03  0.25500000920E-02 0. -1.
    10030    2    1    2    0    0  0.00000000000E+00  0.00000000000E+00  0.19003166403E+04  0.29905383028E+04  0.23091375028E+04 0.  0.
        5    1    3    3  502    0 -0.71421613624E+03 -0.90703273509E+03  0.96818937558E+03  0.15067268594E+04  0.46999998093E+01 0.  1.
       -5    1    3    3    0  502  0.71421613624E+03  0.90703273509E+03  0.93212726475E+03  0.14838114434E+04  0.46999998093E+01 0. -1.
</event>
<event>
 5   0  0.2816178E-05  0.2303673E+04  0.7818609E-02  0.8476474E-01
       -2   -1    0    0    0  501  0.00000000000E+00  0.00000000000E+00  0.17582778047E+04  0.17582778047E+04  0.25500000920E-02 0. -1.
        2   -1    0    0  501    0  0.00000000000E+00  0.00000000000E+00 -0.75456064796E+03  0.75456064797E+03  0.25500000920E-02 0.  1.
    10030    2    1    2    0    0  0.00000000000E+00  0.00000000000E+00  0.10037171568E+04  0.25128384527E+04  0.23036729279E+04 0.  0.
        1    1    3    3  502    0  0.88737899631E+03  0.36923035672E+02  0.13018836251E+04  0.15759777178E+04  0.50400001928E-02 0. -1.
       -1    1    3    3    0  502 -0.88737899631E+03 -0.36923035672E+02 -0.29816646837E+03  0.93686073487E+03  0.50400001928E-02 0.  1.
</event>
<event>
 5   0  0.1284837E-05  0.2303054E+04  0.7818609E-02  0.8476718E-01
        1   -1    0    0  501    0  0.00000000000E+00  0.00000000000E+00  0.10352653988E+04  0.10352653988E+04  0.50400001928E-02 0.  1.
       -1   -1    0    0    0  501  0.00000000000E+00  0.00000000000E+00 -0.12808445286E+04  0.12808445286E+04  0.50400001928E-02 0. -1.
    10030    2    1    2    0    0  0.00000000000E+00  0.00000000000E+00 -0.24557912977E+03  0.23161099275E+04  0.23030536440E+04 0.  0.
        4    1    3    3  502    0 -0.66452654363E+03  0.62440817750E+03 -0.83000545569E+03  0.12330416735E+04  0.12699999809E+01 0. -1.
       -4    1    3    3    0  502  0.66452654363E+03 -0.62440817750E+03  0.58442632592E+03  0.10830682539E+04  0.12699999809E+01 0.  1.
</event>
<event>
 5   0  0.1308224E-05  0.2288217E+04  0.7818609E-02  0.8482581E-01
       -1   -1    0    0    0  501  0.00000000000E+00  0.00000000000E+00  0.14559094083E+04  0.14559094084E+04  0.50400001928E-02 0.  1.
        1   -1    0    0  501    0  0.00000000000E+00  0.00000000000E+00 -0.89908362694E+03  0.89908362695E+03  0.50400001928E-02 0. -1.
    10030    2    1    2    0    0  0.00000000000E+00  0.00000000000E+00  0.55682578141E+03  0.23549930353E+04  0.22882170451E+04 0.  0.
        5    1    3    3  502    0 -0.78499843914E+02  0.10449140296E+04  0.75111438939E+03  0.12892643138E+04  0.46999998093E+01 0.  1.
       -5    1    3    3    0  502  0.78499843914E+02 -0.10449140296E+04 -0.19428860799E+03  0.10657287216E+04  0.46999998093E+01 0. -1.
</event>
<event>
 5   0  0.1327820E-05  0.2296675E+04  0.7818609E-02  0.8479233E-01
        1   -1    0    0  501    0  0.00000000000E+00  0.00000000000E+00  0.10805559188E+04  0.10805559189E+04  0.50400001928E-02 0.  1.
       -1   -1    0    0    0  501  0.00000000000E+00  0.00000000000E+00 -0.12203704135E+04  0.12203704135E+04  0.50400001928E-02 0. -1.
    10030    2    1    2    0    0  0.00000000000E+00  0.00000000000E+00 -0.13981449462E+03  0.23009263323E+04  0.22966745294E+04 0.  0.
        1    1    3    3  502    0 -0.57252838048E+03 -0.89361334424E+03  0.36947612559E+03  0.11237642826E+04  0.50400001928E-02 0.  1.
       -1    1    3    3    0  502  0.57252838048E+03  0.89361334424E+03 -0.50929062021E+03  0.11771620497E+04  0.50400001928E-02 0. -1.
</event>
<event>
 5   0  0.2938972E-05  0.2323618E+04  0.7818609E-02  0.8468667E-01
       -2   -1    0    0    0  501  0.00000000000E+00  0.00000000000E+00  0.10994224040E+04  0.10994224040E+04  0.25500000920E-02 0. -1.
        2   -1    0    0  501    0  0.00000000000E+00  0.00000000000E+00 -0.12277353750E+04  0.12277353750E+04  0.25500000920E-02 0.  1.
    10030    2    1    2    0    0  0.00000000000E+00  0.00000000000E+00 -0.12831297095E+03  0.23271577790E+04  0.23236176772E+04 0.  0.
        2    1    3    3  502    0 -0.34005301064E+03 -0.71365942904E+03 -0.91683714260E+03  0.12105933160E+04  0.25500000920E-02 0.  1.
       -2    1    3    3    0  502  0.34005301064E+03  0.71365942904E+03  0.78852417165E+03  0.11165644630E+04  0.25500000920E-02 0. -1.
</event>
<event>
 5   0  0.1371753E-05  0.2286498E+04  0.7818609E-02  0.8483264E-01
        1   -1    0    0  501    0  0.00000000000E+00  0.00000000000E+00  0.10137088043E+04  0.10137088043E+04  0.50400001928E-02 0. -1.
       -1   -1    0    0    0  501  0.00000000000E+00  0.00000000000E+00 -0.12893431333E+04  0.12893431333E+04  0.50400001928E-02 0.  1.
    10030    2    1    2    0    0  0.00000000000E+00  0.00000000000E+00 -0.27563432899E+03  0.23030519376E+04  0.22864981837E+04 0.  0.
        3    1    3    3  502    0  0.49402892362E+03 -0.53273359878E+03  0.75126741454E+03  0.10451183679E+04  0.10100000352E+00 0. -1.
       -3    1    3    3    0  502 -0.49402892362E+03  0.53273359878E+03 -0.10269017435E+04  0.12579335697E+04  0.10100000352E+00 0.  1.
</event>
<event>
 5   0  0.1017200E-05  0.2311394E+04  0.7818609E-02  0.8473442E-01
        4   -1    0    0  501    0  0.00000000000E+00  0.00000000000E+00  0.12174221526E+04  0.12174228151E+04  0.12699999809E+01 0.  1.
       -4   -1    0    0    0  501  0.00000000000E+00  0.00000000000E+00 -0.10970996301E+04  0.10971003652E+04  0.12699999809E+01 0. -1.
    10030    2    1    2    0    0  0.00000000000E+00  0.00000000000E+00  0.12032252254E+03  0.23145231802E+04  0.23113935282E+04 0.  0.
        5    1    3    3  502    0  0.10786029921E+04 -0.17711493754E+03 -0.31565852520E+03  0.11377242681E+04  0.46999998093E+01 0. -1.
       -5    1    3    3    0  502 -0.10786029921E+04  0.17711493754E+03  0.43598104774E+03  0.11767989121E+04  0.46999998093E+01 0.  1.
</event>
<event>
 5   0  0.1284837E-05  0.2317030E+04  0.7818609E-02  0.8471237E-01
       -1   -1    0    0    0  501  0.00000000000E+00  0.00000000000E+00  0.88273743952E+03  0.88273743953E+03  0.50400001928E-02 0. -1.
        1   -1    0    0  501    0  0.00000000000E+00  0.00000000000E+00 -0.15204483707E+04  0.15204483707E+04  0.50400001928E-02 0.  1.
    10030    2    1    2    0    0  0.00000000000E+00  0.00000000000E+00 -0.63771093116E+03  0.24031858102E+04  0.23170297380E+04 0.  0.
        4    1    3    3  502    0  0.40487329642E+03 -0.33466626160E+03 -0.13898356507E+04  0.14857888954E+04  0.12699999809E+01 0.  1.
       -4    1    3    3    0  502 -0.40487329642E+03  0.33466626160E+03  0.75212471951E+03  0.91739691486E+03  0.12699999809E+01 0. -1.
</event>
<event>
 5   0  0.2816178E-05  0.2299092E+04  0.7818609E-02  0.8478279E-01
       -2   -1    0    0    0  501  0.00000000000E+00  0.00000000000E+00  0.10641346371E+04  0.10641346371E+04  0.25500000920E-02 0. -1.
        2   -1    0    0  501    0  0.00000000000E+00  0.00000000000E+00 -0.12418127778E+04  0.12418127778E+04  0.25500000920E-02 0.  1.
    10030    2    1    2    0    0  0.00000000000E+00  0.00000000000E+00 -0.17767814073E+03  0.23059474149E+04  0.22990919857E+04 0.  0.
        1    1    3    3  502    0 -0.85110593220E+03  0.67761952692E+03  0.28362583173E+03  0.11242744965E+04  0.50400001928E-02 0. -1.
       -1    1    3    3    0  502  0.85110593220E+03 -0.67761952692E+03 -0.46130397246E+03  0.11816729184E+04  0.50400001928E-02 0.  1.
</event>
<event>
 5   0  0.2871888E-05  0.2293646E+04  0.7818609E-02  0.8480431E-01
       -2   -1    0    0    0  501  0.00000000000E+00  0.00000000000E+00  0.10568102802E+04  0.10568102802E+04  0.25500000920E-02 0.  1.
        2   -1    0    0  501    0  0.00000000000E+00  0.00000000000E+00 -0.12445019656E+04  0.12445019656E+04  0.25500000920E-02 0. -1.
    10030    2    1    2    0    0  0.00000000000E+00  0.00000000000E+00 -0.18769168531E+03  0.23013122458E+04  0.22936455445E+04 0.  0.
        3    1    3    3  502    0 -0.52950651551E+03 -0.41699259001E+03 -0.10248171923E+04  0.12265847944E+04  0.10100000352E+00 0. -1.
       -3    1    3    3    0  502  0.52950651551E+03  0.41699259001E+03  0.83712550698E+03  0.10747274514E+04  0.10100000352E+00 0.  1.
</event>
<event>
 5   0  0.1303224E-05  0.2322279E+04  0.7818609E-02  0.8469188E-01
        1   -1    0    0  501    0  0.00000000000E+00  0.00000000000E+00  0.99761357242E+03  0.99761357243E+03  0.50400001928E-02 0.  1.
       -1   -1    0    0    0  501  0.00000000000E+00  0.00000000000E+00 -0.13514696392E+04  0.13514696392E+04  0.50400001928E-02 0. -1.
    10030    2    1    2    0    0  0.00000000000E+00  0.00000000000E+00 -0.35385606678E+03  0.23490832116E+04  0.23222785835E+04 0.  0.
        2    1    3    3  502    0 -0.16871238681E+03 -0.10578015597E+04  0.27639245439E+03  0.11062553042E+04  0.25500000920E-02 0.  1.
       -2    1    3    3    0  502  0.16871238681E+03  0.10578015597E+04 -0.63024852116E+03  0.12428279075E+04  0.25500000920E-02 0. -1.
</event>
<event>
 5   0  0.1308224E-05  0.2308862E+04  0.7818609E-02  0.8474435E-01
        1   -1    0    0  501    0  0.00000000000E+00  0.00000000000E+00  0.20079557287E+04  0.20079557287E+04  0.50400001928E-02 0.  1.
       -1   -1    0    0    0  501  0.00000000000E+00  0.00000000000E+00 -0.66371551002E+03  0.66371551004E+03  0.50400001928E-02 0. -1.
    10030    2    1    2    0    0  0.00000000000E+00  0.00000000000E+00  0.13442402187E+04  0.26716712388E+04  0.23088623698E+04 0.  0.
        5    1    3    3  502    0 -0.86099310211E+03  0.71329090955E+03  0.10046763289E+04  0.15031598915E+04  0.46999998093E+01 0. -1.
       -5    1    3    3    0  502  0.86099310211E+03 -0.71329090955E+03  0.33956388987E+03  0.11685113473E+04  0.46999998093E+01 0.  1.
</event>
<event>
 5   0  0.2910126E-05  0.2292734E+04  0.7818609E-02  0.8480791E-01
        2   -1    0    0  501    0  0.00000000000E+00  0.00000000000E+00  0.10003654785E+04  0.10003654785E+04  0.25500000920E-02 0.  1.
       -2   -1    0    0    0  501  0.00000000000E+00  0.00000000000E+00 -0.13136775854E+04  0.13136775854E+04  0.25500000920E-02 0. -1.
    10030    2    1    2    0    0  0.00000000000E+00  0.00000000000E+00 -0.31331210686E+03  0.23140430639E+04  0.22927343556E+04 0.  0.
        5    1    3    3  502    0 -0.10237891637E+04  0.46522442178E+03 -0.38134041177E+03  0.11874428887E+04  0.46999998093E+01 0.  1.
       -5    1    3    3    0  502  0.10237891637E+04 -0.46522442178E+03  0.68028304918E+02  0.11266001751E+04  0.46999998093E+01 0. -1.
</event>
<event>
 5   0  0.2816178E-05  0.2301671E+04  0.7818609E-02  0.8477263E-01
        2   -1    0    0  501    0  0.00000000000E+00  0.00000000000E+00  0.15308348093E+04  0.15308348093E+04  0.25500000920E-02 0. -1.
       -2   -1    0    0    0  501  0.00000000000E+00  0.00000000000E+00 -0.86516350544E+03  0.86516350544E+03  0.25500000920E-02 0.  1.
    10030    2    1    2    0    0  0.00000000000E+00  0.00000000000E+00  0.66567130386E+03  0.23959983147E+04  0.23016710537E+04 0.  0.
        1    1    3    3  502    0  0.55373362847E+03 -0.28854466787E+03 -0.67350033154E+03  0.91841257247E+03  0.50400001928E-02 0.  1.
       -1    1    3    3    0  502 -0.55373362847E+03  0.28854466787E+03  0.13391716354E+04  0.14775857423E+04  0.50400001928E-02 0. -1.
</event>
<event>
 5   0  0.1017200E-05  0.2110124E+04  0.7818609E-02  0.8556797E-01
        3   -1    0    0  501    0  0.00000000000E+00  0.00000000000E+00  0.10463008685E+04  0.10463008733E+04  0.10100000352E+00 0. -1.
       -3   -1    0    0    0  501  0.00000000000E+00  0.00000000000E+00 -0.10638964724E+04  0.10638964772E+04  0.10100000352E+00 0.  1.
    10030    2    1    2    0    0  0.00000000000E+00  0.00000000000E+00 -0.17595603952E+02  0.21101973506E+04  0.21101239900E+04 0.  0.
        1    1    3    3  502    0  0.43409944813E+03 -0.90240833749E+03  0.32343758048E+03  0.10523283741E+04  0.50400001928E-02 0. -1.
       -1    1    3    3    0  502 -0.43409944813E+03  0.90240833749E+03 -0.34103318443E+03  0.10578689765E+04  0.50400001928E-02 0.  1.
</event>
<event>
 5   0  0.1284837E-05  0.2322028E+04  0.7818609E-02  0.8469286E-01
       -1   -1    0    0    0  501  0.00000000000E+00  0.00000000000E+00  0.22229714888E+04  0.22229714889E+04  0.50400001928E-02 0.  1.
        1   -1    0    0  501    0  0.00000000000E+00  0.00000000000E+00 -0.60637444364E+03  0.60637444366E+03  0.50400001928E-02 0. -1.
    10030    2    1    2    0    0  0.00000000000E+00  0.00000000000E+00  0.16165970452E+04  0.28293459325E+04  0.23220276483E+04 0.  0.
        4    1    3    3  502    0  0.49386584119E+03  0.58066366270E+02  0.20866446912E+04  0.21450787520E+04  0.12699999809E+01 0.  1.
       -4    1    3    3    0  502 -0.49386584119E+03 -0.58066366270E+02 -0.47004764598E+03  0.68426718055E+03  0.12699999809E+01 0. -1.
</event>
<event>
 5   0  0.2994157E-05  0.2292224E+04  0.7818609E-02  0.8480993E-01
        2   -1    0    0  501    0  0.00000000000E+00  0.00000000000E+00  0.11983176958E+04  0.11983176958E+04  0.25500000920E-02 0. -1.
       -2   -1    0    0    0  501  0.00000000000E+00  0.00000000000E+00 -0.10961807952E+04  0.10961807952E+04  0.25500000920E-02 0.  1.
    10030    2    1    2    0    0  0.00000000000E+00  0.00000000000E+00  0.10213690059E+03  0.22944984910E+04  0.22922241118E+04 0.  0.
        4    1    3    3  502    0 -0.48948924096E+03  0.88882680135E+03 -0.48233778060E+03  0.11235052947E+04  0.12699999809E+01 0.  1.
       -4    1    3    3    0  502  0.48948924096E+03 -0.88882680135E+03  0.58447468118E+03  0.11709931962E+04  0.12699999809E+01 0. -1.
</event>
<event>
 5   0  0.2871888E-05  0.2268742E+04  0.7818609E-02  0.8490349E-01
       -2   -1    0    0    0  501  0.00000000000E+00  0.00000000000E+00  0.18036217534E+04  0.18036217534E+04  0.25500000920E-02 0.  1.
        2   -1    0    0  501    0  0.00000000000E+00  0.00000000000E+00 -0.71345198600E+03  0.71345198600E+03  0.25500000920E-02 0. -1.
    10030    2    1    2    0    0  0.00000000000E+00  0.00000000000E+00  0.10901697674E+04  0.25170737394E+04  0.22687419615E+04 0.  0.
        3    1    3    3  502    0 -0.36967436663E+03 -0.60499081811E+03  0.15275187898E+04  0.16840388032E+04  0.10100000352E+00 0.  1.
       -3    1    3    3    0  502  0.36967436663E+03  0.60499081811E+03 -0.43734902239E+03  0.83303493620E+03  0.10100000352E+00 0. -1.
</event>
<event>
 5   0  0.2910126E-05  0.2308511E+04  0.7818609E-02  0.8474573E-01
       -2   -1    0    0    0  501  0.00000000000E+00  0.00000000000E+00  0.58906286314E+03  0.58906286314E+03  0.25500000920E-02 0. -1.
        2   -1    0    0  501    0  0.00000000000E+00  0.00000000000E+00 -0.22617386646E+04  0.22617386646E+04  0.25500000920E-02 0.  1.
    10030    2    1    2    0    0  0.00000000000E+00  0.00000000000E+00 -0.16726758015E+04  0.28508015277E+04  0.23085114281E+04 0.  0.
        5    1    3    3  502    0 -0.62693948741E+03 -0.91756109048E+03 -0.12215675347E+04  0.16514299281E+04  0.46999998093E+01 0. -1.
       -5    1    3    3    0  502  0.62693948741E+03  0.91756109048E+03 -0.45110826672E+03  0.11993715996E+04  0.46999998093E+01 0.  1.
</event>
<event>
 5   0  0.2910126E-05  0.2335286E+04  0.7818609E-02  0.8464137E-01
        2   -1    0    0  501    0  0.00000000000E+00  0.00000000000E+00  0.15227590371E+04  0.15227590371E+04  0.25500000920E-02 0.  1.
       -2   -1    0    0    0  501  0.00000000000E+00  0.00000000000E+00 -0.89534203428E+03  0.89534203429E+03  0.25500000920E-02 0. -1.
    10030    2    1    2    0    0  0.00000000000E+00  0.00000000000E+00  0.62741700285E+03  0.24181010714E+04  0.23352859988E+04 0.  0.
        5    1    3    3  502    0 -0.23268403560E+03  0.84906520778E+03  0.11079254468E+04  0.14151234834E+04  0.46999998093E+01 0.  1.
       -5    1    3    3    0  502  0.23268403560E+03 -0.84906520778E+03 -0.48050844394E+03  0.10029775881E+04  0.46999998093E+01 0. -1.
</event>
<event>
 5   0  0.2910126E-05  0.2309547E+04  0.7818609E-02  0.8474166E-01
        2   -1    0    0  501    0  0.00000000000E+00  0.00000000000E+00  0.27738604813E+04  0.27738604813E+04  0.25500000920E-02 0.  1.
       -2   -1    0    0    0  501  0.00000000000E+00  0.00000000000E+00 -0.48073852630E+03  0.48073852630E+03  0.25500000920E-02 0. -1.
    10030    2    1    2    0    0  0.00000000000E+00  0.00000000000E+00  0.22931219550E+04  0.32545990076E+04  0.23095467953E+04 0.  0.
        5    1    3    3  502    0 -0.71414215407E+03 -0.51712675243E+03  0.95732795704E+02  0.88690808569E+03  0.46999998093E+01 0. -1.
       -5    1    3    3    0  502  0.71414215407E+03  0.51712675243E+03  0.21973891593E+04  0.23676909219E+04  0.46999998093E+01 0.  1.
</event>
<event>
 5   0  0.1308224E-05  0.2301384E+04  0.7818609E-02  0.8477376E-01
       -1   -1    0    0    0  501  0.00000000000E+00  0.00000000000E+00  0.10573394683E+04  0.10573394683E+04  0.50400001928E-02 0.  1.
        1   -1    0    0  501    0  0.00000000000E+00  0.00000000000E+00 -0.12522861075E+04  0.12522861075E+04  0.50400001928E-02 0. -1.
    10030    2    1    2    0    0  0.00000000000E+00  0.00000000000E+00 -0.19494663927E+03  0.23096255758E+04  0.23013835205E+04 0.  0.
        5    1    3    3  502    0 -0.45483836577E+03 -0.40754058979E+03  0.88126404063E+03  0.10722013200E+04  0.46999998093E+01 0. -1.
       -5    1    3    3    0  502  0.45483836577E+03  0.40754058979E+03 -0.10762106799E+04  0.12374242558E+04  0.46999998093E+01 0.  1.
</event>
<event>
 5   0  0.2816178E-05  0.2315837E+04  0.7818609E-02  0.8471703E-01
       -2   -1    0    0    0  501  0.00000000000E+00  0.00000000000E+00  0.83839489552E+03  0.83839489553E+03  0.25500000920E-02 0.  1.
        2   -1    0    0  501    0  0.00000000000E+00  0.00000000000E+00 -0.15992175402E+04  0.15992175402E+04  0.25500000920E-02 0. -1.
    10030    2    1    2    0    0  0.00000000000E+00  0.00000000000E+00 -0.76082264464E+03  0.24376124357E+04  0.23158374921E+04 0.  0.
        1    1    3    3  502    0 -0.58170879665E+03 -0.98693615546E+03 -0.20319012365E+03  0.11634922971E+04  0.50400001928E-02 0.  1.
       -1    1    3    3    0  502  0.58170879665E+03  0.98693615546E+03 -0.55763252098E+03  0.12741201386E+04  0.50400001928E-02 0. -1.
</event>
<event>
 5   0  0.1303224E-05  0.2332674E+04  0.7818609E-02  0.8465149E-01
       -1   -1    0    0    0  501  0.00000000000E+00  0.00000000000E+00  0.11346401881E+04  0.11346401881E+04  0.50400001928E-02 0. -1.
        1   -1    0    0  501    0  0.00000000000E+00  0.00000000000E+00 -0.11989191500E+04  0.11989191500E+04  0.50400001928E-02 0.  1.
    10030    2    1    2    0    0  0.00000000000E+00  0.00000000000E+00 -0.64278961878E+02  0.23335593381E+04  0.23326738734E+04 0.  0.
        2    1    3    3  502    0  0.32533531801E+03  0.99684853495E+03  0.47873213276E+03  0.11527074762E+04  0.25500000920E-02 0. -1.
       -2    1    3    3    0  502 -0.32533531801E+03 -0.99684853495E+03 -0.54301109464E+03  0.11808518619E+04  0.25500000920E-02 0.  1.
</event>
<event>
 5   0  0.1303224E-05  0.2295407E+04  0.7818609E-02  0.8479734E-01
       -1   -1    0    0    0  501  0.00000000000E+00  0.00000000000E+00  0.86312217402E+03  0.86312217403E+03  0.50400001928E-02 0. -1.
        1   -1    0    0  501    0  0.00000000000E+00  0.00000000000E+00 -0.15261143858E+04  0.15261143858E+04  0.50400001928E-02 0.  1.
    10030    2    1    2    0    0  0.00000000000E+00  0.00000000000E+00 -0.66299221177E+03  0.23892365598E+04  0.22954068628E+04 0.  0.
        2    1    3    3  502    0  0.10097940970E+04  0.75235284499E+01 -0.89921081521E+03  0.13521541377E+04  0.25500000920E-02 0.  1.
       -2    1    3    3    0  502 -0.10097940970E+04 -0.75235284499E+01  0.23621860344E+03  0.10370824222E+04  0.25500000920E-02 0. -1.
</event>
<event>
 5   0  0.1371753E-05  0.2288674E+04  0.7818609E-02  0.8482400E-01
        1   -1    0    0  501    0  0.00000000000E+00  0.00000000000E+00  0.10748948667E+04  0.10748948668E+04  0.50400001928E-02 0.  1.
       -1   -1    0    0    0  501  0.00000000000E+00  0.00000000000E+00 -0.12182657339E+04  0.12182657339E+04  0.50400001928E-02 0. -1.
    10030    2    1    2    0    0  0.00000000000E+00  0.00000000000E+00 -0.14337086719E+03  0.22931606007E+04  0.22886743619E+04 0.  0.
        3    1    3    3  502    0 -0.14221715350E+03  0.46194229195E+03 -0.11109703858E+04  0.12115575134E+04  0.10100000352E+00 0. -1.
       -3    1    3    3    0  502  0.14221715350E+03 -0.46194229195E+03  0.96759951863E+03  0.10816030873E+04  0.10100000352E+00 0.  1.
</event>
<event>
 5   0  0.2816178E-05  0.2032714E+04  0.7818609E-02  0.8591477E-01
        2   -1    0    0  501    0  0.00000000000E+00  0.00000000000E+00  0.15573721795E+04  0.15573721795E+04  0.25500000920E-02 0. -1.
       -2   -1    0    0    0  501  0.00000000000E+00  0.00000000000E+00 -0.66328482497E+03  0.66328482497E+03  0.25500000920E-02 0.  1.
    10030    2    1    2    0    0  0.00000000000E+00  0.00000000000E+00  0.89408735452E+03  0.22206570045E+04  0.20327137855E+04 0.  0.
        1    1    3    3  502    0 -0.10012479494E+04 -0.13726098571E+03  0.32916282240E+03  0.10628669710E+04  0.50400001928E-02 0. -1.
       -1    1    3    3    0  502  0.10012479494E+04  0.13726098571E+03  0.56492453212E+03  0.11577900334E+04  0.50400001928E-02 0.  1.
</event>
<event>
 5   0  0.1284837E-05  0.2198746E+04  0.7818609E-02  0.8518950E-01
        1   -1    0    0  501    0  0.00000000000E+00  0.00000000000E+00  0.68346622095E+03  0.68346622096E+03  0.50400001928E-02 0. -1.
       -1   -1    0    0    0  501  0.00000000000E+00  0.00000000000E+00 -0.17683704581E+04  0.17683704581E+04  0.50400001928E-02 0.  1.
    10030    2    1    2    0    0  0.00000000000E+00  0.00000000000E+00 -0.10849042372E+04  0.24518366791E+04  0.21987464377E+04 0.  0.
        4    1    3    3  502    0 -0.14813635559E+03  0.10839975593E+04 -0.42222328661E+03  0.11727187238E+04  0.12699999809E+01 0. -1.
       -4    1    3    3    0  502  0.14813635559E+03 -0.10839975593E+04 -0.66268095058E+03  0.12791179553E+04  0.12699999809E+01 0.  1.
</event>
<event>
 5   0  0.1284837E-05  0.2309424E+04  0.7818609E-02  0.8474215E-01
       -1   -1    0    0    0  501  0.00000000000E+00  0.00000000000E+00  0.70963852665E+03  0.70963852667E+03  0.50400001928E-02 0. -1.
        1   -1    0    0  501    0  0.00000000000E+00  0.00000000000E+00 -0.18789273803E+04  0.18789273803E+04  0.50400001928E-02 0.  1.
    10030    2    1    2    0    0  0.00000000000E+00  0.00000000000E+00 -0.11692888537E+04  0.25885659070E+04  0.23094235280E+04 0.  0.
        4    1    3    3  502    0  0.88869696924E+03 -0.46557765232E+03  0.56129990241E+02  0.10048368237E+04  0.12699999809E+01 0. -1.
       -4    1    3    3    0  502 -0.88869696924E+03  0.46557765232E+03 -0.12254188439E+04  0.15837290833E+04  0.12699999809E+01 0.  1.
</event>
<event>
 5   0  0.1308224E-05  0.2328373E+04  0.7818609E-02  0.8466817E-01
        1   -1    0    0  501    0  0.00000000000E+00  0.00000000000E+00  0.67934872706E+03  0.67934872708E+03  0.50400001928E-02 0. -1.
       -1   -1    0    0    0  501  0.00000000000E+00  0.00000000000E+00 -0.19950435372E+04  0.19950435373E+04  0.50400001928E-02 0.  1.
    10030    2    1    2    0    0  0.00000000000E+00  0.00000000000E+00 -0.13156948102E+04  0.26743922643E+04  0.23283730693E+04 0.  0.
        5    1    3    3  502    0  0.22885651179E+03 -0.28713847511E+03 -0.19267802964E+04  0.19614607331E+04  0.46999998093E+01 0.  1.
       -5    1    3    3    0  502 -0.22885651179E+03  0.28713847511E+03  0.61108548618E+03  0.71293153128E+03  0.46999998093E+01 0. -1.
</event>
<event>
 5   0  0.2938972E-05  0.2292567E+04  0.7818609E-02  0.8480858E-01
       -2   -1    0    0    0  501  0.00000000000E+00  0.00000000000E+00  0.78424211268E+03  0.78424211269E+03  0.25500000920E-02 0.  1.
        2   -1    0    0  501    0  0.00000000000E+00  0.00000000000E+00 -0.16754595842E+04  0.16754595842E+04  0.25500000920E-02 0. -1.
    10030    2    1    2    0    0  0.00000000000E+00  0.00000000000E+00 -0.89121747155E+03  0.24597016969E+04  0.22925670887E+04 0.  0.
        2    1    3    3  502    0  0.10751258562E+04 -0.20814169616E+03 -0.82169510267E+02  0.10981668365E+04  0.25500000920E-02 0. -1.
       -2    1    3    3    0  502 -0.10751258562E+04  0.20814169616E+03 -0.80904796128E+03  0.13615348604E+04  0.25500000920E-02 0.  1.
</event>
<event>
 5   0  0.2994157E-05  0.2277272E+04  0.7818609E-02  0.8486937E-01
       -2   -1    0    0    0  501  0.00000000000E+00  0.00000000000E+00  0.87787625885E+03  0.87787625885E+03  0.25500000920E-02 0. -1.
        2   -1    0    0  501    0  0.00000000000E+00  0.00000000000E+00 -0.14768501159E+04  0.14768501159E+04  0.25500000920E-02 0.  1.
    10030    2    1    2    0    0  0.00000000000E+00  0.00000000000E+00 -0.59897385705E+03  0.23547263748E+04  0.22772717489E+04 0.  0.
        4    1    3    3  502    0 -0.93103240021E+03 -0.65163865609E+03 -0.22611014363E+03  0.11586982689E+04  0.12699999809E+01 0. -1.
       -4    1    3    3    0  502  0.93103240021E+03  0.65163865609E+03 -0.37286371341E+03  0.11960281059E+04  0.12699999809E+01 0.  1.
</event>
<event>
 5   0  0.2910126E-05  0.2307214E+04  0.7818609E-02  0.8475082E-01
        2   -1    0    0  501    0  0.00000000000E+00  0.00000000000E+00  0.12647153272E+04  0.12647153272E+04  0.25500000920E-02 0.  1.
       -2   -1    0    0    0  501  0.00000000000E+00  0.00000000000E+00 -0.10522598660E+04  0.10522598660E+04  0.25500000920E-02 0. -1.
    10030    2    1    2    0    0  0.00000000000E+00  0.00000000000E+00  0.21245546120E+03  0.23169751931E+04  0.23072140608E+04 0.  0.
        5    1    3    3  502    0  0.57079584623E+03  0.55233062857E+02 -0.89897083387E+03  0.10663157316E+04  0.46999998093E+01 0. -1.
       -5    1    3    3    0  502 -0.57079584623E+03 -0.55233062857E+02  0.11114262951E+04  0.12506594615E+04  0.46999998093E+01 0.  1.
</event>
<event>
 5   0  0.2871888E-05  0.2309788E+04  0.7818609E-02  0.8474072E-01
        2   -1    0    0  501    0  0.00000000000E+00  0.00000000000E+00  0.14003662345E+04  0.14003662345E+04  0.25500000920E-02 0. -1.
       -2   -1    0    0    0  501  0.00000000000E+00  0.00000000000E+00 -0.95245102415E+03  0.95245102415E+03  0.25500000920E-02 0.  1.
    10030    2    1    2    0    0  0.00000000000E+00  0.00000000000E+00  0.44791521035E+03  0.23528172587E+04  0.23097880892E+04 0.  0.
        3    1    3    3  502    0  0.17379530084E+03 -0.31712412005E+03  0.13412073616E+04  0.13891039238E+04  0.10100000352E+00 0. -1.
       -3    1    3    3    0  502 -0.17379530084E+03  0.31712412005E+03 -0.89329215125E+03  0.96371333486E+03  0.10100000352E+00 0.  1.
</event>
<event>
 5   0  0.2910126E-05  0.2305193E+04  0.7818609E-02  0.8475876E-01
        2   -1    0    0  501    0  0.00000000000E+00  0.00000000000E+00  0.79893103908E+03  0.79893103908E+03  0.25500000920E-02 0. -1.
       -2   -1    0    0    0  501  0.00000000000E+00  0.00000000000E+00 -0.16628202052E+04  0.16628202052E+04  0.25500000920E-02 0.  1.
    10030    2    1    2    0    0  0.00000000000E+00  0.00000000000E+00 -0.86388916608E+03  0.24617512442E+04  0.23051929848E+04 0.  0.
        5    1    3    3  502    0  0.57665646838E+03 -0.90646772014E+03  0.13825609535E+02  0.10744438783E+04  0.46999998093E+01 0.  1.
       -5    1    3    3    0  502 -0.57665646838E+03  0.90646772014E+03 -0.87771477562E+03  0.13873073659E+04  0.46999998093E+01 0. -1.
</event>
<event>
 5   0  0.2938972E-05  0.2241990E+04  0.7818609E-02  0.8501151E-01
        2   -1    0    0  501    0  0.00000000000E+00  0.00000000000E+00  0.20151117165E+04  0.20151117165E+04  0.25500000920E-02 0.  1.
       -2   -1    0    0    0  501  0.00000000000E+00  0.00000000000E+00 -0.62360321296E+03  0.62360321297E+03  0.25500000920E-02 0. -1.
    10030    2    1    2    0    0  0.00000000000E+00  0.00000000000E+00  0.13915085036E+04  0.26387149295E+04  0.22419903130E+04 0.  0.
        2    1    3    3  502    0  0.16436152342E+03 -0.38213520387E+03 -0.52940024737E+03  0.67328051089E+03  0.25500000920E-02 0. -1.
       -2    1    3    3    0  502 -0.16436152342E+03  0.38213520387E+03  0.19209087509E+04  0.19654344186E+04  0.25500000920E-02 0.  1.
</event>
<event>
 5   0  0.1327820E-05  0.2487008E+04  0.7818609E-02  0.8407629E-01
        1   -1    0    0  501    0  0.00000000000E+00  0.00000000000E+00  0.18063532770E+04  0.18063532771E+04  0.50400001928E-02 0.  1.
       -1   -1    0    0    0  501  0.00000000000E+00  0.00000000000E+00 -0.85603529056E+03  0.85603529057E+03  0.50400001928E-02 0. -1.
    10030    2    1    2    0    0  0.00000000000E+00  0.00000000000E+00  0.95031798649E+03  0.26623885676E+04  0.24870079633E+04 0.  0.
        1    1    3    3  502    0 -0.58687892082E+03  0.38083824621E+03 -0.62536210897E+03  0.93837221018E+03  0.50400001928E-02 0. -1.
       -1    1    3    3    0  502  0.58687892082E+03 -0.38083824621E+03  0.15756800955E+04  0.17240163574E+04  0.50400001928E-02 0.  1.
</event>
<event>
 5   0  0.1284837E-05  0.2288409E+04  0.7818609E-02  0.8482505E-01
       -1   -1    0    0    0  501  0.00000000000E+00  0.00000000000E+00  0.16106347392E+04  0.16106347392E+04  0.50400001928E-02 0.  1.
        1   -1    0    0  501    0  0.00000000000E+00  0.00000000000E+00 -0.81284956507E+03  0.81284956508E+03  0.50400001928E-02 0. -1.
    10030    2    1    2    0    0  0.00000000000E+00  0.00000000000E+00  0.79778517412E+03  0.24234843043E+04  0.22884088335E+04 0.  0.
        4    1    3    3  502    0 -0.57806561369E+03 -0.59345493787E+03  0.12346871786E+04  0.14868768137E+04  0.12699999809E+01 0.  1.
       -4    1    3    3    0  502  0.57806561369E+03  0.59345493787E+03 -0.43690200452E+03  0.93660749061E+03  0.12699999809E+01 0. -1.
</event>
<event>
 5   0  0.2994157E-05  0.2300537E+04  0.7818609E-02  0.8477710E-01
       -2   -1    0    0    0  501  0.00000000000E+00  0.00000000000E+00  0.20861865626E+04  0.20861865626E+04  0.25500000920E-02 0. -1.
        2   -1    0    0  501    0  0.00000000000E+00  0.00000000000E+00 -0.63422766052E+03  0.63422766052E+03  0.25500000920E-02 0.  1.
    10030    2    1    2    0    0  0.00000000000E+00  0.00000000000E+00  0.14519589021E+04  0.27204142231E+04  0.23005366531E+04 0.  0.
        4    1    3    3  502    0 -0.22690462602E+03  0.11194350460E+04  0.88679719650E+03  0.14460399069E+04  0.12699999809E+01 0.  1.
       -4    1    3    3    0  502  0.22690462602E+03 -0.11194350460E+04  0.56516170558E+03  0.12743743163E+04  0.12699999809E+01 0. -1.
</event>
<event>
 5   0  0.2994157E-05  0.2288793E+04  0.7818609E-02  0.8482353E-01
        2   -1    0    0  501    0  0.00000000000E+00  0.00000000000E+00  0.17898632039E+04  0.17898632039E+04  0.25500000920E-02 0.  1.
       -2   -1    0    0    0  501  0.00000000000E+00  0.00000000000E+00 -0.73170001029E+03  0.73170001029E+03  0.25500000920E-02 0. -1.
    10030    2    1    2    0    0  0.00000000000E+00  0.00000000000E+00  0.10581631936E+04  0.25215632142E+04  0.22887926290E+04 0.  0.
        4    1    3    3  502    0 -0.20757133035E+03 -0.11131166984E+04  0.34629672239E+03  0.11840767181E+04  0.12699999809E+01 0. -1.
       -4    1    3    3    0  502  0.20757133035E+03  0.11131166984E+04  0.71186647119E+03  0.13374864961E+04  0.12699999809E+01 0.  1.
</event>
<event>
 5   0  0.1303224E-05  0.2301094E+04  0.7818609E-02  0.8477490E-01
       -1   -1    0    0    0  501  0.00000000000E+00  0.00000000000E+00  0.96066926197E+03  0.96066926198E+03  0.50400001928E-02 0.  1.
        1   -1    0    0  501    0  0.00000000000E+00  0.00000000000E+00 -0.13779547372E+04  0.13779547372E+04  0.50400001928E-02 0. -1.
    10030    2    1    2    0    0  0.00000000000E+00  0.00000000000E+00 -0.41728547526E+03  0.23386239992E+04  0.23010943140E+04 0.  0.
        2    1    3    3  502    0  0.36581277177E+03  0.90858975313E+03 -0.82214732016E+03  0.12787808802E+04  0.25500000920E-02 0. -1.
       -2    1    3    3    0  502 -0.36581277177E+03 -0.90858975313E+03  0.40486184491E+03  0.10598431190E+04  0.25500000920E-02 0.  1.
</event>
<event>
 5   0  0.1303224E-05  0.2388456E+04  0.7818609E-02  0.8443838E-01
       -1   -1    0    0    0  501  0.00000000000E+00  0.00000000000E+00  0.86867370039E+03  0.86867370040E+03  0.50400001928E-02 0.  1.
        1   -1    0    0  501    0  0.00000000000E+00  0.00000000000E+00 -0.16417911743E+04  0.16417911743E+04  0.50400001928E-02 0. -1.
    10030    2    1    2    0    0  0.00000000000E+00  0.00000000000E+00 -0.77311747390E+03  0.25104648747E+04  0.23884562501E+04 0.  0.
        2    1    3    3  502    0 -0.97603113434E+03 -0.65162354163E+03 -0.61906144434E+03  0.13268334813E+04  0.25500000920E-02 0.  1.
       -2    1    3    3    0  502  0.97603113434E+03  0.65162354163E+03 -0.15405602955E+03  0.11836313934E+04  0.25500000920E-02 0. -1.
</event>
<event>
 5   0  0.2938972E-05  0.2307824E+04  0.7818609E-02  0.8474843E-01
       -2   -1    0    0    0  501  0.00000000000E+00  0.00000000000E+00  0.12256675449E+04  0.12256675449E+04  0.25500000920E-02 0.  1.
        2   -1    0    0  501    0  0.00000000000E+00  0.00000000000E+00 -0.10863574123E+04  0.10863574123E+04  0.25500000920E-02 0. -1.
    10030    2    1    2    0    0  0.00000000000E+00  0.00000000000E+00  0.13931013261E+03  0.23120249572E+04  0.23078241028E+04 0.  0.
        2    1    3    3  502    0  0.20167969820E+03  0.13933835870E+03  0.11992815592E+04  0.12240776680E+04  0.25500000920E-02 0.  1.
       -2    1    3    3    0  502 -0.20167969820E+03 -0.13933835870E+03 -0.10599714266E+04  0.10879472892E+04  0.25500000920E-02 0. -1.
</event>
<event>
 5   0  0.2871888E-05  0.2301070E+04  0.7818609E-02  0.8477500E-01
       -2   -1    0    0    0  501  0.00000000000E+00  0.00000000000E+00  0.56557637809E+03  0.56557637810E+03  0.25500000920E-02 0. -1.
        2   -1    0    0  501    0  0.00000000000E+00  0.00000000000E+00 -0.23404977958E+04  0.23404977958E+04  0.25500000920E-02 0.  1.
    10030    2    1    2    0    0  0.00000000000E+00  0.00000000000E+00 -0.17749214177E+04  0.29060741739E+04  0.23010695481E+04 0.  0.
        3    1    3    3  502    0  0.90843266139E+03  0.18169408647E+03 -0.17490924411E+04  0.19792895238E+04  0.10100000352E+00 0.  1.
       -3    1    3    3    0  502 -0.90843266139E+03 -0.18169408647E+03 -0.25828976555E+02  0.92678465005E+03  0.10100000352E+00 0. -1.
</event>
<event>
 5   0  0.2938972E-05  0.2294267E+04  0.7818609E-02  0.8480185E-01
        2   -1    0    0  501    0  0.00000000000E+00  0.00000000000E+00  0.11071782692E+04  0.11071782692E+04  0.25500000920E-02 0.  1.
       -2   -1    0    0    0  501  0.00000000000E+00  0.00000000000E+00 -0.11885304552E+04  0.11885304552E+04  0.25500000920E-02 0. -1.
    10030    2    1    2    0    0  0.00000000000E+00  0.00000000000E+00 -0.81352186051E+02  0.22957087244E+04  0.22942668478E+04 0.  0.
        2    1    3    3  502    0 -0.71189145604E+03  0.30961555357E+03  0.80440417939E+03  0.11179075633E+04  0.25500000920E-02 0.  1.
       -2    1    3    3    0  502  0.71189145604E+03 -0.30961555357E+03 -0.88575636544E+03  0.11778011611E+04  0.25500000920E-02 0. -1.
</event>
<event>
 5   0  0.2816178E-05  0.2270189E+04  0.7818609E-02  0.8489769E-01
       -2   -1    0    0    0  501  0.00000000000E+00  0.00000000000E+00  0.11535683152E+04  0.11535683152E+04  0.25500000920E-02 0. -1.
        2   -1    0    0  501    0  0.00000000000E+00  0.00000000000E+00 -0.11169161172E+04  0.11169161172E+04  0.25500000920E-02 0.  1.
    10030    2    1    2    0    0  0.00000000000E+00  0.00000000000E+00  0.36652197936E+02  0.22704844324E+04  0.22701885768E+04 0.  0.
        1    1    3    3  502    0  0.41831052830E+03  0.10725630238E+03 -0.10315494493E+04  0.11182941826E+04  0.50400001928E-02 0.  1.
       -1    1    3    3    0  502 -0.41831052830E+03 -0.10725630238E+03  0.10682016472E+04  0.11521902498E+04  0.50400001928E-02 0. -1.
</event>
<event>
 5   0  0.1308224E-05  0.2300671E+04  0.7818609E-02  0.8477657E-01
        1   -1    0    0  501    0  0.00000000000E+00  0.00000000000E+00  0.12866287796E+04  0.12866287797E+04  0.50400001928E-02 0.  1.
       -1   -1    0    0    0  501  0.00000000000E+00  0.00000000000E+00 -0.10284799754E+04  0.10284799754E+04  0.50400001928E-02 0. -1.
    10030    2    1    2    0    0  0.00000000000E+00  0.00000000000E+00  0.25814880428E+03  0.23151087550E+04  0.23006711504E+04 0.  0.
        5    1    3    3  502    0  0.10062796060E+03  0.12317792892E+03  0.12755003546E+04  0.12853878921E+04  0.46999998093E+01 0.  1.
       -5    1    3    3    0  502 -0.10062796060E+03 -0.12317792892E+03 -0.10173515503E+04  0.10297208629E+04  0.46999998093E+01 0. -1.
</event>
<event>
 5   0  0.2910126E-05  0.2305819E+04  0.7818609E-02  0.8475630E-01
       -2   -1    0    0    0  501  0.00000000000E+00  0.00000000000E+00  0.60005813726E+03  0.60005813726E+03  0.25500000920E-02 0. -1.
        2   -1    0    0  501    0  0.00000000000E+00  0.00000000000E+00 -0.22151197405E+04  0.22151197405E+04  0.25500000920E-02 0.  1.
    10030    2    1    2    0    0  0.00000000000E+00  0.00000000000E+00 -0.16150616033E+04  0.28151778778E+04  0.23058192690E+04 0.  0.
        5    1    3    3  502    0  0.32840481966E+03 -0.10990617971E+04 -0.66624357354E+03  0.13265327545E+04  0.46999998093E+01 0. -1.
       -5    1    3    3    0  502 -0.32840481966E+03  0.10990617971E+04 -0.94881802972E+03  0.14886451233E+04  0.46999998093E+01 0.  1.
</event>
<event>
 5   0  0.2994157E-05  0.2289686E+04  0.7818609E-02  0.8481999E-01
        2   -1    0    0  501    0  0.00000000000E+00  0.00000000000E+00  0.77693911952E+03  0.77693911952E+03  0.25500000920E-02 0.  1.
       -2   -1    0    0    0  501  0.00000000000E+00  0.00000000000E+00 -0.16869603518E+04  0.16869603518E+04  0.25500000920E-02 0. -1.
    10030    2    1    2    0    0  0.00000000000E+00  0.00000000000E+00 -0.91002123228E+03  0.24638994713E+04  0.22896859963E+04 0.  0.
        4    1    3    3  502    0  0.83301825526E+03 -0.72497342100E+03 -0.13011454696E+03  0.11119520147E+04  0.12699999809E+01 0. -1.
       -4    1    3    3    0  502 -0.83301825526E+03  0.72497342100E+03 -0.77990668532E+03  0.13519474566E+04  0.12699999809E+01 0.  1.
</event>
<event>
 5   0  0.2938972E-05  0.2383911E+04  0.7818609E-02  0.8445552E-01
        2   -1    0    0  501    0  0.00000000000E+00  0.00000000000E+00  0.69813229329E+03  0.69813229330E+03  0.25500000920E-02 0. -1.
       -2   -1    0    0    0  501  0.00000000000E+00  0.00000000000E+00 -0.20350832717E+04  0.20350832717E+04  0.25500000920E-02 0.  1.
    10030    2    1    2    0    0  0.00000000000E+00  0.00000000000E+00 -0.13369509784E+04  0.27332155650E+04  0.23839105281E+04 0.  0.
        2    1    3    3  502    0  0.94140794107E+03 -0.17871002223E+03  0.14432268351E+03  0.96902797717E+03  0.25500000920E-02 0. -1.
       -2    1    3    3    0  502 -0.94140794107E+03  0.17871002223E+03 -0.14812736619E+04  0.17641875878E+04  0.25500000920E-02 0.  1.
</event>
<event>
 5   0  0.1308224E-05  0.2299390E+04  0.7818609E-02  0.8478162E-01
       -1   -1    0    0    0  501  0.00000000000E+00  0.00000000000E+00  0.50843716691E+03  0.50843716694E+03  0.50400001928E-02 0. -1.
        1   -1    0    0  501    0  0.00000000000E+00  0.00000000000E+00 -0.25997286345E+04  0.25997286345E+04  0.50400001928E-02 0.  1.
    10030    2    1    2    0    0  0.00000000000E+00  0.00000000000E+00 -0.20912914676E+04  0.31081658014E+04  0.22993900597E+04 0.  0.
        5    1    3    3  502    0 -0.10460936639E+04 -0.30414401683E+03 -0.15422331708E+04  0.18882057038E+04  0.46999998093E+01 0.  1.
       -5    1    3    3    0  502  0.10460936639E+04  0.30414401683E+03 -0.54905829678E+03  0.12199600977E+04  0.46999998093E+01 0. -1.
</event>
<event>
 5   0  0.1308224E-05  0.2288002E+04  0.7818609E-02  0.8482667E-01
        1   -1    0    0  501    0  0.00000000000E+00  0.00000000000E+00  0.27682722733E+04  0.27682722733E+04  0.50400001928E-02 0.  1.
       -1   -1    0    0    0  501  0.00000000000E+00  0.00000000000E+00 -0.47276377257E+03  0.47276377260E+03  0.50400001928E-02 0. -1.
    10030    2    1    2    0    0  0.00000000000E+00  0.00000000000E+00  0.22955085007E+04  0.32410360459E+04  0.22880024856E+04 0.  0.
        5    1    3    3  502    0 -0.60541211597E+03 -0.74243241036E+03  0.26200957560E+03  0.99317713517E+03  0.46999998093E+01 0. -1.
       -5    1    3    3    0  502  0.60541211597E+03  0.74243241036E+03  0.20334989251E+04  0.22478589107E+04  0.46999998093E+01 0.  1.
</event>
<event>
 5   0  0.2816178E-05  0.2299856E+04  0.7818609E-02  0.8477978E-01
        2   -1    0    0  501    0  0.00000000000E+00  0.00000000000E+00  0.13969034695E+04  0.13969034695E+04  0.25500000920E-02 0.  1.
       -2   -1    0    0    0  501  0.00000000000E+00  0.00000000000E+00 -0.94661849014E+03  0.94661849014E+03  0.25500000920E-02 0. -1.
    10030    2    1    2    0    0  0.00000000000E+00  0.00000000000E+00  0.45028497940E+03  0.23435219597E+04  0.22998562157E+04 0.  0.
        1    1    3    3  502    0 -0.11445902205E+03 -0.26503388370E+03  0.13593757736E+04  0.13896928873E+04  0.50400001928E-02 0.  1.
       -1    1    3    3    0  502  0.11445902205E+03  0.26503388370E+03 -0.90909079417E+03  0.95382907237E+03  0.50400001928E-02 0. -1.
</event>
<event>
 5   0  0.2910126E-05  0.2314580E+04  0.7818609E-02  0.8472194E-01
       -2   -1    0    0    0  501  0.00000000000E+00  0.00000000000E+00  0.14823908597E+04  0.14823908597E+04  0.25500000920E-02 0.  1.
        2   -1    0    0  501    0  0.00000000000E+00  0.00000000000E+00 -0.90348658661E+03  0.90348658661E+03  0.25500000920E-02 0. -1.
    10030    2    1    2    0    0  0.00000000000E+00  0.00000000000E+00  0.57890427309E+03  0.23858774463E+04  0.23145800983E+04 0.  0.
        5    1    3    3  502    0 -0.64770533765E+03  0.95751003022E+03  0.34544389780E+03  0.12065244461E+04  0.46999998093E+01 0.  1.
       -5    1    3    3    0  502  0.64770533765E+03 -0.95751003022E+03  0.23346037529E+03  0.11793530003E+04  0.46999998093E+01 0. -1.
</event>
<event>
 5   0  0.2910126E-05  0.2303454E+04  0.7818609E-02  0.8476561E-01
       -2   -1    0    0    0  501  0.00000000000E+00  0.00000000000E+00  0.10283749021E+04  0.10283749021E+04  0.25500000920E-02 0. -1.
        2   -1    0    0  501    0  0.00000000000E+00  0.00000000000E+00 -0.12898749942E+04  0.12898749942E+04  0.25500000920E-02 0.  1.
    10030    2    1    2    0    0  0.00000000000E+00  0.00000000000E+00 -0.26150009205E+03  0.23182498963E+04  0.23034539899E+04 0.  0.
        5    1    3    3  502    0  0.83985980102E+03 -0.49577497551E+02 -0.92233292931E+03  0.12484160108E+04  0.46999998093E+01 0.  1.
       -5    1    3    3    0  502 -0.83985980102E+03  0.49577497551E+02  0.66083283726E+03  0.10698338854E+04  0.46999998093E+01 0. -1.
</event>
<event>
 5   0  0.1284837E-05  0.2318577E+04  0.7818609E-02  0.8470632E-01
       -1   -1    0    0    0  501  0.00000000000E+00  0.00000000000E+00  0.17627734844E+04  0.17627734844E+04  0.50400001928E-02 0.  1.
        1   -1    0    0  501    0  0.00000000000E+00  0.00000000000E+00 -0.76240621051E+03  0.76240621052E+03  0.50400001928E-02 0. -1.
    10030    2    1    2    0    0  0.00000000000E+00  0.00000000000E+00  0.10003672739E+04  0.25251796950E+04  0.23185766774E+04 0.  0.
        4    1    3    3  502    0 -0.37043226713E+03  0.31635200511E+03 -0.64552928024E+03  0.80870780892E+03  0.12699999809E+01 0. -1.
       -4    1    3    3    0  502  0.37043226713E+03 -0.31635200511E+03  0.16458965542E+04  0.17164718860E+04  0.12699999809E+01 0.  1.
</event>
<event>
 5   0  0.1284837E-05  0.2302880E+04  0.7818609E-02  0.8476787E-01
       -1   -1    0    0    0  501  0.00000000000E+00  0.00000000000E+00  0.11381614076E+04  0.11381614077E+04  0.50400001928E-02 0.  1.
        1   -1    0    0  501    0  0.00000000000E+00  0.00000000000E+00 -0.11648730479E+04  0.11648730479E+04  0.50400001928E-02 0. -1.
    10030    2    1    2    0    0  0.00000000000E+00  0.00000000000E+00 -0.26711640223E+02  0.23030344555E+04  0.23028795435E+04 0.  0.
        4    1    3    3  502    0 -0.70761957402E+03  0.83443499906E+03 -0.37227368745E+03  0.11556801203E+04  0.12699999809E+01 0.  1.
       -4    1    3    3    0  502  0.70761957402E+03 -0.83443499906E+03  0.34556204723E+03  0.11473543352E+04  0.12699999809E+01 0. -1.
</event>
<event>
 5   0  0.1303224E-05  0.2306103E+04  0.7818609E-02  0.8475519E-01
        1   -1    0    0  501    0  0.00000000000E+00  0.00000000000E+00  0.14406486787E+04  0.14406486787E+04  0.50400001928E-02 0. -1.
       -1   -1    0    0    0  501  0.00000000000E+00  0.00000000000E+00 -0.92286734617E+03  0.92286734618E+03  0.50400001928E-02 0.  1.
    10030    2    1    2    0    0  0.00000000000E+00  0.00000000000E+00  0.51778133252E+03  0.23635160249E+04  0.23061028797E+04 0.  0.
        2    1    3    3  502    0 -0.11094095017E+04 -0.25028292567E+03  0.45361187104E+03  0.12244160710E+04  0.25500000920E-02 0. -1.
       -2    1    3    3    0  502  0.11094095017E+04  0.25028292567E+03  0.64169461474E+02  0.11390999539E+04  0.25500000920E-02 0.  1.
</event>
<event>
 5   0  0.2816178E-05  0.2317973E+04  0.7818609E-02  0.8470868E-01
       -2   -1    0    0    0  501  0.00000000000E+00  0.00000000000E+00  0.92693350476E+03  0.92693350476E+03  0.25500000920E-02 0.  1.
        2   -1    0    0  501    0  0.00000000000E+00  0.00000000000E+00 -0.14491333830E+04  0.14491333830E+04  0.25500000920E-02 0. -1.
    10030    2    1    2    0    0  0.00000000000E+00  0.00000000000E+00 -0.52219987823E+03  0.23760668878E+04  0.23179734990E+04 0.  0.
        1    1    3    3  502    0 -0.13438700699E+03  0.98400559117E+03 -0.87350351111E+03  0.13226243817E+04  0.50400001928E-02 0. -1.
       -1    1    3    3    0  502  0.13438700699E+03 -0.98400559117E+03  0.35130363288E+03  0.10534425061E+04  0.50400001928E-02 0.  1.
</event>
<event>
 5   0  0.2910126E-05  0.2243908E+04  0.7818609E-02  0.8500372E-01
       -2   -1    0    0    0  501  0.00000000000E+00  0.00000000000E+00  0.87224542133E+03  0.87224542134E+03  0.25500000920E-02 0. -1.
        2   -1    0    0  501    0  0.00000000000E+00  0.00000000000E+00 -0.14431497726E+04  0.14431497726E+04  0.25500000920E-02 0.  1.
    10030    2    1    2    0    0  0.00000000000E+00  0.00000000000E+00 -0.57090435123E+03  0.23153951939E+04  0.22439080029E+04 0.  0.
        5    1    3    3  502    0 -0.42377410471E+02 -0.97877159222E+03 -0.84965229222E+03  0.12968117760E+04  0.46999998093E+01 0.  1.
       -5    1    3    3    0  502  0.42377410471E+02  0.97877159222E+03  0.27874794099E+03  0.10185834179E+04  0.46999998093E+01 0. -1.
</event>
<event>
 5   0  0.2871888E-05  0.2280878E+04  0.7818609E-02  0.8485499E-01
        2   -1    0    0  501    0  0.00000000000E+00  0.00000000000E+00  0.22171536807E+04  0.22171536807E+04  0.25500000920E-02 0.  1.
       -2   -1    0    0    0  501  0.00000000000E+00  0.00000000000E+00 -0.58660822737E+03  0.58660822738E+03  0.25500000920E-02 0. -1.
    10030    2    1    2    0    0  0.00000000000E+00  0.00000000000E+00  0.16305454534E+04  0.28037619081E+04  0.22808775421E+04 0.  0.
        3    1    3    3  502    0  0.19814318423E+03  0.11034506475E+04  0.10723485947E+04  0.15513850495E+04  0.10100000352E+00 0.  1.
       -3    1    3    3    0  502 -0.19814318423E+03 -0.11034506475E+04  0.55819685866E+03  0.12523768587E+04  0.10100000352E+00 0. -1.
</event>
<event>
 5   0  0.1284837E-05  0.2269944E+04  0.7818609E-02  0.8489867E-01
       -1   -1    0    0    0  501  0.00000000000E+00  0.00000000000E+00  0.13089368118E+04  0.13089368118E+04  0.50400001928E-02 0.  1.
        1   -1    0    0  501    0  0.00000000000E+00  0.00000000000E+00 -0.98412833481E+03  0.98412833482E+03  0.50400001928E-02 0. -1.
    10030    2    1    2    0    0  0.00000000000E+00  0.00000000000E+00  0.32480847699E+03  0.22930651466E+04  0.22699443209E+04 0.  0.
        4    1    3    3  502    0  0.27564554333E+03 -0.10572148103E+04 -0.14809693844E+03  0.11025506505E+04  0.12699999809E+01 0. -1.
       -4    1    3    3    0  502 -0.27564554333E+03  0.10572148103E+04  0.47290541543E+03  0.11905144962E+04  0.12699999809E+01 0.  1.
</event>
<event>
 5   0  0.2816178E-05  0.2344856E+04  0.7818609E-02  0.8460442E-01
        2   -1    0    0  501    0  0.00000000000E+00  0.00000000000E+00  0.77840576315E+03  0.77840576315E+03  0.25500000920E-02 0. -1.
       -2   -1    0    0    0  501  0.00000000000E+00  0.00000000000E+00 -0.17659004159E+04  0.17659004159E+04  0.25500000920E-02 0.  1.
    10030    2    1    2    0    0  0.00000000000E+00  0.00000000000E+00 -0.98749465276E+03  0.25443061791E+04  0.23448556978E+04 0.  0.
        1    1    3    3  502    0 -0.16327756093E+03  0.77735541671E+03 -0.14294468113E+04  0.16353162362E+04  0.50400001928E-02 0.  1.
       -1    1    3    3    0  502  0.16327756093E+03 -0.77735541671E+03  0.44195215858E+03  0.90898994290E+03  0.50400001928E-02 0. -1.
</event>
<event>
 5   0  0.1284837E-05  0.2274840E+04  0.7818609E-02  0.8487908E-01
        1   -1    0    0  501    0  0.00000000000E+00  0.00000000000E+00  0.16702525735E+04  0.16702525735E+04  0.50400001928E-02 0. -1.
       -1   -1    0    0    0  501  0.00000000000E+00  0.00000000000E+00 -0.77456791166E+03  0.77456791167E+03  0.50400001928E-02 0.  1.
    10030    2    1    2    0    0  0.00000000000E+00  0.00000000000E+00  0.89568466182E+03  0.24448204852E+04  0.22748398166E+04 0.  0.
        4    1    3    3  502    0  0.10204860228E+04  0.21096689345E+03  0.93778320450E+03  0.14019050269E+04  0.12699999809E+01 0.  1.
       -4    1    3    3    0  502 -0.10204860228E+04 -0.21096689345E+03 -0.42098542686E+02  0.10429154583E+04  0.12699999809E+01 0. -1.
</event>
<event>
 5   0  0.2871888E-05  0.2319234E+04  0.7818609E-02  0.8470376E-01
        2   -1    0    0  501    0  0.00000000000E+00  0.00000000000E+00  0.14863816006E+04  0.14863816006E+04  0.25500000920E-02 0.  1.
       -2   -1    0    0    0  501  0.00000000000E+00  0.00000000000E+00 -0.90468797092E+03  0.90468797092E+03  0.25500000920E-02 0. -1.
    10030    2    1    2    0    0  0.00000000000E+00  0.00000000000E+00  0.58169362963E+03  0.23910695715E+04  0.23192339720E+04 0.  0.
        3    1    3    3  502    0 -0.74023008674E+03  0.38245651573E+03  0.11223628404E+04  0.13978239959E+04  0.10100000352E+00 0.  1.
       -3    1    3    3    0  502  0.74023008674E+03 -0.38245651573E+03 -0.54066921078E+03  0.99324557559E+03  0.10100000352E+00 0. -1.
</event>
<event>
 5   0  0.2994157E-05  0.2275862E+04  0.7818609E-02  0.8487500E-01
        2   -1    0    0  501    0  0.00000000000E+00  0.00000000000E+00  0.17400880543E+04  0.17400880543E+04  0.25500000920E-02 0.  1.
       -2   -1    0    0    0  501  0.00000000000E+00  0.00000000000E+00 -0.74415038858E+03  0.74415038858E+03  0.25500000920E-02 0. -1.
    10030    2    1    2    0    0  0.00000000000E+00  0.00000000000E+00  0.99593766568E+03  0.24842384428E+04  0.22758622118E+04 0.  0.
        4    1    3    3  502    0  0.10363060829E+03  0.26917687790E+03 -0.70358460932E+03  0.76041331520E+03  0.12699999809E+01 0. -1.
       -4    1    3    3    0  502 -0.10363060829E+03 -0.26917687790E+03  0.16995222750E+04  0.17238251276E+04  0.12699999809E+01 0.  1.
</event>
<event>
 5   0  0.1327820E-05  0.2311808E+04  0.7818609E-02  0.8473280E-01
        1   -1    0    0  501    0  0.00000000000E+00  0.00000000000E+00  0.21611009046E+04  0.21611009046E+04  0.50400001928E-02 0. -1.
       -1   -1    0    0    0  501  0.00000000000E+00  0.00000000000E+00 -0.61825607517E+03  0.61825607519E+03  0.50400001928E-02 0.  1.
    10030    2    1    2    0    0  0.00000000000E+00  0.00000000000E+00  0.15428448294E+04  0.27793569798E+04  0.23118077458E+04 0.  0.
        1    1    3    3  502    0 -0.11380527216E+04  0.18476473044E+03  0.67219714156E+03  0.13345976922E+04  0.50400001928E-02 0.  1.
       -1    1    3    3    0  502  0.11380527216E+04 -0.18476473044E+03  0.87064768787E+03  0.14447592876E+04  0.50400001928E-02 0. -1.
</event>
<event>
 5   0  0.2816178E-05  0.2201430E+04  0.7818609E-02  0.8517833E-01
       -2   -1    0    0    0  501  0.00000000000E+00  0.00000000000E+00  0.87310806086E+03  0.87310806086E+03  0.25500000920E-02 0. -1.
        2   -1    0    0  501    0  0.00000000000E+00  0.00000000000E+00 -0.13876559400E+04  0.13876559400E+04  0.25500000920E-02 0.  1.
    10030    2    1    2    0    0  0.00000000000E+00  0.00000000000E+00 -0.51454787917E+03  0.22607640009E+04  0.22014300688E+04 0.  0.
        1    1    3    3  502    0 -0.28193571700E+03 -0.10510268281E+03 -0.13446023783E+04  0.13778569876E+04  0.50400001928E-02 0.  1.
       -1    1    3    3    0  502  0.28193571700E+03  0.10510268281E+03  0.83005449917E+03  0.88290701327E+03  0.50400001928E-02 0. -1.
</event>
<event>
 5   0  0.1308224E-05  0.2183493E+04  0.7818609E-02  0.8525330E-01
       -1   -1    0    0    0  501  0.00000000000E+00  0.00000000000E+00  0.93244090653E+03  0.93244090654E+03  0.50400001928E-02 0.  1.
        1   -1    0    0  501    0  0.00000000000E+00  0.00000000000E+00 -0.12782695304E+04  0.12782695304E+04  0.50400001928E-02 0. -1.
    10030    2    1    2    0    0  0.00000000000E+00  0.00000000000E+00 -0.34582862386E+03  0.22107104369E+04  0.21834933476E+04 0.  0.
        5    1    3    3  502    0  0.10203490971E+04  0.26760923724E+03  0.11194971929E+03  0.10607930116E+04  0.46999998093E+01 0.  1.
       -5    1    3    3    0  502 -0.10203490971E+04 -0.26760923724E+03 -0.45777834315E+03  0.11499174254E+04  0.46999998093E+01 0. -1.
</event>
<event>
 5   0  0.1308224E-05  0.2303721E+04  0.7818609E-02  0.8476455E-01
       -1   -1    0    0    0  501  0.00000000000E+00  0.00000000000E+00  0.72131194122E+03  0.72131194124E+03  0.50400001928E-02 0. -1.
        1   -1    0    0  501    0  0.00000000000E+00  0.00000000000E+00 -0.18394022786E+04  0.18394022786E+04  0.50400001928E-02 0.  1.
    10030    2    1    2    0    0  0.00000000000E+00  0.00000000000E+00 -0.11180903374E+04  0.25607142198E+04  0.23037211882E+04 0.  0.
        5    1    3    3  502    0 -0.79137148851E+03 -0.82952273720E+03 -0.68274255108E+03  0.13343673727E+04  0.46999998093E+01 0.  1.
       -5    1    3    3    0  502  0.79137148851E+03  0.82952273720E+03 -0.43534778627E+03  0.12263468471E+04  0.46999998093E+01 0. -1.
</event>
<event>
 5   0  0.1284837E-05  0.2303822E+04  0.7818609E-02  0.8476416E-01
        1   -1    0    0  501    0  0.00000000000E+00  0.00000000000E+00  0.79706973097E+03  0.79706973099E+03  0.50400001928E-02 0.  1.
       -1   -1    0    0    0  501  0.00000000000E+00  0.00000000000E+00 -0.16647218456E+04  0.16647218456E+04  0.50400001928E-02 0. -1.
    10030    2    1    2    0    0  0.00000000000E+00  0.00000000000E+00 -0.86765211464E+03  0.24617915766E+04  0.23038223835E+04 0.  0.
        4    1    3    3  502    0  0.11353187084E+04  0.18902213977E+03 -0.48417186286E+03  0.12486400381E+04  0.12699999809E+01 0.  1.
       -4    1    3    3    0  502 -0.11353187084E+04 -0.18902213977E+03 -0.38348025178E+03  0.12131515385E+04  0.12699999809E+01 0. -1.
</event>
<event>
 5   0  0.1371753E-05  0.2302496E+04  0.7818609E-02  0.8476938E-01
        1   -1    0    0  501    0  0.00000000000E+00  0.00000000000E+00  0.11181070889E+04  0.11181070889E+04  0.50400001928E-02 0.  1.
       -1   -1    0    0    0  501  0.00000000000E+00  0.00000000000E+00 -0.11853714212E+04  0.11853714212E+04  0.50400001928E-02 0. -1.
    10030    2    1    2    0    0  0.00000000000E+00  0.00000000000E+00 -0.67264332320E+02  0.23034785101E+04  0.23024962011E+04 0.  0.
        3    1    3    3  502    0  0.55714234519E+02 -0.41505970614E+03 -0.11064671913E+04  0.11830673232E+04  0.10100000352E+00 0. -1.
       -3    1    3    3    0  502 -0.55714234519E+02  0.41505970614E+03  0.10392028589E+04  0.11204111869E+04  0.10100000352E+00 0.  1.
</event>
<event>
 5   0  0.1371753E-05  0.2299257E+04  0.7818609E-02  0.8478214E-01
        1   -1    0    0  501    0  0.00000000000E+00  0.00000000000E+00  0.18175763448E+04  0.18175763448E+04  0.50400001928E-02 0.  1.
       -1   -1    0    0    0  501  0.00000000000E+00  0.00000000000E+00 -0.72714714581E+03  0.72714714582E+03  0.50400001928E-02 0. -1.
    10030    2    1    2    0    0  0.00000000000E+00  0.00000000000E+00  0.10904291990E+04  0.25447234906E+04  0.22992567942E+04 0.  0.
        3    1    3    3  502    0  0.87873903165E+03  0.68672408190E+03  0.23636495526E+03  0.11400178300E+04  0.10100000352E+00 0. -1.
       -3    1    3    3    0  502 -0.87873903165E+03 -0.68672408190E+03  0.85406424371E+03  0.14047056606E+04  0.10100000352E+00 0.  1.
</event>
<event>
 5   0  0.1284837E-05  0.2044341E+04  0.7818609E-02  0.8586166E-01
        1   -1    0    0  501    0  0.00000000000E+00  0.00000000000E+00  0.18883229018E+04  0.18883229018E+04  0.50400001928E-02 0. -1.
       -1   -1    0    0    0  501  0.00000000000E+00  0.00000000000E+00 -0.55331239375E+03  0.55331239378E+03  0.50400001928E-02 0.  1.
    10030    2    1    2    0    0  0.00000000000E+00  0.00000000000E+00  0.13350105080E+04  0.24416352956E+04  0.20443409354E+04 0.  0.
        4    1    3    3  502    0  0.69152194745E+03  0.61054598376E+03  0.14164100544E+03  0.93329137434E+03  0.12699999809E+01 0.  1.
       -4    1    3    3    0  502 -0.69152194745E+03 -0.61054598376E+03  0.11933695026E+04  0.15083439212E+04  0.12699999809E+01 0. -1.
</event>
<event>
 5   0  0.1371753E-05  0.2174369E+04  0.7818609E-02  0.8529173E-01
       -1   -1    0    0    0  501  0.00000000000E+00  0.00000000000E+00  0.93963916547E+03  0.93963916549E+03  0.50400001928E-02 0.  1.
        1   -1    0    0  501    0  0.00000000000E+00  0.00000000000E+00 -0.12578977063E+04  0.12578977063E+04  0.50400001928E-02 0. -1.
    10030    2    1    2    0    0  0.00000000000E+00  0.00000000000E+00 -0.31825854082E+03  0.21975368718E+04  0.21743688289E+04 0.  0.
        3    1    3    3  502    0  0.57327980576E+01  0.10871098609E+04 -0.14764037645E+03  0.10971045555E+04  0.10100000352E+00 0.  1.
       -3    1    3    3    0  502 -0.57327980576E+01 -0.10871098609E+04 -0.17061816437E+03  0.11004323163E+04  0.10100000352E+00 0. -1.
</event>
<event>
 5   0  0.1327820E-05  0.2301491E+04  0.7818609E-02  0.8477334E-01
       -1   -1    0    0    0  501  0.00000000000E+00  0.00000000000E+00  0.12461246271E+04  0.12461246271E+04  0.50400001928E-02 0. -1.
        1   -1    0    0  501    0  0.00000000000E+00  0.00000000000E+00 -0.10626666272E+04  0.10626666272E+04  0.50400001928E-02 0.  1.
    10030    2    1    2    0    0  0.00000000000E+00  0.00000000000E+00  0.18345799997E+03  0.23087912543E+04  0.23014908686E+04 0.  0.
        1    1    3    3  502    0  0.29906623687E+03  0.90405068571E+03 -0.55643720445E+03  0.11028919344E+04  0.50400001928E-02 0.  1.
       -1    1    3    3    0  502 -0.29906623687E+03 -0.90405068571E+03  0.73989520442E+03  0.12058993200E+04  0.50400001928E-02 0. -1.
</event>
<event>
 5   0  0.1308224E-05  0.2298611E+04  0.7818609E-02  0.8478469E-01
       -1   -1    0    0    0  501  0.00000000000E+00  0.00000000000E+00  0.11522025297E+04  0.11522025297E+04  0.50400001928E-02 0. -1.
        1   -1    0    0  501    0  0.00000000000E+00  0.00000000000E+00 -0.11464161220E+04  0.11464161220E+04  0.50400001928E-02 0.  1.
    10030    2    1    2    0    0  0.00000000000E+00  0.00000000000E+00  0.57864077155E+01  0.22986186518E+04  0.22986113686E+04 0.  0.
        5    1    3    3  502    0  0.10232802606E+04  0.11894198031E+03  0.51243557197E+03  0.11505920179E+04  0.46999998093E+01 0. -1.
       -5    1    3    3    0  502 -0.10232802606E+04 -0.11894198031E+03 -0.50664916425E+03  0.11480266338E+04  0.46999998093E+01 0.  1.
</event>
<event>
 5   0  0.2871888E-05  0.2298579E+04  0.7818609E-02  0.8478482E-01
       -2   -1    0    0    0  501  0.00000000000E+00  0.00000000000E+00  0.64990849967E+03  0.64990849968E+03  0.25500000920E-02 0.  1.
        2   -1    0    0  501    0  0.00000000000E+00  0.00000000000E+00 -0.20323880059E+04  0.20323880059E+04  0.25500000920E-02 0. -1.
    10030    2    1    2    0    0  0.00000000000E+00  0.00000000000E+00 -0.13824795062E+04  0.26822965056E+04  0.22985788998E+04 0.  0.
        3    1    3    3  502    0 -0.12795878954E+02  0.10840099313E+04 -0.11365526605E+04  0.15706664910E+04  0.10100000352E+00 0. -1.
       -3    1    3    3    0  502  0.12795878954E+02 -0.10840099313E+04 -0.24592684571E+03  0.11116300146E+04  0.10100000352E+00 0.  1.
</event>
<event>
 5   0  0.2938972E-05  0.2253878E+04  0.7818609E-02  0.8496331E-01
        2   -1    0    0  501    0  0.00000000000E+00  0.00000000000E+00  0.12922479869E+04  0.12922479869E+04  0.25500000920E-02 0.  1.
       -2   -1    0    0    0  501  0.00000000000E+00  0.00000000000E+00 -0.98277731056E+03  0.98277731056E+03  0.25500000920E-02 0. -1.
    10030    2    1    2    0    0  0.00000000000E+00  0.00000000000E+00  0.30947067630E+03  0.22750252974E+04  0.22538784360E+04 0.  0.
        2    1    3    3  502    0  0.58000443858E+01 -0.17248480806E+03 -0.96935934185E+03  0.98460255086E+03  0.25500000920E-02 0. -1.
       -2    1    3    3    0  502 -0.58000443858E+01  0.17248480806E+03  0.12788300181E+04  0.12904227466E+04  0.25500000920E-02 0.  1.
</event>
<event>
 5   0  0.1308224E-05  0.2350289E+04  0.7818609E-02  0.8458353E-01
        1   -1    0    0  501    0  0.00000000000E+00  0.00000000000E+00  0.16433521750E+04  0.16433521750E+04  0.50400001928E-02 0.  1.
       -1   -1    0    0    0  501  0.00000000000E+00  0.00000000000E+00 -0.84033414279E+03  0.84033414281E+03  0.50400001928E-02 0. -1.
    10030    2    1    2    0    0  0.00000000000E+00  0.00000000000E+00  0.80301803217E+03  0.24836863178E+04  0.23502892939E+04 0.  0.
        5    1    3    3  502    0  0.33422455707E+03 -0.10382823032E+04 -0.60581361827E+02  0.10924414799E+04  0.46999998093E+01 0. -1.
       -5    1    3    3    0  502 -0.33422455707E+03  0.10382823032E+04  0.86359939399E+03  0.13912448379E+04  0.46999998093E+01 0.  1.
</event>
<event>
 5   0  0.2871888E-05  0.2303904E+04  0.7818609E-02  0.8476383E-01
        2   -1    0    0  501    0  0.00000000000E+00  0.00000000000E+00  0.67185325834E+03  0.67185325835E+03  0.25500000920E-02 0.  1.
       -2   -1    0    0    0  501  0.00000000000E+00  0.00000000000E+00 -0.19751243410E+04  0.19751243410E+04  0.25500000920E-02 0. -1.
    10030    2    1    2    0    0  0.00000000000E+00  0.00000000000E+00 -0.13032710826E+04  0.26469775993E+04  0.23039042724E+04 0.  0.
        3    1    3    3  502    0 -0.10431478507E+04  0.11796225465E+03 -0.10675535678E+03  0.10552105233E+04  0.10100000352E+00 0.  1.
       -3    1    3    3    0  502  0.10431478507E+04 -0.11796225465E+03 -0.11965157259E+04  0.15917670761E+04  0.10100000352E+00 0. -1.
</event>
<event>
 5   0  0.2816178E-05  0.2290233E+04  0.7818609E-02  0.8481782E-01
        2   -1    0    0  501    0  0.00000000000E+00  0.00000000000E+00  0.22496583750E+04  0.22496583750E+04  0.25500000920E-02 0.  1.
       -2   -1    0    0    0  501  0.00000000000E+00  0.00000000000E+00 -0.58288475253E+03  0.58288475254E+03  0.25500000920E-02 0. -1.
    10030    2    1    2    0    0  0.00000000000E+00  0.00000000000E+00  0.16667736224E+04  0.28325431275E+04  0.22902327962E+04 0.  0.
        1    1    3    3  502    0 -0.71201592595E+03 -0.82918934104E+03  0.12560188322E+04  0.16649639483E+04  0.50400001928E-02 0.  1.
       -1    1    3    3    0  502  0.71201592595E+03  0.82918934104E+03  0.41075479022E+03  0.11675791792E+04  0.50400001928E-02 0. -1.
</event>
<event>
 5   0  0.2994157E-05  0.2331475E+04  0.7818609E-02  0.8465613E-01
       -2   -1    0    0    0  501  0.00000000000E+00  0.00000000000E+00  0.64647193622E+03  0.64647193622E+03  0.25500000920E-02 0. -1.
        2   -1    0    0  501    0  0.00000000000E+00  0.00000000000E+00 -0.21020920703E+04  0.21020920703E+04  0.25500000920E-02 0.  1.
    10030    2    1    2    0    0  0.00000000000E+00  0.00000000000E+00 -0.14556201341E+04  0.27485640066E+04  0.23314746671E+04 0.  0.
        4    1    3    3  502    0 -0.10504358361E+04  0.31853064780E+03 -0.11905390723E+04  0.16193400245E+04  0.12699999809E+01 0.  1.
       -4    1    3    3    0  502  0.10504358361E+04 -0.31853064780E+03 -0.26508106186E+03  0.11292239821E+04  0.12699999809E+01 0. -1.
</event>
<event>
 5   0  0.2938972E-05  0.2295243E+04  0.7818609E-02  0.8479799E-01
        2   -1    0    0  501    0  0.00000000000E+00  0.00000000000E+00  0.10206739914E+04  0.10206739914E+04  0.25500000920E-02 0.  1.
       -2   -1    0    0    0  501  0.00000000000E+00  0.00000000000E+00 -0.12903577564E+04  0.12903577564E+04  0.25500000920E-02 0. -1.
    10030    2    1    2    0    0  0.00000000000E+00  0.00000000000E+00 -0.26968376501E+03  0.23110317479E+04  0.22952425594E+04 0.  0.
        2    1    3    3  502    0 -0.41223375946E+03 -0.37915692069E+03 -0.11434000365E+04  0.12732086579E+04  0.25500000920E-02 0. -1.
       -2    1    3    3    0  502  0.41223375946E+03  0.37915692069E+03  0.87371627154E+03  0.10378230900E+04  0.25500000920E-02 0.  1.
</event>
<event>
 5   0  0.1308224E-05  0.2298542E+04  0.7818609E-02  0.8478496E-01
       -1   -1    0    0    0  501  0.00000000000E+00  0.00000000000E+00  0.96839722950E+03  0.96839722951E+03  0.50400001928E-02 0. -1.
        1   -1    0    0  501    0  0.00000000000E+00  0.00000000000E+00 -0.13639277442E+04  0.13639277442E+04  0.50400001928E-02 0.  1.
    10030    2    1    2    0    0  0.00000000000E+00  0.00000000000E+00 -0.39553051474E+03  0.23323249738E+04  0.22985420151E+04 0.  0.
        5    1    3    3  502    0  0.11481661466E+04  0.34245653397E+02 -0.16057283482E+03  0.11598551591E+04  0.46999998093E+01 0.  1.
       -5    1    3    3    0  502 -0.11481661466E+04 -0.34245653397E+02 -0.23495767991E+03  0.11724698146E+04  0.46999998093E+01 0. -1.
</event>
<event>
 5   0  0.2938972E-05  0.2402008E+04  0.7818609E-02  0.8438752E-01
        2   -1    0    0  501    0  0.00000000000E+00  0.00000000000E+00  0.15759521459E+04  0.15759521459E+04  0.25500000920E-02 0. -1.
       -2   -1    0    0    0  501  0.00000000000E+00  0.00000000000E+00 -0.91526321813E+03  0.91526321813E+03  0.25500000920E-02 0.  1.
    10030    2    1    2    0    0  0.00000000000E+00  0.00000000000E+00  0.66068892781E+03  0.24912153641E+04  0.24020083536E+04 0.  0.
        2    1    3    3  502    0 -0.11011821628E+04 -0.46969514536E+03  0.42979813829E+03  0.12719835396E+04  0.25500000920E-02 0. -1.
       -2    1    3    3    0  502  0.11011821628E+04  0.46969514536E+03  0.23089078952E+03  0.12192318245E+04  0.25500000920E-02 0.  1.
</event>
<event>
 5   0  0.1308224E-05  0.2305608E+04  0.7818609E-02  0.8475713E-01
        1   -1    0    0  501    0  0.00000000000E+00  0.00000000000E+00  0.12818416452E+04  0.12818416452E+04  0.50400001928E-02 0. -1.
       -1   -1    0    0    0  501  0.00000000000E+00  0.00000000000E+00 -0.10367564339E+04  0.10367564340E+04  0.50400001928E-02 0.  1.
    10030    2    1    2    0    0  0.00000000000E+00  0.00000000000E+00  0.24508521123E+03  0.23185980791E+04  0.23056084429E+04 0.  0.
        5    1    3    3  502    0 -0.71677899629E+03 -0.16963385413E+03 -0.76923852013E+03  0.10650341613E+04  0.46999998093E+01 0.  1.
       -5    1    3    3    0  502  0.71677899629E+03  0.16963385413E+03  0.10143237314E+04  0.12535639178E+04  0.46999998093E+01 0. -1.
</event>
<event>
 5   0  0.1284837E-05  0.2299654E+04  0.7818609E-02  0.8478057E-01
       -1   -1    0    0    0  501  0.00000000000E+00  0.00000000000E+00  0.11675453229E+04  0.11675453229E+04  0.50400001928E-02 0.  1.
        1   -1    0    0  501    0  0.00000000000E+00  0.00000000000E+00 -0.11323777731E+04  0.11323777731E+04  0.50400001928E-02 0. -1.
    10030    2    1    2    0    0  0.00000000000E+00  0.00000000000E+00  0.35167549804E+02  0.22999230961E+04  0.22996542112E+04 0.  0.
        4    1    3    3  502    0 -0.32976418560E+03 -0.57221584834E+03  0.95892991142E+03  0.11643554368E+04  0.12699999809E+01 0.  1.
       -4    1    3    3    0  502  0.32976418560E+03  0.57221584834E+03 -0.92376236162E+03  0.11355676593E+04  0.12699999809E+01 0. -1.
</event>
<event>
 5   0  0.1303224E-05  0.2294960E+04  0.7818609E-02  0.8479911E-01
       -1   -1    0    0    0  501  0.00000000000E+00  0.00000000000E+00  0.80444285154E+03  0.80444285156E+03  0.50400001928E-02 0. -1.
        1   -1    0    0  501    0  0.00000000000E+00  0.00000000000E+00 -0.16367977264E+04  0.16367977264E+04  0.50400001928E-02 0.  1.
    10030    2    1    2    0    0  0.00000000000E+00  0.00000000000E+00 -0.83235487484E+03  0.24412405780E+04  0.22949598955E+04 0.  0.
        2    1    3    3  502    0  0.11220734722E+04  0.12409626080E+03 -0.63485679342E+03  0.12951802605E+04  0.25500000920E-02 0.  1.
       -2    1    3    3    0  502 -0.11220734722E+04 -0.12409626080E+03 -0.19749808143E+03  0.11460603174E+04  0.25500000920E-02 0. -1.
</event>
<event>
 5   0  0.1284837E-05  0.2322066E+04  0.7818609E-02  0.8469271E-01
        1   -1    0    0  501    0  0.00000000000E+00  0.00000000000E+00  0.97622100206E+03  0.97622100207E+03  0.50400001928E-02 0. -1.
       -1   -1    0    0    0  501  0.00000000000E+00  0.00000000000E+00 -0.13808318520E+04  0.13808318521E+04  0.50400001928E-02 0.  1.
    10030    2    1    2    0    0  0.00000000000E+00  0.00000000000E+00 -0.40461084999E+03  0.23570528541E+04  0.23220655067E+04 0.  0.
        4    1    3    3  502    0  0.18395644010E+03 -0.16641902280E+03  0.94900656534E+03  0.98089262254E+03  0.12699999809E+01 0. -1.
       -4    1    3    3    0  502 -0.18395644010E+03  0.16641902280E+03 -0.13536174153E+04  0.13761602316E+04  0.12699999809E+01 0.  1.
</event>
<event>
 5   0  0.2816178E-05  0.2295112E+04  0.7818609E-02  0.8479851E-01
        2   -1    0    0  501    0  0.00000000000E+00  0.00000000000E+00  0.15097062017E+04  0.15097062017E+04  0.25500000920E-02 0. -1.
       -2   -1    0    0    0  501  0.00000000000E+00  0.00000000000E+00 -0.87227846722E+03  0.87227846723E+03  0.25500000920E-02 0.  1.
    10030    2    1    2    0    0  0.00000000000E+00  0.00000000000E+00  0.63742773446E+03  0.23819846689E+04  0.22951115106E+04 0.  0.
        1    1    3    3  502    0 -0.44482264760E+03 -0.65273248075E+03  0.11826634875E+04  0.14221883855E+04  0.50400001928E-02 0. -1.
       -1    1    3    3    0  502  0.44482264760E+03  0.65273248075E+03 -0.54523575301E+03  0.95979628340E+03  0.50400001928E-02 0.  1.
</event>
<event>
 5   0  0.2994157E-05  0.2164523E+04  0.7818609E-02  0.8533341E-01
       -2   -1    0    0    0  501  0.00000000000E+00  0.00000000000E+00  0.15791606724E+04  0.15791606724E+04  0.25500000920E-02 0.  1.
        2   -1    0    0  501    0  0.00000000000E+00  0.00000000000E+00 -0.74171698622E+03  0.74171698622E+03  0.25500000920E-02 0. -1.
    10030    2    1    2    0    0  0.00000000000E+00  0.00000000000E+00  0.83744368619E+03  0.23208776586E+04  0.21645233145E+04 0.  0.
        4    1    3    3  502    0 -0.67643284099E+03  0.77157165748E+01 -0.48709005129E+03  0.83359417682E+03  0.12699999809E+01 0. -1.
       -4    1    3    3    0  502  0.67643284099E+03 -0.77157165748E+01  0.13245337375E+04  0.14872834818E+04  0.12699999809E+01 0.  1.
</event>
<event>
 5   0  0.1371753E-05  0.2416353E+04  0.7818609E-02  0.8433406E-01
        1   -1    0    0  501    0  0.00000000000E+00  0.00000000000E+00  0.23383306171E+04  0.23383306171E+04  0.50400001928E-02 0. -1.
       -1   -1    0    0    0  501  0.00000000000E+00  0.00000000000E+00 -0.62424478892E+03  0.62424478894E+03  0.50400001928E-02 0.  1.
    10030    2    1    2    0    0  0.00000000000E+00  0.00000000000E+00  0.17140858281E+04  0.29625754060E+04  0.24163532047E+04 0.  0.
        3    1    3    3  502    0 -0.31295450047E+03  0.84986667862E+03  0.18374837547E+04  0.20485508170E+04  0.10100000352E+00 0. -1.
       -3    1    3    3    0  502  0.31295450047E+03 -0.84986667862E+03 -0.12339792658E+03  0.91402458899E+03  0.10100000352E+00 0.  1.
</event>
<event>
 5   0  0.2871888E-05  0.2307511E+04  0.7818609E-02  0.8474966E-01
       -2   -1    0    0    0  501  0.00000000000E+00  0.00000000000E+00  0.82266378796E+03  0.82266378796E+03  0.25500000920E-02 0.  1.
        2   -1    0    0  501    0  0.00000000000E+00  0.00000000000E+00 -0.16180991778E+04  0.16180991778E+04  0.25500000920E-02 0. -1.
    10030    2    1    2    0    0  0.00000000000E+00  0.00000000000E+00 -0.79543538988E+03  0.24407629658E+04  0.23075108658E+04 0.  0.
        3    1    3    3  502    0 -0.48466656830E+03 -0.84621681169E+03  0.25446469226E+03  0.10078377174E+04  0.10100000352E+00 0.  1.
       -3    1    3    3    0  502  0.48466656830E+03  0.84621681169E+03 -0.10499000821E+04  0.14329252484E+04  0.10100000352E+00 0. -1.
</event>
<event>
 5   0  0.1371753E-05  0.2267392E+04  0.7818609E-02  0.8490890E-01
        1   -1    0    0  501    0  0.00000000000E+00  0.00000000000E+00  0.18078417455E+04  0.18078417455E+04  0.50400001928E-02 0.  1.
       -1   -1    0    0    0  501  0.00000000000E+00  0.00000000000E+00 -0.71093988495E+03  0.71093988497E+03  0.50400001928E-02 0. -1.
    10030    2    1    2    0    0  0.00000000000E+00  0.00000000000E+00  0.10969018605E+04  0.25187816304E+04  0.22673921607E+04 0.  0.
        3    1    3    3  502    0  0.77075812856E+03  0.28027890779E+03  0.14179465802E+04  0.16380466640E+04  0.10100000352E+00 0.  1.
       -3    1    3    3    0  502 -0.77075812856E+03 -0.28027890779E+03 -0.32104471969E+03  0.88073496645E+03  0.10100000352E+00 0. -1.
</event>
<event>
 5   0  0.1303224E-05  0.2274451E+04  0.7818609E-02  0.8488063E-01
       -1   -1    0    0    0  501  0.00000000000E+00  0.00000000000E+00  0.66114370523E+03  0.66114370524E+03  0.50400001928E-02 0.  1.
        1   -1    0    0  501    0  0.00000000000E+00  0.00000000000E+00 -0.19561285428E+04  0.19561285429E+04  0.50400001928E-02 0. -1.
    10030    2    1    2    0    0  0.00000000000E+00  0.00000000000E+00 -0.12949848376E+04  0.26172722481E+04  0.22744512066E+04 0.  0.
        2    1    3    3  502    0 -0.24460625497E+03 -0.78469920290E+03  0.25690648372E+03  0.86115387730E+03  0.25500000920E-02 0.  1.
       -2    1    3    3    0  502  0.24460625497E+03  0.78469920290E+03 -0.15518913213E+04  0.17561183708E+04  0.25500000920E-02 0. -1.
</event>
<event>
 5   0  0.2938972E-05  0.2275193E+04  0.7818609E-02  0.8487767E-01
        2   -1    0    0  501    0  0.00000000000E+00  0.00000000000E+00  0.95593642477E+03  0.95593642477E+03  0.25500000920E-02 0.  1.
       -2   -1    0    0    0  501  0.00000000000E+00  0.00000000000E+00 -0.13537781919E+04  0.13537781919E+04  0.25500000920E-02 0. -1.
    10030    2    1    2    0    0  0.00000000000E+00  0.00000000000E+00 -0.39784176717E+03  0.23097146167E+04  0.22751930773E+04 0.  0.
        2    1    3    3  502    0  0.10218299295E+04  0.37281396212E+03  0.13929970989E+03  0.10965997740E+04  0.25500000920E-02 0.  1.
       -2    1    3    3    0  502 -0.10218299295E+04 -0.37281396212E+03 -0.53714147706E+03  0.12131148427E+04  0.25500000920E-02 0. -1.
</event>
<event>
 5   0  0.1017200E-05  0.2305135E+04  0.7818609E-02  0.8475899E-01
        3   -1    0    0  501    0  0.00000000000E+00  0.00000000000E+00  0.16648470296E+04  0.16648470327E+04  0.10100000352E+00 0.  1.
       -3   -1    0    0    0  501  0.00000000000E+00  0.00000000000E+00 -0.79791804632E+03  0.79791805271E+03  0.10100000352E+00 0. -1.
    10030    2    1    2    0    0  0.00000000000E+00  0.00000000000E+00  0.86692898329E+03  0.24627650854E+04  0.23051347040E+04 0.  0.
        4    1    3    3  502    0 -0.94107728779E+03  0.65117928905E+03  0.28717427955E+03  0.11798862690E+04  0.12699999809E+01 0.  1.
       -4    1    3    3    0  502  0.94107728779E+03 -0.65117928905E+03  0.57975470374E+03  0.12828788164E+04  0.12699999809E+01 0. -1.
</event>
<event>
 5   0  0.1327820E-05  0.2280648E+04  0.7818609E-02  0.8485591E-01
       -1   -1    0    0    0  501  0.00000000000E+00  0.00000000000E+00  0.78643721916E+03  0.78643721917E+03  0.50400001928E-02 0.  1.
        1   -1    0    0  501    0  0.00000000000E+00  0.00000000000E+00 -0.16534549976E+04  0.16534549976E+04  0.50400001928E-02 0. -1.
    10030    2    1    2    0    0  0.00000000000E+00  0.00000000000E+00 -0.86701777847E+03  0.24398922168E+04  0.22806477592E+04 0.  0.
        1    1    3    3  502    0 -0.10445944683E+04  0.36529927690E+03 -0.13912758046E+03  0.11153374595E+04  0.50400001928E-02 0.  1.
       -1    1    3    3    0  502  0.10445944683E+04 -0.36529927690E+03 -0.72789019801E+03  0.13245547573E+04  0.50400001928E-02 0. -1.
</event>
<event>
 5   0  0.2994157E-05  0.2306841E+04  0.7818609E-02  0.8475229E-01
        2   -1    0    0  501    0  0.00000000000E+00  0.00000000000E+00  0.12044967248E+04  0.12044967248E+04  0.25500000920E-02 0. -1.
       -2   -1    0    0    0  501  0.00000000000E+00  0.00000000000E+00 -0.11045102763E+04  0.11045102764E+04  0.25500000920E-02 0.  1.
    10030    2    1    2    0    0  0.00000000000E+00  0.00000000000E+00  0.99986448480E+02  0.23090070012E+04  0.23068411392E+04 0.  0.
        4    1    3    3  502    0 -0.72277372774E+03  0.31209092914E+03 -0.79375419795E+03  0.11179668820E+04  0.12699999809E+01 0.  1.
       -4    1    3    3    0  502  0.72277372774E+03 -0.31209092914E+03  0.89374064643E+03  0.11910401192E+04  0.12699999809E+01 0. -1.
</event>
<event>
 5   0  0.1327820E-05  0.2288570E+04  0.7818609E-02  0.8482441E-01
        1   -1    0    0  501    0  0.00000000000E+00  0.00000000000E+00  0.17376781330E+04  0.17376781330E+04  0.50400001928E-02 0. -1.
       -1   -1    0    0    0  501  0.00000000000E+00  0.00000000000E+00 -0.75352755307E+03  0.75352755309E+03  0.50400001928E-02 0.  1.
    10030    2    1    2    0    0  0.00000000000E+00  0.00000000000E+00  0.98415057996E+03  0.24912056861E+04  0.22885701664E+04 0.  0.
        1    1    3    3  502    0  0.44777628311E+03  0.17140372428E+03  0.16230627431E+04  0.16923993337E+04  0.50400001928E-02 0. -1.
       -1    1    3    3    0  502 -0.44777628311E+03 -0.17140372428E+03 -0.63891216319E+03  0.79880635245E+03  0.50400001928E-02 0.  1.
</event>
<event>
 5   0  0.2994157E-05  0.2357592E+04  0.7818609E-02  0.8455553E-01
        2   -1    0    0  501    0  0.00000000000E+00  0.00000000000E+00  0.16274741748E+04  0.16274741748E+04  0.25500000920E-02 0. -1.
       -2   -1    0    0    0  501  0.00000000000E+00  0.00000000000E+00 -0.85381381013E+03  0.85381381013E+03  0.25500000920E-02 0.  1.
    10030    2    1    2    0    0  0.00000000000E+00  0.00000000000E+00  0.77366036463E+03  0.24812879849E+04  0.23575919291E+04 0.  0.
        4    1    3    3  502    0  0.78554700963E+03  0.83131703693E+03  0.68708079568E+03  0.13342615009E+04  0.12699999809E+01 0.  1.
       -4    1    3    3    0  502 -0.78554700963E+03 -0.83131703693E+03  0.86579568957E+02  0.11470264840E+04  0.12699999809E+01 0. -1.
</event>
<event>
 5   0  0.2910126E-05  0.2388155E+04  0.7818609E-02  0.8443952E-01
        2   -1    0    0  501    0  0.00000000000E+00  0.00000000000E+00  0.12156467694E+04  0.12156467694E+04  0.25500000920E-02 0.  1.
       -2   -1    0    0    0  501  0.00000000000E+00  0.00000000000E+00 -0.11728905192E+04  0.11728905192E+04  0.25500000920E-02 0. -1.
    10030    2    1    2    0    0  0.00000000000E+00  0.00000000000E+00  0.42756250225E+02  0.23885372886E+04  0.23881545767E+04 0.  0.
        5    1    3    3  502    0  0.40855752288E+03 -0.11086013721E+04 -0.15151434761E+03  0.11911737653E+04  0.46999998093E+01 0.  1.
       -5    1    3    3    0  502 -0.40855752288E+03  0.11086013721E+04  0.19427059783E+03  0.11973635233E+04  0.46999998093E+01 0. -1.
</event>
<event>
 5   0  0.1284837E-05  0.2285401E+04  0.7818609E-02  0.8483700E-01
       -1   -1    0    0    0  501  0.00000000000E+00  0.00000000000E+00  0.11851110687E+04  0.11851110687E+04  0.50400001928E-02 0. -1.
        1   -1    0    0  501    0  0.00000000000E+00  0.00000000000E+00 -0.11018075187E+04  0.11018075187E+04  0.50400001928E-02 0.  1.
    10030    2    1    2    0    0  0.00000000000E+00  0.00000000000E+00  0.83303549975E+02  0.22869185874E+04  0.22854008717E+04 0.  0.
        4    1    3    3  502    0 -0.31350747195E+02  0.92427747284E+03  0.71328373544E+03  0.11679242340E+04  0.12699999809E+01 0. -1.
       -4    1    3    3    0  502  0.31350747195E+02 -0.92427747284E+03 -0.62998018547E+03  0.11189943535E+04  0.12699999809E+01 0.  1.
</event>
<event>
 5   0  0.2910126E-05  0.2422542E+04  0.7818609E-02  0.8431112E-01
        2   -1    0    0  501    0  0.00000000000E+00  0.00000000000E+00  0.12320192629E+04  0.12320192629E+04  0.25500000920E-02 0. -1.
       -2   -1    0    0    0  501  0.00000000000E+00  0.00000000000E+00 -0.11908722035E+04  0.11908722035E+04  0.25500000920E-02 0.  1.
    10030    2    1    2    0    0  0.00000000000E+00  0.00000000000E+00  0.41147059377E+02  0.24228914664E+04  0.24225420487E+04 0.  0.
        5    1    3    3  502    0 -0.59376588785E+03 -0.75532092432E+03  0.75830297978E+03  0.12239743165E+04  0.46999998093E+01 0. -1.
       -5    1    3    3    0  502  0.59376588785E+03  0.75532092432E+03 -0.71715592040E+03  0.11989171500E+04  0.46999998093E+01 0.  1.
</event>
<event>
 5   0  0.1303224E-05  0.2286531E+04  0.7818609E-02  0.8483251E-01
       -1   -1    0    0    0  501  0.00000000000E+00  0.00000000000E+00  0.13303887879E+04  0.13303887879E+04  0.50400001928E-02 0.  1.
        1   -1    0    0  501    0  0.00000000000E+00  0.00000000000E+00 -0.98246209991E+03  0.98246209993E+03  0.50400001928E-02 0. -1.
    10030    2    1    2    0    0  0.00000000000E+00  0.00000000000E+00  0.34792668801E+03  0.23128508879E+04  0.22865314888E+04 0.  0.
        2    1    3    3  502    0 -0.58472184156E+03  0.82814414816E+03 -0.36064102468E+03  0.10760038619E+04  0.25500000920E-02 0. -1.
       -2    1    3    3    0  502  0.58472184156E+03 -0.82814414816E+03  0.70856771269E+03  0.12368470260E+04  0.25500000920E-02 0.  1.
</event>
<event>
 5   0  0.2938972E-05  0.2259973E+04  0.7818609E-02  0.8493873E-01
       -2   -1    0    0    0  501  0.00000000000E+00  0.00000000000E+00  0.96880102780E+03  0.96880102780E+03  0.25500000920E-02 0.  1.
        2   -1    0    0  501    0  0.00000000000E+00  0.00000000000E+00 -0.13179890689E+04  0.13179890689E+04  0.25500000920E-02 0. -1.
    10030    2    1    2    0    0  0.00000000000E+00  0.00000000000E+00 -0.34918804114E+03  0.22867900967E+04  0.22599727119E+04 0.  0.
        2    1    3    3  502    0  0.49609204422E+03  0.83992189834E+03  0.40251850694E+03  0.10552711785E+04  0.25500000920E-02 0.  1.
       -2    1    3    3    0  502 -0.49609204422E+03 -0.83992189834E+03 -0.75170654808E+03  0.12315189183E+04  0.25500000920E-02 0. -1.
</event>
<event>
 5   0  0.1308224E-05  0.2279721E+04  0.7818609E-02  0.8485960E-01
       -1   -1    0    0    0  501  0.00000000000E+00  0.00000000000E+00  0.59419291476E+03  0.59419291479E+03  0.50400001928E-02 0.  1.
        1   -1    0    0  501    0  0.00000000000E+00  0.00000000000E+00 -0.21866336880E+04  0.21866336880E+04  0.50400001928E-02 0. -1.
    10030    2    1    2    0    0  0.00000000000E+00  0.00000000000E+00 -0.15924407733E+04  0.27808266028E+04  0.22797212502E+04 0.  0.
        5    1    3    3  502    0  0.41855971177E+03  0.10601683196E+04 -0.78336561921E+03  0.13830520169E+04  0.46999998093E+01 0. -1.
       -5    1    3    3    0  502 -0.41855971177E+03 -0.10601683196E+04 -0.80907515405E+03  0.13977745859E+04  0.46999998093E+01 0.  1.
</event>
</LesHouchesEvents>
