<LesHouchesEvents version="3.0">
<header>
<!--
#*********************************************************************
#                                                                    *
#                        MadGraph5_aMC@NLO                           *
#                                                                    *
#                           Going Beyond                             *
#                                                                    *
#                   http://madgraph.hep.uiuc.edu                     *
#                   http://madgraph.phys.ucl.ac.be                   *
#                   http://amcatnlo.cern.ch                          *
#                                                                    *
#                     The MadGraph5_aMC@NLO team                     *
#                                                                    *
#....................................................................*
#                                                                    *
# This file contains all the information necessary to reproduce      *
# the events generated:                                              *
#                                                                    *
# 1. software version                                                *
# 2. proc_card          : code generation info including model       *
# 3. param_card         : model primary parameters in the LH format  *
# 4. run_card           : running parameters (collider and cuts)     *
# 5. pythia_card        : present only if pythia has been run        *
# 6. pgs_card           : present only if pgs has been run           *
# 7. delphes_cards      : present only if delphes has been run       *
#                                                                    *
#                                                                    *
#*********************************************************************
-->
<MGVersion>
#5.2.2.3
</MGVersion>
<MG5ProcCard>
#************************************************************
#*                     MadGraph5_aMC@NLO                    *
#*                                                          *
#*                *                       *                 *
#*                  *        * *        *                   *
#*                    * * * * 5 * * * *                     *
#*                  *        * *        *                   *
#*                *                       *                 *
#*                                                          *
#*                                                          *
#*         VERSION 2.2.3                 2015-02-10         *
#*                                                          *
#*    The MadGraph5_aMC@NLO Development Team - Find us at   *
#*    https://server06.fynu.ucl.ac.be/projects/madgraph     *
#*                                                          *
#************************************************************
#*                                                          *
#*               Command File for MadGraph5_aMC@NLO         *
#*                                                          *
#*     run as ./bin/mg5_aMC  filename                       *
#*                                                          *
#************************************************************
set group_subprocesses Auto
set ignore_six_quark_processes False
set loop_optimized_output True
set gauge unitary
set complex_mass_scheme False
import model sm
define p = g u c d s u~ c~ d~ s~
define j = g u c d s u~ c~ d~ s~
define l+ = e+ mu+
define l- = e- mu-
define vl = ve vm vt
define vl~ = ve~ vm~ vt~
import model Zprime_UFO
generate p p > zph, zph > j j
add process p p > zph, zph > b b~
output Dijet_signal
</MG5ProcCard>
<MGProcCard>
#*********************************************************************
#                        MadGraph/MadEvent                           *
#                   http://madgraph.hep.uiuc.edu                     *
#                                                                    *
#                          proc_card.dat                             *
#*********************************************************************
#                                                                    *
#            This Files is generated by MADGRAPH 5                   *
#                                                                    *
# WARNING: This Files is generated for MADEVENT (compatibility issue)*
#          This files is NOT a valid MG4 proc_card.dat               *
#          Running this in MG4 will NEVER reproduce the result of MG5*
#                                                                    *
#*********************************************************************
#*********************************************************************
# Process(es) requested : mg2 input                                  *
#*********************************************************************
# Begin PROCESS # This is TAG. Do not modify this line
p p > zph , zph > j j           #Process
# Be carefull the coupling are here in MG5 convention
          
end_coup           # End the couplings input

done               # this tells MG there are no more procs
# End PROCESS  # This is TAG. Do not modify this line
#*********************************************************************
# Model information                                                  *
#*********************************************************************
# Begin MODEL  # This is TAG. Do not modify this line
Zprime_UFO
# End   MODEL  # This is TAG. Do not modify this line
#*********************************************************************
# Start multiparticle definitions                                    *
#*********************************************************************
# Begin MULTIPARTICLES # This is TAG. Do not modify this line

# End  MULTIPARTICLES # This is TAG. Do not modify this line
</MGProcCard>
<MGRunCard>
#*********************************************************************
#                       MadGraph5_aMC@NLO                            *
#                                                                    *
#                     run_card.dat MadEvent                          *
#                                                                    *
#  This file is used to set the parameters of the run.               *
#                                                                    *
#  Some notation/conventions:                                        *
#                                                                    *
#   Lines starting with a '# ' are info or comments                  *
#                                                                    *
#   mind the format:   value    = variable     ! comment             *
#*********************************************************************
#
#*******************                                                 
# Running parameters
#*******************                                                 
#                                                                    
#*********************************************************************
# Tag name for the run (one word)                                    *
#*********************************************************************
  tag_1     = run_tag ! name of the run 
#*********************************************************************
# Run to generate the grid pack                                      *
#*********************************************************************
  .false.     = gridpack  !True = setting up the grid pack
#*********************************************************************
# Number of events and rnd seed                                      *
# Warning: Do not generate more than 1M events in a single run       *
# If you want to run Pythia, avoid more than 50k events in a run.    *
#*********************************************************************
  2000 = nevents ! Number of unweighted events requested 
 2838 = iseed   ! rnd seed (0=assigned automatically=default))
#*********************************************************************
# Collider type and energy                                           *
# lpp: 0=No PDF, 1=proton, -1=antiproton, 2=photon from proton,      *
#                                         3=photon from electron     *
#*********************************************************************
        1     = lpp1    ! beam 1 type 
        1     = lpp2    ! beam 2 type
     4000     = ebeam1  ! beam 1 total energy in GeV
     4000     = ebeam2  ! beam 2 total energy in GeV
#*********************************************************************
# Beam polarization from -100 (left-handed) to 100 (right-handed)    *
#*********************************************************************
        0     = polbeam1 ! beam polarization for beam 1
        0     = polbeam2 ! beam polarization for beam 2
#*********************************************************************
# PDF CHOICE: this automatically fixes also alpha_s and its evol.    *
#*********************************************************************
 'nn23lo1'    = pdlabel     ! PDF set                                     
 230000    = lhaid     ! if pdlabel=lhapdf, this is the lhapdf number
#*********************************************************************
# Renormalization and factorization scales                           *
#*********************************************************************
 F        = fixed_ren_scale  ! if .true. use fixed ren scale
 F        = fixed_fac_scale  ! if .true. use fixed fac scale
 91.1880  = scale            ! fixed ren scale
 91.1880  = dsqrt_q2fact1    ! fixed fact scale for pdf1
 91.1880  = dsqrt_q2fact2    ! fixed fact scale for pdf2
 1        = scalefact        ! scale factor for event-by-event scales
#*********************************************************************
# Matching - Warning! ickkw > 1 is still beta
#*********************************************************************
 0        = ickkw            ! 0 no matching, 1 MLM, 2 CKKW matching
 1        = highestmult      ! for ickkw=2, highest mult group
 1        = ktscheme         ! for ickkw=1, 1 Durham kT, 2 Pythia pTE
 1        = alpsfact         ! scale factor for QCD emission vx
 F        = chcluster        ! cluster only according to channel diag
 T        = pdfwgt           ! for ickkw=1, perform pdf reweighting
 5        = asrwgtflavor     ! highest quark flavor for a_s reweight
 T        = clusinfo         ! include clustering tag in output
 3.0      = lhe_version       ! Change the way clustering information pass to shower.        
#*********************************************************************
#**********************************************************
#
#**********************************************************
# Automatic ptj and mjj cuts if xqcut > 0
# (turn off for VBF and single top processes)
#**********************************************************
   T  = auto_ptj_mjj  ! Automatic setting of ptj and mjj
#**********************************************************
#                                                                    
#**********************************
# BW cutoff (M+/-bwcutoff*Gamma)
#**********************************
  15  = bwcutoff      ! (M+/-bwcutoff*Gamma)
#**********************************************************
# Apply pt/E/eta/dr/mij cuts on decay products or not
# (note that etmiss/ptll/ptheavy/ht/sorted cuts always apply)
#**********************************************************
   T  = cut_decays    ! Cut decay products 
#*************************************************************
# Number of helicities to sum per event (0 = all helicities)
# 0 gives more stable result, but longer run time (needed for
# long decay chains e.g.).
# Use >=2 if most helicities contribute, e.g. pure QCD.
#*************************************************************
   0  = nhel          ! Number of helicities used per event
#*******************                                                 
# Standard Cuts
#*******************                                                 
#                                                                    
#*********************************************************************
# Minimum and maximum pt's (for max, -1 means no cut)                *
#*********************************************************************
 20  = ptj       ! minimum pt for the jets 
  0  = ptb       ! minimum pt for the b 
 10  = pta       ! minimum pt for the photons 
 10  = ptl       ! minimum pt for the charged leptons 
  0  = misset    ! minimum missing Et (sum of neutrino's momenta)
  0  = ptheavy   ! minimum pt for one heavy final state
 1.0 = ptonium   ! minimum pt for the quarkonium states
 -1  = ptjmax    ! maximum pt for the jets
 -1  = ptbmax    ! maximum pt for the b
 -1  = ptamax    ! maximum pt for the photons
 -1  = ptlmax    ! maximum pt for the charged leptons
 -1  = missetmax ! maximum missing Et (sum of neutrino's momenta)
#*********************************************************************
# Minimum and maximum E's (in the center of mass frame)              *
#*********************************************************************
  0  = ej     ! minimum E for the jets 
  0  = eb     ! minimum E for the b 
  0  = ea     ! minimum E for the photons 
  0  = el     ! minimum E for the charged leptons 
 -1   = ejmax ! maximum E for the jets
 -1   = ebmax ! maximum E for the b
 -1   = eamax ! maximum E for the photons
 -1   = elmax ! maximum E for the charged leptons
#*********************************************************************
# Maximum and minimum absolute rapidity (for max, -1 means no cut)   *
#*********************************************************************
   5  = etaj    ! max rap for the jets 
  -1  = etab    ! max rap for the b
 2.5  = etaa    ! max rap for the photons 
 2.5  = etal    ! max rap for the charged leptons 
 0.6  = etaonium ! max rap for the quarkonium states
   0  = etajmin ! min rap for the jets
   0  = etabmin ! min rap for the b
   0  = etaamin ! min rap for the photons
   0  = etalmin ! main rap for the charged leptons
#*********************************************************************
# Minimum and maximum DeltaR distance                                *
#*********************************************************************
 0.4 = drjj    ! min distance between jets 
 0   = drbb    ! min distance between b's 
 0.4 = drll    ! min distance between leptons 
 0.4 = draa    ! min distance between gammas 
 0   = drbj    ! min distance between b and jet 
 0.4 = draj    ! min distance between gamma and jet 
 0.4 = drjl    ! min distance between jet and lepton 
 0   = drab    ! min distance between gamma and b 
 0   = drbl    ! min distance between b and lepton 
 0.4 = dral    ! min distance between gamma and lepton 
 -1  = drjjmax ! max distance between jets
 -1  = drbbmax ! max distance between b's
 -1  = drllmax ! max distance between leptons
 -1  = draamax ! max distance between gammas
 -1  = drbjmax ! max distance between b and jet
 -1  = drajmax ! max distance between gamma and jet
 -1  = drjlmax ! max distance between jet and lepton
 -1  = drabmax ! max distance between gamma and b
 -1  = drblmax ! max distance between b and lepton
 -1  = dralmax ! maxdistance between gamma and lepton
#*********************************************************************
# Minimum and maximum invariant mass for pairs                       *
# WARNING: for four lepton final state mmll cut require to have      *
#          different lepton masses for each flavor!                  *           
#*********************************************************************
 0   = mmjj    ! min invariant mass of a jet pair 
 0   = mmbb    ! min invariant mass of a b pair 
 0   = mmaa    ! min invariant mass of gamma gamma pair
 0   = mmll    ! min invariant mass of l+l- (same flavour) lepton pair
 -1  = mmjjmax ! max invariant mass of a jet pair
 -1  = mmbbmax ! max invariant mass of a b pair
 -1  = mmaamax ! max invariant mass of gamma gamma pair
 -1  = mmllmax ! max invariant mass of l+l- (same flavour) lepton pair
#*********************************************************************
# Minimum and maximum invariant mass for all letpons                 *
#*********************************************************************
 0   = mmnl    ! min invariant mass for all letpons (l+- and vl) 
 -1  = mmnlmax ! max invariant mass for all letpons (l+- and vl) 
#*********************************************************************
# Minimum and maximum pt for 4-momenta sum of leptons                *
#*********************************************************************
 0   = ptllmin  ! Minimum pt for 4-momenta sum of leptons(l and vl)
 -1  = ptllmax  ! Maximum pt for 4-momenta sum of leptons(l and vl)
#*********************************************************************
# Inclusive cuts                                                     *
#*********************************************************************
 0  = xptj ! minimum pt for at least one jet  
 0  = xptb ! minimum pt for at least one b 
 0  = xpta ! minimum pt for at least one photon 
 0  = xptl ! minimum pt for at least one charged lepton 
#*********************************************************************
# Control the pt's of the jets sorted by pt                          *
#*********************************************************************
 0   = ptj1min ! minimum pt for the leading jet in pt
 0   = ptj2min ! minimum pt for the second jet in pt
 0   = ptj3min ! minimum pt for the third jet in pt
 0   = ptj4min ! minimum pt for the fourth jet in pt
 -1  = ptj1max ! maximum pt for the leading jet in pt 
 -1  = ptj2max ! maximum pt for the second jet in pt
 -1  = ptj3max ! maximum pt for the third jet in pt
 -1  = ptj4max ! maximum pt for the fourth jet in pt
 0   = cutuse  ! reject event if fails any (0) / all (1) jet pt cuts
#*********************************************************************
# Control the pt's of leptons sorted by pt                           *
#*********************************************************************
 0   = ptl1min ! minimum pt for the leading lepton in pt
 0   = ptl2min ! minimum pt for the second lepton in pt
 0   = ptl3min ! minimum pt for the third lepton in pt
 0   = ptl4min ! minimum pt for the fourth lepton in pt
 -1  = ptl1max ! maximum pt for the leading lepton in pt 
 -1  = ptl2max ! maximum pt for the second lepton in pt
 -1  = ptl3max ! maximum pt for the third lepton in pt
 -1  = ptl4max ! maximum pt for the fourth lepton in pt
#*********************************************************************
# Control the Ht(k)=Sum of k leading jets                            *
#*********************************************************************
 0   = htjmin ! minimum jet HT=Sum(jet pt)
 -1  = htjmax ! maximum jet HT=Sum(jet pt)
 0   = ihtmin  !inclusive Ht for all partons (including b)
 -1  = ihtmax  !inclusive Ht for all partons (including b)
 0   = ht2min ! minimum Ht for the two leading jets
 0   = ht3min ! minimum Ht for the three leading jets
 0   = ht4min ! minimum Ht for the four leading jets
 -1  = ht2max ! maximum Ht for the two leading jets
 -1  = ht3max ! maximum Ht for the three leading jets
 -1  = ht4max ! maximum Ht for the four leading jets
#***********************************************************************
# Photon-isolation cuts, according to hep-ph/9801442                   *
# When ptgmin=0, all the other parameters are ignored                  *
# When ptgmin>0, pta and draj are not going to be used                 *
#***********************************************************************
   0 = ptgmin ! Min photon transverse momentum
 0.4 = R0gamma ! Radius of isolation code
 1.0 = xn ! n parameter of eq.(3.4) in hep-ph/9801442
 1.0 = epsgamma ! epsilon_gamma parameter of eq.(3.4) in hep-ph/9801442
 .true. = isoEM ! isolate photons from EM energy (photons and leptons)
#*********************************************************************
# WBF cuts                                                           *
#*********************************************************************
 0   = xetamin ! minimum rapidity for two jets in the WBF case  
 0   = deltaeta ! minimum rapidity for two jets in the WBF case 
#*********************************************************************
# KT DURHAM CUT                                                      *
#*********************************************************************
 -1    =  ktdurham        
 0.4  =  dparameter 
#*********************************************************************
# maximal pdg code for quark to be considered as a light jet         *
# (otherwise b cuts are applied)                                     *
#*********************************************************************
 4 = maxjetflavor    ! Maximum jet pdg code
#*********************************************************************
# Jet measure cuts                                                   *
#*********************************************************************
 0   = xqcut   ! minimum kt jet measure between partons
#*********************************************************************
#
#*********************************************************************
# Store info for systematics studies                                 *
# WARNING: If use_syst is T, matched Pythia output is                *
#          meaningful ONLY if plotted taking matchscale              *
#          reweighting into account!                                 *
#*********************************************************************
   F  = use_syst      ! Enable systematics studies
#
#**************************************
# Parameter of the systematics study
#  will be used by SysCalc (if installed)
#**************************************                                  
#
0.5 1 2 = sys_scalefact  # factorization/renormalization scale factor
0.5 1 2 = sys_alpsfact  # \alpha_s emission scale factors
30 50 = sys_matchscale # variation of merging scale
# PDF sets and number of members (0 or none for all members).
CT10nlo.LHgrid = sys_pdf # matching scales
# MSTW2008nlo68cl.LHgrid 1  = sys_pdf
</MGRunCard>
<slha>
######################################################################
## PARAM_CARD AUTOMATICALY GENERATED BY MG5 FOLLOWING UFO MODEL   ####
######################################################################
##                                                                  ##
##  Width set on Auto will be computed following the information    ##
##        present in the decay.py files of the model.               ##
##        See  arXiv:1402.1178 for more details.                    ##
##                                                                  ##
######################################################################

###################################
## INFORMATION FOR CKMBLOCK
###################################
Block ckmblock 
    1 2.277360e-01 # cabi 

###################################
## INFORMATION FOR FRBLOCK
###################################
Block frblock 
    1 1.600000e+00 # gz 

###################################
## INFORMATION FOR MASS
###################################
Block mass 
    1 5.040000e-03 # MD 
    2 2.550000e-03 # MU 
    3 1.010000e-01 # MS 
    4 1.270000e+00 # MC 
    5 4.700000e+00 # MB 
    6 1.720000e+02 # MT 
   11 5.110000e-04 # Me 
   13 1.056600e-01 # MM 
   15 1.777000e+00 # MTA 
   23 9.118760e+01 # MZ 
   25 1.200000e+02 # MH 
  10030 1.300000e+03 # MZph 
  10031 3.000000e+02 # MZpl 
## Dependent parameters, given by model restrictions.
## Those values should be edited following the 
## analytical expression. MG5 ignores those values 
## but they are important for interfacing the output of MG5
## to external program such as Pythia.
  12 0.000000 # ve : 0.0 
  14 0.000000 # vm : 0.0 
  16 0.000000 # vt : 0.0 
  21 0.000000 # g : 0.0 
  22 0.000000 # a : 0.0 
  24 79.824360 # w+ : cmath.sqrt(MZ__exp__2/2. + cmath.sqrt(MZ__exp__4/4. - (aEW*cmath.pi*MZ__exp__2)/(Gf*sqrt__2))) 

###################################
## INFORMATION FOR SMINPUTS
###################################
Block sminputs 
    1 1.279000e+02 # aEWM1 
    2 1.166370e-05 # Gf 
    3 1.184000e-01 # aS 

###################################
## INFORMATION FOR YUKAWA
###################################
Block yukawa 
    1 5.040000e-03 # ymdo 
    2 2.550000e-03 # ymup 
    3 1.010000e-01 # yms 
    4 1.270000e+00 # ymc 
    5 4.700000e+00 # ymb 
    6 1.720000e+02 # ymt 
   11 5.110000e-04 # yme 
   13 1.056600e-01 # ymm 
   15 1.777000e+00 # ymtau 

###################################
## INFORMATION FOR DECAY
###################################
DECAY   6 1.508336e+00 # WT 
DECAY  23 2.495200e+00 # WZ 
DECAY  24 2.085000e+00 # WW 
DECAY  25 5.753088e-03 # WH 
## Dependent parameters, given by model restrictions.
## Those values should be edited following the 
## analytical expression. MG5 ignores those values 
## but they are important for interfacing the output of MG5
## to external program such as Pythia.
DECAY  1 0.000000 # d : 0.0 
DECAY  2 0.000000 # u : 0.0 
DECAY  3 0.000000 # s : 0.0 
DECAY  4 0.000000 # c : 0.0 
DECAY  5 0.000000 # b : 0.0 
DECAY  11 0.000000 # e- : 0.0 
DECAY  12 0.000000 # ve : 0.0 
DECAY  13 0.000000 # mu- : 0.0 
DECAY  14 0.000000 # vm : 0.0 
DECAY  15 0.000000 # ta- : 0.0 
DECAY  16 0.000000 # vt : 0.0 
DECAY  21 0.000000 # g : 0.0 
DECAY  22 0.000000 # a : 0.0 
DECAY  10030 0.308725 # zph : (gz__exp__2*MZph*(5 + cmath.sqrt(1 - (4*MT__exp__2)/MZph__exp__2)))/(144.*cmath.pi) 
DECAY  10031 0.132629 # zpl : (5*gz__exp__2*MZpl)/(144.*cmath.pi) 
#===========================================================
# QUANTUM NUMBERS OF NEW STATE(S) (NON SM PDG CODE)
#===========================================================

Block QNUMBERS 10030  # zph 
        1 0  # 3 times electric charge
        2 3  # number of spin states (2S+1)
        3 1  # colour rep (1: singlet, 3: triplet, 8: octet)
        4 0  # Particle/Antiparticle distinction (0=own anti)
Block QNUMBERS 10031  # zpl 
        1 0  # 3 times electric charge
        2 3  # number of spin states (2S+1)
        3 1  # colour rep (1: singlet, 3: triplet, 8: octet)
        4 0  # Particle/Antiparticle distinction (0=own anti)
</slha>
## END BANNER##
<MGGenerationInfo>
#  Number of Events        :         4030
#  Integrated weight (pb)  :  0.13294E+01
#  Max wgt                 :  0.44530E-03
#  Average wgt             :  0.32988E-03
</MGGenerationInfo>
</header>
<init>
     2212     2212  0.40000000000E+04  0.40000000000E+04 0 0  247000  247000 2   1
  0.13297703176E+01  0.24652865389E-02  0.44530110000E-03   0
</init>
<event>
 5   0  0.4453011E-03  0.1307930E+04  0.7818609E-02  0.9023301E-01
       -2   -1    0    0    0  501  0.00000000000E+00  0.00000000000E+00  0.19150341847E+03  0.19150341849E+03  0.25500000920E-02 0.  1.
        2   -1    0    0  501    0  0.00000000000E+00  0.00000000000E+00 -0.22332233269E+04  0.22332233269E+04  0.25500000920E-02 0. -1.
    10030    2    1    2    0    0  0.00000000000E+00  0.00000000000E+00 -0.20417199084E+04  0.24247267454E+04  0.13079295108E+04 0.  0.
        1    1    3    3  502    0 -0.42334752974E+03  0.37968358852E+01 -0.19448824439E+04  0.19904284131E+04  0.50400001928E-02 0. -1.
       -1    1    3    3    0  502  0.42334752974E+03 -0.37968358852E+01 -0.96837464518E+02  0.43429833232E+03  0.50400001928E-02 0.  1.
</event>
<event>
 5   0  0.4453011E-03  0.1120783E+04  0.7818609E-02  0.9185169E-01
       -2   -1    0    0    0  501  0.00000000000E+00  0.00000000000E+00  0.23993627299E+03  0.23993627301E+03  0.25500000920E-02 0. -1.
        2   -1    0    0  501    0  0.00000000000E+00  0.00000000000E+00 -0.13088416281E+04  0.13088416281E+04  0.25500000920E-02 0.  1.
    10030    2    1    2    0    0  0.00000000000E+00  0.00000000000E+00 -0.10689053551E+04  0.15487779011E+04  0.11207829089E+04 0.  0.
        1    1    3    3  502    0 -0.16071203152E+03  0.53677755679E+03 -0.54681866126E+03  0.78292346425E+03  0.50400001928E-02 0. -1.
       -1    1    3    3    0  502  0.16071203152E+03 -0.53677755679E+03 -0.52208669385E+03  0.76585443686E+03  0.50400001928E-02 0.  1.
</event>
<event>
 5   0  0.4306214E-03  0.1253144E+04  0.7818609E-02  0.9067570E-01
       -2   -1    0    0    0  501  0.00000000000E+00  0.00000000000E+00  0.10516543212E+04  0.10516543212E+04  0.25500000920E-02 0.  1.
        2   -1    0    0  501    0  0.00000000000E+00  0.00000000000E+00 -0.37330959898E+03  0.37330959899E+03  0.25500000920E-02 0. -1.
    10030    2    1    2    0    0  0.00000000000E+00  0.00000000000E+00  0.67834472224E+03  0.14249639202E+04  0.12531442901E+04 0.  0.
        3    1    3    3  502    0  0.92980316810E+02  0.30387087219E+03 -0.27487779132E+03  0.42016741502E+03  0.10100000352E+00 0. -1.
       -3    1    3    3    0  502 -0.92980316810E+02 -0.30387087219E+03  0.95322251356E+03  0.10047965052E+04  0.10100000352E+00 0.  1.
</event>
<event>
 5   0  0.4453011E-03  0.1244365E+04  0.7818609E-02  0.9074887E-01
       -2   -1    0    0    0  501  0.00000000000E+00  0.00000000000E+00  0.15718952345E+04  0.15718952345E+04  0.25500000920E-02 0.  1.
        2   -1    0    0  501    0  0.00000000000E+00  0.00000000000E+00 -0.24627016362E+03  0.24627016363E+03  0.25500000920E-02 0. -1.
    10030    2    1    2    0    0  0.00000000000E+00  0.00000000000E+00  0.13256250708E+04  0.18181653981E+04  0.12443647321E+04 0.  0.
        1    1    3    3  502    0  0.22859499949E+03  0.17677841771E+03  0.14678940930E+04  0.14960679634E+04  0.50400001928E-02 0.  1.
       -1    1    3    3    0  502 -0.22859499949E+03 -0.17677841771E+03 -0.14226902216E+03  0.32209743472E+03  0.50400001928E-02 0. -1.
</event>
<event>
 5   0  0.4306214E-03  0.1325253E+04  0.7818609E-02  0.9009776E-01
       -2   -1    0    0    0  501  0.00000000000E+00  0.00000000000E+00  0.45726540771E+03  0.45726540772E+03  0.25500000920E-02 0. -1.
        2   -1    0    0  501    0  0.00000000000E+00  0.00000000000E+00 -0.96021650004E+03  0.96021650005E+03  0.25500000920E-02 0.  1.
    10030    2    1    2    0    0  0.00000000000E+00  0.00000000000E+00 -0.50295109233E+03  0.14174819078E+04  0.13252528655E+04 0.  0.
        3    1    3    3  502    0  0.27069111332E+03 -0.31359700475E+03  0.30167809096E+03  0.51247091721E+03  0.10100000352E+00 0. -1.
       -3    1    3    3    0  502 -0.27069111332E+03  0.31359700475E+03 -0.80462918329E+03  0.90501099055E+03  0.10100000352E+00 0.  1.
</event>
<event>
 5   0  0.2356769E-03  0.1300902E+04  0.7818609E-02  0.9028850E-01
       -1   -1    0    0    0  501  0.00000000000E+00  0.00000000000E+00  0.45657635635E+03  0.45657635637E+03  0.50400001928E-02 0. -1.
        1   -1    0    0  501    0  0.00000000000E+00  0.00000000000E+00 -0.92665069438E+03  0.92665069439E+03  0.50400001928E-02 0.  1.
    10030    2    1    2    0    0  0.00000000000E+00  0.00000000000E+00 -0.47007433803E+03  0.13832270508E+04  0.13009024524E+04 0.  0.
        1    1    3    3  502    0 -0.50499146388E+03  0.14205449878E+03 -0.64393944087E+03  0.83057441735E+03  0.50400001928E-02 0.  1.
       -1    1    3    3    0  502  0.50499146388E+03 -0.14205449878E+03  0.17386510284E+03  0.55265263342E+03  0.50400001928E-02 0. -1.
</event>
<event>
 5   0  0.2370801E-03  0.1233272E+04  0.7818609E-02  0.9084222E-01
       -1   -1    0    0    0  501  0.00000000000E+00  0.00000000000E+00  0.23419615334E+03  0.23419615339E+03  0.50400001928E-02 0. -1.
        1   -1    0    0  501    0  0.00000000000E+00  0.00000000000E+00 -0.16235966988E+04  0.16235966988E+04  0.50400001928E-02 0.  1.
    10030    2    1    2    0    0  0.00000000000E+00  0.00000000000E+00 -0.13894005455E+04  0.18577928522E+04  0.12332722352E+04 0.  0.
        3    1    3    3  502    0 -0.34794217296E+03 -0.14207326261E+03 -0.14311270683E+04  0.14796530889E+04  0.10100000352E+00 0.  1.
       -3    1    3    3    0  502  0.34794217296E+03  0.14207326261E+03  0.41726522848E+02  0.37813976329E+03  0.10100000352E+00 0. -1.
</event>
<event>
 5   0  0.4453011E-03  0.1299448E+04  0.7818609E-02  0.9030003E-01
       -2   -1    0    0    0  501  0.00000000000E+00  0.00000000000E+00  0.43692609619E+03  0.43692609620E+03  0.25500000920E-02 0. -1.
        2   -1    0    0  501    0  0.00000000000E+00  0.00000000000E+00 -0.96616159350E+03  0.96616159350E+03  0.25500000920E-02 0.  1.
    10030    2    1    2    0    0  0.00000000000E+00  0.00000000000E+00 -0.52923549731E+03  0.14030876897E+04  0.12994479033E+04 0.  0.
        1    1    3    3  502    0  0.58073351550E+03  0.21813568868E+03 -0.47317192222E+03  0.78020911472E+03  0.50400001928E-02 0.  1.
       -1    1    3    3    0  502 -0.58073351550E+03 -0.21813568868E+03 -0.56063575088E+02  0.62287857498E+03  0.50400001928E-02 0. -1.
</event>
<event>
 5   0  0.2462055E-03  0.1311552E+04  0.7818609E-02  0.9020454E-01
        1   -1    0    0  501    0  0.00000000000E+00  0.00000000000E+00  0.14634806752E+04  0.14634806752E+04  0.50400001928E-02 0.  1.
       -1   -1    0    0    0  501  0.00000000000E+00  0.00000000000E+00 -0.29384890232E+03  0.29384890237E+03  0.50400001928E-02 0. -1.
    10030    2    1    2    0    0  0.00000000000E+00  0.00000000000E+00  0.11696317728E+04  0.17573295775E+04  0.13115520424E+04 0.  0.
        2    1    3    3  502    0 -0.34153700779E+02  0.27429973197E+03 -0.21197716782E+03  0.34834054878E+03  0.25500000920E-02 0. -1.
       -2    1    3    3    0  502  0.34153700779E+02 -0.27429973197E+03  0.13816089407E+04  0.14089890288E+04  0.25500000920E-02 0.  1.
</event>
<event>
 5   0  0.4453011E-03  0.1351319E+04  0.7818609E-02  0.8989830E-01
        2   -1    0    0  501    0  0.00000000000E+00  0.00000000000E+00  0.16601245776E+04  0.16601245776E+04  0.25500000920E-02 0. -1.
       -2   -1    0    0    0  501  0.00000000000E+00  0.00000000000E+00 -0.27498885310E+03  0.27498885311E+03  0.25500000920E-02 0.  1.
    10030    2    1    2    0    0  0.00000000000E+00  0.00000000000E+00  0.13851357244E+04  0.19351134307E+04  0.13513189906E+04 0.  0.
        1    1    3    3  502    0  0.23295763265E+03 -0.52887713058E+03  0.11938468120E+04  0.13263674032E+04  0.50400001928E-02 0. -1.
       -1    1    3    3    0  502 -0.23295763265E+03  0.52887713058E+03  0.19128891248E+03  0.60874602744E+03  0.50400001928E-02 0.  1.
</event>
<event>
 5   0  0.1661750E-03  0.1363958E+04  0.7818609E-02  0.8980329E-01
        4   -1    0    0  501    0  0.00000000000E+00  0.00000000000E+00  0.15868137756E+04  0.15868142838E+04  0.12699999809E+01 0.  1.
       -4   -1    0    0    0  501  0.00000000000E+00  0.00000000000E+00 -0.29309816498E+03  0.29310091644E+03  0.12699999809E+01 0. -1.
    10030    2    1    2    0    0  0.00000000000E+00  0.00000000000E+00  0.12937156106E+04  0.18799152003E+04  0.13639578729E+04 0.  0.
        4    1    3    3  502    0 -0.42440354040E+03  0.55650054194E+01 -0.88870231924E+02  0.43364601394E+03  0.12699999809E+01 0. -1.
       -4    1    3    3    0  502  0.42440354040E+03 -0.55650054194E+01  0.13825858425E+04  0.14462691863E+04  0.12699999809E+01 0.  1.
</event>
<event>
 5   0  0.4388937E-03  0.1294058E+04  0.7818609E-02  0.9034291E-01
        2   -1    0    0  501    0  0.00000000000E+00  0.00000000000E+00  0.59690885427E+03  0.59690885428E+03  0.25500000920E-02 0. -1.
       -2   -1    0    0    0  501  0.00000000000E+00  0.00000000000E+00 -0.70135729647E+03  0.70135729648E+03  0.25500000920E-02 0.  1.
    10030    2    1    2    0    0  0.00000000000E+00  0.00000000000E+00 -0.10444844220E+03  0.12982661508E+04  0.12940577735E+04 0.  0.
        5    1    3    3  502    0 -0.21358580112E+03  0.59413016357E+03 -0.19415778049E+03  0.66055195059E+03  0.46999998093E+01 0.  1.
       -5    1    3    3    0  502  0.21358580112E+03 -0.59413016357E+03  0.89709338293E+02  0.63771420016E+03  0.46999998093E+01 0. -1.
</event>
<event>
 5   0  0.2458456E-03  0.1299793E+04  0.7818609E-02  0.9029729E-01
        1   -1    0    0  501    0  0.00000000000E+00  0.00000000000E+00  0.64306891458E+03  0.64306891460E+03  0.50400001928E-02 0. -1.
       -1   -1    0    0    0  501  0.00000000000E+00  0.00000000000E+00 -0.65679700869E+03  0.65679700871E+03  0.50400001928E-02 0.  1.
    10030    2    1    2    0    0  0.00000000000E+00  0.00000000000E+00 -0.13728094112E+02  0.12998659233E+04  0.12997934290E+04 0.  0.
        5    1    3    3  502    0 -0.45880126566E+03 -0.35471366431E+03  0.28644954014E+03  0.64683522945E+03  0.46999998093E+01 0. -1.
       -5    1    3    3    0  502  0.45880126566E+03  0.35471366431E+03 -0.30017763425E+03  0.65303069386E+03  0.46999998093E+01 0.  1.
</event>
<event>
 5   0  0.1661750E-03  0.1292426E+04  0.7818609E-02  0.9035593E-01
       -3   -1    0    0    0  501  0.00000000000E+00  0.00000000000E+00  0.64695712969E+03  0.64695713757E+03  0.10100000352E+00 0.  1.
        3   -1    0    0  501    0  0.00000000000E+00  0.00000000000E+00 -0.64546937791E+03  0.64546938581E+03  0.10100000352E+00 0. -1.
    10030    2    1    2    0    0  0.00000000000E+00  0.00000000000E+00  0.14877517756E+01  0.12924265234E+04  0.12924256671E+04 0.  0.
        1    1    3    3  502    0 -0.48554258122E+03 -0.34590924852E+03 -0.24862793934E+03  0.64592620215E+03  0.50400001928E-02 0.  1.
       -1    1    3    3    0  502  0.48554258122E+03  0.34590924852E+03  0.25011569111E+03  0.64650032123E+03  0.50400001928E-02 0. -1.
</event>
<event>
 5   0  0.2356769E-03  0.1312735E+04  0.7818609E-02  0.9019527E-01
       -1   -1    0    0    0  501  0.00000000000E+00  0.00000000000E+00  0.11134623308E+04  0.11134623308E+04  0.50400001928E-02 0. -1.
        1   -1    0    0  501    0  0.00000000000E+00  0.00000000000E+00 -0.38691753546E+03  0.38691753550E+03  0.50400001928E-02 0.  1.
    10030    2    1    2    0    0  0.00000000000E+00  0.00000000000E+00  0.72654479537E+03  0.15003798663E+04  0.13127347042E+04 0.  0.
        1    1    3    3  502    0 -0.97841600449E+02 -0.25067744802E+03  0.10475177559E+04  0.10815292926E+04  0.50400001928E-02 0. -1.
       -1    1    3    3    0  502  0.97841600449E+02  0.25067744802E+03 -0.32097296054E+03  0.41885057377E+03  0.50400001928E-02 0.  1.
</event>
<event>
 5   0  0.2370801E-03  0.1269664E+04  0.7818609E-02  0.9053974E-01
       -1   -1    0    0    0  501  0.00000000000E+00  0.00000000000E+00  0.50540299265E+03  0.50540299267E+03  0.50400001928E-02 0. -1.
        1   -1    0    0  501    0  0.00000000000E+00  0.00000000000E+00 -0.79740608465E+03  0.79740608467E+03  0.50400001928E-02 0.  1.
    10030    2    1    2    0    0  0.00000000000E+00  0.00000000000E+00 -0.29200309200E+03  0.13028090773E+04  0.12696636115E+04 0.  0.
        3    1    3    3  502    0  0.34330767069E+03 -0.48102080296E+03 -0.38393915735E+03  0.70473431617E+03  0.10100000352E+00 0. -1.
       -3    1    3    3    0  502 -0.34330767069E+03  0.48102080296E+03  0.91936065343E+02  0.59807476117E+03  0.10100000352E+00 0.  1.
</event>
<event>
 5   0  0.2370801E-03  0.1307692E+04  0.7818609E-02  0.9023487E-01
       -1   -1    0    0    0  501  0.00000000000E+00  0.00000000000E+00  0.74865009437E+03  0.74865009438E+03  0.50400001928E-02 0. -1.
        1   -1    0    0  501    0  0.00000000000E+00  0.00000000000E+00 -0.57104756604E+03  0.57104756606E+03  0.50400001928E-02 0.  1.
    10030    2    1    2    0    0  0.00000000000E+00  0.00000000000E+00  0.17760252832E+03  0.13196976604E+04  0.13076923403E+04 0.  0.
        3    1    3    3  502    0 -0.28753712066E+03 -0.46877586735E+01  0.68140186675E+03  0.73959994933E+03  0.10100000352E+00 0. -1.
       -3    1    3    3    0  502  0.28753712066E+03  0.46877586735E+01 -0.50379933843E+03  0.58009771111E+03  0.10100000352E+00 0.  1.
</event>
<event>
 5   0  0.4453011E-03  0.1346390E+04  0.7818609E-02  0.8993565E-01
        2   -1    0    0  501    0  0.00000000000E+00  0.00000000000E+00  0.87021787556E+03  0.87021787556E+03  0.25500000920E-02 0. -1.
       -2   -1    0    0    0  501  0.00000000000E+00  0.00000000000E+00 -0.52077946645E+03  0.52077946646E+03  0.25500000920E-02 0.  1.
    10030    2    1    2    0    0  0.00000000000E+00  0.00000000000E+00  0.34943840911E+03  0.13909973420E+04  0.13463901380E+04 0.  0.
        1    1    3    3  502    0  0.22549950205E+03  0.20851816965E+03 -0.44417862923E+03  0.54002269136E+03  0.50400001928E-02 0.  1.
       -1    1    3    3    0  502 -0.22549950205E+03 -0.20851816965E+03  0.79361703834E+03  0.85097465066E+03  0.50400001928E-02 0. -1.
</event>
<event>
 5   0  0.2511542E-03  0.1295730E+04  0.7818609E-02  0.9032958E-01
       -1   -1    0    0    0  501  0.00000000000E+00  0.00000000000E+00  0.47496262056E+03  0.47496262059E+03  0.50400001928E-02 0.  1.
        1   -1    0    0  501    0  0.00000000000E+00  0.00000000000E+00 -0.88370973266E+03  0.88370973267E+03  0.50400001928E-02 0. -1.
    10030    2    1    2    0    0  0.00000000000E+00  0.00000000000E+00 -0.40874711210E+03  0.13586723533E+04  0.12957300498E+04 0.  0.
        4    1    3    3  502    0  0.28079736721E+03  0.21759899589E+03 -0.77247669581E+03  0.85024604846E+03  0.12699999809E+01 0. -1.
       -4    1    3    3    0  502 -0.28079736721E+03 -0.21759899589E+03  0.36372958371E+03  0.50842630480E+03  0.12699999809E+01 0.  1.
</event>
<event>
 5   0  0.2356769E-03  0.1287957E+04  0.7818609E-02  0.9039170E-01
        1   -1    0    0  501    0  0.00000000000E+00  0.00000000000E+00  0.23195810662E+04  0.23195810662E+04  0.50400001928E-02 0. -1.
       -1   -1    0    0    0  501  0.00000000000E+00  0.00000000000E+00 -0.17878583839E+03  0.17878583846E+03  0.50400001928E-02 0.  1.
    10030    2    1    2    0    0  0.00000000000E+00  0.00000000000E+00  0.21407952278E+04  0.24983669046E+04  0.12879569026E+04 0.  0.
        1    1    3    3  502    0  0.59938945748E+02 -0.55284791470E+02  0.23095264197E+04  0.23109654624E+04  0.50400001928E-02 0. -1.
       -1    1    3    3    0  502 -0.59938945748E+02  0.55284791470E+02 -0.16873119191E+03  0.18740144219E+03  0.50400001928E-02 0.  1.
</event>
<event>
 5   0  0.4263540E-03  0.1175881E+04  0.7818609E-02  0.9134234E-01
        2   -1    0    0  501    0  0.00000000000E+00  0.00000000000E+00  0.93881519796E+03  0.93881519797E+03  0.25500000920E-02 0.  1.
       -2   -1    0    0    0  501  0.00000000000E+00  0.00000000000E+00 -0.36820218710E+03  0.36820218711E+03  0.25500000920E-02 0. -1.
    10030    2    1    2    0    0  0.00000000000E+00  0.00000000000E+00  0.57061301086E+03  0.13070173851E+04  0.11758806218E+04 0.  0.
        2    1    3    3  502    0  0.27799300572E+03 -0.25309452745E+03  0.78775492747E+03  0.87286584125E+03  0.25500000920E-02 0.  1.
       -2    1    3    3    0  502 -0.27799300572E+03  0.25309452745E+03 -0.21714191661E+03  0.43415154383E+03  0.25500000920E-02 0. -1.
</event>
<event>
 5   0  0.2370801E-03  0.1292755E+04  0.7818609E-02  0.9035330E-01
       -1   -1    0    0    0  501  0.00000000000E+00  0.00000000000E+00  0.34659184633E+03  0.34659184636E+03  0.50400001928E-02 0. -1.
        1   -1    0    0  501    0  0.00000000000E+00  0.00000000000E+00 -0.12054639657E+04  0.12054639657E+04  0.50400001928E-02 0.  1.
    10030    2    1    2    0    0  0.00000000000E+00  0.00000000000E+00 -0.85887211940E+03  0.15520558121E+04  0.12927551688E+04 0.  0.
        3    1    3    3  502    0 -0.23623577988E+03 -0.32741601828E+03 -0.10354558754E+04  0.11113853845E+04  0.10100000352E+00 0.  1.
       -3    1    3    3    0  502  0.23623577988E+03  0.32741601828E+03  0.17658375598E+03  0.44067042765E+03  0.10100000352E+00 0. -1.
</event>
<event>
 5   0  0.1661750E-03  0.1270924E+04  0.7818609E-02  0.9052946E-01
        3   -1    0    0  501    0  0.00000000000E+00  0.00000000000E+00  0.49236900290E+03  0.49236901326E+03  0.10100000352E+00 0. -1.
       -3   -1    0    0    0  501  0.00000000000E+00  0.00000000000E+00 -0.82014024469E+03  0.82014025091E+03  0.10100000352E+00 0.  1.
    10030    2    1    2    0    0  0.00000000000E+00  0.00000000000E+00 -0.32777124178E+03  0.13125092642E+04  0.12709235152E+04 0.  0.
        3    1    3    3  502    0  0.22452148204E+01  0.16596133181E+03 -0.79735987323E+03  0.81445133819E+03  0.10100000352E+00 0.  1.
       -3    1    3    3    0  502 -0.22452148204E+01 -0.16596133181E+03  0.46958863144E+03  0.49805792598E+03  0.10100000352E+00 0. -1.
</event>
<event>
 5   0  0.4306214E-03  0.1092798E+04  0.7818609E-02  0.9212240E-01
       -2   -1    0    0    0  501  0.00000000000E+00  0.00000000000E+00  0.52310335547E+03  0.52310335548E+03  0.25500000920E-02 0. -1.
        2   -1    0    0  501    0  0.00000000000E+00  0.00000000000E+00 -0.57073167726E+03  0.57073167727E+03  0.25500000920E-02 0.  1.
    10030    2    1    2    0    0  0.00000000000E+00  0.00000000000E+00 -0.47628321793E+02  0.10938350327E+04  0.10927976125E+04 0.  0.
        3    1    3    3  502    0  0.33572826166E+03  0.43107002988E+03 -0.27917920839E+02  0.54709620438E+03  0.10100000352E+00 0. -1.
       -3    1    3    3    0  502 -0.33572826166E+03 -0.43107002988E+03 -0.19710400954E+02  0.54673882837E+03  0.10100000352E+00 0.  1.
</event>
<event>
 5   0  0.2356769E-03  0.1333149E+04  0.7818609E-02  0.9003683E-01
        1   -1    0    0  501    0  0.00000000000E+00  0.00000000000E+00  0.14965407991E+04  0.14965407991E+04  0.50400001928E-02 0. -1.
       -1   -1    0    0    0  501  0.00000000000E+00  0.00000000000E+00 -0.29689914801E+03  0.29689914805E+03  0.50400001928E-02 0.  1.
    10030    2    1    2    0    0  0.00000000000E+00  0.00000000000E+00  0.11996416511E+04  0.17934399471E+04  0.13331491863E+04 0.  0.
        1    1    3    3  502    0  0.45980792798E+02 -0.61159970678E+03  0.95101829978E+03  0.11316378578E+04  0.50400001928E-02 0. -1.
       -1    1    3    3    0  502 -0.45980792798E+02  0.61159970678E+03  0.24862335129E+03  0.66180208935E+03  0.50400001928E-02 0.  1.
</event>
<event>
 5   0  0.4263540E-03  0.1197180E+04  0.7818609E-02  0.9115328E-01
        2   -1    0    0  501    0  0.00000000000E+00  0.00000000000E+00  0.61018700857E+03  0.61018700858E+03  0.25500000920E-02 0. -1.
       -2   -1    0    0    0  501  0.00000000000E+00  0.00000000000E+00 -0.58721343025E+03  0.58721343026E+03  0.25500000920E-02 0.  1.
    10030    2    1    2    0    0  0.00000000000E+00  0.00000000000E+00  0.22973578320E+02  0.11974004388E+04  0.11971800306E+04 0.  0.
        2    1    3    3  502    0  0.24273635882E+03  0.18931265799E+03 -0.50197872600E+03  0.58884876134E+03  0.25500000920E-02 0.  1.
       -2    1    3    3    0  502 -0.24273635882E+03 -0.18931265799E+03  0.52495230432E+03  0.60855167750E+03  0.25500000920E-02 0. -1.
</event>
<event>
 5   0  0.2462055E-03  0.1347127E+04  0.7818609E-02  0.8993006E-01
       -1   -1    0    0    0  501  0.00000000000E+00  0.00000000000E+00  0.87849691725E+03  0.87849691727E+03  0.50400001928E-02 0. -1.
        1   -1    0    0  501    0  0.00000000000E+00  0.00000000000E+00 -0.51643667093E+03  0.51643667095E+03  0.50400001928E-02 0.  1.
    10030    2    1    2    0    0  0.00000000000E+00  0.00000000000E+00  0.36206024633E+03  0.13949335882E+04  0.13471273487E+04 0.  0.
        2    1    3    3  502    0 -0.16194095559E+02 -0.32026012904E+03 -0.43232405511E+03  0.53826841596E+03  0.25500000920E-02 0.  1.
       -2    1    3    3    0  502  0.16194095559E+02  0.32026012904E+03  0.79438430144E+03  0.85666517226E+03  0.25500000920E-02 0. -1.
</event>
<event>
 5   0  0.4306214E-03  0.1273460E+04  0.7818609E-02  0.9050881E-01
       -2   -1    0    0    0  501  0.00000000000E+00  0.00000000000E+00  0.24595555007E+03  0.24595555008E+03  0.25500000920E-02 0. -1.
        2   -1    0    0  501    0  0.00000000000E+00  0.00000000000E+00 -0.16483664694E+04  0.16483664694E+04  0.25500000920E-02 0.  1.
    10030    2    1    2    0    0  0.00000000000E+00  0.00000000000E+00 -0.14024109193E+04  0.18943220195E+04  0.12734596683E+04 0.  0.
        3    1    3    3  502    0 -0.13357700868E+03 -0.74684214423E+02 -0.16206017583E+04  0.16278116041E+04  0.10100000352E+00 0.  1.
       -3    1    3    3    0  502  0.13357700868E+03  0.74684214423E+02  0.21819083895E+03  0.26651041543E+03  0.10100000352E+00 0. -1.
</event>
<event>
 5   0  0.4388937E-03  0.1276043E+04  0.7818609E-02  0.9048782E-01
       -2   -1    0    0    0  501  0.00000000000E+00  0.00000000000E+00  0.23796397263E+03  0.23796397265E+03  0.25500000920E-02 0.  1.
        2   -1    0    0  501    0  0.00000000000E+00  0.00000000000E+00 -0.17106436437E+04  0.17106436437E+04  0.25500000920E-02 0. -1.
    10030    2    1    2    0    0  0.00000000000E+00  0.00000000000E+00 -0.14726796711E+04  0.19486076163E+04  0.12760431924E+04 0.  0.
        5    1    3    3  502    0 -0.61755144699E+03 -0.23300903854E+02 -0.49422938037E+03  0.79132641320E+03  0.46999998093E+01 0.  1.
       -5    1    3    3    0  502  0.61755144699E+03  0.23300903854E+02 -0.97845029069E+03  0.11572812031E+04  0.46999998093E+01 0. -1.
</event>
<event>
 5   0  0.2462055E-03  0.1305844E+04  0.7818609E-02  0.9024943E-01
       -1   -1    0    0    0  501  0.00000000000E+00  0.00000000000E+00  0.20497909094E+03  0.20497909100E+03  0.50400001928E-02 0. -1.
        1   -1    0    0  501    0  0.00000000000E+00  0.00000000000E+00 -0.20797605980E+04  0.20797605980E+04  0.50400001928E-02 0.  1.
    10030    2    1    2    0    0  0.00000000000E+00  0.00000000000E+00 -0.18747815071E+04  0.22847396890E+04  0.13058444576E+04 0.  0.
        2    1    3    3  502    0  0.12290535788E+03 -0.64001441179E+03 -0.10070087859E+04  0.11994960897E+04  0.25500000920E-02 0.  1.
       -2    1    3    3    0  502 -0.12290535788E+03  0.64001441179E+03 -0.86777272117E+03  0.10852435993E+04  0.25500000920E-02 0. -1.
</event>
<event>
 5   0  0.4306214E-03  0.1299333E+04  0.7818609E-02  0.9030094E-01
       -2   -1    0    0    0  501  0.00000000000E+00  0.00000000000E+00  0.45199853796E+03  0.45199853796E+03  0.25500000920E-02 0.  1.
        2   -1    0    0  501    0  0.00000000000E+00  0.00000000000E+00 -0.93377884365E+03  0.93377884365E+03  0.25500000920E-02 0. -1.
    10030    2    1    2    0    0  0.00000000000E+00  0.00000000000E+00 -0.48178030569E+03  0.13857773816E+04  0.12993331707E+04 0.  0.
        3    1    3    3  502    0 -0.60107077534E+02  0.33008551913E+03  0.35244681945E+03  0.48660875604E+03  0.10100000352E+00 0.  1.
       -3    1    3    3    0  502  0.60107077534E+02 -0.33008551913E+03 -0.83422712514E+03  0.89916862558E+03  0.10100000352E+00 0. -1.
</event>
<event>
 5   0  0.4453011E-03  0.6710888E+03  0.7818609E-02  0.9767993E-01
        2   -1    0    0  501    0  0.00000000000E+00  0.00000000000E+00  0.15502675621E+04  0.15502675621E+04  0.25500000920E-02 0. -1.
       -2   -1    0    0    0  501  0.00000000000E+00  0.00000000000E+00 -0.72626197661E+02  0.72626197705E+02  0.25500000920E-02 0.  1.
    10030    2    1    2    0    0  0.00000000000E+00  0.00000000000E+00  0.14776413644E+04  0.16228937598E+04  0.67108878229E+03 0.  0.
        1    1    3    3  502    0  0.27451321803E+03 -0.14052685138E+03  0.10585921021E+04  0.11025980870E+04  0.50400001928E-02 0.  1.
       -1    1    3    3    0  502 -0.27451321803E+03  0.14052685138E+03  0.41904926232E+03  0.52029567277E+03  0.50400001928E-02 0. -1.
</event>
<event>
 5   0  0.2370801E-03  0.1143034E+04  0.7818609E-02  0.9164234E-01
        1   -1    0    0  501    0  0.00000000000E+00  0.00000000000E+00  0.21811886777E+04  0.21811886777E+04  0.50400001928E-02 0.  1.
       -1   -1    0    0    0  501  0.00000000000E+00  0.00000000000E+00 -0.14974932324E+03  0.14974932333E+03  0.50400001928E-02 0. -1.
    10030    2    1    2    0    0  0.00000000000E+00  0.00000000000E+00  0.20314393545E+04  0.23309380011E+04  0.11430337326E+04 0.  0.
        3    1    3    3  502    0 -0.30544832118E+02 -0.25825247977E+03  0.20535469241E+04  0.20699474171E+04  0.10100000352E+00 0.  1.
       -3    1    3    3    0  502  0.30544832118E+02  0.25825247977E+03 -0.22107569571E+02  0.26099058395E+03  0.10100000352E+00 0. -1.
</event>
<event>
 5   0  0.4306214E-03  0.1316172E+04  0.7818609E-02  0.9016838E-01
       -2   -1    0    0    0  501  0.00000000000E+00  0.00000000000E+00  0.81493636306E+03  0.81493636307E+03  0.25500000920E-02 0.  1.
        2   -1    0    0  501    0  0.00000000000E+00  0.00000000000E+00 -0.53142487687E+03  0.53142487688E+03  0.25500000920E-02 0. -1.
    10030    2    1    2    0    0  0.00000000000E+00  0.00000000000E+00  0.28351148619E+03  0.13463612399E+04  0.13161724149E+04 0.  0.
        3    1    3    3  502    0  0.16952581201E+03  0.11959362048E+03  0.78060891859E+03  0.80770782402E+03  0.10100000352E+00 0.  1.
       -3    1    3    3    0  502 -0.16952581201E+03 -0.11959362048E+03 -0.49709743239E+03  0.53865341593E+03  0.10100000352E+00 0. -1.
</event>
<event>
 5   0  0.2511542E-03  0.1294604E+04  0.7818609E-02  0.9033855E-01
       -1   -1    0    0    0  501  0.00000000000E+00  0.00000000000E+00  0.64425666219E+03  0.64425666221E+03  0.50400001928E-02 0.  1.
        1   -1    0    0  501    0  0.00000000000E+00  0.00000000000E+00 -0.65036202559E+03  0.65036202561E+03  0.50400001928E-02 0. -1.
    10030    2    1    2    0    0  0.00000000000E+00  0.00000000000E+00 -0.61053634052E+01  0.12946186878E+04  0.12946042914E+04 0.  0.
        4    1    3    3  502    0  0.54851095513E+03  0.33804264165E+02 -0.34509662735E+03  0.64892240775E+03  0.12699999809E+01 0. -1.
       -4    1    3    3    0  502 -0.54851095513E+03 -0.33804264165E+02  0.33899126395E+03  0.64569628007E+03  0.12699999809E+01 0.  1.
</event>
<event>
 5   0  0.2356769E-03  0.9633624E+03  0.7818609E-02  0.9349667E-01
       -1   -1    0    0    0  501  0.00000000000E+00  0.00000000000E+00  0.27468332689E+03  0.27468332693E+03  0.50400001928E-02 0. -1.
        1   -1    0    0  501    0  0.00000000000E+00  0.00000000000E+00 -0.84467004237E+03  0.84467004239E+03  0.50400001928E-02 0.  1.
    10030    2    1    2    0    0  0.00000000000E+00  0.00000000000E+00 -0.56998671549E+03  0.11193533693E+04  0.96336239785E+03 0.  0.
        1    1    3    3  502    0 -0.10753165084E+03 -0.57263321290E+02  0.25648620386E+03  0.28394949673E+03  0.50400001928E-02 0. -1.
       -1    1    3    3    0  502  0.10753165084E+03  0.57263321290E+02 -0.82647291935E+03  0.83540387259E+03  0.50400001928E-02 0.  1.
</event>
<event>
 5   0  0.2370801E-03  0.1569001E+04  0.7818609E-02  0.8839822E-01
        1   -1    0    0  501    0  0.00000000000E+00  0.00000000000E+00  0.14646693104E+04  0.14646693104E+04  0.50400001928E-02 0.  1.
       -1   -1    0    0    0  501  0.00000000000E+00  0.00000000000E+00 -0.42019099179E+03  0.42019099182E+03  0.50400001928E-02 0. -1.
    10030    2    1    2    0    0  0.00000000000E+00  0.00000000000E+00  0.10444783186E+04  0.18848603023E+04  0.15690007651E+04 0.  0.
        3    1    3    3  502    0 -0.64015826630E+03 -0.20341302108E+03  0.10091211850E+04  0.12122314297E+04  0.10100000352E+00 0.  1.
       -3    1    3    3    0  502  0.64015826630E+03  0.20341302108E+03  0.35357133663E+02  0.67262887253E+03  0.10100000352E+00 0. -1.
</event>
<event>
 5   0  0.4310889E-03  0.1323296E+04  0.7818609E-02  0.9011293E-01
        2   -1    0    0  501    0  0.00000000000E+00  0.00000000000E+00  0.25728702730E+04  0.25728702730E+04  0.25500000920E-02 0. -1.
       -2   -1    0    0    0  501  0.00000000000E+00  0.00000000000E+00 -0.17015153774E+03  0.17015153776E+03  0.25500000920E-02 0.  1.
    10030    2    1    2    0    0  0.00000000000E+00  0.00000000000E+00  0.24027187353E+04  0.27430218108E+04  0.13232956335E+04 0.  0.
        4    1    3    3  502    0  0.28114150265E+03 -0.10026504590E+02  0.24427223910E+04  0.24588687171E+04  0.12699999809E+01 0. -1.
       -4    1    3    3    0  502 -0.28114150265E+03  0.10026504590E+02 -0.40003655713E+02  0.28415309373E+03  0.12699999809E+01 0.  1.
</event>
<event>
 5   0  0.4310889E-03  0.1368000E+04  0.7818609E-02  0.8977313E-01
        2   -1    0    0  501    0  0.00000000000E+00  0.00000000000E+00  0.34617325573E+03  0.34617325574E+03  0.25500000920E-02 0.  1.
       -2   -1    0    0    0  501  0.00000000000E+00  0.00000000000E+00 -0.13515085752E+04  0.13515085752E+04  0.25500000920E-02 0. -1.
    10030    2    1    2    0    0  0.00000000000E+00  0.00000000000E+00 -0.10053353195E+04  0.16976818310E+04  0.13680001808E+04 0.  0.
        4    1    3    3  502    0 -0.13927908526E+03  0.85562712054E+02  0.32157642660E+03  0.36073903633E+03  0.12699999809E+01 0.  1.
       -4    1    3    3    0  502  0.13927908526E+03 -0.85562712054E+02 -0.13269117461E+04  0.13369427946E+04  0.12699999809E+01 0. -1.
</event>
<event>
 5   0  0.1661750E-03  0.1331393E+04  0.7818609E-02  0.9005034E-01
        4   -1    0    0  501    0  0.00000000000E+00  0.00000000000E+00  0.91719713360E+03  0.91719801285E+03  0.12699999809E+01 0.  1.
       -4   -1    0    0    0  501  0.00000000000E+00  0.00000000000E+00 -0.48315660593E+03  0.48315827505E+03  0.12699999809E+01 0. -1.
    10030    2    1    2    0    0  0.00000000000E+00  0.00000000000E+00  0.43404052767E+03  0.14003562879E+04  0.13313927119E+04 0.  0.
        1    1    3    3  502    0 -0.56994779328E+03 -0.32614290361E+03  0.33195998376E+03  0.73580371804E+03  0.50400001928E-02 0.  1.
       -1    1    3    3    0  502  0.56994779328E+03  0.32614290361E+03  0.10208054391E+03  0.66455256986E+03  0.50400001928E-02 0. -1.
</event>
<event>
 5   0  0.2370801E-03  0.1287851E+04  0.7818609E-02  0.9039256E-01
        1   -1    0    0  501    0  0.00000000000E+00  0.00000000000E+00  0.13641886159E+04  0.13641886159E+04  0.50400001928E-02 0. -1.
       -1   -1    0    0    0  501  0.00000000000E+00  0.00000000000E+00 -0.30394608720E+03  0.30394608724E+03  0.50400001928E-02 0.  1.
    10030    2    1    2    0    0  0.00000000000E+00  0.00000000000E+00  0.10602425287E+04  0.16681347031E+04  0.12878506001E+04 0.  0.
        3    1    3    3  502    0  0.19835001175E+03 -0.59005530342E+03  0.31676525244E+03  0.69846132578E+03  0.10100000352E+00 0. -1.
       -3    1    3    3    0  502 -0.19835001175E+03  0.59005530342E+03  0.74347727623E+03  0.96967337734E+03  0.10100000352E+00 0.  1.
</event>
<event>
 5   0  0.2458456E-03  0.1758568E+04  0.7818609E-02  0.8728648E-01
        1   -1    0    0  501    0  0.00000000000E+00  0.00000000000E+00  0.78154176776E+03  0.78154176777E+03  0.50400001928E-02 0. -1.
       -1   -1    0    0    0  501  0.00000000000E+00  0.00000000000E+00 -0.98924992136E+03  0.98924992137E+03  0.50400001928E-02 0.  1.
    10030    2    1    2    0    0  0.00000000000E+00  0.00000000000E+00 -0.20770815360E+03  0.17707916891E+04  0.17585677494E+04 0.  0.
        5    1    3    3  502    0 -0.18335497936E+03  0.84707045968E+02  0.75785351349E+03  0.78432032359E+03  0.46999998093E+01 0. -1.
       -5    1    3    3    0  502  0.18335497936E+03 -0.84707045968E+02 -0.96556166709E+03  0.98647136555E+03  0.46999998093E+01 0.  1.
</event>
<event>
 5   0  0.4263540E-03  0.1305493E+04  0.7818609E-02  0.9025220E-01
        2   -1    0    0  501    0  0.00000000000E+00  0.00000000000E+00  0.37536564910E+03  0.37536564911E+03  0.25500000920E-02 0. -1.
       -2   -1    0    0    0  501  0.00000000000E+00  0.00000000000E+00 -0.11351017523E+04  0.11351017523E+04  0.25500000920E-02 0.  1.
    10030    2    1    2    0    0  0.00000000000E+00  0.00000000000E+00 -0.75973610319E+03  0.15104674014E+04  0.13054933260E+04 0.  0.
        2    1    3    3  502    0 -0.36292622692E+03  0.27771554896E+03  0.15939843709E+03  0.48399301036E+03  0.25500000920E-02 0. -1.
       -2    1    3    3    0  502  0.36292622692E+03 -0.27771554896E+03 -0.91913454028E+03  0.10264743910E+04  0.25500000920E-02 0.  1.
</event>
<event>
 5   0  0.4306214E-03  0.1289028E+04  0.7818609E-02  0.9038312E-01
        2   -1    0    0  501    0  0.00000000000E+00  0.00000000000E+00  0.64270719635E+03  0.64270719635E+03  0.25500000920E-02 0. -1.
       -2   -1    0    0    0  501  0.00000000000E+00  0.00000000000E+00 -0.64632576638E+03  0.64632576638E+03  0.25500000920E-02 0.  1.
    10030    2    1    2    0    0  0.00000000000E+00  0.00000000000E+00 -0.36185700313E+01  0.12890329627E+04  0.12890278837E+04 0.  0.
        3    1    3    3  502    0 -0.30677109622E+03 -0.16157255732E+03  0.54150125276E+03  0.64299130142E+03  0.10100000352E+00 0. -1.
       -3    1    3    3    0  502  0.30677109622E+03  0.16157255732E+03 -0.54511982279E+03  0.64604166132E+03  0.10100000352E+00 0.  1.
</event>
<event>
 5   0  0.4453011E-03  0.1289207E+04  0.7818609E-02  0.9038168E-01
        2   -1    0    0  501    0  0.00000000000E+00  0.00000000000E+00  0.10038348019E+04  0.10038348019E+04  0.25500000920E-02 0.  1.
       -2   -1    0    0    0  501  0.00000000000E+00  0.00000000000E+00 -0.41392632544E+03  0.41392632545E+03  0.25500000920E-02 0. -1.
    10030    2    1    2    0    0  0.00000000000E+00  0.00000000000E+00  0.58990847643E+03  0.14177611273E+04  0.12892069669E+04 0.  0.
        1    1    3    3  502    0 -0.59845504154E+03  0.57865627042E+02  0.55054478086E+03  0.81522783521E+03  0.50400001928E-02 0. -1.
       -1    1    3    3    0  502  0.59845504154E+03 -0.57865627042E+02  0.39363695570E+02  0.60253329211E+03  0.50400001928E-02 0.  1.
</event>
<event>
 5   0  0.4263540E-03  0.1296291E+04  0.7818609E-02  0.9032511E-01
        2   -1    0    0  501    0  0.00000000000E+00  0.00000000000E+00  0.15045695872E+04  0.15045695872E+04  0.25500000920E-02 0. -1.
       -2   -1    0    0    0  501  0.00000000000E+00  0.00000000000E+00 -0.27921127365E+03  0.27921127367E+03  0.25500000920E-02 0.  1.
    10030    2    1    2    0    0  0.00000000000E+00  0.00000000000E+00  0.12253583136E+04  0.17837808609E+04  0.12962913110E+04 0.  0.
        2    1    3    3  502    0 -0.49068316738E+03 -0.97135566930E+02  0.11798574543E+04  0.12815103986E+04  0.25500000920E-02 0. -1.
       -2    1    3    3    0  502  0.49068316738E+03  0.97135566930E+02  0.45500859229E+02  0.50227046231E+03  0.25500000920E-02 0.  1.
</event>
<event>
 5   0  0.4306214E-03  0.1285614E+04  0.7818609E-02  0.9041052E-01
        2   -1    0    0  501    0  0.00000000000E+00  0.00000000000E+00  0.14403270879E+04  0.14403270880E+04  0.25500000920E-02 0.  1.
       -2   -1    0    0    0  501  0.00000000000E+00  0.00000000000E+00 -0.28688001916E+03  0.28688001917E+03  0.25500000920E-02 0. -1.
    10030    2    1    2    0    0  0.00000000000E+00  0.00000000000E+00  0.11534470688E+04  0.17272071071E+04  0.12856143475E+04 0.  0.
        3    1    3    3  502    0 -0.25209603858E+03  0.19789491564E+03 -0.17188519382E+03  0.36367477278E+03  0.10100000352E+00 0. -1.
       -3    1    3    3    0  502  0.25209603858E+03 -0.19789491564E+03  0.13253322626E+04  0.13635323343E+04  0.10100000352E+00 0.  1.
</event>
<event>
 5   0  0.2370801E-03  0.1300021E+04  0.7818609E-02  0.9029549E-01
       -1   -1    0    0    0  501  0.00000000000E+00  0.00000000000E+00  0.25201970670E+03  0.25201970675E+03  0.50400001928E-02 0.  1.
        1   -1    0    0  501    0  0.00000000000E+00  0.00000000000E+00 -0.16765103375E+04  0.16765103375E+04  0.50400001928E-02 0. -1.
    10030    2    1    2    0    0  0.00000000000E+00  0.00000000000E+00 -0.14244906308E+04  0.19285300442E+04  0.13000209899E+04 0.  0.
        3    1    3    3  502    0  0.63322029972E+02  0.14660334397E+03  0.22246608727E+03  0.27384921057E+03  0.10100000352E+00 0.  1.
       -3    1    3    3    0  502 -0.63322029972E+02 -0.14660334397E+03 -0.16469567180E+04  0.16546808336E+04  0.10100000352E+00 0. -1.
</event>
<event>
 5   0  0.4388937E-03  0.1314894E+04  0.7818609E-02  0.9017837E-01
        2   -1    0    0  501    0  0.00000000000E+00  0.00000000000E+00  0.14481263433E+04  0.14481263433E+04  0.25500000920E-02 0. -1.
       -2   -1    0    0    0  501  0.00000000000E+00  0.00000000000E+00 -0.29847971664E+03  0.29847971665E+03  0.25500000920E-02 0.  1.
    10030    2    1    2    0    0  0.00000000000E+00  0.00000000000E+00  0.11496466267E+04  0.17466060600E+04  0.13148936697E+04 0.  0.
        5    1    3    3  502    0 -0.12132343324E+03 -0.29240449531E+02  0.14322258070E+04  0.14376603325E+04  0.46999998093E+01 0. -1.
       -5    1    3    3    0  502  0.12132343324E+03  0.29240449531E+02 -0.28257918036E+03  0.30894572746E+03  0.46999998093E+01 0.  1.
</event>
<event>
 5   0  0.2458456E-03  0.1471224E+04  0.7818609E-02  0.8903817E-01
        1   -1    0    0  501    0  0.00000000000E+00  0.00000000000E+00  0.13341009785E+04  0.13341009785E+04  0.50400001928E-02 0. -1.
       -1   -1    0    0    0  501  0.00000000000E+00  0.00000000000E+00 -0.40561042044E+03  0.40561042047E+03  0.50400001928E-02 0.  1.
    10030    2    1    2    0    0  0.00000000000E+00  0.00000000000E+00  0.92849055805E+03  0.17397113990E+04  0.14712243321E+04 0.  0.
        5    1    3    3  502    0 -0.21410063570E+03 -0.60756326288E+03  0.44284072373E+02  0.64572081403E+03  0.46999998093E+01 0.  1.
       -5    1    3    3    0  502  0.21410063570E+03  0.60756326288E+03  0.88420648567E+03  0.10939905849E+04  0.46999998093E+01 0. -1.
</event>
<event>
 5   0  0.2370801E-03  0.1312836E+04  0.7818609E-02  0.9019448E-01
        1   -1    0    0  501    0  0.00000000000E+00  0.00000000000E+00  0.85929558068E+03  0.85929558069E+03  0.50400001928E-02 0.  1.
       -1   -1    0    0    0  501  0.00000000000E+00  0.00000000000E+00 -0.50143900404E+03  0.50143900407E+03  0.50400001928E-02 0. -1.
    10030    2    1    2    0    0  0.00000000000E+00  0.00000000000E+00  0.35785657663E+03  0.13607345848E+04  0.13128355879E+04 0.  0.
        3    1    3    3  502    0 -0.26904005131E+03 -0.16163538633E+03 -0.41862653408E+03  0.52321767225E+03  0.10100000352E+00 0. -1.
       -3    1    3    3    0  502  0.26904005131E+03  0.16163538633E+03  0.77648311071E+03  0.83751691251E+03  0.10100000352E+00 0.  1.
</event>
<event>
 5   0  0.4306214E-03  0.1272405E+04  0.7818609E-02  0.9051739E-01
        2   -1    0    0  501    0  0.00000000000E+00  0.00000000000E+00  0.94351267987E+03  0.94351267988E+03  0.25500000920E-02 0.  1.
       -2   -1    0    0    0  501  0.00000000000E+00  0.00000000000E+00 -0.42898584548E+03  0.42898584548E+03  0.25500000920E-02 0. -1.
    10030    2    1    2    0    0  0.00000000000E+00  0.00000000000E+00  0.51452683440E+03  0.13724985254E+04  0.12724049429E+04 0.  0.
        3    1    3    3  502    0  0.33097427456E+02  0.48171277821E+03  0.70411059214E+03  0.85376482509E+03  0.10100000352E+00 0.  1.
       -3    1    3    3    0  502 -0.33097427456E+02 -0.48171277821E+03 -0.18958375774E+03  0.51873370027E+03  0.10100000352E+00 0. -1.
</event>
<event>
 5   0  0.2356769E-03  0.1289865E+04  0.7818609E-02  0.9037641E-01
       -1   -1    0    0    0  501  0.00000000000E+00  0.00000000000E+00  0.25941910666E+03  0.25941910671E+03  0.50400001928E-02 0. -1.
        1   -1    0    0  501    0  0.00000000000E+00  0.00000000000E+00 -0.16033427328E+04  0.16033427328E+04  0.50400001928E-02 0.  1.
    10030    2    1    2    0    0  0.00000000000E+00  0.00000000000E+00 -0.13439236262E+04  0.18627618395E+04  0.12898647053E+04 0.  0.
        1    1    3    3  502    0  0.53777882778E+02 -0.59140166195E+03 -0.30864970352E+03  0.66926274806E+03  0.50400001928E-02 0. -1.
       -1    1    3    3    0  502 -0.53777882778E+02  0.59140166195E+03 -0.10352739226E+04  0.11934990915E+04  0.50400001928E-02 0.  1.
</event>
<event>
 5   0  0.2370801E-03  0.1304306E+04  0.7818609E-02  0.9026157E-01
        1   -1    0    0  501    0  0.00000000000E+00  0.00000000000E+00  0.10281859930E+04  0.10281859930E+04  0.50400001928E-02 0.  1.
       -1   -1    0    0    0  501  0.00000000000E+00  0.00000000000E+00 -0.41364455371E+03  0.41364455374E+03  0.50400001928E-02 0. -1.
    10030    2    1    2    0    0  0.00000000000E+00  0.00000000000E+00  0.61454143926E+03  0.14418305467E+04  0.13043060012E+04 0.  0.
        3    1    3    3  502    0  0.52567008671E+03  0.36232749144E+03  0.16022958596E+03  0.65824295023E+03  0.10100000352E+00 0. -1.
       -3    1    3    3    0  502 -0.52567008671E+03 -0.36232749144E+03  0.45431185330E+03  0.78358759648E+03  0.10100000352E+00 0.  1.
</event>
<event>
 5   0  0.2462055E-03  0.1314216E+04  0.7818609E-02  0.9018367E-01
        1   -1    0    0  501    0  0.00000000000E+00  0.00000000000E+00  0.51693734881E+03  0.51693734883E+03  0.50400001928E-02 0.  1.
       -1   -1    0    0    0  501  0.00000000000E+00  0.00000000000E+00 -0.83528657501E+03  0.83528657502E+03  0.50400001928E-02 0. -1.
    10030    2    1    2    0    0  0.00000000000E+00  0.00000000000E+00 -0.31834922620E+03  0.13522239239E+04  0.13142158538E+04 0.  0.
        2    1    3    3  502    0  0.18449087375E+03 -0.48669758740E+03  0.25352317106E+03  0.57895200349E+03  0.25500000920E-02 0.  1.
       -2    1    3    3    0  502 -0.18449087375E+03  0.48669758740E+03 -0.57187239726E+03  0.77327192037E+03  0.25500000920E-02 0. -1.
</event>
<event>
 5   0  0.2458456E-03  0.1305838E+04  0.7818609E-02  0.9024948E-01
        1   -1    0    0  501    0  0.00000000000E+00  0.00000000000E+00  0.94506266856E+03  0.94506266858E+03  0.50400001928E-02 0.  1.
       -1   -1    0    0    0  501  0.00000000000E+00  0.00000000000E+00 -0.45108461450E+03  0.45108461453E+03  0.50400001928E-02 0. -1.
    10030    2    1    2    0    0  0.00000000000E+00  0.00000000000E+00  0.49397805406E+03  0.13961472831E+04  0.13058380138E+04 0.  0.
        5    1    3    3  502    0  0.30117804728E+03 -0.44442316260E+03  0.64425136850E+03  0.83863107469E+03  0.46999998093E+01 0.  1.
       -5    1    3    3    0  502 -0.30117804728E+03  0.44442316260E+03 -0.15027331444E+03  0.55751620842E+03  0.46999998093E+01 0. -1.
</event>
<event>
 5   0  0.4310889E-03  0.1312771E+04  0.7818609E-02  0.9019499E-01
        2   -1    0    0  501    0  0.00000000000E+00  0.00000000000E+00  0.15200855689E+04  0.15200855689E+04  0.25500000920E-02 0.  1.
       -2   -1    0    0    0  501  0.00000000000E+00  0.00000000000E+00 -0.28343265762E+03  0.28343265763E+03  0.25500000920E-02 0. -1.
    10030    2    1    2    0    0  0.00000000000E+00  0.00000000000E+00  0.12366529113E+04  0.18035182265E+04  0.13127709513E+04 0.  0.
        4    1    3    3  502    0  0.29852471976E+03 -0.12123838234E+02 -0.18459937982E+03  0.35120156561E+03  0.12699999809E+01 0. -1.
       -4    1    3    3    0  502 -0.29852471976E+03  0.12123838234E+02  0.14212522911E+04  0.14523166609E+04  0.12699999809E+01 0.  1.
</event>
<event>
 5   0  0.4453011E-03  0.1303011E+04  0.7818609E-02  0.9027181E-01
        2   -1    0    0  501    0  0.00000000000E+00  0.00000000000E+00  0.13210318756E+04  0.13210318756E+04  0.25500000920E-02 0. -1.
       -2   -1    0    0    0  501  0.00000000000E+00  0.00000000000E+00 -0.32130910787E+03  0.32130910788E+03  0.25500000920E-02 0.  1.
    10030    2    1    2    0    0  0.00000000000E+00  0.00000000000E+00  0.99972276768E+03  0.16423409834E+04  0.13030112408E+04 0.  0.
        1    1    3    3  502    0  0.30806487414E+03 -0.63187191347E+01  0.12233858329E+04  0.12615929570E+04  0.50400001928E-02 0. -1.
       -1    1    3    3    0  502 -0.30806487414E+03  0.63187191347E+01 -0.22366306522E+03  0.38074802647E+03  0.50400001928E-02 0.  1.
</event>
<event>
 5   0  0.2511542E-03  0.1170960E+04  0.7818609E-02  0.9138662E-01
       -1   -1    0    0    0  501  0.00000000000E+00  0.00000000000E+00  0.20302045113E+03  0.20302045119E+03  0.50400001928E-02 0.  1.
        1   -1    0    0  501    0  0.00000000000E+00  0.00000000000E+00 -0.16884341622E+04  0.16884341622E+04  0.50400001928E-02 0. -1.
    10030    2    1    2    0    0  0.00000000000E+00  0.00000000000E+00 -0.14854137111E+04  0.18914546134E+04  0.11709597181E+04 0.  0.
        4    1    3    3  502    0  0.44377142146E+03  0.26525514740E+03 -0.29889026976E+03  0.59718537657E+03  0.12699999809E+01 0.  1.
       -4    1    3    3    0  502 -0.44377142146E+03 -0.26525514740E+03 -0.11865234413E+04  0.12942692368E+04  0.12699999809E+01 0. -1.
</event>
<event>
 5   0  0.4263540E-03  0.1149972E+04  0.7818609E-02  0.9157809E-01
       -2   -1    0    0    0  501  0.00000000000E+00  0.00000000000E+00  0.29308456085E+03  0.29308456086E+03  0.25500000920E-02 0.  1.
        2   -1    0    0  501    0  0.00000000000E+00  0.00000000000E+00 -0.11280329235E+04  0.11280329235E+04  0.25500000920E-02 0. -1.
    10030    2    1    2    0    0  0.00000000000E+00  0.00000000000E+00 -0.83494836268E+03  0.14211174844E+04  0.11499722328E+04 0.  0.
        2    1    3    3  502    0 -0.13853031703E+03  0.30838015491E+03 -0.99224013065E+03  0.10482506597E+04  0.25500000920E-02 0. -1.
       -2    1    3    3    0  502  0.13853031703E+03 -0.30838015491E+03  0.15729176797E+03  0.37286682470E+03  0.25500000920E-02 0.  1.
</event>
<event>
 5   0  0.2458456E-03  0.1270981E+04  0.7818609E-02  0.9052900E-01
        1   -1    0    0  501    0  0.00000000000E+00  0.00000000000E+00  0.84423985751E+03  0.84423985753E+03  0.50400001928E-02 0.  1.
       -1   -1    0    0    0  501  0.00000000000E+00  0.00000000000E+00 -0.47835688702E+03  0.47835688705E+03  0.50400001928E-02 0. -1.
    10030    2    1    2    0    0  0.00000000000E+00  0.00000000000E+00  0.36588297049E+03  0.13225967446E+04  0.12709806453E+04 0.  0.
        5    1    3    3  502    0 -0.52339594643E+03 -0.21641958406E+02 -0.19140988438E+03  0.55773786400E+03  0.46999998093E+01 0. -1.
       -5    1    3    3    0  502  0.52339594643E+03  0.21641958406E+02  0.55729285487E+03  0.76485888058E+03  0.46999998093E+01 0.  1.
</event>
<event>
 5   0  0.4263540E-03  0.1329347E+04  0.7818609E-02  0.9006611E-01
        2   -1    0    0  501    0  0.00000000000E+00  0.00000000000E+00  0.10401504800E+04  0.10401504800E+04  0.25500000920E-02 0.  1.
       -2   -1    0    0    0  501  0.00000000000E+00  0.00000000000E+00 -0.42473754670E+03  0.42473754671E+03  0.25500000920E-02 0. -1.
    10030    2    1    2    0    0  0.00000000000E+00  0.00000000000E+00  0.61541293330E+03  0.14648880267E+04  0.13293471527E+04 0.  0.
        2    1    3    3  502    0 -0.64252070578E+03  0.74447707666E+02  0.47633034658E+03  0.80328445623E+03  0.25500000920E-02 0.  1.
       -2    1    3    3    0  502  0.64252070578E+03 -0.74447707666E+02  0.13908258672E+03  0.66160357048E+03  0.25500000920E-02 0. -1.
</event>
<event>
 5   0  0.2511542E-03  0.1298704E+04  0.7818609E-02  0.9030594E-01
        1   -1    0    0  501    0  0.00000000000E+00  0.00000000000E+00  0.81303083896E+03  0.81303083898E+03  0.50400001928E-02 0.  1.
       -1   -1    0    0    0  501  0.00000000000E+00  0.00000000000E+00 -0.51862463716E+03  0.51862463719E+03  0.50400001928E-02 0. -1.
    10030    2    1    2    0    0  0.00000000000E+00  0.00000000000E+00  0.29440620180E+03  0.13316554762E+04  0.12987036981E+04 0.  0.
        4    1    3    3  502    0  0.39739847939E+03  0.33258231370E+03 -0.25403049141E+03  0.57712186779E+03  0.12699999809E+01 0. -1.
       -4    1    3    3    0  502 -0.39739847939E+03 -0.33258231370E+03  0.54843669321E+03  0.75453360838E+03  0.12699999809E+01 0.  1.
</event>
<event>
 5   0  0.2462055E-03  0.1285395E+04  0.7818609E-02  0.9041228E-01
       -1   -1    0    0    0  501  0.00000000000E+00  0.00000000000E+00  0.85383824304E+03  0.85383824305E+03  0.50400001928E-02 0. -1.
        1   -1    0    0  501    0  0.00000000000E+00  0.00000000000E+00 -0.48376883015E+03  0.48376883017E+03  0.50400001928E-02 0.  1.
    10030    2    1    2    0    0  0.00000000000E+00  0.00000000000E+00  0.37006941289E+03  0.13376070732E+04  0.12853953913E+04 0.  0.
        2    1    3    3  502    0  0.15081947442E+03 -0.62355321231E+03  0.22527325140E+03  0.67993614424E+03  0.25500000920E-02 0.  1.
       -2    1    3    3    0  502 -0.15081947442E+03  0.62355321231E+03  0.14479616149E+03  0.65767092899E+03  0.25500000920E-02 0. -1.
</event>
<event>
 5   0  0.2462055E-03  0.8709385E+03  0.7818609E-02  0.9462657E-01
       -1   -1    0    0    0  501  0.00000000000E+00  0.00000000000E+00  0.12988484035E+03  0.12988484044E+03  0.50400001928E-02 0. -1.
        1   -1    0    0  501    0  0.00000000000E+00  0.00000000000E+00 -0.14600122929E+04  0.14600122929E+04  0.50400001928E-02 0.  1.
    10030    2    1    2    0    0  0.00000000000E+00  0.00000000000E+00 -0.13301274525E+04  0.15898971333E+04  0.87093849071E+03 0.  0.
        2    1    3    3  502    0 -0.14954276625E+03 -0.40869506051E+03 -0.69327180078E+03  0.81854778797E+03  0.25500000920E-02 0. -1.
       -2    1    3    3    0  502  0.14954276625E+03  0.40869506051E+03 -0.63685565175E+03  0.77134934536E+03  0.25500000920E-02 0.  1.
</event>
<event>
 5   0  0.4263540E-03  0.1285413E+04  0.7818609E-02  0.9041213E-01
       -2   -1    0    0    0  501  0.00000000000E+00  0.00000000000E+00  0.52292366961E+03  0.52292366962E+03  0.25500000920E-02 0. -1.
        2   -1    0    0  501    0  0.00000000000E+00  0.00000000000E+00 -0.78992748106E+03  0.78992748107E+03  0.25500000920E-02 0.  1.
    10030    2    1    2    0    0  0.00000000000E+00  0.00000000000E+00 -0.26700381145E+03  0.13128511507E+04  0.12854132054E+04 0.  0.
        2    1    3    3  502    0  0.36819217407E+03 -0.41203930269E+03  0.20172655796E+03  0.58824779490E+03  0.25500000920E-02 0. -1.
       -2    1    3    3    0  502 -0.36819217407E+03  0.41203930269E+03 -0.46873036941E+03  0.72460335579E+03  0.25500000920E-02 0.  1.
</event>
<event>
 5   0  0.2458456E-03  0.1328639E+04  0.7818609E-02  0.9007157E-01
        1   -1    0    0  501    0  0.00000000000E+00  0.00000000000E+00  0.42196870224E+03  0.42196870227E+03  0.50400001928E-02 0.  1.
       -1   -1    0    0    0  501  0.00000000000E+00  0.00000000000E+00 -0.10458610609E+04  0.10458610609E+04  0.50400001928E-02 0. -1.
    10030    2    1    2    0    0  0.00000000000E+00  0.00000000000E+00 -0.62389235861E+03  0.14678297631E+04  0.13286393560E+04 0.  0.
        5    1    3    3  502    0 -0.40041523588E+01 -0.55582689630E+03 -0.71384104362E+03  0.90473791644E+03  0.46999998093E+01 0.  1.
       -5    1    3    3    0  502  0.40041523588E+01  0.55582689630E+03  0.89948685008E+02  0.56309184670E+03  0.46999998093E+01 0. -1.
</event>
<event>
 5   0  0.4388937E-03  0.1272254E+04  0.7818609E-02  0.9051862E-01
        2   -1    0    0  501    0  0.00000000000E+00  0.00000000000E+00  0.24386069077E+04  0.24386069077E+04  0.25500000920E-02 0. -1.
       -2   -1    0    0    0  501  0.00000000000E+00  0.00000000000E+00 -0.16593798493E+03  0.16593798495E+03  0.25500000920E-02 0.  1.
    10030    2    1    2    0    0  0.00000000000E+00  0.00000000000E+00  0.22726689228E+04  0.26045448927E+04  0.12722539311E+04 0.  0.
        5    1    3    3  502    0  0.84448643239E+02  0.56519372419E+02  0.24218478928E+04  0.24239833578E+04  0.46999998093E+01 0. -1.
       -5    1    3    3    0  502 -0.84448643239E+02 -0.56519372419E+02 -0.14917897000E+03  0.18056153492E+03  0.46999998093E+01 0.  1.
</event>
<event>
 5   0  0.4388937E-03  0.1455407E+04  0.7818609E-02  0.8914661E-01
        2   -1    0    0  501    0  0.00000000000E+00  0.00000000000E+00  0.19211752741E+04  0.19211752741E+04  0.25500000920E-02 0. -1.
       -2   -1    0    0    0  501  0.00000000000E+00  0.00000000000E+00 -0.27563980958E+03  0.27563980959E+03  0.25500000920E-02 0.  1.
    10030    2    1    2    0    0  0.00000000000E+00  0.00000000000E+00  0.16455354645E+04  0.21968150836E+04  0.14554070039E+04 0.  0.
        5    1    3    3  502    0 -0.25445364222E+03  0.11393965424E+03 -0.19180415777E+03  0.33843732918E+03  0.46999998093E+01 0.  1.
       -5    1    3    3    0  502  0.25445364222E+03 -0.11393965424E+03  0.18373396222E+04  0.18583777545E+04  0.46999998093E+01 0. -1.
</event>
<event>
 5   0  0.4310889E-03  0.1251100E+04  0.7818609E-02  0.9069268E-01
        2   -1    0    0  501    0  0.00000000000E+00  0.00000000000E+00  0.30151030873E+03  0.30151030874E+03  0.25500000920E-02 0. -1.
       -2   -1    0    0    0  501  0.00000000000E+00  0.00000000000E+00 -0.12978417289E+04  0.12978417289E+04  0.25500000920E-02 0.  1.
    10030    2    1    2    0    0  0.00000000000E+00  0.00000000000E+00 -0.99633142018E+03  0.15993520377E+04  0.12510997728E+04 0.  0.
        4    1    3    3  502    0  0.45338476731E+03 -0.42043498010E+03 -0.61935858205E+03  0.87517426024E+03  0.12699999809E+01 0.  1.
       -4    1    3    3    0  502 -0.45338476731E+03  0.42043498010E+03 -0.37697283813E+03  0.72417777742E+03  0.12699999809E+01 0. -1.
</event>
<event>
 5   0  0.2511542E-03  0.1284493E+04  0.7818609E-02  0.9041954E-01
       -1   -1    0    0    0  501  0.00000000000E+00  0.00000000000E+00  0.41743899873E+03  0.41743899876E+03  0.50400001928E-02 0.  1.
        1   -1    0    0  501    0  0.00000000000E+00  0.00000000000E+00 -0.98812160676E+03  0.98812160677E+03  0.50400001928E-02 0. -1.
    10030    2    1    2    0    0  0.00000000000E+00  0.00000000000E+00 -0.57068260803E+03  0.14055606055E+04  0.12844928870E+04 0.  0.
        4    1    3    3  502    0 -0.27742751500E+03 -0.24893621793E+03  0.28696847071E+03  0.47041235396E+03  0.12699999809E+01 0.  1.
       -4    1    3    3    0  502  0.27742751500E+03  0.24893621793E+03 -0.85765107874E+03  0.93514825158E+03  0.12699999809E+01 0. -1.
</event>
<event>
 5   0  0.2462055E-03  0.1304195E+04  0.7818609E-02  0.9026245E-01
       -1   -1    0    0    0  501  0.00000000000E+00  0.00000000000E+00  0.49629482046E+03  0.49629482049E+03  0.50400001928E-02 0. -1.
        1   -1    0    0  501    0  0.00000000000E+00  0.00000000000E+00 -0.85681159001E+03  0.85681159002E+03  0.50400001928E-02 0.  1.
    10030    2    1    2    0    0  0.00000000000E+00  0.00000000000E+00 -0.36051676955E+03  0.13531064105E+04  0.13041950073E+04 0.  0.
        2    1    3    3  502    0 -0.31951128707E+03 -0.28601089934E+03  0.32943075922E+03  0.54075347639E+03  0.25500000920E-02 0. -1.
       -2    1    3    3    0  502  0.31951128707E+03  0.28601089934E+03 -0.68994752877E+03  0.81235293412E+03  0.25500000920E-02 0.  1.
</event>
<event>
 5   0  0.1661750E-03  0.1342759E+04  0.7818609E-02  0.8996328E-01
       -3   -1    0    0    0  501  0.00000000000E+00  0.00000000000E+00  0.37547141348E+03  0.37547142706E+03  0.10100000352E+00 0. -1.
        3   -1    0    0  501    0  0.00000000000E+00  0.00000000000E+00 -0.12004912875E+04  0.12004912917E+04  0.10100000352E+00 0.  1.
    10030    2    1    2    0    0  0.00000000000E+00  0.00000000000E+00 -0.82501987402E+03  0.15759627188E+04  0.13427586151E+04 0.  0.
        5    1    3    3  502    0  0.33167527959E+03 -0.42981407314E+03  0.51024167480E+02  0.54532025840E+03  0.46999998093E+01 0. -1.
       -5    1    3    3    0  502 -0.33167527959E+03  0.42981407314E+03 -0.87604404150E+03  0.10306424604E+04  0.46999998093E+01 0.  1.
</event>
<event>
 5   0  0.4263540E-03  0.1090470E+04  0.7818609E-02  0.9214530E-01
        2   -1    0    0  501    0  0.00000000000E+00  0.00000000000E+00  0.19445693052E+04  0.19445693052E+04  0.25500000920E-02 0.  1.
       -2   -1    0    0    0  501  0.00000000000E+00  0.00000000000E+00 -0.15287769818E+03  0.15287769820E+03  0.25500000920E-02 0. -1.
    10030    2    1    2    0    0  0.00000000000E+00  0.00000000000E+00  0.17916916070E+04  0.20974470034E+04  0.10904701360E+04 0.  0.
        2    1    3    3  502    0 -0.13088417394E+03  0.25893212769E+03  0.79258802769E+01  0.29024013045E+03  0.25500000920E-02 0. -1.
       -2    1    3    3    0  502  0.13088417394E+03 -0.25893212769E+03  0.17837657267E+04  0.18072068729E+04  0.25500000920E-02 0.  1.
</event>
<event>
 5   0  0.2462055E-03  0.1330734E+04  0.7818609E-02  0.9005542E-01
       -1   -1    0    0    0  501  0.00000000000E+00  0.00000000000E+00  0.37310444894E+03  0.37310444898E+03  0.50400001928E-02 0. -1.
        1   -1    0    0  501    0  0.00000000000E+00  0.00000000000E+00 -0.11865663509E+04  0.11865663509E+04  0.50400001928E-02 0.  1.
    10030    2    1    2    0    0  0.00000000000E+00  0.00000000000E+00 -0.81346190193E+03  0.15596707999E+04  0.13307339096E+04 0.  0.
        2    1    3    3  502    0 -0.36046781043E+03 -0.31369008987E+03 -0.94939175231E+03  0.10628655673E+04  0.25500000920E-02 0. -1.
       -2    1    3    3    0  502  0.36046781043E+03  0.31369008987E+03  0.13592985038E+03  0.49680523253E+03  0.25500000920E-02 0.  1.
</event>
<event>
 5   0  0.4306214E-03  0.1298268E+04  0.7818609E-02  0.9030940E-01
       -2   -1    0    0    0  501  0.00000000000E+00  0.00000000000E+00  0.57773939679E+03  0.57773939680E+03  0.25500000920E-02 0.  1.
        2   -1    0    0  501    0  0.00000000000E+00  0.00000000000E+00 -0.72935145780E+03  0.72935145780E+03  0.25500000920E-02 0. -1.
    10030    2    1    2    0    0  0.00000000000E+00  0.00000000000E+00 -0.15161206101E+03  0.13070908546E+04  0.12982681869E+04 0.  0.
        3    1    3    3  502    0  0.29478868498E+03 -0.37333874808E+03  0.36888877996E+03  0.60196439413E+03  0.10100000352E+00 0.  1.
       -3    1    3    3    0  502 -0.29478868498E+03  0.37333874808E+03 -0.52050084096E+03  0.70512646047E+03  0.10100000352E+00 0. -1.
</event>
<event>
 5   0  0.4388937E-03  0.1326216E+04  0.7818609E-02  0.9009030E-01
        2   -1    0    0  501    0  0.00000000000E+00  0.00000000000E+00  0.48019998569E+03  0.48019998570E+03  0.25500000920E-02 0.  1.
       -2   -1    0    0    0  501  0.00000000000E+00  0.00000000000E+00 -0.91568580610E+03  0.91568580610E+03  0.25500000920E-02 0. -1.
    10030    2    1    2    0    0  0.00000000000E+00  0.00000000000E+00 -0.43548582040E+03  0.13958857918E+04  0.13262161377E+04 0.  0.
        5    1    3    3  502    0 -0.98689000173E+02 -0.34110296117E+03  0.37167488020E+03  0.51405744372E+03  0.46999998093E+01 0.  1.
       -5    1    3    3    0  502  0.98689000173E+02  0.34110296117E+03 -0.80716070061E+03  0.88182834808E+03  0.46999998093E+01 0. -1.
</event>
<event>
 5   0  0.2458456E-03  0.1305473E+04  0.7818609E-02  0.9025236E-01
       -1   -1    0    0    0  501  0.00000000000E+00  0.00000000000E+00  0.46215700720E+03  0.46215700723E+03  0.50400001928E-02 0.  1.
        1   -1    0    0  501    0  0.00000000000E+00  0.00000000000E+00 -0.92190481005E+03  0.92190481007E+03  0.50400001928E-02 0. -1.
    10030    2    1    2    0    0  0.00000000000E+00  0.00000000000E+00 -0.45974780285E+03  0.13840618173E+04  0.13054727388E+04 0.  0.
        5    1    3    3  502    0 -0.62488794576E+02 -0.51763667083E+02  0.45677084766E+03  0.46394614337E+03  0.46999998093E+01 0.  1.
       -5    1    3    3    0  502  0.62488794576E+02  0.51763667083E+02 -0.91651865051E+03  0.92011567393E+03  0.46999998093E+01 0. -1.
</event>
<event>
 5   0  0.2370801E-03  0.1214737E+04  0.7818609E-02  0.9100054E-01
       -1   -1    0    0    0  501  0.00000000000E+00  0.00000000000E+00  0.42548190082E+03  0.42548190085E+03  0.50400001928E-02 0.  1.
        1   -1    0    0  501    0  0.00000000000E+00  0.00000000000E+00 -0.86700843618E+03  0.86700843620E+03  0.50400001928E-02 0. -1.
    10030    2    1    2    0    0  0.00000000000E+00  0.00000000000E+00 -0.44152653536E+03  0.12924903370E+04  0.12147368398E+04 0.  0.
        3    1    3    3  502    0  0.23899006367E+03 -0.84523267649E+02 -0.80803038138E+03  0.84686099257E+03  0.10100000352E+00 0. -1.
       -3    1    3    3    0  502 -0.23899006367E+03  0.84523267649E+02  0.36650384602E+03  0.44562934447E+03  0.10100000352E+00 0.  1.
</event>
<event>
 5   0  0.4306214E-03  0.1291364E+04  0.7818609E-02  0.9036442E-01
        2   -1    0    0  501    0  0.00000000000E+00  0.00000000000E+00  0.10316120637E+04  0.10316120637E+04  0.25500000920E-02 0.  1.
       -2   -1    0    0    0  501  0.00000000000E+00  0.00000000000E+00 -0.40413005592E+03  0.40413005593E+03  0.25500000920E-02 0. -1.
    10030    2    1    2    0    0  0.00000000000E+00  0.00000000000E+00  0.62748200778E+03  0.14357421196E+04  0.12913643034E+04 0.  0.
        3    1    3    3  502    0 -0.14708479337E+03  0.28904935963E+03  0.93448333754E+03  0.98916256858E+03  0.10100000352E+00 0.  1.
       -3    1    3    3    0  502  0.14708479337E+03 -0.28904935963E+03 -0.30700132976E+03  0.44657955105E+03  0.10100000352E+00 0. -1.
</event>
<event>
 5   0  0.4453011E-03  0.1195269E+04  0.7818609E-02  0.9117008E-01
        2   -1    0    0  501    0  0.00000000000E+00  0.00000000000E+00  0.87925341719E+03  0.87925341720E+03  0.25500000920E-02 0.  1.
       -2   -1    0    0    0  501  0.00000000000E+00  0.00000000000E+00 -0.40621621733E+03  0.40621621733E+03  0.25500000920E-02 0. -1.
    10030    2    1    2    0    0  0.00000000000E+00  0.00000000000E+00  0.47303719987E+03  0.12854696345E+04  0.11952690027E+04 0.  0.
        1    1    3    3  502    0  0.34676686919E+03  0.22734978304E+03  0.69938318439E+03  0.81306335795E+03  0.50400001928E-02 0.  1.
       -1    1    3    3    0  502 -0.34676686919E+03 -0.22734978304E+03 -0.22634598452E+03  0.47240627658E+03  0.50400001928E-02 0. -1.
</event>
<event>
 5   0  0.4453011E-03  0.1288735E+04  0.7818609E-02  0.9038546E-01
        2   -1    0    0  501    0  0.00000000000E+00  0.00000000000E+00  0.17229147553E+04  0.17229147553E+04  0.25500000920E-02 0.  1.
       -2   -1    0    0    0  501  0.00000000000E+00  0.00000000000E+00 -0.24099247735E+03  0.24099247736E+03  0.25500000920E-02 0. -1.
    10030    2    1    2    0    0  0.00000000000E+00  0.00000000000E+00  0.14819222780E+04  0.19639072327E+04  0.12887350312E+04 0.  0.
        1    1    3    3  502    0 -0.93583624018E+02 -0.63003138034E+03  0.59233519318E+03  0.86980366521E+03  0.50400001928E-02 0.  1.
       -1    1    3    3    0  502  0.93583624018E+02  0.63003138034E+03  0.88958708477E+03  0.10941035675E+04  0.50400001928E-02 0. -1.
</event>
<event>
 5   0  0.4263540E-03  0.1328154E+04  0.7818609E-02  0.9007532E-01
        2   -1    0    0  501    0  0.00000000000E+00  0.00000000000E+00  0.97876370722E+03  0.97876370722E+03  0.25500000920E-02 0. -1.
       -2   -1    0    0    0  501  0.00000000000E+00  0.00000000000E+00 -0.45056687436E+03  0.45056687437E+03  0.25500000920E-02 0.  1.
    10030    2    1    2    0    0  0.00000000000E+00  0.00000000000E+00  0.52819683286E+03  0.14293305816E+04  0.13281543650E+04 0.  0.
        2    1    3    3  502    0  0.69547347405E+02  0.14131173340E+02 -0.44647415671E+03  0.45207930300E+03  0.25500000920E-02 0.  1.
       -2    1    3    3    0  502 -0.69547347405E+02 -0.14131173340E+02  0.97467098956E+03  0.97725127858E+03  0.25500000920E-02 0. -1.
</event>
<event>
 5   0  0.2356769E-03  0.1295178E+04  0.7818609E-02  0.9033398E-01
        1   -1    0    0  501    0  0.00000000000E+00  0.00000000000E+00  0.23900132054E+03  0.23900132059E+03  0.50400001928E-02 0. -1.
       -1   -1    0    0    0  501  0.00000000000E+00  0.00000000000E+00 -0.17546828359E+04  0.17546828359E+04  0.50400001928E-02 0.  1.
    10030    2    1    2    0    0  0.00000000000E+00  0.00000000000E+00 -0.15156815154E+04  0.19936841565E+04  0.12951780032E+04 0.  0.
        1    1    3    3  502    0 -0.62685242217E+03 -0.14936384208E+03 -0.65906053805E+03  0.92174525186E+03  0.50400001928E-02 0. -1.
       -1    1    3    3    0  502  0.62685242217E+03  0.14936384208E+03 -0.85662097734E+03  0.10719389047E+04  0.50400001928E-02 0.  1.
</event>
<event>
 5   0  0.4453011E-03  0.1383756E+04  0.7818609E-02  0.8965662E-01
        2   -1    0    0  501    0  0.00000000000E+00  0.00000000000E+00  0.18810342878E+04  0.18810342878E+04  0.25500000920E-02 0. -1.
       -2   -1    0    0    0  501  0.00000000000E+00  0.00000000000E+00 -0.25448493874E+03  0.25448493875E+03  0.25500000920E-02 0.  1.
    10030    2    1    2    0    0  0.00000000000E+00  0.00000000000E+00  0.16265493490E+04  0.21355192265E+04  0.13837556078E+04 0.  0.
        1    1    3    3  502    0  0.34124076465E+03 -0.43770162146E+03  0.17571803071E+03  0.58215530164E+03  0.50400001928E-02 0.  1.
       -1    1    3    3    0  502 -0.34124076465E+03  0.43770162146E+03  0.14508313183E+04  0.15533639249E+04  0.50400001928E-02 0. -1.
</event>
<event>
 5   0  0.4310889E-03  0.1052867E+04  0.7818609E-02  0.9252389E-01
       -2   -1    0    0    0  501  0.00000000000E+00  0.00000000000E+00  0.22502891554E+03  0.22502891556E+03  0.25500000920E-02 0. -1.
        2   -1    0    0  501    0  0.00000000000E+00  0.00000000000E+00 -0.12315400186E+04  0.12315400186E+04  0.25500000920E-02 0.  1.
    10030    2    1    2    0    0  0.00000000000E+00  0.00000000000E+00 -0.10065111030E+04  0.14565689341E+04  0.10528667814E+04 0.  0.
        4    1    3    3  502    0 -0.49440406093E+03 -0.18075134823E+03 -0.49646734403E+03  0.72359371330E+03  0.12699999809E+01 0. -1.
       -4    1    3    3    0  502  0.49440406093E+03  0.18075134823E+03 -0.51004375900E+03  0.73297522082E+03  0.12699999809E+01 0.  1.
</event>
<event>
 5   0  0.4306214E-03  0.1312301E+04  0.7818609E-02  0.9019867E-01
       -2   -1    0    0    0  501  0.00000000000E+00  0.00000000000E+00  0.64137985779E+03  0.64137985779E+03  0.25500000920E-02 0.  1.
        2   -1    0    0  501    0  0.00000000000E+00  0.00000000000E+00 -0.67126140604E+03  0.67126140605E+03  0.25500000920E-02 0. -1.
    10030    2    1    2    0    0  0.00000000000E+00  0.00000000000E+00 -0.29881548255E+02  0.13126412638E+04  0.13123011014E+04 0.  0.
        3    1    3    3  502    0 -0.52065538538E+03  0.54832495177E+02  0.38069291630E+03  0.64731425102E+03  0.10100000352E+00 0.  1.
       -3    1    3    3    0  502  0.52065538538E+03 -0.54832495177E+02 -0.41057446455E+03  0.66532701282E+03  0.10100000352E+00 0. -1.
</event>
<event>
 5   0  0.2370801E-03  0.1280973E+04  0.7818609E-02  0.9044791E-01
       -1   -1    0    0    0  501  0.00000000000E+00  0.00000000000E+00  0.33313447642E+03  0.33313447646E+03  0.50400001928E-02 0.  1.
        1   -1    0    0  501    0  0.00000000000E+00  0.00000000000E+00 -0.12314041312E+04  0.12314041312E+04  0.50400001928E-02 0. -1.
    10030    2    1    2    0    0  0.00000000000E+00  0.00000000000E+00 -0.89826965474E+03  0.15645386076E+04  0.12809733339E+04 0.  0.
        3    1    3    3  502    0 -0.17412551590E+03  0.49136980273E+03 -0.90360676952E+03  0.10432014103E+04  0.10100000352E+00 0. -1.
       -3    1    3    3    0  502  0.17412551590E+03 -0.49136980273E+03  0.53371147786E+01  0.52133719733E+03  0.10100000352E+00 0.  1.
</event>
<event>
 5   0  0.1661750E-03  0.1310129E+04  0.7818609E-02  0.9021571E-01
        4   -1    0    0  501    0  0.00000000000E+00  0.00000000000E+00  0.31782594382E+03  0.31782848121E+03  0.12699999809E+01 0.  1.
       -4   -1    0    0    0  501  0.00000000000E+00  0.00000000000E+00 -0.13501327369E+04  0.13501333342E+04  0.12699999809E+01 0. -1.
    10030    2    1    2    0    0  0.00000000000E+00  0.00000000000E+00 -0.10323067931E+04  0.16679618154E+04  0.13101294984E+04 0.  0.
        3    1    3    3  502    0  0.16545197056E+03 -0.24718213394E+03 -0.12592023729E+04  0.12938562471E+04  0.10100000352E+00 0. -1.
       -3    1    3    3    0  502 -0.16545197056E+03  0.24718213394E+03  0.22689557986E+03  0.37410556834E+03  0.10100000352E+00 0.  1.
</event>
<event>
 5   0  0.4453011E-03  0.1230612E+04  0.7818609E-02  0.9086476E-01
       -2   -1    0    0    0  501  0.00000000000E+00  0.00000000000E+00  0.29440651277E+03  0.29440651278E+03  0.25500000920E-02 0.  1.
        2   -1    0    0  501    0  0.00000000000E+00  0.00000000000E+00 -0.12859812509E+04  0.12859812509E+04  0.25500000920E-02 0. -1.
    10030    2    1    2    0    0  0.00000000000E+00  0.00000000000E+00 -0.99157473813E+03  0.15803877637E+04  0.12306116456E+04 0.  0.
        1    1    3    3  502    0 -0.12979770346E+03 -0.24235370975E+03  0.21114391891E+03  0.34664754286E+03  0.50400001928E-02 0.  1.
       -1    1    3    3    0  502  0.12979770346E+03  0.24235370975E+03 -0.12027186570E+04  0.12337402208E+04  0.50400001928E-02 0. -1.
</event>
<event>
 5   0  0.4310889E-03  0.1311343E+04  0.7818609E-02  0.9020618E-01
        2   -1    0    0  501    0  0.00000000000E+00  0.00000000000E+00  0.68847591593E+03  0.68847591593E+03  0.25500000920E-02 0. -1.
       -2   -1    0    0    0  501  0.00000000000E+00  0.00000000000E+00 -0.62443040907E+03  0.62443040907E+03  0.25500000920E-02 0.  1.
    10030    2    1    2    0    0  0.00000000000E+00  0.00000000000E+00  0.64045506864E+02  0.13129063250E+04  0.13113432774E+04 0.  0.
        4    1    3    3  502    0  0.37366557959E+03 -0.18350966702E+03  0.53918544567E+03  0.68119330661E+03  0.12699999809E+01 0. -1.
       -4    1    3    3    0  502 -0.37366557959E+03  0.18350966702E+03 -0.47513993880E+03  0.63171301839E+03  0.12699999809E+01 0.  1.
</event>
<event>
 5   0  0.4306214E-03  0.1142121E+04  0.7818609E-02  0.9165083E-01
        2   -1    0    0  501    0  0.00000000000E+00  0.00000000000E+00  0.74479295663E+03  0.74479295664E+03  0.25500000920E-02 0. -1.
       -2   -1    0    0    0  501  0.00000000000E+00  0.00000000000E+00 -0.43785341051E+03  0.43785341052E+03  0.25500000920E-02 0.  1.
    10030    2    1    2    0    0  0.00000000000E+00  0.00000000000E+00  0.30693954612E+03  0.11826463672E+04  0.11421210727E+04 0.  0.
        3    1    3    3  502    0 -0.19239436618E+03  0.51563537725E+03  0.31123969718E+03  0.63227019043E+03  0.10100000352E+00 0. -1.
       -3    1    3    3    0  502  0.19239436618E+03 -0.51563537725E+03 -0.43001510657E+01  0.55037617672E+03  0.10100000352E+00 0.  1.
</event>
<event>
 5   0  0.2356769E-03  0.1212333E+04  0.7818609E-02  0.9102129E-01
       -1   -1    0    0    0  501  0.00000000000E+00  0.00000000000E+00  0.10100580250E+04  0.10100580250E+04  0.50400001928E-02 0.  1.
        1   -1    0    0  501    0  0.00000000000E+00  0.00000000000E+00 -0.36377897992E+03  0.36377897996E+03  0.50400001928E-02 0. -1.
    10030    2    1    2    0    0  0.00000000000E+00  0.00000000000E+00  0.64627904510E+03  0.13738370050E+04  0.12123330863E+04 0.  0.
        1    1    3    3  502    0  0.24673307608E+02  0.11953226613E+03 -0.34971032226E+03  0.37039714399E+03  0.50400001928E-02 0. -1.
       -1    1    3    3    0  502 -0.24673307608E+02 -0.11953226613E+03  0.99598936735E+03  0.10034398610E+04  0.50400001928E-02 0.  1.
</event>
<event>
 5   0  0.4263540E-03  0.1356502E+04  0.7818609E-02  0.8985921E-01
       -2   -1    0    0    0  501  0.00000000000E+00  0.00000000000E+00  0.58677922693E+03  0.58677922694E+03  0.25500000920E-02 0.  1.
        2   -1    0    0  501    0  0.00000000000E+00  0.00000000000E+00 -0.78398159635E+03  0.78398159635E+03  0.25500000920E-02 0. -1.
    10030    2    1    2    0    0  0.00000000000E+00  0.00000000000E+00 -0.19720236941E+03  0.13707608233E+04  0.13565015518E+04 0.  0.
        2    1    3    3  502    0 -0.35410317141E+03  0.55978170359E+03  0.48807181466E+02  0.66417373679E+03  0.25500000920E-02 0.  1.
       -2    1    3    3    0  502  0.35410317141E+03 -0.55978170359E+03 -0.24600955088E+03  0.70658708650E+03  0.25500000920E-02 0. -1.
</event>
<event>
 5   0  0.2356769E-03  0.1302155E+04  0.7818609E-02  0.9027858E-01
       -1   -1    0    0    0  501  0.00000000000E+00  0.00000000000E+00  0.52610868090E+03  0.52610868092E+03  0.50400001928E-02 0. -1.
        1   -1    0    0  501    0  0.00000000000E+00  0.00000000000E+00 -0.80573086796E+03  0.80573086798E+03  0.50400001928E-02 0.  1.
    10030    2    1    2    0    0  0.00000000000E+00  0.00000000000E+00 -0.27962218706E+03  0.13318395489E+04  0.13021551430E+04 0.  0.
        1    1    3    3  502    0  0.30113546441E+02 -0.23896026291E+03  0.47886926507E+03  0.53602668402E+03  0.50400001928E-02 0. -1.
       -1    1    3    3    0  502 -0.30113546441E+02  0.23896026291E+03 -0.75849145213E+03  0.79581286488E+03  0.50400001928E-02 0.  1.
</event>
<event>
 5   0  0.2462055E-03  0.1302674E+04  0.7818609E-02  0.9027448E-01
        1   -1    0    0  501    0  0.00000000000E+00  0.00000000000E+00  0.44784465429E+03  0.44784465432E+03  0.50400001928E-02 0.  1.
       -1   -1    0    0    0  501  0.00000000000E+00  0.00000000000E+00 -0.94729205459E+03  0.94729205460E+03  0.50400001928E-02 0. -1.
    10030    2    1    2    0    0  0.00000000000E+00  0.00000000000E+00 -0.49944740030E+03  0.13951367089E+04  0.13026736855E+04 0.  0.
        2    1    3    3  502    0 -0.50984684675E+03 -0.36750529602E+03 -0.66602713757E+02  0.63201255623E+03  0.25500000920E-02 0.  1.
       -2    1    3    3    0  502  0.50984684675E+03  0.36750529602E+03 -0.43284468654E+03  0.76312415269E+03  0.25500000920E-02 0. -1.
</event>
<event>
 5   0  0.4388937E-03  0.7613393E+03  0.7818609E-02  0.9617727E-01
        2   -1    0    0  501    0  0.00000000000E+00  0.00000000000E+00  0.97610971395E+03  0.97610971395E+03  0.25500000920E-02 0.  1.
       -2   -1    0    0    0  501  0.00000000000E+00  0.00000000000E+00 -0.14845602559E+03  0.14845602561E+03  0.25500000920E-02 0. -1.
    10030    2    1    2    0    0  0.00000000000E+00  0.00000000000E+00  0.82765368836E+03  0.11245657396E+04  0.76133926389E+03 0.  0.
        5    1    3    3  502    0 -0.34669246430E+03 -0.43175001206E+02  0.63699699741E+03  0.72653080474E+03  0.46999998093E+01 0.  1.
       -5    1    3    3    0  502  0.34669246430E+03  0.43175001206E+02  0.19065669095E+03  0.39803493482E+03  0.46999998093E+01 0. -1.
</event>
<event>
 5   0  0.2356769E-03  0.1290953E+04  0.7818609E-02  0.9036770E-01
        1   -1    0    0  501    0  0.00000000000E+00  0.00000000000E+00  0.85985533721E+03  0.85985533723E+03  0.50400001928E-02 0. -1.
       -1   -1    0    0    0  501  0.00000000000E+00  0.00000000000E+00 -0.48454652434E+03  0.48454652437E+03  0.50400001928E-02 0.  1.
    10030    2    1    2    0    0  0.00000000000E+00  0.00000000000E+00  0.37530881287E+03  0.13444018616E+04  0.12909530047E+04 0.  0.
        1    1    3    3  502    0  0.21941110591E+03 -0.58339024742E+03  0.36239451006E+03  0.72098210458E+03  0.50400001928E-02 0.  1.
       -1    1    3    3    0  502 -0.21941110591E+03  0.58339024742E+03  0.12914302809E+02  0.62341975701E+03  0.50400001928E-02 0. -1.
</event>
<event>
 5   0  0.4310889E-03  0.1300479E+04  0.7818609E-02  0.9029185E-01
       -2   -1    0    0    0  501  0.00000000000E+00  0.00000000000E+00  0.45818491975E+03  0.45818491975E+03  0.25500000920E-02 0. -1.
        2   -1    0    0  501    0  0.00000000000E+00  0.00000000000E+00 -0.92279678280E+03  0.92279678281E+03  0.25500000920E-02 0.  1.
    10030    2    1    2    0    0  0.00000000000E+00  0.00000000000E+00 -0.46461186306E+03  0.13809817026E+04  0.13004792499E+04 0.  0.
        4    1    3    3  502    0 -0.94716075844E+02 -0.39743419826E+03 -0.76946982075E+03  0.87121208377E+03  0.12699999809E+01 0.  1.
       -4    1    3    3    0  502  0.94716075844E+02  0.39743419826E+03  0.30485795770E+03  0.50976961879E+03  0.12699999809E+01 0. -1.
</event>
<event>
 5   0  0.2458456E-03  0.1295463E+04  0.7818609E-02  0.9033171E-01
        1   -1    0    0  501    0  0.00000000000E+00  0.00000000000E+00  0.88127289212E+03  0.88127289213E+03  0.50400001928E-02 0. -1.
       -1   -1    0    0    0  501  0.00000000000E+00  0.00000000000E+00 -0.47607990847E+03  0.47607990850E+03  0.50400001928E-02 0.  1.
    10030    2    1    2    0    0  0.00000000000E+00  0.00000000000E+00  0.40519298364E+03  0.13573528006E+04  0.12954633424E+04 0.  0.
        5    1    3    3  502    0 -0.93801624149E+02 -0.80099404009E+02 -0.46364242233E+03  0.47979271045E+03  0.46999998093E+01 0.  1.
       -5    1    3    3    0  502  0.93801624149E+02  0.80099404009E+02  0.86883540597E+03  0.87756009018E+03  0.46999998093E+01 0. -1.
</event>
<event>
 5   0  0.4306214E-03  0.1235937E+04  0.7818609E-02  0.9081970E-01
        2   -1    0    0  501    0  0.00000000000E+00  0.00000000000E+00  0.12027178793E+04  0.12027178793E+04  0.25500000920E-02 0. -1.
       -2   -1    0    0    0  501  0.00000000000E+00  0.00000000000E+00 -0.31751839834E+03  0.31751839835E+03  0.25500000920E-02 0.  1.
    10030    2    1    2    0    0  0.00000000000E+00  0.00000000000E+00  0.88519948097E+03  0.15202362777E+04  0.12359369801E+04 0.  0.
        3    1    3    3  502    0  0.29790657333E+03  0.42743787199E+03  0.85135687684E+03  0.99812824967E+03  0.10100000352E+00 0. -1.
       -3    1    3    3    0  502 -0.29790657333E+03 -0.42743787199E+03  0.33842604133E+02  0.52210802800E+03  0.10100000352E+00 0.  1.
</event>
<event>
 5   0  0.4306214E-03  0.1280723E+04  0.7818609E-02  0.9044993E-01
       -2   -1    0    0    0  501  0.00000000000E+00  0.00000000000E+00  0.58518677717E+03  0.58518677717E+03  0.25500000920E-02 0.  1.
        2   -1    0    0  501    0  0.00000000000E+00  0.00000000000E+00 -0.70073865288E+03  0.70073865289E+03  0.25500000920E-02 0. -1.
    10030    2    1    2    0    0  0.00000000000E+00  0.00000000000E+00 -0.11555187572E+03  0.12859254301E+04  0.12807232237E+04 0.  0.
        3    1    3    3  502    0 -0.27300281636E+03 -0.18528700964E+03  0.49327129693E+03  0.59344620334E+03  0.10100000352E+00 0.  1.
       -3    1    3    3    0  502  0.27300281636E+03  0.18528700964E+03 -0.60882317265E+03  0.69247922672E+03  0.10100000352E+00 0. -1.
</event>
<event>
 5   0  0.2370801E-03  0.1298076E+04  0.7818609E-02  0.9031093E-01
       -1   -1    0    0    0  501  0.00000000000E+00  0.00000000000E+00  0.85801192406E+03  0.85801192408E+03  0.50400001928E-02 0.  1.
        1   -1    0    0  501    0  0.00000000000E+00  0.00000000000E+00 -0.49096057016E+03  0.49096057018E+03  0.50400001928E-02 0. -1.
    10030    2    1    2    0    0  0.00000000000E+00  0.00000000000E+00  0.36705135391E+03  0.13489724943E+04  0.12980755347E+04 0.  0.
        3    1    3    3  502    0  0.14963705792E+03  0.59947942024E+03 -0.22969180488E+02  0.61829961818E+03  0.10100000352E+00 0. -1.
       -3    1    3    3    0  502 -0.14963705792E+03 -0.59947942024E+03  0.39002053439E+03  0.73067287608E+03  0.10100000352E+00 0.  1.
</event>
<event>
 5   0  0.4263540E-03  0.1298441E+04  0.7818609E-02  0.9030802E-01
        2   -1    0    0  501    0  0.00000000000E+00  0.00000000000E+00  0.59050290101E+03  0.59050290101E+03  0.25500000920E-02 0. -1.
       -2   -1    0    0    0  501  0.00000000000E+00  0.00000000000E+00 -0.71377673255E+03  0.71377673256E+03  0.25500000920E-02 0.  1.
    10030    2    1    2    0    0  0.00000000000E+00  0.00000000000E+00 -0.12327383155E+03  0.13042796336E+04  0.12984409594E+04 0.  0.
        2    1    3    3  502    0 -0.50332019600E+03 -0.34980458595E+03 -0.27659160862E+03  0.67245623354E+03  0.25500000920E-02 0.  1.
       -2    1    3    3    0  502  0.50332019600E+03  0.34980458595E+03  0.15331777708E+03  0.63182340003E+03  0.25500000920E-02 0. -1.
</event>
<event>
 5   0  0.4310889E-03  0.1295821E+04  0.7818609E-02  0.9032886E-01
       -2   -1    0    0    0  501  0.00000000000E+00  0.00000000000E+00  0.46463432445E+03  0.46463432446E+03  0.25500000920E-02 0. -1.
        2   -1    0    0  501    0  0.00000000000E+00  0.00000000000E+00 -0.90348047148E+03  0.90348047148E+03  0.25500000920E-02 0.  1.
    10030    2    1    2    0    0  0.00000000000E+00  0.00000000000E+00 -0.43884614703E+03  0.13681147959E+04  0.12958210348E+04 0.  0.
        4    1    3    3  502    0  0.49457454274E+03 -0.38578357879E+03 -0.48028731535E+02  0.62907974052E+03  0.12699999809E+01 0. -1.
       -4    1    3    3    0  502 -0.49457454274E+03  0.38578357879E+03 -0.39081741549E+03  0.73903505542E+03  0.12699999809E+01 0.  1.
</event>
<event>
 5   0  0.4310889E-03  0.1309429E+04  0.7818609E-02  0.9022121E-01
        2   -1    0    0  501    0  0.00000000000E+00  0.00000000000E+00  0.81653746874E+03  0.81653746874E+03  0.25500000920E-02 0.  1.
       -2   -1    0    0    0  501  0.00000000000E+00  0.00000000000E+00 -0.52496180148E+03  0.52496180149E+03  0.25500000920E-02 0. -1.
    10030    2    1    2    0    0  0.00000000000E+00  0.00000000000E+00  0.29157566725E+03  0.13414992702E+04  0.13094288535E+04 0.  0.
        4    1    3    3  502    0  0.24412876177E+03 -0.19397326685E+03 -0.44400717497E+03  0.54255733789E+03  0.12699999809E+01 0. -1.
       -4    1    3    3    0  502 -0.24412876177E+03  0.19397326685E+03  0.73558284222E+03  0.79894193234E+03  0.12699999809E+01 0.  1.
</event>
<event>
 5   0  0.2511542E-03  0.1322816E+04  0.7818609E-02  0.9011665E-01
       -1   -1    0    0    0  501  0.00000000000E+00  0.00000000000E+00  0.37484042831E+03  0.37484042834E+03  0.50400001928E-02 0. -1.
        1   -1    0    0  501    0  0.00000000000E+00  0.00000000000E+00 -0.11670586721E+04  0.11670586722E+04  0.50400001928E-02 0.  1.
    10030    2    1    2    0    0  0.00000000000E+00  0.00000000000E+00 -0.79221824384E+03  0.15418991005E+04  0.13228163479E+04 0.  0.
        4    1    3    3  502    0 -0.24388647393E+03 -0.98036433562E+02 -0.11035611551E+04  0.11344340397E+04  0.12699999809E+01 0.  1.
       -4    1    3    3    0  502  0.24388647393E+03  0.98036433562E+02  0.31134291127E+03  0.40746506080E+03  0.12699999809E+01 0. -1.
</event>
<event>
 5   0  0.2370801E-03  0.1312784E+04  0.7818609E-02  0.9019489E-01
       -1   -1    0    0    0  501  0.00000000000E+00  0.00000000000E+00  0.32037195654E+03  0.32037195658E+03  0.50400001928E-02 0.  1.
        1   -1    0    0  501    0  0.00000000000E+00  0.00000000000E+00 -0.13448439155E+04  0.13448439155E+04  0.50400001928E-02 0. -1.
    10030    2    1    2    0    0  0.00000000000E+00  0.00000000000E+00 -0.10244719590E+04  0.16652158721E+04  0.13127837240E+04 0.  0.
        3    1    3    3  502    0 -0.13656898912E+03  0.15502144164E+03  0.27805488233E+03  0.34640621234E+03  0.10100000352E+00 0.  1.
       -3    1    3    3    0  502  0.13656898912E+03 -0.15502144164E+03 -0.13025268413E+04  0.13188096598E+04  0.10100000352E+00 0. -1.
</event>
<event>
 5   0  0.2356769E-03  0.1277623E+04  0.7818609E-02  0.9047501E-01
        1   -1    0    0  501    0  0.00000000000E+00  0.00000000000E+00  0.71371829669E+03  0.71371829670E+03  0.50400001928E-02 0. -1.
       -1   -1    0    0    0  501  0.00000000000E+00  0.00000000000E+00 -0.57176672818E+03  0.57176672820E+03  0.50400001928E-02 0.  1.
    10030    2    1    2    0    0  0.00000000000E+00  0.00000000000E+00  0.14195156851E+03  0.12854850249E+04  0.12776233801E+04 0.  0.
        1    1    3    3  502    0 -0.51224719156E+03 -0.78097515806E+02 -0.30493253848E+03  0.60123228480E+03  0.50400001928E-02 0.  1.
       -1    1    3    3    0  502  0.51224719156E+03  0.78097515806E+02  0.44688410699E+03  0.68425274010E+03  0.50400001928E-02 0. -1.
</event>
<event>
 5   0  0.2462055E-03  0.1338017E+04  0.7818609E-02  0.8999949E-01
       -1   -1    0    0    0  501  0.00000000000E+00  0.00000000000E+00  0.33487619292E+03  0.33487619295E+03  0.50400001928E-02 0.  1.
        1   -1    0    0  501    0  0.00000000000E+00  0.00000000000E+00 -0.13365301804E+04  0.13365301804E+04  0.50400001928E-02 0. -1.
    10030    2    1    2    0    0  0.00000000000E+00  0.00000000000E+00 -0.10016539875E+04  0.16714063733E+04  0.13380166495E+04 0.  0.
        2    1    3    3  502    0  0.39948174161E+03  0.37530787576E+03 -0.21676593848E+02  0.54855404312E+03  0.25500000920E-02 0.  1.
       -2    1    3    3    0  502 -0.39948174161E+03 -0.37530787576E+03 -0.97997739361E+03  0.11228523302E+04  0.25500000920E-02 0. -1.
</event>
<event>
 5   0  0.2356769E-03  0.1260297E+04  0.7818609E-02  0.9061656E-01
       -1   -1    0    0    0  501  0.00000000000E+00  0.00000000000E+00  0.30016406320E+03  0.30016406325E+03  0.50400001928E-02 0. -1.
        1   -1    0    0  501    0  0.00000000000E+00  0.00000000000E+00 -0.13229007553E+04  0.13229007553E+04  0.50400001928E-02 0.  1.
    10030    2    1    2    0    0  0.00000000000E+00  0.00000000000E+00 -0.10227366921E+04  0.16230648186E+04  0.12602972125E+04 0.  0.
        1    1    3    3  502    0  0.27463405222E+03  0.13410039218E+03  0.19832597955E+03  0.36433497226E+03  0.50400001928E-02 0. -1.
       -1    1    3    3    0  502 -0.27463405222E+03 -0.13410039218E+03 -0.12210626717E+04  0.12587298463E+04  0.50400001928E-02 0.  1.
</event>
<event>
 5   0  0.4263540E-03  0.1305605E+04  0.7818609E-02  0.9025132E-01
       -2   -1    0    0    0  501  0.00000000000E+00  0.00000000000E+00  0.25537380626E+03  0.25537380628E+03  0.25500000920E-02 0.  1.
        2   -1    0    0  501    0  0.00000000000E+00  0.00000000000E+00 -0.16687349175E+04  0.16687349175E+04  0.25500000920E-02 0. -1.
    10030    2    1    2    0    0  0.00000000000E+00  0.00000000000E+00 -0.14133611112E+04  0.19241087237E+04  0.13056051280E+04 0.  0.
        2    1    3    3  502    0 -0.16261462611E+03  0.16347021194E+03 -0.16067241354E+04  0.16231846703E+04  0.25500000920E-02 0. -1.
       -2    1    3    3    0  502  0.16261462611E+03 -0.16347021194E+03  0.19336302415E+03  0.30092405343E+03  0.25500000920E-02 0.  1.
</event>
<event>
 5   0  0.2511542E-03  0.1309195E+04  0.7818609E-02  0.9022305E-01
       -1   -1    0    0    0  501  0.00000000000E+00  0.00000000000E+00  0.45752290812E+03  0.45752290815E+03  0.50400001928E-02 0.  1.
        1   -1    0    0  501    0  0.00000000000E+00  0.00000000000E+00 -0.93656093259E+03  0.93656093260E+03  0.50400001928E-02 0. -1.
    10030    2    1    2    0    0  0.00000000000E+00  0.00000000000E+00 -0.47903802447E+03  0.13940838408E+04  0.13091952972E+04 0.  0.
        4    1    3    3  502    0  0.52459132933E+03  0.37811508646E+03 -0.13129547221E+03  0.65985391970E+03  0.12699999809E+01 0.  1.
       -4    1    3    3    0  502 -0.52459132933E+03 -0.37811508646E+03 -0.34774255226E+03  0.73422992105E+03  0.12699999809E+01 0. -1.
</event>
<event>
 5   0  0.4263540E-03  0.1595012E+04  0.7818609E-02  0.8823618E-01
       -2   -1    0    0    0  501  0.00000000000E+00  0.00000000000E+00  0.82099895863E+03  0.82099895863E+03  0.25500000920E-02 0. -1.
        2   -1    0    0  501    0  0.00000000000E+00  0.00000000000E+00 -0.77468567998E+03  0.77468567998E+03  0.25500000920E-02 0.  1.
    10030    2    1    2    0    0  0.00000000000E+00  0.00000000000E+00  0.46313278649E+02  0.15956846386E+04  0.15950123969E+04 0.  0.
        2    1    3    3  502    0 -0.69473211912E+03  0.35237043589E+03  0.19410432890E+03  0.80280391873E+03  0.25500000920E-02 0.  1.
       -2    1    3    3    0  502  0.69473211912E+03 -0.35237043589E+03 -0.14779105025E+03  0.79288071989E+03  0.25500000920E-02 0. -1.
</event>
<event>
 5   0  0.2356769E-03  0.1304092E+04  0.7818609E-02  0.9026327E-01
       -1   -1    0    0    0  501  0.00000000000E+00  0.00000000000E+00  0.53925985472E+03  0.53925985475E+03  0.50400001928E-02 0. -1.
        1   -1    0    0  501    0  0.00000000000E+00  0.00000000000E+00 -0.78842105465E+03  0.78842105467E+03  0.50400001928E-02 0.  1.
    10030    2    1    2    0    0  0.00000000000E+00  0.00000000000E+00 -0.24916119993E+03  0.13276809094E+04  0.13040917505E+04 0.  0.
        1    1    3    3  502    0  0.20227438027E+03 -0.42405399959E+03  0.33573405433E+03  0.57745482485E+03  0.50400001928E-02 0. -1.
       -1    1    3    3    0  502 -0.20227438027E+03  0.42405399959E+03 -0.58489525426E+03  0.75022608456E+03  0.50400001928E-02 0.  1.
</event>
<event>
 5   0  0.2370801E-03  0.1301864E+04  0.7818609E-02  0.9028088E-01
       -1   -1    0    0    0  501  0.00000000000E+00  0.00000000000E+00  0.70060559723E+03  0.70060559725E+03  0.50400001928E-02 0. -1.
        1   -1    0    0  501    0  0.00000000000E+00  0.00000000000E+00 -0.60478036171E+03  0.60478036173E+03  0.50400001928E-02 0.  1.
    10030    2    1    2    0    0  0.00000000000E+00  0.00000000000E+00  0.95825235521E+02  0.13053859590E+04  0.13018640582E+04 0.  0.
        3    1    3    3  502    0  0.15368904345E+03 -0.29466889581E+03 -0.51330002545E+03  0.61149571263E+03  0.10100000352E+00 0.  1.
       -3    1    3    3    0  502 -0.15368904345E+03  0.29466889581E+03  0.60912526097E+03  0.69389024636E+03  0.10100000352E+00 0. -1.
</event>
<event>
 5   0  0.4263540E-03  0.1267568E+04  0.7818609E-02  0.9055687E-01
       -2   -1    0    0    0  501  0.00000000000E+00  0.00000000000E+00  0.37138956151E+03  0.37138956152E+03  0.25500000920E-02 0.  1.
        2   -1    0    0  501    0  0.00000000000E+00  0.00000000000E+00 -0.10815661883E+04  0.10815661883E+04  0.25500000920E-02 0. -1.
    10030    2    1    2    0    0  0.00000000000E+00  0.00000000000E+00 -0.71017662675E+03  0.14529557498E+04  0.12675683688E+04 0.  0.
        2    1    3    3  502    0 -0.22550929533E+03 -0.36188121712E+03 -0.89257030601E+03  0.98918866186E+03  0.25500000920E-02 0. -1.
       -2    1    3    3    0  502  0.22550929533E+03  0.36188121712E+03  0.18239367926E+03  0.46376708791E+03  0.25500000920E-02 0.  1.
</event>
<event>
 5   0  0.4453011E-03  0.1296086E+04  0.7818609E-02  0.9032675E-01
       -2   -1    0    0    0  501  0.00000000000E+00  0.00000000000E+00  0.40182568870E+03  0.40182568871E+03  0.25500000920E-02 0. -1.
        2   -1    0    0  501    0  0.00000000000E+00  0.00000000000E+00 -0.10451283664E+04  0.10451283664E+04  0.25500000920E-02 0.  1.
    10030    2    1    2    0    0  0.00000000000E+00  0.00000000000E+00 -0.64330267775E+03  0.14469540552E+04  0.12960855306E+04 0.  0.
        1    1    3    3  502    0  0.45763423188E+03 -0.45620479467E+03 -0.26687334823E+03  0.69912322869E+03  0.50400001928E-02 0.  1.
       -1    1    3    3    0  502 -0.45763423188E+03  0.45620479467E+03 -0.37642932952E+03  0.74783082647E+03  0.50400001928E-02 0. -1.
</event>
<event>
 5   0  0.4388937E-03  0.1410448E+04  0.7818609E-02  0.8946290E-01
       -2   -1    0    0    0  501  0.00000000000E+00  0.00000000000E+00  0.48134176486E+03  0.48134176487E+03  0.25500000920E-02 0.  1.
        2   -1    0    0  501    0  0.00000000000E+00  0.00000000000E+00 -0.10332382757E+04  0.10332382757E+04  0.25500000920E-02 0. -1.
    10030    2    1    2    0    0  0.00000000000E+00  0.00000000000E+00 -0.55189651082E+03  0.15145800406E+04  0.14104477802E+04 0.  0.
        5    1    3    3  502    0  0.57954008667E+03 -0.37247349851E+03 -0.11410460680E+03  0.69831595316E+03  0.46999998093E+01 0.  1.
       -5    1    3    3    0  502 -0.57954008667E+03  0.37247349851E+03 -0.43779190402E+03  0.81626408740E+03  0.46999998093E+01 0. -1.
</event>
<event>
 5   0  0.2511542E-03  0.1324402E+04  0.7818609E-02  0.9010435E-01
       -1   -1    0    0    0  501  0.00000000000E+00  0.00000000000E+00  0.17891634532E+03  0.17891634539E+03  0.50400001928E-02 0.  1.
        1   -1    0    0  501    0  0.00000000000E+00  0.00000000000E+00 -0.24509236837E+04  0.24509236837E+04  0.50400001928E-02 0. -1.
    10030    2    1    2    0    0  0.00000000000E+00  0.00000000000E+00 -0.22720073384E+04  0.26298400291E+04  0.13244022172E+04 0.  0.
        4    1    3    3  502    0  0.32442970781E+03 -0.52601394361E+03 -0.16082593077E+04  0.17229175598E+04  0.12699999809E+01 0. -1.
       -4    1    3    3    0  502 -0.32442970781E+03  0.52601394361E+03 -0.66374803070E+03  0.90692246931E+03  0.12699999809E+01 0.  1.
</event>
<event>
 5   0  0.2356769E-03  0.1309988E+04  0.7818609E-02  0.9021682E-01
       -1   -1    0    0    0  501  0.00000000000E+00  0.00000000000E+00  0.49042091425E+03  0.49042091428E+03  0.50400001928E-02 0.  1.
        1   -1    0    0  501    0  0.00000000000E+00  0.00000000000E+00 -0.87479372084E+03  0.87479372086E+03  0.50400001928E-02 0. -1.
    10030    2    1    2    0    0  0.00000000000E+00  0.00000000000E+00 -0.38437280659E+03  0.13652146351E+04  0.13099879944E+04 0.  0.
        1    1    3    3  502    0 -0.58773415711E+03 -0.23272568989E+03 -0.37095358687E+03  0.73293877630E+03  0.50400001928E-02 0. -1.
       -1    1    3    3    0  502  0.58773415711E+03  0.23272568989E+03 -0.13419219722E+02  0.63227585883E+03  0.50400001928E-02 0.  1.
</event>
<event>
 5   0  0.2370801E-03  0.9795995E+03  0.7818609E-02  0.9331207E-01
       -1   -1    0    0    0  501  0.00000000000E+00  0.00000000000E+00  0.23520687680E+03  0.23520687685E+03  0.50400001928E-02 0. -1.
        1   -1    0    0  501    0  0.00000000000E+00  0.00000000000E+00 -0.10199692295E+04  0.10199692295E+04  0.50400001928E-02 0.  1.
    10030    2    1    2    0    0  0.00000000000E+00  0.00000000000E+00 -0.78476235269E+03  0.12551761064E+04  0.97959946292E+03 0.  0.
        3    1    3    3  502    0 -0.10800207567E+02 -0.25648107497E+03  0.14210498527E+03  0.29341612659E+03  0.10100000352E+00 0. -1.
       -3    1    3    3    0  502  0.10800207567E+02  0.25648107497E+03 -0.92686733796E+03  0.96175997977E+03  0.10100000352E+00 0.  1.
</event>
<event>
 5   0  0.4306214E-03  0.1143308E+04  0.7818609E-02  0.9163980E-01
        2   -1    0    0  501    0  0.00000000000E+00  0.00000000000E+00  0.10156532552E+04  0.10156532552E+04  0.25500000920E-02 0.  1.
       -2   -1    0    0    0  501  0.00000000000E+00  0.00000000000E+00 -0.32175180902E+03  0.32175180903E+03  0.25500000920E-02 0. -1.
    10030    2    1    2    0    0  0.00000000000E+00  0.00000000000E+00  0.69390144618E+03  0.13374050642E+04  0.11433079589E+04 0.  0.
        3    1    3    3  502    0 -0.21426643821E+03  0.19168285370E+03 -0.23103286375E+03  0.36882057600E+03  0.10100000352E+00 0. -1.
       -3    1    3    3    0  502  0.21426643821E+03 -0.19168285370E+03  0.92493430993E+03  0.96858448823E+03  0.10100000352E+00 0.  1.
</event>
<event>
 5   0  0.4263540E-03  0.1284760E+04  0.7818609E-02  0.9041739E-01
        2   -1    0    0  501    0  0.00000000000E+00  0.00000000000E+00  0.18782166786E+04  0.18782166786E+04  0.25500000920E-02 0. -1.
       -2   -1    0    0    0  501  0.00000000000E+00  0.00000000000E+00 -0.21970415322E+03  0.21970415323E+03  0.25500000920E-02 0.  1.
    10030    2    1    2    0    0  0.00000000000E+00  0.00000000000E+00  0.16585125253E+04  0.20979208318E+04  0.12847599074E+04 0.  0.
        2    1    3    3  502    0  0.12284782085E+03 -0.57860451494E+03  0.42011978188E+03  0.72551733469E+03  0.25500000920E-02 0. -1.
       -2    1    3    3    0  502 -0.12284782085E+03  0.57860451494E+03  0.12383927435E+04  0.13724034971E+04  0.25500000920E-02 0.  1.
</event>
<event>
 5   0  0.1661750E-03  0.1298593E+04  0.7818609E-02  0.9030681E-01
       -4   -1    0    0    0  501  0.00000000000E+00  0.00000000000E+00  0.42108294541E+03  0.42108486058E+03  0.12699999809E+01 0.  1.
        4   -1    0    0  501    0  0.00000000000E+00  0.00000000000E+00 -0.10011903653E+04  0.10011911708E+04  0.12699999809E+01 0. -1.
    10030    2    1    2    0    0  0.00000000000E+00  0.00000000000E+00 -0.58010741992E+03  0.14222760314E+04  0.12985932738E+04 0.  0.
        3    1    3    3  502    0  0.26826309772E+03  0.24314866485E+03  0.30026102441E+03  0.47036481139E+03  0.10100000352E+00 0.  1.
       -3    1    3    3    0  502 -0.26826309772E+03 -0.24314866485E+03 -0.88036844433E+03  0.95191122001E+03  0.10100000352E+00 0. -1.
</event>
<event>
 5   0  0.2462055E-03  0.1328924E+04  0.7818609E-02  0.9006937E-01
       -1   -1    0    0    0  501  0.00000000000E+00  0.00000000000E+00  0.65270685663E+03  0.65270685664E+03  0.50400001928E-02 0.  1.
        1   -1    0    0  501    0  0.00000000000E+00  0.00000000000E+00 -0.67642897546E+03  0.67642897548E+03  0.50400001928E-02 0. -1.
    10030    2    1    2    0    0  0.00000000000E+00  0.00000000000E+00 -0.23722118838E+02  0.13291358321E+04  0.13289241217E+04 0.  0.
        2    1    3    3  502    0 -0.35170396345E+03 -0.72983175655E+02  0.54723390656E+03  0.65458931425E+03  0.25500000920E-02 0.  1.
       -2    1    3    3    0  502  0.35170396345E+03  0.72983175655E+02 -0.57095602540E+03  0.67454651788E+03  0.25500000920E-02 0. -1.
</event>
<event>
 5   0  0.4310889E-03  0.1123832E+04  0.7818609E-02  0.9182270E-01
       -2   -1    0    0    0  501  0.00000000000E+00  0.00000000000E+00  0.19414215159E+03  0.19414215160E+03  0.25500000920E-02 0.  1.
        2   -1    0    0  501    0  0.00000000000E+00  0.00000000000E+00 -0.16263838040E+04  0.16263838040E+04  0.25500000920E-02 0. -1.
    10030    2    1    2    0    0  0.00000000000E+00  0.00000000000E+00 -0.14322416524E+04  0.18205259556E+04  0.11238321067E+04 0.  0.
        4    1    3    3  502    0 -0.46829995670E+03  0.28465541135E+03 -0.91724300092E+03  0.10684895359E+04  0.12699999809E+01 0. -1.
       -4    1    3    3    0  502  0.46829995670E+03 -0.28465541135E+03 -0.51499865151E+03  0.75203641974E+03  0.12699999809E+01 0.  1.
</event>
<event>
 5   0  0.2370801E-03  0.1243534E+04  0.7818609E-02  0.9075582E-01
       -1   -1    0    0    0  501  0.00000000000E+00  0.00000000000E+00  0.40441956912E+03  0.40441956915E+03  0.50400001928E-02 0. -1.
        1   -1    0    0  501    0  0.00000000000E+00  0.00000000000E+00 -0.95592386984E+03  0.95592386985E+03  0.50400001928E-02 0.  1.
    10030    2    1    2    0    0  0.00000000000E+00  0.00000000000E+00 -0.55150430072E+03  0.13603434390E+04  0.12435341886E+04 0.  0.
        3    1    3    3  502    0 -0.87830672216E+02 -0.62891089121E+02  0.39407526193E+03  0.40861331151E+03  0.10100000352E+00 0. -1.
       -3    1    3    3    0  502  0.87830672216E+02  0.62891089121E+02 -0.94557956265E+03  0.95173012749E+03  0.10100000352E+00 0.  1.
</event>
<event>
 5   0  0.4453011E-03  0.1293996E+04  0.7818609E-02  0.9034340E-01
       -2   -1    0    0    0  501  0.00000000000E+00  0.00000000000E+00  0.60507187224E+03  0.60507187224E+03  0.25500000920E-02 0.  1.
        2   -1    0    0  501    0  0.00000000000E+00  0.00000000000E+00 -0.69182876483E+03  0.69182876484E+03  0.25500000920E-02 0. -1.
    10030    2    1    2    0    0  0.00000000000E+00  0.00000000000E+00 -0.86756892597E+02  0.12969006371E+04  0.12939955580E+04 0.  0.
        1    1    3    3  502    0  0.10062635226E+03 -0.60352673347E+03  0.16741716941E+03  0.63434902807E+03  0.50400001928E-02 0.  1.
       -1    1    3    3    0  502 -0.10062635226E+03  0.60352673347E+03 -0.25417406200E+03  0.66255160901E+03  0.50400001928E-02 0. -1.
</event>
<event>
 5   0  0.1661750E-03  0.1197676E+04  0.7818609E-02  0.9114894E-01
       -4   -1    0    0    0  501  0.00000000000E+00  0.00000000000E+00  0.29472794148E+03  0.29473067772E+03  0.12699999809E+01 0.  1.
        4   -1    0    0  501    0  0.00000000000E+00  0.00000000000E+00 -0.12167292372E+04  0.12167299000E+04  0.12699999809E+01 0. -1.
    10030    2    1    2    0    0  0.00000000000E+00  0.00000000000E+00 -0.92200129574E+03  0.15114605777E+04  0.11976755357E+04 0.  0.
        5    1    3    3  502    0 -0.36327989683E+03 -0.13703021888E+03  0.11432933472E+03  0.40477506236E+03  0.46999998093E+01 0.  1.
       -5    1    3    3    0  502  0.36327989683E+03  0.13703021888E+03 -0.10363306305E+04  0.11066855154E+04  0.46999998093E+01 0. -1.
</event>
<event>
 5   0  0.2511542E-03  0.1315232E+04  0.7818609E-02  0.9017573E-01
       -1   -1    0    0    0  501  0.00000000000E+00  0.00000000000E+00  0.41113633358E+03  0.41113633361E+03  0.50400001928E-02 0. -1.
        1   -1    0    0  501    0  0.00000000000E+00  0.00000000000E+00 -0.10518620384E+04  0.10518620384E+04  0.50400001928E-02 0.  1.
    10030    2    1    2    0    0  0.00000000000E+00  0.00000000000E+00 -0.64072570485E+03  0.14629983721E+04  0.13152318456E+04 0.  0.
        4    1    3    3  502    0 -0.13005839829E+03 -0.16912816240E+03 -0.10122925568E+04  0.10345324334E+04  0.12699999809E+01 0.  1.
       -4    1    3    3    0  502  0.13005839829E+03  0.16912816240E+03  0.37156685192E+03  0.42846593870E+03  0.12699999809E+01 0. -1.
</event>
<event>
 5   0  0.4310889E-03  0.1321659E+04  0.7818609E-02  0.9012563E-01
        2   -1    0    0  501    0  0.00000000000E+00  0.00000000000E+00  0.18060570999E+04  0.18060570999E+04  0.25500000920E-02 0. -1.
       -2   -1    0    0    0  501  0.00000000000E+00  0.00000000000E+00 -0.24179507933E+03  0.24179507934E+03  0.25500000920E-02 0.  1.
    10030    2    1    2    0    0  0.00000000000E+00  0.00000000000E+00  0.15642620206E+04  0.20478521793E+04  0.13216591388E+04 0.  0.
        4    1    3    3  502    0  0.15607505189E+03  0.23286063080E+03  0.17093615697E+04  0.17321957407E+04  0.12699999809E+01 0. -1.
       -4    1    3    3    0  502 -0.15607505189E+03 -0.23286063080E+03 -0.14509954906E+03  0.31565643862E+03  0.12699999809E+01 0.  1.
</event>
<event>
 5   0  0.4263540E-03  0.1158016E+04  0.7818609E-02  0.9150420E-01
       -2   -1    0    0    0  501  0.00000000000E+00  0.00000000000E+00  0.22560990908E+03  0.22560990910E+03  0.25500000920E-02 0.  1.
        2   -1    0    0  501    0  0.00000000000E+00  0.00000000000E+00 -0.14859730091E+04  0.14859730091E+04  0.25500000920E-02 0. -1.
    10030    2    1    2    0    0  0.00000000000E+00  0.00000000000E+00 -0.12603631000E+04  0.17115829182E+04  0.11580159507E+04 0.  0.
        2    1    3    3  502    0 -0.50392052972E+03  0.11293205061E+03 -0.24317262295E+03  0.57080861319E+03  0.25500000920E-02 0.  1.
       -2    1    3    3    0  502  0.50392052972E+03 -0.11293205061E+03 -0.10171904771E+04  0.11407743050E+04  0.25500000920E-02 0. -1.
</event>
<event>
 5   0  0.2458456E-03  0.1310833E+04  0.7818609E-02  0.9021018E-01
        1   -1    0    0  501    0  0.00000000000E+00  0.00000000000E+00  0.17095123309E+04  0.17095123309E+04  0.50400001928E-02 0. -1.
       -1   -1    0    0    0  501  0.00000000000E+00  0.00000000000E+00 -0.25128265224E+03  0.25128265229E+03  0.50400001928E-02 0.  1.
    10030    2    1    2    0    0  0.00000000000E+00  0.00000000000E+00  0.14582296786E+04  0.19607949832E+04  0.13108330063E+04 0.  0.
        5    1    3    3  502    0  0.17689874102E+03 -0.49336865116E+03  0.14050097949E+03  0.54264943173E+03  0.46999998093E+01 0.  1.
       -5    1    3    3    0  502 -0.17689874102E+03  0.49336865116E+03  0.13177286992E+04  0.14181455515E+04  0.46999998093E+01 0. -1.
</event>
<event>
 5   0  0.4388937E-03  0.1309367E+04  0.7818609E-02  0.9022170E-01
       -2   -1    0    0    0  501  0.00000000000E+00  0.00000000000E+00  0.36102982468E+03  0.36102982468E+03  0.25500000920E-02 0. -1.
        2   -1    0    0  501    0  0.00000000000E+00  0.00000000000E+00 -0.11871877785E+04  0.11871877785E+04  0.25500000920E-02 0.  1.
    10030    2    1    2    0    0  0.00000000000E+00  0.00000000000E+00 -0.82615795378E+03  0.15482176031E+04  0.13093665576E+04 0.  0.
        5    1    3    3  502    0 -0.42923292145E+03  0.34332718343E+03 -0.83358360731E+03  0.99849796000E+03  0.46999998093E+01 0.  1.
       -5    1    3    3    0  502  0.42923292145E+03 -0.34332718343E+03  0.74256535310E+01  0.54971964315E+03  0.46999998093E+01 0. -1.
</event>
<event>
 5   0  0.4263540E-03  0.1302928E+04  0.7818609E-02  0.9027247E-01
        2   -1    0    0  501    0  0.00000000000E+00  0.00000000000E+00  0.11186769570E+04  0.11186769570E+04  0.25500000920E-02 0.  1.
       -2   -1    0    0    0  501  0.00000000000E+00  0.00000000000E+00 -0.37938145523E+03  0.37938145524E+03  0.25500000920E-02 0. -1.
    10030    2    1    2    0    0  0.00000000000E+00  0.00000000000E+00  0.73929550178E+03  0.14980584123E+04  0.13029279211E+04 0.  0.
        2    1    3    3  502    0  0.29595055224E+02 -0.59499547988E+03  0.66516028450E+02  0.59943295740E+03  0.25500000920E-02 0. -1.
       -2    1    3    3    0  502 -0.29595055224E+02  0.59499547988E+03  0.67277947333E+03  0.89862545486E+03  0.25500000920E-02 0.  1.
</event>
<event>
 5   0  0.4388937E-03  0.1276680E+04  0.7818609E-02  0.9048265E-01
       -2   -1    0    0    0  501  0.00000000000E+00  0.00000000000E+00  0.52309188413E+03  0.52309188414E+03  0.25500000920E-02 0.  1.
        2   -1    0    0  501    0  0.00000000000E+00  0.00000000000E+00 -0.77897944649E+03  0.77897944649E+03  0.25500000920E-02 0. -1.
    10030    2    1    2    0    0  0.00000000000E+00  0.00000000000E+00 -0.25588756235E+03  0.13020713306E+04  0.12766797976E+04 0.  0.
        5    1    3    3  502    0 -0.14478167643E+03  0.52323515207E+03 -0.47035762277E+03  0.71832801803E+03  0.46999998093E+01 0. -1.
       -5    1    3    3    0  502  0.14478167643E+03 -0.52323515207E+03  0.21447006041E+03  0.58374331260E+03  0.46999998093E+01 0.  1.
</event>
<event>
 5   0  0.2370801E-03  0.1342775E+04  0.7818609E-02  0.8996316E-01
       -1   -1    0    0    0  501  0.00000000000E+00  0.00000000000E+00  0.52400905246E+03  0.52400905248E+03  0.50400001928E-02 0.  1.
        1   -1    0    0  501    0  0.00000000000E+00  0.00000000000E+00 -0.86021604616E+03  0.86021604617E+03  0.50400001928E-02 0. -1.
    10030    2    1    2    0    0  0.00000000000E+00  0.00000000000E+00 -0.33620699370E+03  0.13842250987E+04  0.13427747321E+04 0.  0.
        3    1    3    3  502    0  0.32734654933E+03  0.94709328360E+02 -0.76443736777E+03  0.83695287781E+03  0.10100000352E+00 0. -1.
       -3    1    3    3    0  502 -0.32734654933E+03 -0.94709328360E+02  0.42823037407E+03  0.54727222085E+03  0.10100000352E+00 0.  1.
</event>
<event>
 5   0  0.4453011E-03  0.1315510E+04  0.7818609E-02  0.9017355E-01
        2   -1    0    0  501    0  0.00000000000E+00  0.00000000000E+00  0.11631924354E+04  0.11631924354E+04  0.25500000920E-02 0.  1.
       -2   -1    0    0    0  501  0.00000000000E+00  0.00000000000E+00 -0.37194350184E+03  0.37194350185E+03  0.25500000920E-02 0. -1.
    10030    2    1    2    0    0  0.00000000000E+00  0.00000000000E+00  0.79124893360E+03  0.15351359373E+04  0.13155103462E+04 0.  0.
        1    1    3    3  502    0  0.15682833230E+03  0.50934591164E+03  0.84548892064E+03  0.99943979232E+03  0.50400001928E-02 0.  1.
       -1    1    3    3    0  502 -0.15682833230E+03 -0.50934591164E+03 -0.54239987043E+02  0.53569614497E+03  0.50400001928E-02 0. -1.
</event>
<event>
 5   0  0.2370801E-03  0.1298161E+04  0.7818609E-02  0.9031025E-01
       -1   -1    0    0    0  501  0.00000000000E+00  0.00000000000E+00  0.87722672502E+03  0.87722672504E+03  0.50400001928E-02 0.  1.
        1   -1    0    0  501    0  0.00000000000E+00  0.00000000000E+00 -0.48026980369E+03  0.48026980371E+03  0.50400001928E-02 0. -1.
    10030    2    1    2    0    0  0.00000000000E+00  0.00000000000E+00  0.39695692134E+03  0.13574965288E+04  0.12981610178E+04 0.  0.
        3    1    3    3  502    0  0.42935421891E+03  0.42547659574E+03  0.44578353753E+03  0.75106481168E+03  0.10100000352E+00 0.  1.
       -3    1    3    3    0  502 -0.42935421891E+03 -0.42547659574E+03 -0.48826616189E+02  0.60643171707E+03  0.10100000352E+00 0. -1.
</event>
<event>
 5   0  0.4263540E-03  0.1418487E+04  0.7818609E-02  0.8940544E-01
        2   -1    0    0  501    0  0.00000000000E+00  0.00000000000E+00  0.12768846955E+04  0.12768846955E+04  0.25500000920E-02 0. -1.
       -2   -1    0    0    0  501  0.00000000000E+00  0.00000000000E+00 -0.39394813827E+03  0.39394813828E+03  0.25500000920E-02 0.  1.
    10030    2    1    2    0    0  0.00000000000E+00  0.00000000000E+00  0.88293655721E+03  0.16708328338E+04  0.14184870089E+04 0.  0.
        2    1    3    3  502    0  0.33451687122E+03  0.16886621046E+03  0.11507633409E+04  0.12102370020E+04  0.25500000920E-02 0. -1.
       -2    1    3    3    0  502 -0.33451687122E+03 -0.16886621046E+03 -0.26782678371E+03  0.46059583177E+03  0.25500000920E-02 0.  1.
</event>
<event>
 5   0  0.4306214E-03  0.1314450E+04  0.7818609E-02  0.9018184E-01
        2   -1    0    0  501    0  0.00000000000E+00  0.00000000000E+00  0.75638617795E+03  0.75638617796E+03  0.25500000920E-02 0. -1.
       -2   -1    0    0    0  501  0.00000000000E+00  0.00000000000E+00 -0.57106370051E+03  0.57106370052E+03  0.25500000920E-02 0.  1.
    10030    2    1    2    0    0  0.00000000000E+00  0.00000000000E+00  0.18532247744E+03  0.13274498785E+04  0.13144499835E+04 0.  0.
        3    1    3    3  502    0 -0.31087109677E+03 -0.55480883914E+03  0.26010511870E+03  0.68710142612E+03  0.10100000352E+00 0. -1.
       -3    1    3    3    0  502  0.31087109677E+03  0.55480883914E+03 -0.74782641262E+02  0.64034845236E+03  0.10100000352E+00 0.  1.
</event>
<event>
 5   0  0.4453011E-03  0.1283018E+04  0.7818609E-02  0.9043142E-01
       -2   -1    0    0    0  501  0.00000000000E+00  0.00000000000E+00  0.12994147721E+04  0.12994147721E+04  0.25500000920E-02 0.  1.
        2   -1    0    0  501    0  0.00000000000E+00  0.00000000000E+00 -0.31670702478E+03  0.31670702479E+03  0.25500000920E-02 0. -1.
    10030    2    1    2    0    0  0.00000000000E+00  0.00000000000E+00  0.98270774732E+03  0.16161217969E+04  0.12830179834E+04 0.  0.
        1    1    3    3  502    0  0.18898243362E+03  0.34011953853E+02 -0.27965881074E+03  0.33923476188E+03  0.50400001928E-02 0. -1.
       -1    1    3    3    0  502 -0.18898243362E+03 -0.34011953853E+02  0.12623665581E+04  0.12768870350E+04  0.50400001928E-02 0.  1.
</event>
<event>
 5   0  0.4388937E-03  0.1351523E+04  0.7818609E-02  0.8989676E-01
       -2   -1    0    0    0  501  0.00000000000E+00  0.00000000000E+00  0.86418633171E+03  0.86418633171E+03  0.25500000920E-02 0. -1.
        2   -1    0    0  501    0  0.00000000000E+00  0.00000000000E+00 -0.52842065274E+03  0.52842065274E+03  0.25500000920E-02 0.  1.
    10030    2    1    2    0    0  0.00000000000E+00  0.00000000000E+00  0.33576567897E+03  0.13926069845E+04  0.13515234449E+04 0.  0.
        5    1    3    3  502    0 -0.63872119990E+03  0.88448750187E+02 -0.40359191124E+02  0.64609512219E+03  0.46999998093E+01 0.  1.
       -5    1    3    3    0  502  0.63872119990E+03 -0.88448750187E+02  0.37612487010E+03  0.74651186227E+03  0.46999998093E+01 0. -1.
</event>
<event>
 5   0  0.2511542E-03  0.1221564E+04  0.7818609E-02  0.9094188E-01
        1   -1    0    0  501    0  0.00000000000E+00  0.00000000000E+00  0.47221639598E+03  0.47221639601E+03  0.50400001928E-02 0.  1.
       -1   -1    0    0    0  501  0.00000000000E+00  0.00000000000E+00 -0.79000765093E+03  0.79000765094E+03  0.50400001928E-02 0. -1.
    10030    2    1    2    0    0  0.00000000000E+00  0.00000000000E+00 -0.31779125494E+03  0.12622240470E+04  0.12215638596E+04 0.  0.
        4    1    3    3  502    0  0.12580197154E+03  0.18478263461E+03  0.42842707239E+03  0.48324127240E+03  0.12699999809E+01 0.  1.
       -4    1    3    3    0  502 -0.12580197154E+03 -0.18478263461E+03 -0.74621832733E+03  0.77898277455E+03  0.12699999809E+01 0. -1.
</event>
<event>
 5   0  0.2458456E-03  0.1325486E+04  0.7818609E-02  0.9009595E-01
       -1   -1    0    0    0  501  0.00000000000E+00  0.00000000000E+00  0.40796979801E+03  0.40796979804E+03  0.50400001928E-02 0.  1.
        1   -1    0    0  501    0  0.00000000000E+00  0.00000000000E+00 -0.10766201159E+04  0.10766201159E+04  0.50400001928E-02 0. -1.
    10030    2    1    2    0    0  0.00000000000E+00  0.00000000000E+00 -0.66865031784E+03  0.14845899139E+04  0.13254863126E+04 0.  0.
        5    1    3    3  502    0  0.27974725762E+02  0.24301847629E+03  0.35553389294E+03  0.43158661254E+03  0.46999998093E+01 0.  1.
       -5    1    3    3    0  502 -0.27974725762E+02 -0.24301847629E+03 -0.10241842108E+04  0.10530033014E+04  0.46999998093E+01 0. -1.
</event>
<event>
 5   0  0.1661750E-03  0.1206558E+04  0.7818609E-02  0.9107135E-01
        3   -1    0    0  501    0  0.00000000000E+00  0.00000000000E+00  0.15284128604E+04  0.15284128637E+04  0.10100000352E+00 0.  1.
       -3   -1    0    0    0  501  0.00000000000E+00  0.00000000000E+00 -0.23812005236E+03  0.23812007378E+03  0.10100000352E+00 0. -1.
    10030    2    1    2    0    0  0.00000000000E+00  0.00000000000E+00  0.12902928080E+04  0.17665329375E+04  0.12065583653E+04 0.  0.
        3    1    3    3  502    0 -0.26653790136E+03 -0.18265199391E+03  0.13910399653E+04  0.14280743674E+04  0.10100000352E+00 0.  1.
       -3    1    3    3    0  502  0.26653790136E+03  0.18265199391E+03 -0.10074715727E+03  0.33845857005E+03  0.10100000352E+00 0. -1.
</event>
<event>
 5   0  0.4310889E-03  0.1230572E+04  0.7818609E-02  0.9086510E-01
       -2   -1    0    0    0  501  0.00000000000E+00  0.00000000000E+00  0.77156396873E+03  0.77156396873E+03  0.25500000920E-02 0. -1.
        2   -1    0    0  501    0  0.00000000000E+00  0.00000000000E+00 -0.49066170225E+03  0.49066170226E+03  0.25500000920E-02 0.  1.
    10030    2    1    2    0    0  0.00000000000E+00  0.00000000000E+00  0.28090226648E+03  0.12622256710E+04  0.12305720463E+04 0.  0.
        4    1    3    3  502    0 -0.56384260489E+03  0.21619035648E+03  0.26146260852E+03  0.65804335866E+03  0.12699999809E+01 0. -1.
       -4    1    3    3    0  502  0.56384260489E+03 -0.21619035648E+03  0.19439657956E+02  0.60418231233E+03  0.12699999809E+01 0.  1.
</event>
<event>
 5   0  0.2511542E-03  0.7858926E+03  0.7818609E-02  0.9580664E-01
       -1   -1    0    0    0  501  0.00000000000E+00  0.00000000000E+00  0.84733536794E+02  0.84733536944E+02  0.50400001928E-02 0. -1.
        1   -1    0    0  501    0  0.00000000000E+00  0.00000000000E+00 -0.18222631093E+04  0.18222631093E+04  0.50400001928E-02 0.  1.
    10030    2    1    2    0    0  0.00000000000E+00  0.00000000000E+00 -0.17375295725E+04  0.19069966463E+04  0.78589260938E+03 0.  0.
        4    1    3    3  502    0 -0.66964578514E+02 -0.36844618796E+03 -0.11575973585E+04  0.12166635137E+04  0.12699999809E+01 0.  1.
       -4    1    3    3    0  502  0.66964578514E+02  0.36844618796E+03 -0.57993221403E+03  0.69033313260E+03  0.12699999809E+01 0. -1.
</event>
<event>
 5   0  0.1661750E-03  0.1309500E+04  0.7818609E-02  0.9022065E-01
        3   -1    0    0  501    0  0.00000000000E+00  0.00000000000E+00  0.22272926475E+04  0.22272926497E+04  0.10100000352E+00 0.  1.
       -3   -1    0    0    0  501  0.00000000000E+00  0.00000000000E+00 -0.19247483182E+03  0.19247485832E+03  0.10100000352E+00 0. -1.
    10030    2    1    2    0    0  0.00000000000E+00  0.00000000000E+00  0.20348178156E+04  0.24197675081E+04  0.13095003819E+04 0.  0.
        5    1    3    3  502    0  0.48371813946E+03 -0.70590556483E+02  0.21256344075E+03  0.53307745352E+03  0.46999998093E+01 0. -1.
       -5    1    3    3    0  502 -0.48371813946E+03  0.70590556483E+02  0.18222543749E+04  0.18866900545E+04  0.46999998093E+01 0.  1.
</event>
<event>
 5   0  0.2356769E-03  0.1303514E+04  0.7818609E-02  0.9026783E-01
       -1   -1    0    0    0  501  0.00000000000E+00  0.00000000000E+00  0.61786126790E+03  0.61786126792E+03  0.50400001928E-02 0. -1.
        1   -1    0    0  501    0  0.00000000000E+00  0.00000000000E+00 -0.68751222914E+03  0.68751222916E+03  0.50400001928E-02 0.  1.
    10030    2    1    2    0    0  0.00000000000E+00  0.00000000000E+00 -0.69650961238E+02  0.13053734971E+04  0.13035139855E+04 0.  0.
        1    1    3    3  502    0  0.48634861154E+03 -0.10155776970E+03  0.38760351727E+03  0.63014715675E+03  0.50400001928E-02 0. -1.
       -1    1    3    3    0  502 -0.48634861154E+03  0.10155776970E+03 -0.45725447851E+03  0.67522634033E+03  0.50400001928E-02 0.  1.
</event>
<event>
 5   0  0.4453011E-03  0.1282592E+04  0.7818609E-02  0.9043485E-01
        2   -1    0    0  501    0  0.00000000000E+00  0.00000000000E+00  0.16005417111E+04  0.16005417111E+04  0.25500000920E-02 0. -1.
       -2   -1    0    0    0  501  0.00000000000E+00  0.00000000000E+00 -0.25695076163E+03  0.25695076165E+03  0.25500000920E-02 0.  1.
    10030    2    1    2    0    0  0.00000000000E+00  0.00000000000E+00  0.13435909494E+04  0.18574924727E+04  0.12825917693E+04 0.  0.
        1    1    3    3  502    0 -0.48528498530E+03  0.37432612400E+02  0.12765222142E+04  0.13661667837E+04  0.50400001928E-02 0. -1.
       -1    1    3    3    0  502  0.48528498530E+03 -0.37432612400E+02  0.67068735210E+02  0.49132568902E+03  0.50400001928E-02 0.  1.
</event>
<event>
 5   0  0.2458456E-03  0.1290148E+04  0.7818609E-02  0.9037414E-01
       -1   -1    0    0    0  501  0.00000000000E+00  0.00000000000E+00  0.50454419868E+03  0.50454419871E+03  0.50400001928E-02 0. -1.
        1   -1    0    0  501    0  0.00000000000E+00  0.00000000000E+00 -0.82474575328E+03  0.82474575330E+03  0.50400001928E-02 0.  1.
    10030    2    1    2    0    0  0.00000000000E+00  0.00000000000E+00 -0.32020155460E+03  0.13292899520E+04  0.12901483407E+04 0.  0.
        5    1    3    3  502    0 -0.31106048118E+03 -0.54776035112E+03 -0.16966833108E+02  0.63016663561E+03  0.46999998093E+01 0. -1.
       -5    1    3    3    0  502  0.31106048118E+03  0.54776035112E+03 -0.30323472149E+03  0.69912331640E+03  0.46999998093E+01 0.  1.
</event>
<event>
 5   0  0.4310889E-03  0.1299465E+04  0.7818609E-02  0.9029990E-01
        2   -1    0    0  501    0  0.00000000000E+00  0.00000000000E+00  0.36662130923E+03  0.36662130924E+03  0.25500000920E-02 0.  1.
       -2   -1    0    0    0  501  0.00000000000E+00  0.00000000000E+00 -0.11514661918E+04  0.11514661918E+04  0.25500000920E-02 0. -1.
    10030    2    1    2    0    0  0.00000000000E+00  0.00000000000E+00 -0.78484488260E+03  0.15180875011E+04  0.12994645710E+04 0.  0.
        4    1    3    3  502    0  0.15786931498E+03 -0.61932790547E+03 -0.25587985660E+03  0.68845180588E+03  0.12699999809E+01 0.  1.
       -4    1    3    3    0  502 -0.15786931498E+03  0.61932790547E+03 -0.52896502600E+03  0.82963569519E+03  0.12699999809E+01 0. -1.
</event>
<event>
 5   0  0.4453011E-03  0.1310493E+04  0.7818609E-02  0.9021285E-01
        2   -1    0    0  501    0  0.00000000000E+00  0.00000000000E+00  0.19558893272E+03  0.19558893273E+03  0.25500000920E-02 0.  1.
       -2   -1    0    0    0  501  0.00000000000E+00  0.00000000000E+00 -0.21951553625E+04  0.21951553625E+04  0.25500000920E-02 0. -1.
    10030    2    1    2    0    0  0.00000000000E+00  0.00000000000E+00 -0.19995664298E+04  0.23907442952E+04  0.13104931812E+04 0.  0.
        1    1    3    3  502    0  0.15775513213E+03  0.24644571724E+03 -0.20693416198E+04  0.20899274898E+04  0.50400001928E-02 0. -1.
       -1    1    3    3    0  502 -0.15775513213E+03 -0.24644571724E+03  0.69775190005E+02  0.30081680542E+03  0.50400001928E-02 0.  1.
</event>
<event>
 5   0  0.4306214E-03  0.1198957E+04  0.7818609E-02  0.9113770E-01
        2   -1    0    0  501    0  0.00000000000E+00  0.00000000000E+00  0.12409983851E+04  0.12409983851E+04  0.25500000920E-02 0.  1.
       -2   -1    0    0    0  501  0.00000000000E+00  0.00000000000E+00 -0.28958494321E+03  0.28958494322E+03  0.25500000920E-02 0. -1.
    10030    2    1    2    0    0  0.00000000000E+00  0.00000000000E+00  0.95141344187E+03  0.15305833283E+04  0.11989569582E+04 0.  0.
        3    1    3    3  502    0 -0.32591614251E+03 -0.30368247492E+03 -0.36413555816E+02  0.44695674821E+03  0.10100000352E+00 0. -1.
       -3    1    3    3    0  502  0.32591614251E+03  0.30368247492E+03  0.98782699769E+03  0.10836265801E+04  0.10100000352E+00 0.  1.
</event>
<event>
 5   0  0.4263540E-03  0.1279041E+04  0.7818609E-02  0.9046353E-01
        2   -1    0    0  501    0  0.00000000000E+00  0.00000000000E+00  0.69688586020E+03  0.69688586021E+03  0.25500000920E-02 0.  1.
       -2   -1    0    0    0  501  0.00000000000E+00  0.00000000000E+00 -0.58687770827E+03  0.58687770827E+03  0.25500000920E-02 0. -1.
    10030    2    1    2    0    0  0.00000000000E+00  0.00000000000E+00  0.11000815193E+03  0.12837635685E+04  0.12790414795E+04 0.  0.
        2    1    3    3  502    0 -0.50566429001E+03 -0.91139654212E+02  0.43717743138E+03  0.67463094895E+03  0.25500000920E-02 0.  1.
       -2    1    3    3    0  502  0.50566429001E+03  0.91139654212E+02 -0.32716927944E+03  0.60913261953E+03  0.25500000920E-02 0. -1.
</event>
<event>
 5   0  0.4453011E-03  0.8696463E+03  0.7818609E-02  0.9464341E-01
       -2   -1    0    0    0  501  0.00000000000E+00  0.00000000000E+00  0.10214378761E+03  0.10214378764E+03  0.25500000920E-02 0.  1.
        2   -1    0    0  501    0  0.00000000000E+00  0.00000000000E+00 -0.18510293937E+04  0.18510293937E+04  0.25500000920E-02 0. -1.
    10030    2    1    2    0    0  0.00000000000E+00  0.00000000000E+00 -0.17488856061E+04  0.19531731814E+04  0.86964625747E+03 0.  0.
        1    1    3    3  502    0 -0.21911640451E+02  0.27379838356E+03 -0.11737289790E+03  0.29870063946E+03  0.50400001928E-02 0. -1.
       -1    1    3    3    0  502  0.21911640451E+02 -0.27379838356E+03 -0.16315127082E+04  0.16544725419E+04  0.50400001928E-02 0.  1.
</event>
<event>
 5   0  0.4388937E-03  0.1279539E+04  0.7818609E-02  0.9045951E-01
       -2   -1    0    0    0  501  0.00000000000E+00  0.00000000000E+00  0.30167275911E+03  0.30167275912E+03  0.25500000920E-02 0. -1.
        2   -1    0    0  501    0  0.00000000000E+00  0.00000000000E+00 -0.13567838127E+04  0.13567838127E+04  0.25500000920E-02 0.  1.
    10030    2    1    2    0    0  0.00000000000E+00  0.00000000000E+00 -0.10551110536E+04  0.16584565718E+04  0.12795385360E+04 0.  0.
        5    1    3    3  502    0 -0.27060882504E+02 -0.93267511317E+02 -0.13471520391E+04  0.13506560727E+04  0.46999998093E+01 0.  1.
       -5    1    3    3    0  502  0.27060882504E+02  0.93267511317E+02  0.29204098557E+03  0.30780049916E+03  0.46999998093E+01 0. -1.
</event>
<event>
 5   0  0.4263540E-03  0.1287889E+04  0.7818609E-02  0.9039224E-01
       -2   -1    0    0    0  501  0.00000000000E+00  0.00000000000E+00  0.41423186237E+03  0.41423186238E+03  0.25500000920E-02 0. -1.
        2   -1    0    0  501    0  0.00000000000E+00  0.00000000000E+00 -0.10010451366E+04  0.10010451366E+04  0.25500000920E-02 0.  1.
    10030    2    1    2    0    0  0.00000000000E+00  0.00000000000E+00 -0.58681327426E+03  0.14152769990E+04  0.12878894227E+04 0.  0.
        2    1    3    3  502    0 -0.58490602055E+03 -0.22540956540E+03 -0.13137668598E+03  0.64045636751E+03  0.25500000920E-02 0. -1.
       -2    1    3    3    0  502  0.58490602055E+03  0.22540956540E+03 -0.45543658828E+03  0.77482063150E+03  0.25500000920E-02 0.  1.
</event>
<event>
 5   0  0.2370801E-03  0.1152757E+04  0.7818609E-02  0.9155244E-01
       -1   -1    0    0    0  501  0.00000000000E+00  0.00000000000E+00  0.49612826270E+03  0.49612826273E+03  0.50400001928E-02 0.  1.
        1   -1    0    0  501    0  0.00000000000E+00  0.00000000000E+00 -0.66960972721E+03  0.66960972723E+03  0.50400001928E-02 0. -1.
    10030    2    1    2    0    0  0.00000000000E+00  0.00000000000E+00 -0.17348146450E+03  0.11657379900E+04  0.11527572349E+04 0.  0.
        3    1    3    3  502    0  0.32472840480E+03  0.47564332596E+03 -0.10995990267E+03  0.58632439896E+03  0.10100000352E+00 0. -1.
       -3    1    3    3    0  502 -0.32472840480E+03 -0.47564332596E+03 -0.63521561837E+02  0.57941359100E+03  0.10100000352E+00 0.  1.
</event>
<event>
 5   0  0.2356769E-03  0.1305987E+04  0.7818609E-02  0.9024831E-01
       -1   -1    0    0    0  501  0.00000000000E+00  0.00000000000E+00  0.29621835147E+03  0.29621835151E+03  0.50400001928E-02 0. -1.
        1   -1    0    0  501    0  0.00000000000E+00  0.00000000000E+00 -0.14394802657E+04  0.14394802657E+04  0.50400001928E-02 0.  1.
    10030    2    1    2    0    0  0.00000000000E+00  0.00000000000E+00 -0.11432619142E+04  0.17356986172E+04  0.13059869392E+04 0.  0.
        1    1    3    3  502    0  0.64889437014E+03  0.73043235441E+02 -0.57311890078E+03  0.86882938043E+03  0.50400001928E-02 0. -1.
       -1    1    3    3    0  502 -0.64889437014E+03 -0.73043235441E+02 -0.57014301343E+03  0.86686923676E+03  0.50400001928E-02 0.  1.
</event>
<event>
 5   0  0.4263540E-03  0.1197559E+04  0.7818609E-02  0.9114996E-01
        2   -1    0    0  501    0  0.00000000000E+00  0.00000000000E+00  0.16492531813E+04  0.16492531813E+04  0.25500000920E-02 0. -1.
       -2   -1    0    0    0  501  0.00000000000E+00  0.00000000000E+00 -0.21739338244E+03  0.21739338246E+03  0.25500000920E-02 0.  1.
    10030    2    1    2    0    0  0.00000000000E+00  0.00000000000E+00  0.14318597988E+04  0.18666465637E+04  0.11975587294E+04 0.  0.
        2    1    3    3  502    0  0.20872952603E+02  0.35019915664E+03  0.14722842651E+04  0.15135045711E+04  0.25500000920E-02 0. -1.
       -2    1    3    3    0  502 -0.20872952603E+02 -0.35019915664E+03 -0.40424466294E+02  0.35314199261E+03  0.25500000920E-02 0.  1.
</event>
<event>
 5   0  0.4388937E-03  0.1334268E+04  0.7818609E-02  0.9002823E-01
        2   -1    0    0  501    0  0.00000000000E+00  0.00000000000E+00  0.61496982134E+03  0.61496982135E+03  0.25500000920E-02 0.  1.
       -2   -1    0    0    0  501  0.00000000000E+00  0.00000000000E+00 -0.72372279827E+03  0.72372279827E+03  0.25500000920E-02 0. -1.
    10030    2    1    2    0    0  0.00000000000E+00  0.00000000000E+00 -0.10875297693E+03  0.13386926196E+04  0.13342678591E+04 0.  0.
        5    1    3    3  502    0 -0.54797941863E+03 -0.60137184317E+02  0.32256565409E+03  0.63872420916E+03  0.46999998093E+01 0.  1.
       -5    1    3    3    0  502  0.54797941863E+03  0.60137184317E+02 -0.43131863101E+03  0.69996841045E+03  0.46999998093E+01 0. -1.
</event>
<event>
 5   0  0.4388937E-03  0.1324843E+04  0.7818609E-02  0.9010093E-01
        2   -1    0    0  501    0  0.00000000000E+00  0.00000000000E+00  0.74597343873E+03  0.74597343874E+03  0.25500000920E-02 0. -1.
       -2   -1    0    0    0  501  0.00000000000E+00  0.00000000000E+00 -0.58822746644E+03  0.58822746644E+03  0.25500000920E-02 0.  1.
    10030    2    1    2    0    0  0.00000000000E+00  0.00000000000E+00  0.15774597230E+03  0.13342009052E+04  0.13248427316E+04 0.  0.
        5    1    3    3  502    0  0.40872081688E+02  0.83258375471E+02 -0.58163906379E+03  0.58900643007E+03  0.46999998093E+01 0.  1.
       -5    1    3    3    0  502 -0.40872081688E+02 -0.83258375471E+02  0.73938503608E+03  0.74519447510E+03  0.46999998093E+01 0. -1.
</event>
<event>
 5   0  0.2511542E-03  0.1366815E+04  0.7818609E-02  0.8978196E-01
        1   -1    0    0  501    0  0.00000000000E+00  0.00000000000E+00  0.42524141142E+03  0.42524141145E+03  0.50400001928E-02 0.  1.
       -1   -1    0    0    0  501  0.00000000000E+00  0.00000000000E+00 -0.10983075228E+04  0.10983075228E+04  0.50400001928E-02 0. -1.
    10030    2    1    2    0    0  0.00000000000E+00  0.00000000000E+00 -0.67306611138E+03  0.15235489343E+04  0.13668150441E+04 0.  0.
        4    1    3    3  502    0 -0.65438511458E+03 -0.39910634699E+02 -0.12145214149E+03  0.66675705660E+03  0.12699999809E+01 0.  1.
       -4    1    3    3    0  502  0.65438511458E+03  0.39910634699E+02 -0.55161396988E+03  0.85679187766E+03  0.12699999809E+01 0. -1.
</event>
<event>
 5   0  0.2458456E-03  0.1304579E+04  0.7818609E-02  0.9025942E-01
        1   -1    0    0  501    0  0.00000000000E+00  0.00000000000E+00  0.16049576799E+04  0.16049576799E+04  0.50400001928E-02 0. -1.
       -1   -1    0    0    0  501  0.00000000000E+00  0.00000000000E+00 -0.26510454885E+03  0.26510454890E+03  0.50400001928E-02 0.  1.
    10030    2    1    2    0    0  0.00000000000E+00  0.00000000000E+00  0.13398531310E+04  0.18700622288E+04  0.13045789845E+04 0.  0.
        5    1    3    3  502    0  0.48262386682E+03 -0.42514549464E+03  0.51431189625E+03  0.82353706963E+03  0.46999998093E+01 0. -1.
       -5    1    3    3    0  502 -0.48262386682E+03  0.42514549464E+03  0.82554123478E+03  0.10465251592E+04  0.46999998093E+01 0.  1.
</event>
<event>
 5   0  0.4453011E-03  0.1300799E+04  0.7818609E-02  0.9028932E-01
       -2   -1    0    0    0  501  0.00000000000E+00  0.00000000000E+00  0.25504573306E+03  0.25504573308E+03  0.25500000920E-02 0.  1.
        2   -1    0    0  501    0  0.00000000000E+00  0.00000000000E+00 -0.16586013097E+04  0.16586013097E+04  0.25500000920E-02 0. -1.
    10030    2    1    2    0    0  0.00000000000E+00  0.00000000000E+00 -0.14035555766E+04  0.19136470428E+04  0.13007985039E+04 0.  0.
        1    1    3    3  502    0  0.28917132600E+03 -0.58257915554E+03 -0.70297170248E+03  0.95769919221E+03  0.50400001928E-02 0. -1.
       -1    1    3    3    0  502 -0.28917132600E+03  0.58257915554E+03 -0.70058387416E+03  0.95594785057E+03  0.50400001928E-02 0.  1.
</event>
<event>
 5   0  0.4310889E-03  0.1302635E+04  0.7818609E-02  0.9027478E-01
        2   -1    0    0  501    0  0.00000000000E+00  0.00000000000E+00  0.14541278741E+04  0.14541278741E+04  0.25500000920E-02 0.  1.
       -2   -1    0    0    0  501  0.00000000000E+00  0.00000000000E+00 -0.29173133422E+03  0.29173133423E+03  0.25500000920E-02 0. -1.
    10030    2    1    2    0    0  0.00000000000E+00  0.00000000000E+00  0.11623965398E+04  0.17458592083E+04  0.13026352749E+04 0.  0.
        4    1    3    3  502    0  0.21441275512E+02 -0.21544404884E+03 -0.24208859439E+03  0.32478356933E+03  0.12699999809E+01 0. -1.
       -4    1    3    3    0  502 -0.21441275512E+02  0.21544404884E+03  0.14044851342E+04  0.14210756390E+04  0.12699999809E+01 0.  1.
</event>
<event>
 5   0  0.4263540E-03  0.1374203E+04  0.7818609E-02  0.8972706E-01
       -2   -1    0    0    0  501  0.00000000000E+00  0.00000000000E+00  0.65010440927E+03  0.65010440928E+03  0.25500000920E-02 0.  1.
        2   -1    0    0  501    0  0.00000000000E+00  0.00000000000E+00 -0.72620413200E+03  0.72620413201E+03  0.25500000920E-02 0. -1.
    10030    2    1    2    0    0  0.00000000000E+00  0.00000000000E+00 -0.76099722729E+02  0.13763085413E+04  0.13742030538E+04 0.  0.
        2    1    3    3  502    0  0.80523011233E+01 -0.54134252950E+03 -0.46177245955E+03  0.71158300865E+03  0.25500000920E-02 0. -1.
       -2    1    3    3    0  502 -0.80523011233E+01  0.54134252950E+03  0.38567273682E+03  0.66472553263E+03  0.25500000920E-02 0.  1.
</event>
<event>
 5   0  0.4263540E-03  0.1201910E+04  0.7818609E-02  0.9111186E-01
       -2   -1    0    0    0  501  0.00000000000E+00  0.00000000000E+00  0.34266582415E+03  0.34266582416E+03  0.25500000920E-02 0. -1.
        2   -1    0    0  501    0  0.00000000000E+00  0.00000000000E+00 -0.10539340237E+04  0.10539340237E+04  0.25500000920E-02 0.  1.
    10030    2    1    2    0    0  0.00000000000E+00  0.00000000000E+00 -0.71126819954E+03  0.13965998478E+04  0.12019104307E+04 0.  0.
        2    1    3    3  502    0 -0.26302305109E+03  0.27433561710E+03 -0.89655700115E+03  0.97378417143E+03  0.25500000920E-02 0.  1.
       -2    1    3    3    0  502  0.26302305109E+03 -0.27433561710E+03  0.18528880161E+03  0.42281567642E+03  0.25500000920E-02 0. -1.
</event>
<event>
 5   0  0.1661750E-03  0.1305046E+04  0.7818609E-02  0.9025573E-01
       -4   -1    0    0    0  501  0.00000000000E+00  0.00000000000E+00  0.11615000621E+04  0.11615007564E+04  0.12699999809E+01 0.  1.
        4   -1    0    0  501    0  0.00000000000E+00  0.00000000000E+00 -0.36658119231E+03  0.36658339222E+03  0.12699999809E+01 0. -1.
    10030    2    1    2    0    0  0.00000000000E+00  0.00000000000E+00  0.79491886977E+03  0.15280841486E+04  0.13050460359E+04 0.  0.
        1    1    3    3  502    0  0.63980135725E+03 -0.92884078517E+02  0.50095745027E+03  0.81788238506E+03  0.50400001928E-02 0. -1.
       -1    1    3    3    0  502 -0.63980135725E+03  0.92884078517E+02  0.29396141950E+03  0.71020176356E+03  0.50400001928E-02 0.  1.
</event>
<event>
 5   0  0.2356769E-03  0.1315351E+04  0.7818609E-02  0.9017480E-01
       -1   -1    0    0    0  501  0.00000000000E+00  0.00000000000E+00  0.10313462630E+04  0.10313462630E+04  0.50400001928E-02 0.  1.
        1   -1    0    0  501    0  0.00000000000E+00  0.00000000000E+00 -0.41939067957E+03  0.41939067960E+03  0.50400001928E-02 0. -1.
    10030    2    1    2    0    0  0.00000000000E+00  0.00000000000E+00  0.61195558343E+03  0.14507369426E+04  0.13153509192E+04 0.  0.
        1    1    3    3  502    0 -0.34615949288E+03 -0.35659309741E+03 -0.16911652200E+03  0.52496231262E+03  0.50400001928E-02 0.  1.
       -1    1    3    3    0  502  0.34615949288E+03  0.35659309741E+03  0.78107210543E+03  0.92577462999E+03  0.50400001928E-02 0. -1.
</event>
<event>
 5   0  0.4388937E-03  0.1297919E+04  0.7818609E-02  0.9031217E-01
        2   -1    0    0  501    0  0.00000000000E+00  0.00000000000E+00  0.60780056396E+03  0.60780056397E+03  0.25500000920E-02 0. -1.
       -2   -1    0    0    0  501  0.00000000000E+00  0.00000000000E+00 -0.69290605035E+03  0.69290605035E+03  0.25500000920E-02 0.  1.
    10030    2    1    2    0    0  0.00000000000E+00  0.00000000000E+00 -0.85105486385E+02  0.13007066143E+04  0.12979193938E+04 0.  0.
        5    1    3    3  502    0 -0.16887867821E+03 -0.21260554066E+03  0.54812411437E+03  0.61170520566E+03  0.46999998093E+01 0. -1.
       -5    1    3    3    0  502  0.16887867821E+03  0.21260554066E+03 -0.63322960076E+03  0.68900140867E+03  0.46999998093E+01 0.  1.
</event>
<event>
 5   0  0.4453011E-03  0.1334193E+04  0.7818609E-02  0.9002881E-01
        2   -1    0    0  501    0  0.00000000000E+00  0.00000000000E+00  0.36209204350E+03  0.36209204350E+03  0.25500000920E-02 0. -1.
       -2   -1    0    0    0  501  0.00000000000E+00  0.00000000000E+00 -0.12290175222E+04  0.12290175222E+04  0.25500000920E-02 0.  1.
    10030    2    1    2    0    0  0.00000000000E+00  0.00000000000E+00 -0.86692547870E+03  0.15911095657E+04  0.13341925890E+04 0.  0.
        1    1    3    3  502    0 -0.51300199144E+03 -0.39489710547E+03 -0.24152778586E+03  0.69097788568E+03  0.50400001928E-02 0. -1.
       -1    1    3    3    0  502  0.51300199144E+03  0.39489710547E+03 -0.62539769284E+03  0.90013168002E+03  0.50400001928E-02 0.  1.
</event>
<event>
 5   0  0.2511542E-03  0.1291612E+04  0.7818609E-02  0.9036243E-01
        1   -1    0    0  501    0  0.00000000000E+00  0.00000000000E+00  0.10602040588E+04  0.10602040588E+04  0.50400001928E-02 0.  1.
       -1   -1    0    0    0  501  0.00000000000E+00  0.00000000000E+00 -0.39338242738E+03  0.39338242741E+03  0.50400001928E-02 0. -1.
    10030    2    1    2    0    0  0.00000000000E+00  0.00000000000E+00  0.66682163142E+03  0.14535864862E+04  0.12916123973E+04 0.  0.
        4    1    3    3  502    0 -0.29007622486E+03  0.34214559802E+03 -0.18945583467E+03  0.48693218487E+03  0.12699999809E+01 0. -1.
       -4    1    3    3    0  502  0.29007622486E+03 -0.34214559802E+03  0.85627746609E+03  0.96665430135E+03  0.12699999809E+01 0.  1.
</event>
<event>
 5   0  0.2370801E-03  0.1299803E+04  0.7818609E-02  0.9029721E-01
       -1   -1    0    0    0  501  0.00000000000E+00  0.00000000000E+00  0.42989835336E+03  0.42989835339E+03  0.50400001928E-02 0.  1.
        1   -1    0    0  501    0  0.00000000000E+00  0.00000000000E+00 -0.98249310066E+03  0.98249310067E+03  0.50400001928E-02 0. -1.
    10030    2    1    2    0    0  0.00000000000E+00  0.00000000000E+00 -0.55259474730E+03  0.14123914541E+04  0.12998033177E+04 0.  0.
        3    1    3    3  502    0 -0.55438477811E+02 -0.59078718260E+03  0.11747437297E+02  0.59349889000E+03  0.10100000352E+00 0. -1.
       -3    1    3    3    0  502  0.55438477811E+02  0.59078718260E+03 -0.56434218460E+03  0.81889256406E+03  0.10100000352E+00 0.  1.
</event>
<event>
 5   0  0.4388937E-03  0.1278311E+04  0.7818609E-02  0.9046944E-01
       -2   -1    0    0    0  501  0.00000000000E+00  0.00000000000E+00  0.66696292499E+03  0.66696292499E+03  0.25500000920E-02 0.  1.
        2   -1    0    0  501    0  0.00000000000E+00  0.00000000000E+00 -0.61250709891E+03  0.61250709892E+03  0.25500000920E-02 0. -1.
    10030    2    1    2    0    0  0.00000000000E+00  0.00000000000E+00  0.54455826076E+02  0.12794700239E+04  0.12783106450E+04 0.  0.
        5    1    3    3  502    0 -0.36201663060E+03  0.58027188484E+02  0.55122372983E+03  0.66203692175E+03  0.46999998093E+01 0.  1.
       -5    1    3    3    0  502  0.36201663060E+03 -0.58027188484E+02 -0.49676790376E+03  0.61743310215E+03  0.46999998093E+01 0. -1.
</event>
<event>
 5   0  0.4388937E-03  0.7481666E+03  0.7818609E-02  0.9638231E-01
       -2   -1    0    0    0  501  0.00000000000E+00  0.00000000000E+00  0.12903972214E+03  0.12903972216E+03  0.25500000920E-02 0.  1.
        2   -1    0    0  501    0  0.00000000000E+00  0.00000000000E+00 -0.10844591137E+04  0.10844591137E+04  0.25500000920E-02 0. -1.
    10030    2    1    2    0    0  0.00000000000E+00  0.00000000000E+00 -0.95541939158E+03  0.12134988359E+04  0.74816656626E+03 0.  0.
        5    1    3    3  502    0 -0.40280836626E+02 -0.29371856688E+03 -0.84765631055E+03  0.89801806950E+03  0.46999998093E+01 0. -1.
       -5    1    3    3    0  502  0.40280836626E+02  0.29371856688E+03 -0.10776308103E+03  0.31548076638E+03  0.46999998093E+01 0.  1.
</event>
<event>
 5   0  0.4263540E-03  0.1392786E+04  0.7818609E-02  0.8959057E-01
       -2   -1    0    0    0  501  0.00000000000E+00  0.00000000000E+00  0.24977936363E+03  0.24977936364E+03  0.25500000920E-02 0.  1.
        2   -1    0    0  501    0  0.00000000000E+00  0.00000000000E+00 -0.19415664076E+04  0.19415664076E+04  0.25500000920E-02 0. -1.
    10030    2    1    2    0    0  0.00000000000E+00  0.00000000000E+00 -0.16917870440E+04  0.21913457713E+04  0.13927860162E+04 0.  0.
        2    1    3    3  502    0  0.22256342710E+02 -0.66431049025E+03 -0.51903150177E+03  0.84332524692E+03  0.25500000920E-02 0. -1.
       -2    1    3    3    0  502 -0.22256342710E+02  0.66431049025E+03 -0.11727555422E+04  0.13480205243E+04  0.25500000920E-02 0.  1.
</event>
<event>
 5   0  0.4310889E-03  0.1283610E+04  0.7818609E-02  0.9042665E-01
        2   -1    0    0  501    0  0.00000000000E+00  0.00000000000E+00  0.18452029529E+04  0.18452029529E+04  0.25500000920E-02 0. -1.
       -2   -1    0    0    0  501  0.00000000000E+00  0.00000000000E+00 -0.22323479500E+03  0.22323479502E+03  0.25500000920E-02 0.  1.
    10030    2    1    2    0    0  0.00000000000E+00  0.00000000000E+00  0.16219681579E+04  0.20684377479E+04  0.12836097584E+04 0.  0.
        4    1    3    3  502    0  0.56289416752E+03  0.26245067003E+03  0.10717244623E+04  0.12386787857E+04  0.12699999809E+01 0.  1.
       -4    1    3    3    0  502 -0.56289416752E+03 -0.26245067003E+03  0.55024369558E+03  0.82975896225E+03  0.12699999809E+01 0. -1.
</event>
<event>
 5   0  0.2356769E-03  0.1232717E+04  0.7818609E-02  0.9084692E-01
       -1   -1    0    0    0  501  0.00000000000E+00  0.00000000000E+00  0.44695362345E+03  0.44695362348E+03  0.50400001928E-02 0.  1.
        1   -1    0    0  501    0  0.00000000000E+00  0.00000000000E+00 -0.84997072146E+03  0.84997072147E+03  0.50400001928E-02 0. -1.
    10030    2    1    2    0    0  0.00000000000E+00  0.00000000000E+00 -0.40301709800E+03  0.12969243450E+04  0.12327165024E+04 0.  0.
        1    1    3    3  502    0  0.41469841743E+02 -0.47707097265E+03  0.20675120433E+03  0.52159612847E+03  0.50400001928E-02 0.  1.
       -1    1    3    3    0  502 -0.41469841743E+02  0.47707097265E+03 -0.60976830233E+03  0.77532821648E+03  0.50400001928E-02 0. -1.
</event>
<event>
 5   0  0.2356769E-03  0.1257491E+04  0.7818609E-02  0.9063972E-01
       -1   -1    0    0    0  501  0.00000000000E+00  0.00000000000E+00  0.59002546780E+03  0.59002546782E+03  0.50400001928E-02 0. -1.
        1   -1    0    0  501    0  0.00000000000E+00  0.00000000000E+00 -0.67000598518E+03  0.67000598520E+03  0.50400001928E-02 0.  1.
    10030    2    1    2    0    0  0.00000000000E+00  0.00000000000E+00 -0.79980517386E+02  0.12600314530E+04  0.12574905087E+04 0.  0.
        1    1    3    3  502    0 -0.46862806503E+03 -0.18129094230E+03 -0.41869829289E+03  0.65405422526E+03  0.50400001928E-02 0.  1.
       -1    1    3    3    0  502  0.46862806503E+03  0.18129094230E+03  0.33871777551E+03  0.60597722776E+03  0.50400001928E-02 0. -1.
</event>
<event>
 5   0  0.2370801E-03  0.1328279E+04  0.7818609E-02  0.9007435E-01
        1   -1    0    0  501    0  0.00000000000E+00  0.00000000000E+00  0.83585851362E+03  0.83585851363E+03  0.50400001928E-02 0.  1.
       -1   -1    0    0    0  501  0.00000000000E+00  0.00000000000E+00 -0.52769869658E+03  0.52769869661E+03  0.50400001928E-02 0. -1.
    10030    2    1    2    0    0  0.00000000000E+00  0.00000000000E+00  0.30815981704E+03  0.13635572102E+04  0.13282792601E+04 0.  0.
        3    1    3    3  502    0  0.23354816336E+03  0.60726597646E+03  0.29090421142E+03  0.71270048491E+03  0.10100000352E+00 0. -1.
       -3    1    3    3    0  502 -0.23354816336E+03 -0.60726597646E+03  0.17255605616E+02  0.65085672532E+03  0.10100000352E+00 0.  1.
</event>
<event>
 5   0  0.4453011E-03  0.1239047E+04  0.7818609E-02  0.9079349E-01
       -2   -1    0    0    0  501  0.00000000000E+00  0.00000000000E+00  0.78018220734E+03  0.78018220735E+03  0.25500000920E-02 0. -1.
        2   -1    0    0  501    0  0.00000000000E+00  0.00000000000E+00 -0.49194830318E+03  0.49194830318E+03  0.25500000920E-02 0.  1.
    10030    2    1    2    0    0  0.00000000000E+00  0.00000000000E+00  0.28823390417E+03  0.12721305105E+04  0.12390469129E+04 0.  0.
        1    1    3    3  502    0 -0.24128770678E+03  0.17850987826E+03 -0.41231680878E+03  0.50999086747E+03  0.50400001928E-02 0.  1.
       -1    1    3    3    0  502  0.24128770678E+03 -0.17850987826E+03  0.70055071295E+03  0.76213964306E+03  0.50400001928E-02 0. -1.
</event>
<event>
 5   0  0.1661750E-03  0.9012179E+03  0.7818609E-02  0.9424060E-01
       -3   -1    0    0    0  501  0.00000000000E+00  0.00000000000E+00  0.24610601038E+03  0.24610603111E+03  0.10100000352E+00 0.  1.
        3   -1    0    0  501    0  0.00000000000E+00  0.00000000000E+00 -0.82504447421E+03  0.82504448039E+03  0.10100000352E+00 0. -1.
    10030    2    1    2    0    0  0.00000000000E+00  0.00000000000E+00 -0.57893846383E+03  0.10711505115E+04  0.90121788341E+03 0.  0.
        4    1    3    3  502    0 -0.18206538591E+03 -0.12286790753E+03  0.17816861534E+03  0.28282502690E+03  0.12699999809E+01 0.  1.
       -4    1    3    3    0  502  0.18206538591E+03  0.12286790753E+03 -0.75710707917E+03  0.78832548460E+03  0.12699999809E+01 0. -1.
</event>
<event>
 5   0  0.4263540E-03  0.1292699E+04  0.7818609E-02  0.9035375E-01
       -2   -1    0    0    0  501  0.00000000000E+00  0.00000000000E+00  0.32472707489E+03  0.32472707490E+03  0.25500000920E-02 0. -1.
        2   -1    0    0  501    0  0.00000000000E+00  0.00000000000E+00 -0.12865190450E+04  0.12865190450E+04  0.25500000920E-02 0.  1.
    10030    2    1    2    0    0  0.00000000000E+00  0.00000000000E+00 -0.96179197007E+03  0.16112461199E+04  0.12926988300E+04 0.  0.
        2    1    3    3  502    0  0.13703863401E+03 -0.38529735369E+03 -0.11047713010E+04  0.11780293992E+04  0.25500000920E-02 0.  1.
       -2    1    3    3    0  502 -0.13703863401E+03  0.38529735369E+03  0.14297933090E+03  0.43321672064E+03  0.25500000920E-02 0. -1.
</event>
<event>
 5   0  0.2511542E-03  0.1295277E+04  0.7818609E-02  0.9033319E-01
        1   -1    0    0  501    0  0.00000000000E+00  0.00000000000E+00  0.71928996312E+03  0.71928996314E+03  0.50400001928E-02 0. -1.
       -1   -1    0    0    0  501  0.00000000000E+00  0.00000000000E+00 -0.58312482777E+03  0.58312482779E+03  0.50400001928E-02 0.  1.
    10030    2    1    2    0    0  0.00000000000E+00  0.00000000000E+00  0.13616513536E+03  0.13024147909E+04  0.12952773230E+04 0.  0.
        4    1    3    3  502    0 -0.10092005999E+03  0.45874320375E+03 -0.38024883306E+03  0.60433514993E+03  0.12699999809E+01 0.  1.
       -4    1    3    3    0  502  0.10092005999E+03 -0.45874320375E+03  0.51641396842E+03  0.69807964100E+03  0.12699999809E+01 0. -1.
</event>
<event>
 5   0  0.2458456E-03  0.1309469E+04  0.7818609E-02  0.9022089E-01
       -1   -1    0    0    0  501  0.00000000000E+00  0.00000000000E+00  0.48460469063E+03  0.48460469065E+03  0.50400001928E-02 0.  1.
        1   -1    0    0  501    0  0.00000000000E+00  0.00000000000E+00 -0.88459203055E+03  0.88459203056E+03  0.50400001928E-02 0. -1.
    10030    2    1    2    0    0  0.00000000000E+00  0.00000000000E+00 -0.39998733992E+03  0.13691967212E+04  0.13094692777E+04 0.  0.
        5    1    3    3  502    0  0.13844183759E+03 -0.80576816639E+02  0.46378183740E+03  0.49068773011E+03  0.46999998093E+01 0.  1.
       -5    1    3    3    0  502 -0.13844183759E+03  0.80576816639E+02 -0.86376917732E+03  0.87850899111E+03  0.46999998093E+01 0. -1.
</event>
<event>
 5   0  0.4453011E-03  0.1369429E+04  0.7818609E-02  0.8976250E-01
        2   -1    0    0  501    0  0.00000000000E+00  0.00000000000E+00  0.11663541729E+04  0.11663541729E+04  0.25500000920E-02 0. -1.
       -2   -1    0    0    0  501  0.00000000000E+00  0.00000000000E+00 -0.40196520114E+03  0.40196520115E+03  0.25500000920E-02 0.  1.
    10030    2    1    2    0    0  0.00000000000E+00  0.00000000000E+00  0.76438897181E+03  0.15683193741E+04  0.13694287710E+04 0.  0.
        1    1    3    3  502    0 -0.48356898320E+03 -0.40431457112E+03  0.75911660889E+02  0.63487936981E+03  0.50400001928E-02 0.  1.
       -1    1    3    3    0  502  0.48356898320E+03  0.40431457112E+03  0.68847731092E+03  0.93344000429E+03  0.50400001928E-02 0. -1.
</event>
<event>
 5   0  0.2370801E-03  0.1306265E+04  0.7818609E-02  0.9024611E-01
       -1   -1    0    0    0  501  0.00000000000E+00  0.00000000000E+00  0.74389801294E+03  0.74389801296E+03  0.50400001928E-02 0.  1.
        1   -1    0    0  501    0  0.00000000000E+00  0.00000000000E+00 -0.57344203239E+03  0.57344203241E+03  0.50400001928E-02 0. -1.
    10030    2    1    2    0    0  0.00000000000E+00  0.00000000000E+00  0.17045598055E+03  0.13173400454E+04  0.13062654990E+04 0.  0.
        3    1    3    3  502    0  0.25928311740E+03 -0.59168483573E+03  0.18229209263E+03  0.67122954124E+03  0.10100000352E+00 0.  1.
       -3    1    3    3    0  502 -0.25928311740E+03  0.59168483573E+03 -0.11836112075E+02  0.64611050413E+03  0.10100000352E+00 0. -1.
</event>
<event>
 5   0  0.4263540E-03  0.1237239E+04  0.7818609E-02  0.9080872E-01
       -2   -1    0    0    0  501  0.00000000000E+00  0.00000000000E+00  0.46879147320E+03  0.46879147321E+03  0.25500000920E-02 0. -1.
        2   -1    0    0  501    0  0.00000000000E+00  0.00000000000E+00 -0.81633317495E+03  0.81633317495E+03  0.25500000920E-02 0.  1.
    10030    2    1    2    0    0  0.00000000000E+00  0.00000000000E+00 -0.34754170175E+03  0.12851246482E+04  0.12372389126E+04 0.  0.
        2    1    3    3  502    0  0.16026087589E+03  0.46497250724E+03 -0.56353678964E+03  0.74796837775E+03  0.25500000920E-02 0.  1.
       -2    1    3    3    0  502 -0.16026087589E+03 -0.46497250724E+03  0.21599508789E+03  0.53715627041E+03  0.25500000920E-02 0. -1.
</event>
<event>
 5   0  0.4263540E-03  0.7219297E+03  0.7818609E-02  0.9680447E-01
       -2   -1    0    0    0  501  0.00000000000E+00  0.00000000000E+00  0.41883270069E+03  0.41883270070E+03  0.25500000920E-02 0.  1.
        2   -1    0    0  501    0  0.00000000000E+00  0.00000000000E+00 -0.31109224692E+03  0.31109224693E+03  0.25500000920E-02 0. -1.
    10030    2    1    2    0    0  0.00000000000E+00  0.00000000000E+00  0.10774045377E+03  0.72992494763E+03  0.72192965294E+03 0.  0.
        2    1    3    3  502    0 -0.34215708656E+03 -0.62838552496E+02 -0.43505526310E+02  0.35058934152E+03  0.25500000920E-02 0.  1.
       -2    1    3    3    0  502  0.34215708656E+03  0.62838552496E+02  0.15124598008E+03  0.37933560611E+03  0.25500000920E-02 0. -1.
</event>
<event>
 5   0  0.4310889E-03  0.1256507E+04  0.7818609E-02  0.9064785E-01
        2   -1    0    0  501    0  0.00000000000E+00  0.00000000000E+00  0.50664834121E+03  0.50664834122E+03  0.25500000920E-02 0. -1.
       -2   -1    0    0    0  501  0.00000000000E+00  0.00000000000E+00 -0.77904558060E+03  0.77904558060E+03  0.25500000920E-02 0.  1.
    10030    2    1    2    0    0  0.00000000000E+00  0.00000000000E+00 -0.27239723938E+03  0.12856939218E+04  0.12565065080E+04 0.  0.
        4    1    3    3  502    0 -0.13816132429E+03 -0.12043202153E+03 -0.75108018468E+03  0.77312061159E+03  0.12699999809E+01 0.  1.
       -4    1    3    3    0  502  0.13816132429E+03  0.12043202153E+03  0.47868294530E+03  0.51257331023E+03  0.12699999809E+01 0. -1.
</event>
<event>
 5   0  0.4306214E-03  0.1279708E+04  0.7818609E-02  0.9045813E-01
        2   -1    0    0  501    0  0.00000000000E+00  0.00000000000E+00  0.58759060143E+03  0.58759060144E+03  0.25500000920E-02 0.  1.
       -2   -1    0    0    0  501  0.00000000000E+00  0.00000000000E+00 -0.69676634224E+03  0.69676634225E+03  0.25500000920E-02 0. -1.
    10030    2    1    2    0    0  0.00000000000E+00  0.00000000000E+00 -0.10917574081E+03  0.12843569437E+04  0.12797083326E+04 0.  0.
        3    1    3    3  502    0  0.18144525507E+03  0.57747485898E+03 -0.26273881995E+03  0.65987217781E+03  0.10100000352E+00 0. -1.
       -3    1    3    3    0  502 -0.18144525507E+03 -0.57747485898E+03  0.15356307914E+03  0.62448476588E+03  0.10100000352E+00 0.  1.
</event>
<event>
 5   0  0.4453011E-03  0.1310351E+04  0.7818609E-02  0.9021397E-01
        2   -1    0    0  501    0  0.00000000000E+00  0.00000000000E+00  0.10948238478E+04  0.10948238478E+04  0.25500000920E-02 0.  1.
       -2   -1    0    0    0  501  0.00000000000E+00  0.00000000000E+00 -0.39207650665E+03  0.39207650666E+03  0.25500000920E-02 0. -1.
    10030    2    1    2    0    0  0.00000000000E+00  0.00000000000E+00  0.70274734116E+03  0.14869003545E+04  0.13103506548E+04 0.  0.
        1    1    3    3  502    0 -0.36658822314E+03  0.48239533006E+03  0.63429043018E+03  0.87716391264E+03  0.50400001928E-02 0.  1.
       -1    1    3    3    0  502  0.36658822314E+03 -0.48239533006E+03  0.68456910987E+02  0.60973644183E+03  0.50400001928E-02 0. -1.
</event>
<event>
 5   0  0.4388937E-03  0.1288093E+04  0.7818609E-02  0.9039061E-01
       -2   -1    0    0    0  501  0.00000000000E+00  0.00000000000E+00  0.72224019200E+03  0.72224019200E+03  0.25500000920E-02 0.  1.
        2   -1    0    0  501    0  0.00000000000E+00  0.00000000000E+00 -0.57431882076E+03  0.57431882076E+03  0.25500000920E-02 0. -1.
    10030    2    1    2    0    0  0.00000000000E+00  0.00000000000E+00  0.14792137124E+03  0.12965590128E+04  0.12880933745E+04 0.  0.
        5    1    3    3  502    0  0.59582614071E+03 -0.50911578976E+02 -0.16672011366E+03  0.62082079952E+03  0.46999998093E+01 0. -1.
       -5    1    3    3    0  502 -0.59582614071E+03  0.50911578976E+02  0.31464148490E+03  0.67573821325E+03  0.46999998093E+01 0.  1.
</event>
<event>
 5   0  0.2511542E-03  0.1280292E+04  0.7818609E-02  0.9045342E-01
        1   -1    0    0  501    0  0.00000000000E+00  0.00000000000E+00  0.88679394128E+03  0.88679394130E+03  0.50400001928E-02 0. -1.
       -1   -1    0    0    0  501  0.00000000000E+00  0.00000000000E+00 -0.46209900833E+03  0.46209900836E+03  0.50400001928E-02 0.  1.
    10030    2    1    2    0    0  0.00000000000E+00  0.00000000000E+00  0.42469493295E+03  0.13488929497E+04  0.12802915307E+04 0.  0.
        4    1    3    3  502    0  0.50804966687E+03  0.33314128324E+02 -0.19646526694E+03  0.54573300172E+03  0.12699999809E+01 0.  1.
       -4    1    3    3    0  502 -0.50804966687E+03 -0.33314128324E+02  0.62116019989E+03  0.80315994794E+03  0.12699999809E+01 0. -1.
</event>
<event>
 5   0  0.2458456E-03  0.1299989E+04  0.7818609E-02  0.9029574E-01
        1   -1    0    0  501    0  0.00000000000E+00  0.00000000000E+00  0.27774648591E+03  0.27774648596E+03  0.50400001928E-02 0. -1.
       -1   -1    0    0    0  501  0.00000000000E+00  0.00000000000E+00 -0.15211464010E+04  0.15211464010E+04  0.50400001928E-02 0.  1.
    10030    2    1    2    0    0  0.00000000000E+00  0.00000000000E+00 -0.12433999151E+04  0.17988928869E+04  0.12999893345E+04 0.  0.
        5    1    3    3  502    0  0.23739457592E+03  0.38993688231E+03 -0.12619319239E+04  0.13419766121E+04  0.46999998093E+01 0.  1.
       -5    1    3    3    0  502 -0.23739457592E+03 -0.38993688231E+03  0.18532008835E+02  0.45691627484E+03  0.46999998093E+01 0. -1.
</event>
<event>
 5   0  0.4310889E-03  0.1295417E+04  0.7818609E-02  0.9033207E-01
       -2   -1    0    0    0  501  0.00000000000E+00  0.00000000000E+00  0.46501307193E+03  0.46501307194E+03  0.25500000920E-02 0.  1.
        2   -1    0    0  501    0  0.00000000000E+00  0.00000000000E+00 -0.90218173519E+03  0.90218173519E+03  0.25500000920E-02 0. -1.
    10030    2    1    2    0    0  0.00000000000E+00  0.00000000000E+00 -0.43716866326E+03  0.13671948071E+04  0.12954169987E+04 0.  0.
        4    1    3    3  502    0 -0.26680979104E+03  0.58815563571E+03 -0.16677061805E+03  0.66702966078E+03  0.12699999809E+01 0. -1.
       -4    1    3    3    0  502  0.26680979104E+03 -0.58815563571E+03 -0.27039804521E+03  0.70016514635E+03  0.12699999809E+01 0.  1.
</event>
<event>
 5   0  0.4263540E-03  0.1285273E+04  0.7818609E-02  0.9041326E-01
       -2   -1    0    0    0  501  0.00000000000E+00  0.00000000000E+00  0.27115748669E+03  0.27115748670E+03  0.25500000920E-02 0.  1.
        2   -1    0    0  501    0  0.00000000000E+00  0.00000000000E+00 -0.15230321483E+04  0.15230321483E+04  0.25500000920E-02 0. -1.
    10030    2    1    2    0    0  0.00000000000E+00  0.00000000000E+00 -0.12518746616E+04  0.17941896350E+04  0.12852728418E+04 0.  0.
        2    1    3    3  502    0  0.16153894941E+03 -0.47682302381E+03 -0.11834946062E+04  0.12861238320E+04  0.25500000920E-02 0. -1.
       -2    1    3    3    0  502 -0.16153894941E+03  0.47682302381E+03 -0.68380055381E+02  0.50806580301E+03  0.25500000920E-02 0.  1.
</event>
<event>
 5   0  0.2458456E-03  0.1300223E+04  0.7818609E-02  0.9029388E-01
        1   -1    0    0  501    0  0.00000000000E+00  0.00000000000E+00  0.64067936890E+03  0.64067936892E+03  0.50400001928E-02 0. -1.
       -1   -1    0    0    0  501  0.00000000000E+00  0.00000000000E+00 -0.65968243089E+03  0.65968243091E+03  0.50400001928E-02 0.  1.
    10030    2    1    2    0    0  0.00000000000E+00  0.00000000000E+00 -0.19003061991E+02  0.13003617998E+04  0.13002229402E+04 0.  0.
        5    1    3    3  502    0 -0.51874204328E+03  0.18511603575E+03 -0.35488111094E+03  0.65522816413E+03  0.46999998093E+01 0.  1.
       -5    1    3    3    0  502  0.51874204328E+03 -0.18511603575E+03  0.33587804895E+03  0.64513363571E+03  0.46999998093E+01 0. -1.
</event>
<event>
 5   0  0.2462055E-03  0.1329399E+04  0.7818609E-02  0.9006571E-01
        1   -1    0    0  501    0  0.00000000000E+00  0.00000000000E+00  0.10340419509E+04  0.10340419509E+04  0.50400001928E-02 0.  1.
       -1   -1    0    0    0  501  0.00000000000E+00  0.00000000000E+00 -0.42728027230E+03  0.42728027233E+03  0.50400001928E-02 0. -1.
    10030    2    1    2    0    0  0.00000000000E+00  0.00000000000E+00  0.60676167860E+03  0.14613222232E+04  0.13293994530E+04 0.  0.
        2    1    3    3  502    0 -0.59900505337E+02  0.61086727031E+02 -0.42120262025E+03  0.42980379951E+03  0.25500000920E-02 0. -1.
       -2    1    3    3    0  502  0.59900505337E+02 -0.61086727031E+02  0.10279642989E+04  0.10315184237E+04  0.25500000920E-02 0.  1.
</event>
<event>
 5   0  0.4388937E-03  0.1291315E+04  0.7818609E-02  0.9036481E-01
       -2   -1    0    0    0  501  0.00000000000E+00  0.00000000000E+00  0.52874669631E+03  0.52874669632E+03  0.25500000920E-02 0. -1.
        2   -1    0    0  501    0  0.00000000000E+00  0.00000000000E+00 -0.78841819147E+03  0.78841819148E+03  0.25500000920E-02 0.  1.
    10030    2    1    2    0    0  0.00000000000E+00  0.00000000000E+00 -0.25967149516E+03  0.13171648878E+04  0.12913148556E+04 0.  0.
        5    1    3    3  502    0  0.31568321602E+03 -0.35603513522E+02 -0.70316222985E+03  0.77161046814E+03  0.46999998093E+01 0.  1.
       -5    1    3    3    0  502 -0.31568321602E+03  0.35603513522E+02  0.44349073469E+03  0.54555441965E+03  0.46999998093E+01 0. -1.
</event>
<event>
 5   0  0.2462055E-03  0.1299511E+04  0.7818609E-02  0.9029953E-01
       -1   -1    0    0    0  501  0.00000000000E+00  0.00000000000E+00  0.40110766256E+03  0.40110766259E+03  0.50400001928E-02 0.  1.
        1   -1    0    0  501    0  0.00000000000E+00  0.00000000000E+00 -0.10525407748E+04  0.10525407748E+04  0.50400001928E-02 0. -1.
    10030    2    1    2    0    0  0.00000000000E+00  0.00000000000E+00 -0.65143311225E+03  0.14536484374E+04  0.12995109387E+04 0.  0.
        2    1    3    3  502    0 -0.28058207290E+03 -0.33117056075E+03  0.21514350895E+03  0.48444501173E+03  0.25500000920E-02 0.  1.
       -2    1    3    3    0  502  0.28058207290E+03  0.33117056075E+03 -0.86657662120E+03  0.96920342568E+03  0.25500000920E-02 0. -1.
</event>
<event>
 5   0  0.2370801E-03  0.1308994E+04  0.7818609E-02  0.9022463E-01
        1   -1    0    0  501    0  0.00000000000E+00  0.00000000000E+00  0.11464512380E+04  0.11464512380E+04  0.50400001928E-02 0.  1.
       -1   -1    0    0    0  501  0.00000000000E+00  0.00000000000E+00 -0.37364537157E+03  0.37364537160E+03  0.50400001928E-02 0. -1.
    10030    2    1    2    0    0  0.00000000000E+00  0.00000000000E+00  0.77280586639E+03  0.15200966096E+04  0.13089938103E+04 0.  0.
        3    1    3    3  502    0 -0.54402358879E+03 -0.14609000810E+03 -0.60226456992E+00  0.56329772639E+03  0.10100000352E+00 0. -1.
       -3    1    3    3    0  502  0.54402358879E+03  0.14609000810E+03  0.77340813096E+03  0.95679888319E+03  0.10100000352E+00 0.  1.
</event>
<event>
 5   0  0.2356769E-03  0.1326360E+04  0.7818609E-02  0.9008919E-01
        1   -1    0    0  501    0  0.00000000000E+00  0.00000000000E+00  0.13738772643E+04  0.13738772643E+04  0.50400001928E-02 0. -1.
       -1   -1    0    0    0  501  0.00000000000E+00  0.00000000000E+00 -0.32012161268E+03  0.32012161272E+03  0.50400001928E-02 0.  1.
    10030    2    1    2    0    0  0.00000000000E+00  0.00000000000E+00  0.10537556516E+04  0.16939988770E+04  0.13263601404E+04 0.  0.
        1    1    3    3  502    0  0.40869034621E+03 -0.49816634382E+03  0.32651824593E+03  0.72236533012E+03  0.50400001928E-02 0.  1.
       -1    1    3    3    0  502 -0.40869034621E+03  0.49816634382E+03  0.72723740564E+03  0.97163354687E+03  0.50400001928E-02 0. -1.
</event>
<event>
 5   0  0.4453011E-03  0.1245452E+04  0.7818609E-02  0.9073977E-01
        2   -1    0    0  501    0  0.00000000000E+00  0.00000000000E+00  0.22374822604E+04  0.22374822604E+04  0.25500000920E-02 0.  1.
       -2   -1    0    0    0  501  0.00000000000E+00  0.00000000000E+00 -0.17331427385E+03  0.17331427387E+03  0.25500000920E-02 0. -1.
    10030    2    1    2    0    0  0.00000000000E+00  0.00000000000E+00  0.20641679865E+04  0.24107965342E+04  0.12454519071E+04 0.  0.
        1    1    3    3  502    0 -0.65743628725E+02 -0.52781252112E+03  0.16589555296E+04  0.17421371161E+04  0.50400001928E-02 0.  1.
       -1    1    3    3    0  502  0.65743628725E+02  0.52781252112E+03  0.40521245693E+03  0.66865941813E+03  0.50400001928E-02 0. -1.
</event>
<event>
 5   0  0.1661750E-03  0.1472478E+04  0.7818609E-02  0.8902964E-01
        3   -1    0    0  501    0  0.00000000000E+00  0.00000000000E+00  0.14592847039E+04  0.14592847074E+04  0.10100000352E+00 0.  1.
       -3   -1    0    0    0  501  0.00000000000E+00  0.00000000000E+00 -0.37144752655E+03  0.37144754028E+03  0.10100000352E+00 0. -1.
    10030    2    1    2    0    0  0.00000000000E+00  0.00000000000E+00  0.10878371774E+04  0.18307322477E+04  0.14724777887E+04 0.  0.
        1    1    3    3  502    0 -0.46351337327E+03 -0.90002317722E+01  0.12550191052E+04  0.13379082950E+04  0.50400001928E-02 0.  1.
       -1    1    3    3    0  502  0.46351337327E+03  0.90002317722E+01 -0.16718192780E+03  0.49282395273E+03  0.50400001928E-02 0. -1.
</event>
<event>
 5   0  0.4306214E-03  0.1302755E+04  0.7818609E-02  0.9027383E-01
        2   -1    0    0  501    0  0.00000000000E+00  0.00000000000E+00  0.13249032723E+04  0.13249032723E+04  0.25500000920E-02 0.  1.
       -2   -1    0    0    0  501  0.00000000000E+00  0.00000000000E+00 -0.32024423867E+03  0.32024423868E+03  0.25500000920E-02 0. -1.
    10030    2    1    2    0    0  0.00000000000E+00  0.00000000000E+00  0.10046590336E+04  0.16451475110E+04  0.13027549881E+04 0.  0.
        3    1    3    3  502    0  0.20791541681E+03 -0.10812190107E+03  0.12698234406E+04  0.12912671089E+04  0.10100000352E+00 0.  1.
       -3    1    3    3    0  502 -0.20791541681E+03  0.10812190107E+03 -0.26516440698E+03  0.35388040207E+03  0.10100000352E+00 0. -1.
</event>
<event>
 5   0  0.4388937E-03  0.1281971E+04  0.7818609E-02  0.9043986E-01
       -2   -1    0    0    0  501  0.00000000000E+00  0.00000000000E+00  0.31719500414E+03  0.31719500415E+03  0.25500000920E-02 0. -1.
        2   -1    0    0  501    0  0.00000000000E+00  0.00000000000E+00 -0.12952985652E+04  0.12952985652E+04  0.25500000920E-02 0.  1.
    10030    2    1    2    0    0  0.00000000000E+00  0.00000000000E+00 -0.97810356102E+03  0.16124935693E+04  0.12819707232E+04 0.  0.
        5    1    3    3  502    0 -0.58369828732E+03  0.19142113007E+03 -0.71925214767E+03  0.94588132532E+03  0.46999998093E+01 0.  1.
       -5    1    3    3    0  502  0.58369828732E+03 -0.19142113007E+03 -0.25885141335E+03  0.66661224400E+03  0.46999998093E+01 0. -1.
</event>
<event>
 5   0  0.4310889E-03  0.1321292E+04  0.7818609E-02  0.9012848E-01
        2   -1    0    0  501    0  0.00000000000E+00  0.00000000000E+00  0.16643085796E+04  0.16643085796E+04  0.25500000920E-02 0.  1.
       -2   -1    0    0    0  501  0.00000000000E+00  0.00000000000E+00 -0.26224306986E+03  0.26224306987E+03  0.25500000920E-02 0. -1.
    10030    2    1    2    0    0  0.00000000000E+00  0.00000000000E+00  0.14020655097E+04  0.19265516495E+04  0.13212923842E+04 0.  0.
        4    1    3    3  502    0 -0.10481624470E+03  0.22506701902E+03 -0.19162998618E+03  0.31363238466E+03  0.12699999809E+01 0. -1.
       -4    1    3    3    0  502  0.10481624470E+03 -0.22506701902E+03  0.15936954959E+04  0.16129192648E+04  0.12699999809E+01 0.  1.
</event>
<event>
 5   0  0.4453011E-03  0.1313485E+04  0.7818609E-02  0.9018939E-01
        2   -1    0    0  501    0  0.00000000000E+00  0.00000000000E+00  0.11089060453E+04  0.11089060453E+04  0.25500000920E-02 0. -1.
       -2   -1    0    0    0  501  0.00000000000E+00  0.00000000000E+00 -0.38895170905E+03  0.38895170906E+03  0.25500000920E-02 0.  1.
    10030    2    1    2    0    0  0.00000000000E+00  0.00000000000E+00  0.71995433625E+03  0.14978577544E+04  0.13134852896E+04 0.  0.
        1    1    3    3  502    0 -0.59612563753E+03  0.11729797850E+03  0.64435304461E+03  0.88561585216E+03  0.50400001928E-02 0. -1.
       -1    1    3    3    0  502  0.59612563753E+03 -0.11729797850E+03  0.75601291648E+02  0.61224190220E+03  0.50400001928E-02 0.  1.
</event>
<event>
 5   0  0.2462055E-03  0.1306316E+04  0.7818609E-02  0.9024571E-01
       -1   -1    0    0    0  501  0.00000000000E+00  0.00000000000E+00  0.57411183984E+03  0.57411183986E+03  0.50400001928E-02 0.  1.
        1   -1    0    0  501    0  0.00000000000E+00  0.00000000000E+00 -0.74308764486E+03  0.74308764488E+03  0.50400001928E-02 0. -1.
    10030    2    1    2    0    0  0.00000000000E+00  0.00000000000E+00 -0.16897580503E+03  0.13171994847E+04  0.13063160643E+04 0.  0.
        2    1    3    3  502    0 -0.16111644111E+03 -0.60898968885E+03  0.89543394147E+02  0.63627428689E+03  0.25500000920E-02 0.  1.
       -2    1    3    3    0  502  0.16111644111E+03  0.60898968885E+03 -0.25851919917E+03  0.68092519785E+03  0.25500000920E-02 0. -1.
</event>
<event>
 5   0  0.2370801E-03  0.1284909E+04  0.7818609E-02  0.9041619E-01
        1   -1    0    0  501    0  0.00000000000E+00  0.00000000000E+00  0.68980820257E+03  0.68980820259E+03  0.50400001928E-02 0.  1.
       -1   -1    0    0    0  501  0.00000000000E+00  0.00000000000E+00 -0.59835139417E+03  0.59835139419E+03  0.50400001928E-02 0. -1.
    10030    2    1    2    0    0  0.00000000000E+00  0.00000000000E+00  0.91456808400E+02  0.12881595968E+04  0.12849088680E+04 0.  0.
        3    1    3    3  502    0  0.42258208016E+03  0.46017367582E+03 -0.10435760277E+03  0.63342398585E+03  0.10100000352E+00 0.  1.
       -3    1    3    3    0  502 -0.42258208016E+03 -0.46017367582E+03  0.19581441117E+03  0.65473561093E+03  0.10100000352E+00 0. -1.
</event>
<event>
 5   0  0.4306214E-03  0.1299233E+04  0.7818609E-02  0.9030174E-01
        2   -1    0    0  501    0  0.00000000000E+00  0.00000000000E+00  0.43377293774E+03  0.43377293775E+03  0.25500000920E-02 0.  1.
       -2   -1    0    0    0  501  0.00000000000E+00  0.00000000000E+00 -0.97286230741E+03  0.97286230742E+03  0.25500000920E-02 0. -1.
    10030    2    1    2    0    0  0.00000000000E+00  0.00000000000E+00 -0.53908936967E+03  0.14066352452E+04  0.12992326060E+04 0.  0.
        3    1    3    3  502    0 -0.23530037748E+03  0.18752795759E+03 -0.89287120217E+03  0.94220592037E+03  0.10100000352E+00 0. -1.
       -3    1    3    3    0  502  0.23530037748E+03 -0.18752795759E+03  0.35378183250E+03  0.46442932479E+03  0.10100000352E+00 0.  1.
</event>
<event>
 5   0  0.4306214E-03  0.1264953E+04  0.7818609E-02  0.9057829E-01
        2   -1    0    0  501    0  0.00000000000E+00  0.00000000000E+00  0.41999989794E+03  0.41999989795E+03  0.25500000920E-02 0.  1.
       -2   -1    0    0    0  501  0.00000000000E+00  0.00000000000E+00 -0.95244452755E+03  0.95244452755E+03  0.25500000920E-02 0. -1.
    10030    2    1    2    0    0  0.00000000000E+00  0.00000000000E+00 -0.53244462960E+03  0.13724444255E+04  0.12649531286E+04 0.  0.
        3    1    3    3  502    0 -0.49506500657E+03  0.15845889359E+03 -0.65715730061E+03  0.83788681195E+03  0.10100000352E+00 0. -1.
       -3    1    3    3    0  502  0.49506500657E+03 -0.15845889359E+03  0.12471267101E+03  0.53455761355E+03  0.10100000352E+00 0.  1.
</event>
<event>
 5   0  0.2462055E-03  0.1300440E+04  0.7818609E-02  0.9029216E-01
       -1   -1    0    0    0  501  0.00000000000E+00  0.00000000000E+00  0.22195992580E+03  0.22195992585E+03  0.50400001928E-02 0.  1.
        1   -1    0    0  501    0  0.00000000000E+00  0.00000000000E+00 -0.19047869040E+04  0.19047869040E+04  0.50400001928E-02 0. -1.
    10030    2    1    2    0    0  0.00000000000E+00  0.00000000000E+00 -0.16828269782E+04  0.21267468298E+04  0.13004404791E+04 0.  0.
        2    1    3    3  502    0 -0.43371466012E+03 -0.48381766725E+03 -0.80140724528E+03  0.10317177494E+04  0.25500000920E-02 0.  1.
       -2    1    3    3    0  502  0.43371466012E+03  0.48381766725E+03 -0.88141973292E+03  0.10950290805E+04  0.25500000920E-02 0. -1.
</event>
<event>
 5   0  0.2356769E-03  0.1306874E+04  0.7818609E-02  0.9024132E-01
        1   -1    0    0  501    0  0.00000000000E+00  0.00000000000E+00  0.70678857464E+03  0.70678857466E+03  0.50400001928E-02 0.  1.
       -1   -1    0    0    0  501  0.00000000000E+00  0.00000000000E+00 -0.60411257403E+03  0.60411257405E+03  0.50400001928E-02 0. -1.
    10030    2    1    2    0    0  0.00000000000E+00  0.00000000000E+00  0.10267600061E+03  0.13109011487E+04  0.13068739268E+04 0.  0.
        1    1    3    3  502    0  0.46283296665E+01  0.49967956647E+03  0.47368033949E+03  0.68853043115E+03  0.50400001928E-02 0.  1.
       -1    1    3    3    0  502 -0.46283296665E+01 -0.49967956647E+03 -0.37100433888E+03  0.62237071756E+03  0.50400001928E-02 0. -1.
</event>
<event>
 5   0  0.4388937E-03  0.1317276E+04  0.7818609E-02  0.9015976E-01
        2   -1    0    0  501    0  0.00000000000E+00  0.00000000000E+00  0.60294823218E+03  0.60294823219E+03  0.25500000920E-02 0.  1.
       -2   -1    0    0    0  501  0.00000000000E+00  0.00000000000E+00 -0.71947127010E+03  0.71947127011E+03  0.25500000920E-02 0. -1.
    10030    2    1    2    0    0  0.00000000000E+00  0.00000000000E+00 -0.11652303792E+03  0.13224195023E+04  0.13172758715E+04 0.  0.
        5    1    3    3  502    0  0.26078620294E+03  0.11301407822E+03 -0.65471969111E+03  0.71376578052E+03  0.46999998093E+01 0. -1.
       -5    1    3    3    0  502 -0.26078620294E+03 -0.11301407822E+03  0.53819665319E+03  0.60865372177E+03  0.46999998093E+01 0.  1.
</event>
<event>
 5   0  0.2511542E-03  0.1302268E+04  0.7818609E-02  0.9027768E-01
       -1   -1    0    0    0  501  0.00000000000E+00  0.00000000000E+00  0.26931615025E+03  0.26931615030E+03  0.50400001928E-02 0.  1.
        1   -1    0    0  501    0  0.00000000000E+00  0.00000000000E+00 -0.15742672320E+04  0.15742672320E+04  0.50400001928E-02 0. -1.
    10030    2    1    2    0    0  0.00000000000E+00  0.00000000000E+00 -0.13049510818E+04  0.18435833823E+04  0.13022681605E+04 0.  0.
        4    1    3    3  502    0 -0.11119087049E+03  0.23899518195E+03 -0.14953550627E+04  0.15184105121E+04  0.12699999809E+01 0. -1.
       -4    1    3    3    0  502  0.11119087049E+03 -0.23899518195E+03  0.19040398096E+03  0.32517287024E+03  0.12699999809E+01 0.  1.
</event>
<event>
 5   0  0.2356769E-03  0.1335824E+04  0.7818609E-02  0.9001629E-01
       -1   -1    0    0    0  501  0.00000000000E+00  0.00000000000E+00  0.43910438155E+03  0.43910438158E+03  0.50400001928E-02 0.  1.
        1   -1    0    0  501    0  0.00000000000E+00  0.00000000000E+00 -0.10159459455E+04  0.10159459455E+04  0.50400001928E-02 0. -1.
    10030    2    1    2    0    0  0.00000000000E+00  0.00000000000E+00 -0.57684156393E+03  0.14550503271E+04  0.13358238149E+04 0.  0.
        1    1    3    3  502    0  0.59039141296E+03 -0.31021070410E+03 -0.24894208372E+03  0.71187419008E+03  0.50400001928E-02 0.  1.
       -1    1    3    3    0  502 -0.59039141296E+03  0.31021070410E+03 -0.32789948021E+03  0.74317613698E+03  0.50400001928E-02 0. -1.
</event>
<event>
 5   0  0.4310889E-03  0.1312683E+04  0.7818609E-02  0.9019567E-01
       -2   -1    0    0    0  501  0.00000000000E+00  0.00000000000E+00  0.39646574121E+03  0.39646574122E+03  0.25500000920E-02 0.  1.
        2   -1    0    0  501    0  0.00000000000E+00  0.00000000000E+00 -0.10865615039E+04  0.10865615039E+04  0.25500000920E-02 0. -1.
    10030    2    1    2    0    0  0.00000000000E+00  0.00000000000E+00 -0.69009576268E+03  0.14830272451E+04  0.13126833769E+04 0.  0.
        4    1    3    3  502    0  0.14363336720E+03  0.46796921021E+03  0.14890364332E+03  0.51166359434E+03  0.12699999809E+01 0. -1.
       -4    1    3    3    0  502 -0.14363336720E+03 -0.46796921021E+03 -0.83899940600E+03  0.97136365078E+03  0.12699999809E+01 0.  1.
</event>
<event>
 5   0  0.2356769E-03  0.1309440E+04  0.7818609E-02  0.9022113E-01
       -1   -1    0    0    0  501  0.00000000000E+00  0.00000000000E+00  0.38491174820E+03  0.38491174824E+03  0.50400001928E-02 0. -1.
        1   -1    0    0  501    0  0.00000000000E+00  0.00000000000E+00 -0.11136531657E+04  0.11136531657E+04  0.50400001928E-02 0.  1.
    10030    2    1    2    0    0  0.00000000000E+00  0.00000000000E+00 -0.72874141745E+03  0.14985649139E+04  0.13094398603E+04 0.  0.
        1    1    3    3  502    0  0.23245074710E+03  0.95899591933E+02  0.32744588754E+03  0.41285698596E+03  0.50400001928E-02 0. -1.
       -1    1    3    3    0  502 -0.23245074710E+03 -0.95899591933E+02 -0.10561873050E+04  0.10857079279E+04  0.50400001928E-02 0.  1.
</event>
<event>
 5   0  0.2356769E-03  0.8245943E+03  0.7818609E-02  0.9525085E-01
        1   -1    0    0  501    0  0.00000000000E+00  0.00000000000E+00  0.58651918392E+03  0.58651918395E+03  0.50400001928E-02 0. -1.
       -1   -1    0    0    0  501  0.00000000000E+00  0.00000000000E+00 -0.28982670885E+03  0.28982670890E+03  0.50400001928E-02 0.  1.
    10030    2    1    2    0    0  0.00000000000E+00  0.00000000000E+00  0.29669247507E+03  0.87634589284E+03  0.82459426334E+03 0.  0.
        1    1    3    3  502    0 -0.20222947556E+03 -0.33537436900E+03  0.28534008325E+03  0.48455308409E+03  0.50400001928E-02 0.  1.
       -1    1    3    3    0  502  0.20222947556E+03  0.33537436900E+03  0.11352391823E+02  0.39179280875E+03  0.50400001928E-02 0. -1.
</event>
<event>
 5   0  0.2356769E-03  0.1037989E+04  0.7818609E-02  0.9267833E-01
       -1   -1    0    0    0  501  0.00000000000E+00  0.00000000000E+00  0.14032176570E+03  0.14032176579E+03  0.50400001928E-02 0.  1.
        1   -1    0    0  501    0  0.00000000000E+00  0.00000000000E+00 -0.19195559881E+04  0.19195559881E+04  0.50400001928E-02 0. -1.
    10030    2    1    2    0    0  0.00000000000E+00  0.00000000000E+00 -0.17792342224E+04  0.20598777539E+04  0.10379893751E+04 0.  0.
        1    1    3    3  502    0 -0.66914745767E+02  0.47251680361E+03 -0.48483124883E+03  0.68030217754E+03  0.50400001928E-02 0.  1.
       -1    1    3    3    0  502  0.66914745767E+02 -0.47251680361E+03 -0.12944029735E+04  0.13795755763E+04  0.50400001928E-02 0. -1.
</event>
<event>
 5   0  0.2458456E-03  0.1317891E+04  0.7818609E-02  0.9015497E-01
        1   -1    0    0  501    0  0.00000000000E+00  0.00000000000E+00  0.83236487144E+03  0.83236487146E+03  0.50400001928E-02 0. -1.
       -1   -1    0    0    0  501  0.00000000000E+00  0.00000000000E+00 -0.52165718847E+03  0.52165718849E+03  0.50400001928E-02 0.  1.
    10030    2    1    2    0    0  0.00000000000E+00  0.00000000000E+00  0.31070768297E+03  0.13540220599E+04  0.13178909191E+04 0.  0.
        5    1    3    3  502    0 -0.68723032136E+02 -0.55689033322E+03  0.51027707824E+03  0.75845532825E+03  0.46999998093E+01 0. -1.
       -5    1    3    3    0  502  0.68723032136E+02  0.55689033322E+03 -0.19956939526E+03  0.59556673170E+03  0.46999998093E+01 0.  1.
</event>
<event>
 5   0  0.2458456E-03  0.1299550E+04  0.7818609E-02  0.9029922E-01
       -1   -1    0    0    0  501  0.00000000000E+00  0.00000000000E+00  0.26713714800E+03  0.26713714804E+03  0.50400001928E-02 0. -1.
        1   -1    0    0  501    0  0.00000000000E+00  0.00000000000E+00 -0.15804896828E+04  0.15804896828E+04  0.50400001928E-02 0.  1.
    10030    2    1    2    0    0  0.00000000000E+00  0.00000000000E+00 -0.13133525348E+04  0.18476268308E+04  0.12995499319E+04 0.  0.
        5    1    3    3  502    0  0.15080190447E+02 -0.33959056215E+02 -0.15789537919E+04  0.15793979222E+04  0.46999998093E+01 0.  1.
       -5    1    3    3    0  502 -0.15080190447E+02  0.33959056215E+02  0.26560125713E+03  0.26822890864E+03  0.46999998093E+01 0. -1.
</event>
<event>
 5   0  0.2462055E-03  0.1251068E+04  0.7818609E-02  0.9069295E-01
        1   -1    0    0  501    0  0.00000000000E+00  0.00000000000E+00  0.59352147333E+03  0.59352147335E+03  0.50400001928E-02 0.  1.
       -1   -1    0    0    0  501  0.00000000000E+00  0.00000000000E+00 -0.65927344385E+03  0.65927344386E+03  0.50400001928E-02 0. -1.
    10030    2    1    2    0    0  0.00000000000E+00  0.00000000000E+00 -0.65751970516E+02  0.12527949172E+04  0.12510682567E+04 0.  0.
        2    1    3    3  502    0 -0.79875226424E+01  0.53489838299E+03  0.29178261716E+03  0.60935800342E+03  0.25500000920E-02 0.  1.
       -2    1    3    3    0  502  0.79875226424E+01 -0.53489838299E+03 -0.35753458768E+03  0.64343691380E+03  0.25500000920E-02 0. -1.
</event>
<event>
 5   0  0.2462055E-03  0.1335666E+04  0.7818609E-02  0.9001751E-01
       -1   -1    0    0    0  501  0.00000000000E+00  0.00000000000E+00  0.68489984964E+03  0.68489984966E+03  0.50400001928E-02 0. -1.
        1   -1    0    0  501    0  0.00000000000E+00  0.00000000000E+00 -0.65119102178E+03  0.65119102180E+03  0.50400001928E-02 0.  1.
    10030    2    1    2    0    0  0.00000000000E+00  0.00000000000E+00  0.33708827861E+02  0.13360908715E+04  0.13356655763E+04 0.  0.
        2    1    3    3  502    0  0.34470661182E+02 -0.45489897672E+03 -0.47102962962E+03  0.65573639329E+03  0.25500000920E-02 0.  1.
       -2    1    3    3    0  502 -0.34470661182E+02  0.45489897672E+03  0.50473845748E+03  0.68035447817E+03  0.25500000920E-02 0. -1.
</event>
<event>
 5   0  0.2462055E-03  0.1349979E+04  0.7818609E-02  0.8990844E-01
       -1   -1    0    0    0  501  0.00000000000E+00  0.00000000000E+00  0.47406756760E+03  0.47406756762E+03  0.50400001928E-02 0. -1.
        1   -1    0    0  501    0  0.00000000000E+00  0.00000000000E+00 -0.96106750132E+03  0.96106750133E+03  0.50400001928E-02 0.  1.
    10030    2    1    2    0    0  0.00000000000E+00  0.00000000000E+00 -0.48699993372E+03  0.14351350690E+04  0.13499791594E+04 0.  0.
        2    1    3    3  502    0  0.32304531479E+03 -0.22231089254E+03  0.34054635341E+03  0.51937676804E+03  0.25500000920E-02 0. -1.
       -2    1    3    3    0  502 -0.32304531479E+03  0.22231089254E+03 -0.82754628713E+03  0.91575830092E+03  0.25500000920E-02 0.  1.
</event>
<event>
 5   0  0.4388937E-03  0.1296291E+04  0.7818609E-02  0.9032512E-01
        2   -1    0    0  501    0  0.00000000000E+00  0.00000000000E+00  0.87783858517E+03  0.87783858518E+03  0.25500000920E-02 0.  1.
       -2   -1    0    0    0  501  0.00000000000E+00  0.00000000000E+00 -0.47855305661E+03  0.47855305661E+03  0.25500000920E-02 0. -1.
    10030    2    1    2    0    0  0.00000000000E+00  0.00000000000E+00  0.39928552857E+03  0.13563916418E+04  0.12962906127E+04 0.  0.
        5    1    3    3  502    0 -0.16967444353E+03  0.33475707346E+03 -0.35326775109E+03  0.51543370959E+03  0.46999998093E+01 0. -1.
       -5    1    3    3    0  502  0.16967444353E+03 -0.33475707346E+03  0.75255327965E+03  0.84095793220E+03  0.46999998093E+01 0.  1.
</event>
<event>
 5   0  0.2356769E-03  0.1244949E+04  0.7818609E-02  0.9074398E-01
       -1   -1    0    0    0  501  0.00000000000E+00  0.00000000000E+00  0.46248007017E+03  0.46248007020E+03  0.50400001928E-02 0.  1.
        1   -1    0    0  501    0  0.00000000000E+00  0.00000000000E+00 -0.83781864536E+03  0.83781864537E+03  0.50400001928E-02 0. -1.
    10030    2    1    2    0    0  0.00000000000E+00  0.00000000000E+00 -0.37533857518E+03  0.13002987156E+04  0.12449488759E+04 0.  0.
        1    1    3    3  502    0  0.85538585913E+02  0.53233528221E+03  0.13725118290E+03  0.55635922712E+03  0.50400001928E-02 0.  1.
       -1    1    3    3    0  502 -0.85538585913E+02 -0.53233528221E+03 -0.51258975808E+03  0.74393948845E+03  0.50400001928E-02 0. -1.
</event>
<event>
 5   0  0.2458456E-03  0.1323178E+04  0.7818609E-02  0.9011384E-01
        1   -1    0    0  501    0  0.00000000000E+00  0.00000000000E+00  0.30960908088E+03  0.30960908092E+03  0.50400001928E-02 0.  1.
       -1   -1    0    0    0  501  0.00000000000E+00  0.00000000000E+00 -0.14137192258E+04  0.14137192258E+04  0.50400001928E-02 0. -1.
    10030    2    1    2    0    0  0.00000000000E+00  0.00000000000E+00 -0.11041101449E+04  0.17233283068E+04  0.13231784614E+04 0.  0.
        5    1    3    3  502    0 -0.10600214036E+03  0.34904421831E+03 -0.12708774786E+04  0.13222026984E+04  0.46999998093E+01 0. -1.
       -5    1    3    3    0  502  0.10600214036E+03 -0.34904421831E+03  0.16676733364E+03  0.40112560834E+03  0.46999998093E+01 0.  1.
</event>
<event>
 5   0  0.4306214E-03  0.1291989E+04  0.7818609E-02  0.9035942E-01
        2   -1    0    0  501    0  0.00000000000E+00  0.00000000000E+00  0.13472609291E+04  0.13472609291E+04  0.25500000920E-02 0. -1.
       -2   -1    0    0    0  501  0.00000000000E+00  0.00000000000E+00 -0.30974629743E+03  0.30974629744E+03  0.25500000920E-02 0.  1.
    10030    2    1    2    0    0  0.00000000000E+00  0.00000000000E+00  0.10375146317E+04  0.16570072265E+04  0.12919892948E+04 0.  0.
        3    1    3    3  502    0 -0.79315848264E+02 -0.64099466831E+03  0.50337206934E+03  0.81887033100E+03  0.10100000352E+00 0.  1.
       -3    1    3    3    0  502  0.79315848264E+02  0.64099466831E+03  0.53414256233E+03  0.83813689555E+03  0.10100000352E+00 0. -1.
</event>
<event>
 5   0  0.2511542E-03  0.1273829E+04  0.7818609E-02  0.9050581E-01
        1   -1    0    0  501    0  0.00000000000E+00  0.00000000000E+00  0.92349497791E+03  0.92349497792E+03  0.50400001928E-02 0. -1.
       -1   -1    0    0    0  501  0.00000000000E+00  0.00000000000E+00 -0.43926596129E+03  0.43926596132E+03  0.50400001928E-02 0.  1.
    10030    2    1    2    0    0  0.00000000000E+00  0.00000000000E+00  0.48422901661E+03  0.13627609392E+04  0.12738287314E+04 0.  0.
        4    1    3    3  502    0 -0.45731275816E+03 -0.25791948153E+03  0.62784305451E+03  0.81844115960E+03  0.12699999809E+01 0. -1.
       -4    1    3    3    0  502  0.45731275816E+03  0.25791948153E+03 -0.14361403790E+03  0.54431977964E+03  0.12699999809E+01 0.  1.
</event>
<event>
 5   0  0.4310889E-03  0.1278705E+04  0.7818609E-02  0.9046625E-01
       -2   -1    0    0    0  501  0.00000000000E+00  0.00000000000E+00  0.33349712916E+03  0.33349712917E+03  0.25500000920E-02 0. -1.
        2   -1    0    0  501    0  0.00000000000E+00  0.00000000000E+00 -0.12257124822E+04  0.12257124822E+04  0.25500000920E-02 0.  1.
    10030    2    1    2    0    0  0.00000000000E+00  0.00000000000E+00 -0.89221535308E+03  0.15592096114E+04  0.12787049605E+04 0.  0.
        4    1    3    3  502    0  0.29116605156E+03  0.19271813858E+03 -0.10991827645E+04  0.11533092877E+04  0.12699999809E+01 0.  1.
       -4    1    3    3    0  502 -0.29116605156E+03 -0.19271813858E+03  0.20696741138E+03  0.40590032371E+03  0.12699999809E+01 0. -1.
</event>
<event>
 5   0  0.4453011E-03  0.1303014E+04  0.7818609E-02  0.9027178E-01
       -2   -1    0    0    0  501  0.00000000000E+00  0.00000000000E+00  0.49145404482E+03  0.49145404482E+03  0.25500000920E-02 0. -1.
        2   -1    0    0  501    0  0.00000000000E+00  0.00000000000E+00 -0.86368513938E+03  0.86368513939E+03  0.25500000920E-02 0.  1.
    10030    2    1    2    0    0  0.00000000000E+00  0.00000000000E+00 -0.37223109456E+03  0.13551391842E+04  0.13030142827E+04 0.  0.
        1    1    3    3  502    0  0.40661469976E+03  0.30149864630E+03  0.24044382514E+03  0.56040180304E+03  0.50400001928E-02 0. -1.
       -1    1    3    3    0  502 -0.40661469976E+03 -0.30149864630E+03 -0.61267491970E+03  0.79473738117E+03  0.50400001928E-02 0.  1.
</event>
<event>
 5   0  0.2370801E-03  0.1361257E+04  0.7818609E-02  0.8982350E-01
        1   -1    0    0  501    0  0.00000000000E+00  0.00000000000E+00  0.10333937892E+04  0.10333937893E+04  0.50400001928E-02 0.  1.
       -1   -1    0    0    0  501  0.00000000000E+00  0.00000000000E+00 -0.44828552368E+03  0.44828552371E+03  0.50400001928E-02 0. -1.
    10030    2    1    2    0    0  0.00000000000E+00  0.00000000000E+00  0.58510826557E+03  0.14816793130E+04  0.13612574716E+04 0.  0.
        3    1    3    3  502    0  0.31419280550E+03 -0.35759021492E+03  0.82207530613E+03  0.94994510367E+03  0.10100000352E+00 0.  1.
       -3    1    3    3    0  502 -0.31419280550E+03  0.35759021492E+03 -0.23696704056E+03  0.53173420931E+03  0.10100000352E+00 0. -1.
</event>
<event>
 5   0  0.4306214E-03  0.1296892E+04  0.7818609E-02  0.9032034E-01
       -2   -1    0    0    0  501  0.00000000000E+00  0.00000000000E+00  0.37141521521E+03  0.37141521522E+03  0.25500000920E-02 0. -1.
        2   -1    0    0  501    0  0.00000000000E+00  0.00000000000E+00 -0.11321080356E+04  0.11321080356E+04  0.25500000920E-02 0.  1.
    10030    2    1    2    0    0  0.00000000000E+00  0.00000000000E+00 -0.76069282039E+03  0.15035232508E+04  0.12968918994E+04 0.  0.
        3    1    3    3  502    0  0.59389899704E+03 -0.24599539966E+03 -0.28161694805E+03  0.70181042381E+03  0.10100000352E+00 0.  1.
       -3    1    3    3    0  502 -0.59389899704E+03  0.24599539966E+03 -0.47907587234E+03  0.80171282701E+03  0.10100000352E+00 0. -1.
</event>
<event>
 5   0  0.2511542E-03  0.1211673E+04  0.7818609E-02  0.9102700E-01
       -1   -1    0    0    0  501  0.00000000000E+00  0.00000000000E+00  0.40050210003E+03  0.40050210006E+03  0.50400001928E-02 0.  1.
        1   -1    0    0  501    0  0.00000000000E+00  0.00000000000E+00 -0.91644422493E+03  0.91644422495E+03  0.50400001928E-02 0. -1.
    10030    2    1    2    0    0  0.00000000000E+00  0.00000000000E+00 -0.51594212490E+03  0.13169463250E+04  0.12116729537E+04 0.  0.
        4    1    3    3  502    0 -0.33712484847E+03  0.91135426625E+02 -0.79603549863E+03  0.86927150961E+03  0.12699999809E+01 0. -1.
       -4    1    3    3    0  502  0.33712484847E+03 -0.91135426625E+02  0.28009337373E+03  0.44767481540E+03  0.12699999809E+01 0.  1.
</event>
<event>
 5   0  0.4263540E-03  0.1255222E+04  0.7818609E-02  0.9065848E-01
        2   -1    0    0  501    0  0.00000000000E+00  0.00000000000E+00  0.19168590929E+04  0.19168590929E+04  0.25500000920E-02 0. -1.
       -2   -1    0    0    0  501  0.00000000000E+00  0.00000000000E+00 -0.20549000223E+03  0.20549000225E+03  0.25500000920E-02 0.  1.
    10030    2    1    2    0    0  0.00000000000E+00  0.00000000000E+00  0.17113690906E+04  0.21223490951E+04  0.12552217004E+04 0.  0.
        2    1    3    3  502    0  0.19330258373E+03 -0.14301662808E+03 -0.12451604547E+03  0.27078384437E+03  0.25500000920E-02 0.  1.
       -2    1    3    3    0  502 -0.19330258373E+03  0.14301662808E+03  0.18358851361E+04  0.18515652508E+04  0.25500000920E-02 0. -1.
</event>
<event>
 5   0  0.2511542E-03  0.1304327E+04  0.7818609E-02  0.9026141E-01
       -1   -1    0    0    0  501  0.00000000000E+00  0.00000000000E+00  0.37625174956E+03  0.37625174959E+03  0.50400001928E-02 0.  1.
        1   -1    0    0  501    0  0.00000000000E+00  0.00000000000E+00 -0.11304052210E+04  0.11304052210E+04  0.50400001928E-02 0. -1.
    10030    2    1    2    0    0  0.00000000000E+00  0.00000000000E+00 -0.75415347144E+03  0.15066569706E+04  0.13043265575E+04 0.  0.
        4    1    3    3  502    0 -0.63568766271E+03 -0.37513088067E+02 -0.21449845170E+03  0.67195032181E+03  0.12699999809E+01 0.  1.
       -4    1    3    3    0  502  0.63568766271E+03  0.37513088067E+02 -0.53965501975E+03  0.83470664879E+03  0.12699999809E+01 0. -1.
</event>
<event>
 5   0  0.2511542E-03  0.1322481E+04  0.7818609E-02  0.9011925E-01
       -1   -1    0    0    0  501  0.00000000000E+00  0.00000000000E+00  0.43396283316E+03  0.43396283319E+03  0.50400001928E-02 0. -1.
        1   -1    0    0  501    0  0.00000000000E+00  0.00000000000E+00 -0.10075499276E+04  0.10075499276E+04  0.50400001928E-02 0.  1.
    10030    2    1    2    0    0  0.00000000000E+00  0.00000000000E+00 -0.57358709440E+03  0.14415127608E+04  0.13224813362E+04 0.  0.
        4    1    3    3  502    0 -0.17163964647E+03 -0.44716701284E+03 -0.78369660832E+03  0.91847726832E+03  0.12699999809E+01 0.  1.
       -4    1    3    3    0  502  0.17163964647E+03  0.44716701284E+03  0.21010951393E+03  0.52303549244E+03  0.12699999809E+01 0. -1.
</event>
<event>
 5   0  0.2462055E-03  0.1228382E+04  0.7818609E-02  0.9088371E-01
       -1   -1    0    0    0  501  0.00000000000E+00  0.00000000000E+00  0.48342695706E+03  0.48342695709E+03  0.50400001928E-02 0. -1.
        1   -1    0    0  501    0  0.00000000000E+00  0.00000000000E+00 -0.78032553193E+03  0.78032553195E+03  0.50400001928E-02 0.  1.
    10030    2    1    2    0    0  0.00000000000E+00  0.00000000000E+00 -0.29689857487E+03  0.12637524890E+04  0.12283816955E+04 0.  0.
        2    1    3    3  502    0  0.88504271688E+02  0.60384277135E+03 -0.77385721572E+02  0.61518098843E+03  0.25500000920E-02 0.  1.
       -2    1    3    3    0  502 -0.88504271688E+02 -0.60384277135E+03 -0.21951285330E+03  0.64857150060E+03  0.25500000920E-02 0. -1.
</event>
<event>
 5   0  0.4263540E-03  0.7142861E+03  0.7818609E-02  0.9693108E-01
        2   -1    0    0  501    0  0.00000000000E+00  0.00000000000E+00  0.22808657497E+04  0.22808657497E+04  0.25500000920E-02 0.  1.
       -2   -1    0    0    0  501  0.00000000000E+00  0.00000000000E+00 -0.55922248149E+02  0.55922248207E+02  0.25500000920E-02 0. -1.
    10030    2    1    2    0    0  0.00000000000E+00  0.00000000000E+00  0.22249435015E+04  0.23367879979E+04  0.71428605059E+03 0.  0.
        2    1    3    3  502    0 -0.11785387028E+03 -0.26578147411E+03  0.43390667662E+03  0.52230674008E+03  0.25500000920E-02 0. -1.
       -2    1    3    3    0  502  0.11785387028E+03  0.26578147411E+03  0.17910368249E+04  0.18144812578E+04  0.25500000920E-02 0.  1.
</event>
<event>
 5   0  0.4453011E-03  0.1301363E+04  0.7818609E-02  0.9028485E-01
        2   -1    0    0  501    0  0.00000000000E+00  0.00000000000E+00  0.15786184703E+04  0.15786184703E+04  0.25500000920E-02 0. -1.
       -2   -1    0    0    0  501  0.00000000000E+00  0.00000000000E+00 -0.26820048808E+03  0.26820048809E+03  0.25500000920E-02 0.  1.
    10030    2    1    2    0    0  0.00000000000E+00  0.00000000000E+00  0.13104179823E+04  0.18468189584E+04  0.13013627384E+04 0.  0.
        1    1    3    3  502    0 -0.22103096485E+02  0.23069913162E+03 -0.20764309713E+03  0.31116923372E+03  0.50400001928E-02 0.  1.
       -1    1    3    3    0  502  0.22103096485E+02 -0.23069913162E+03  0.15180610794E+04  0.15356497247E+04  0.50400001928E-02 0. -1.
</event>
<event>
 5   0  0.4388937E-03  0.1211569E+04  0.7818609E-02  0.9102790E-01
       -2   -1    0    0    0  501  0.00000000000E+00  0.00000000000E+00  0.77921531299E+03  0.77921531300E+03  0.25500000920E-02 0. -1.
        2   -1    0    0  501    0  0.00000000000E+00  0.00000000000E+00 -0.47095461591E+03  0.47095461591E+03  0.25500000920E-02 0.  1.
    10030    2    1    2    0    0  0.00000000000E+00  0.00000000000E+00  0.30826069709E+03  0.12501699289E+04  0.12115693104E+04 0.  0.
        5    1    3    3  502    0 -0.18437286565E+03 -0.27175012343E+03  0.67937798637E+03  0.75459792044E+03  0.46999998093E+01 0. -1.
       -5    1    3    3    0  502  0.18437286565E+03  0.27175012343E+03 -0.37111728928E+03  0.49557200847E+03  0.46999998093E+01 0.  1.
</event>
<event>
 5   0  0.4453011E-03  0.1278539E+04  0.7818609E-02  0.9046759E-01
        2   -1    0    0  501    0  0.00000000000E+00  0.00000000000E+00  0.10909338363E+04  0.10909338363E+04  0.25500000920E-02 0.  1.
       -2   -1    0    0    0  501  0.00000000000E+00  0.00000000000E+00 -0.37460166140E+03  0.37460166140E+03  0.25500000920E-02 0. -1.
    10030    2    1    2    0    0  0.00000000000E+00  0.00000000000E+00  0.71633217495E+03  0.14655354978E+04  0.12785392095E+04 0.  0.
        1    1    3    3  502    0 -0.25516204807E+03 -0.58594736672E+03  0.37530791957E+03  0.74114642403E+03  0.50400001928E-02 0. -1.
       -1    1    3    3    0  502  0.25516204807E+03  0.58594736672E+03  0.34102425538E+03  0.72438907372E+03  0.50400001928E-02 0.  1.
</event>
<event>
 5   0  0.2356769E-03  0.1265309E+04  0.7818609E-02  0.9057537E-01
       -1   -1    0    0    0  501  0.00000000000E+00  0.00000000000E+00  0.19325157192E+03  0.19325157199E+03  0.50400001928E-02 0. -1.
        1   -1    0    0  501    0  0.00000000000E+00  0.00000000000E+00 -0.20711447879E+04  0.20711447879E+04  0.50400001928E-02 0.  1.
    10030    2    1    2    0    0  0.00000000000E+00  0.00000000000E+00 -0.18778932160E+04  0.22643963599E+04  0.12653094262E+04 0.  0.
        1    1    3    3  502    0  0.55446391939E+03  0.42114137188E+02 -0.39894971414E+03  0.68437176512E+03  0.50400001928E-02 0. -1.
       -1    1    3    3    0  502 -0.55446391939E+03 -0.42114137188E+02 -0.14789435019E+04  0.15800245948E+04  0.50400001928E-02 0.  1.
</event>
<event>
 5   0  0.4388937E-03  0.1422825E+04  0.7818609E-02  0.8937460E-01
       -2   -1    0    0    0  501  0.00000000000E+00  0.00000000000E+00  0.29661190361E+03  0.29661190362E+03  0.25500000920E-02 0.  1.
        2   -1    0    0  501    0  0.00000000000E+00  0.00000000000E+00 -0.17062966255E+04  0.17062966255E+04  0.25500000920E-02 0. -1.
    10030    2    1    2    0    0  0.00000000000E+00  0.00000000000E+00 -0.14096847219E+04  0.20029085292E+04  0.14228252039E+04 0.  0.
        5    1    3    3  502    0  0.35638194771E+03 -0.34878701510E+02 -0.15701602989E+04  0.16104813164E+04  0.46999998093E+01 0. -1.
       -5    1    3    3    0  502 -0.35638194771E+03  0.34878701510E+02  0.16047557695E+03  0.39242721271E+03  0.46999998093E+01 0.  1.
</event>
<event>
 5   0  0.1661750E-03  0.1310906E+04  0.7818609E-02  0.9020961E-01
        3   -1    0    0  501    0  0.00000000000E+00  0.00000000000E+00  0.12818246839E+04  0.12818246879E+04  0.10100000352E+00 0. -1.
       -3   -1    0    0    0  501  0.00000000000E+00  0.00000000000E+00 -0.33516161963E+03  0.33516163485E+03  0.10100000352E+00 0.  1.
    10030    2    1    2    0    0  0.00000000000E+00  0.00000000000E+00  0.94666306430E+03  0.16169863228E+04  0.13109057215E+04 0.  0.
        4    1    3    3  502    0  0.41721037615E+03 -0.45232258610E+03  0.19488924422E+03  0.64547939570E+03  0.12699999809E+01 0.  1.
       -4    1    3    3    0  502 -0.41721037615E+03  0.45232258610E+03  0.75177382008E+03  0.97150692706E+03  0.12699999809E+01 0. -1.
</event>
<event>
 5   0  0.4310889E-03  0.1309297E+04  0.7818609E-02  0.9022225E-01
        2   -1    0    0  501    0  0.00000000000E+00  0.00000000000E+00  0.10503520973E+04  0.10503520973E+04  0.25500000920E-02 0.  1.
       -2   -1    0    0    0  501  0.00000000000E+00  0.00000000000E+00 -0.40801975600E+03  0.40801975601E+03  0.25500000920E-02 0. -1.
    10030    2    1    2    0    0  0.00000000000E+00  0.00000000000E+00  0.64233234133E+03  0.14583718533E+04  0.13092966149E+04 0.  0.
        4    1    3    3  502    0 -0.59478799520E+03 -0.27218751025E+03  0.35072005604E+03  0.74220278266E+03  0.12699999809E+01 0.  1.
       -4    1    3    3    0  502  0.59478799520E+03  0.27218751025E+03  0.29161228528E+03  0.71616907068E+03  0.12699999809E+01 0. -1.
</event>
<event>
 5   0  0.4310889E-03  0.1195862E+04  0.7818609E-02  0.9116487E-01
       -2   -1    0    0    0  501  0.00000000000E+00  0.00000000000E+00  0.41611334755E+03  0.41611334755E+03  0.25500000920E-02 0. -1.
        2   -1    0    0  501    0  0.00000000000E+00  0.00000000000E+00 -0.85919206909E+03  0.85919206909E+03  0.25500000920E-02 0.  1.
    10030    2    1    2    0    0  0.00000000000E+00  0.00000000000E+00 -0.44307872154E+03  0.12753054166E+04  0.11958616777E+04 0.  0.
        4    1    3    3  502    0  0.22357292803E+01  0.50969463849E+03 -0.55491850924E+03  0.75347845874E+03  0.12699999809E+01 0.  1.
       -4    1    3    3    0  502 -0.22357292803E+01 -0.50969463849E+03  0.11183978770E+03  0.52182695791E+03  0.12699999809E+01 0. -1.
</event>
<event>
 5   0  0.2462055E-03  0.1304591E+04  0.7818609E-02  0.9025933E-01
       -1   -1    0    0    0  501  0.00000000000E+00  0.00000000000E+00  0.81517028898E+03  0.81517028900E+03  0.50400001928E-02 0. -1.
        1   -1    0    0  501    0  0.00000000000E+00  0.00000000000E+00 -0.52196350449E+03  0.52196350452E+03  0.50400001928E-02 0.  1.
    10030    2    1    2    0    0  0.00000000000E+00  0.00000000000E+00  0.29320678449E+03  0.13371337935E+04  0.13045905731E+04 0.  0.
        2    1    3    3  502    0 -0.56573556788E+03  0.24704084281E+03 -0.69373809758E+02  0.62120740197E+03  0.25500000920E-02 0.  1.
       -2    1    3    3    0  502  0.56573556788E+03 -0.24704084281E+03  0.36258059425E+03  0.71592639154E+03  0.25500000920E-02 0. -1.
</event>
<event>
 5   0  0.2356769E-03  0.1299974E+04  0.7818609E-02  0.9029586E-01
       -1   -1    0    0    0  501  0.00000000000E+00  0.00000000000E+00  0.47490705908E+03  0.47490705910E+03  0.50400001928E-02 0.  1.
        1   -1    0    0  501    0  0.00000000000E+00  0.00000000000E+00 -0.88961233623E+03  0.88961233624E+03  0.50400001928E-02 0. -1.
    10030    2    1    2    0    0  0.00000000000E+00  0.00000000000E+00 -0.41470527715E+03  0.13645193953E+04  0.12999741203E+04 0.  0.
        1    1    3    3  502    0  0.36466884693E+03 -0.30460161677E+03 -0.67290302076E+03  0.82374995492E+03  0.50400001928E-02 0. -1.
       -1    1    3    3    0  502 -0.36466884693E+03  0.30460161677E+03  0.25819774361E+03  0.54076944042E+03  0.50400001928E-02 0.  1.
</event>
<event>
 5   0  0.2458456E-03  0.1308104E+04  0.7818609E-02  0.9023164E-01
       -1   -1    0    0    0  501  0.00000000000E+00  0.00000000000E+00  0.46185381644E+03  0.46185381647E+03  0.50400001928E-02 0. -1.
        1   -1    0    0  501    0  0.00000000000E+00  0.00000000000E+00 -0.92623188250E+03  0.92623188251E+03  0.50400001928E-02 0.  1.
    10030    2    1    2    0    0  0.00000000000E+00  0.00000000000E+00 -0.46437806605E+03  0.13880856990E+04  0.13081035584E+04 0.  0.
        5    1    3    3  502    0  0.58560651824E+02  0.49232913198E+03  0.22044103313E+03  0.54261741883E+03  0.46999998093E+01 0. -1.
       -5    1    3    3    0  502 -0.58560651824E+02 -0.49232913198E+03 -0.68481909918E+03  0.84546828015E+03  0.46999998093E+01 0.  1.
</event>
<event>
 5   0  0.4310889E-03  0.1339275E+04  0.7818609E-02  0.8998987E-01
        2   -1    0    0  501    0  0.00000000000E+00  0.00000000000E+00  0.92416667709E+03  0.92416667710E+03  0.25500000920E-02 0. -1.
       -2   -1    0    0    0  501  0.00000000000E+00  0.00000000000E+00 -0.48520951384E+03  0.48520951385E+03  0.25500000920E-02 0.  1.
    10030    2    1    2    0    0  0.00000000000E+00  0.00000000000E+00  0.43895716325E+03  0.14093761909E+04  0.13392751235E+04 0.  0.
        4    1    3    3  502    0 -0.41391595323E+03  0.93656050809E+02  0.76458285620E+03  0.87446350929E+03  0.12699999809E+01 0. -1.
       -4    1    3    3    0  502  0.41391595323E+03 -0.93656050809E+02 -0.32562569294E+03  0.53491268165E+03  0.12699999809E+01 0.  1.
</event>
<event>
 5   0  0.4388937E-03  0.1343691E+04  0.7818609E-02  0.8995617E-01
        2   -1    0    0  501    0  0.00000000000E+00  0.00000000000E+00  0.10747736628E+04  0.10747736628E+04  0.25500000920E-02 0. -1.
       -2   -1    0    0    0  501  0.00000000000E+00  0.00000000000E+00 -0.41997363245E+03  0.41997363246E+03  0.25500000920E-02 0.  1.
    10030    2    1    2    0    0  0.00000000000E+00  0.00000000000E+00  0.65480003036E+03  0.14947472953E+04  0.13436913325E+04 0.  0.
        5    1    3    3  502    0  0.28107655459E+03 -0.43884009997E+02 -0.34964604279E+03  0.45078185535E+03  0.46999998093E+01 0.  1.
       -5    1    3    3    0  502 -0.28107655459E+03  0.43884009997E+02  0.10044460731E+04  0.10439654399E+04  0.46999998093E+01 0. -1.
</event>
<event>
 5   0  0.4453011E-03  0.1192648E+04  0.7818609E-02  0.9119316E-01
        2   -1    0    0  501    0  0.00000000000E+00  0.00000000000E+00  0.11916334305E+04  0.11916334305E+04  0.25500000920E-02 0. -1.
       -2   -1    0    0    0  501  0.00000000000E+00  0.00000000000E+00 -0.29841600270E+03  0.29841600271E+03  0.25500000920E-02 0.  1.
    10030    2    1    2    0    0  0.00000000000E+00  0.00000000000E+00  0.89321742779E+03  0.14900494332E+04  0.11926482885E+04 0.  0.
        1    1    3    3  502    0 -0.48165901842E+03  0.11173238930E+03  0.30132536355E+02  0.49536603297E+03  0.50400001928E-02 0.  1.
       -1    1    3    3    0  502  0.48165901842E+03 -0.11173238930E+03  0.86308489144E+03  0.99468340023E+03  0.50400001928E-02 0. -1.
</event>
<event>
 5   0  0.4453011E-03  0.1284578E+04  0.7818609E-02  0.9041885E-01
       -2   -1    0    0    0  501  0.00000000000E+00  0.00000000000E+00  0.86583372325E+03  0.86583372325E+03  0.25500000920E-02 0.  1.
        2   -1    0    0  501    0  0.00000000000E+00  0.00000000000E+00 -0.47645971492E+03  0.47645971493E+03  0.25500000920E-02 0. -1.
    10030    2    1    2    0    0  0.00000000000E+00  0.00000000000E+00  0.38937400832E+03  0.13422934382E+04  0.12845775787E+04 0.  0.
        1    1    3    3  502    0 -0.22856219670E+03 -0.51389357847E+03 -0.12942254202E+03  0.57712865304E+03  0.50400001928E-02 0. -1.
       -1    1    3    3    0  502  0.22856219670E+03  0.51389357847E+03  0.51879655034E+03  0.76516478514E+03  0.50400001928E-02 0.  1.
</event>
<event>
 5   0  0.2458456E-03  0.1248314E+04  0.7818609E-02  0.9071588E-01
       -1   -1    0    0    0  501  0.00000000000E+00  0.00000000000E+00  0.43432896442E+03  0.43432896445E+03  0.50400001928E-02 0. -1.
        1   -1    0    0  501    0  0.00000000000E+00  0.00000000000E+00 -0.89695139226E+03  0.89695139228E+03  0.50400001928E-02 0.  1.
    10030    2    1    2    0    0  0.00000000000E+00  0.00000000000E+00 -0.46262242784E+03  0.13312803567E+04  0.12483140140E+04 0.  0.
        5    1    3    3  502    0  0.87483655769E+02 -0.30450389581E+03 -0.80480035506E+03  0.86492873353E+03  0.46999998093E+01 0.  1.
       -5    1    3    3    0  502 -0.87483655769E+02  0.30450389581E+03  0.34217792721E+03  0.46635162320E+03  0.46999998093E+01 0. -1.
</event>
<event>
 5   0  0.2458456E-03  0.1298733E+04  0.7818609E-02  0.9030571E-01
       -1   -1    0    0    0  501  0.00000000000E+00  0.00000000000E+00  0.30152284628E+03  0.30152284632E+03  0.50400001928E-02 0.  1.
        1   -1    0    0  501    0  0.00000000000E+00  0.00000000000E+00 -0.13984899811E+04  0.13984899811E+04  0.50400001928E-02 0. -1.
    10030    2    1    2    0    0  0.00000000000E+00  0.00000000000E+00 -0.10969671348E+04  0.17000128274E+04  0.12987327356E+04 0.  0.
        5    1    3    3  502    0  0.62800134191E+03 -0.25877718430E+02 -0.33499870328E+03  0.71225105331E+03  0.46999998093E+01 0.  1.
       -5    1    3    3    0  502 -0.62800134191E+03  0.25877718430E+02 -0.76196843155E+03  0.98776177413E+03  0.46999998093E+01 0. -1.
</event>
<event>
 5   0  0.4310889E-03  0.1421515E+04  0.7818609E-02  0.8938391E-01
        2   -1    0    0  501    0  0.00000000000E+00  0.00000000000E+00  0.15520246791E+04  0.15520246791E+04  0.25500000920E-02 0.  1.
       -2   -1    0    0    0  501  0.00000000000E+00  0.00000000000E+00 -0.32549489063E+03  0.32549489064E+03  0.25500000920E-02 0. -1.
    10030    2    1    2    0    0  0.00000000000E+00  0.00000000000E+00  0.12265297885E+04  0.18775195697E+04  0.14215148303E+04 0.  0.
        4    1    3    3  502    0  0.32153813866E+00 -0.70916982473E+03  0.67595080920E+03  0.97971069865E+03  0.12699999809E+01 0. -1.
       -4    1    3    3    0  502 -0.32153813866E+00  0.70916982473E+03  0.55057897927E+03  0.89780887109E+03  0.12699999809E+01 0.  1.
</event>
<event>
 5   0  0.2511542E-03  0.1291759E+04  0.7818609E-02  0.9036126E-01
       -1   -1    0    0    0  501  0.00000000000E+00  0.00000000000E+00  0.45547687985E+03  0.45547687988E+03  0.50400001928E-02 0.  1.
        1   -1    0    0  501    0  0.00000000000E+00  0.00000000000E+00 -0.91587588053E+03  0.91587588055E+03  0.50400001928E-02 0. -1.
    10030    2    1    2    0    0  0.00000000000E+00  0.00000000000E+00 -0.46039900068E+03  0.13713527604E+04  0.12917589379E+04 0.  0.
        4    1    3    3  502    0 -0.45019332101E+03  0.17399572311E+03  0.22544325909E+03  0.53270518479E+03  0.12699999809E+01 0.  1.
       -4    1    3    3    0  502  0.45019332101E+03 -0.17399572311E+03 -0.68584225976E+03  0.83864757563E+03  0.12699999809E+01 0. -1.
</event>
<event>
 5   0  0.4310889E-03  0.1302741E+04  0.7818609E-02  0.9027395E-01
       -2   -1    0    0    0  501  0.00000000000E+00  0.00000000000E+00  0.50103047235E+03  0.50103047236E+03  0.25500000920E-02 0. -1.
        2   -1    0    0  501    0  0.00000000000E+00  0.00000000000E+00 -0.84682123552E+03  0.84682123552E+03  0.25500000920E-02 0.  1.
    10030    2    1    2    0    0  0.00000000000E+00  0.00000000000E+00 -0.34579076317E+03  0.13478517079E+04  0.13027405630E+04 0.  0.
        4    1    3    3  502    0 -0.18655944605E+03 -0.40668408639E+03 -0.66266384860E+03  0.79957573886E+03  0.12699999809E+01 0.  1.
       -4    1    3    3    0  502  0.18655944605E+03  0.40668408639E+03  0.31687308544E+03  0.54827596902E+03  0.12699999809E+01 0. -1.
</event>
<event>
 5   0  0.2370801E-03  0.1306360E+04  0.7818609E-02  0.9024536E-01
        1   -1    0    0  501    0  0.00000000000E+00  0.00000000000E+00  0.15675065807E+04  0.15675065807E+04  0.50400001928E-02 0. -1.
       -1   -1    0    0    0  501  0.00000000000E+00  0.00000000000E+00 -0.27218028814E+03  0.27218028819E+03  0.50400001928E-02 0.  1.
    10030    2    1    2    0    0  0.00000000000E+00  0.00000000000E+00  0.12953262925E+04  0.18396868689E+04  0.13063604293E+04 0.  0.
        3    1    3    3  502    0 -0.27938812052E+03 -0.23633045740E+03  0.14095981087E+04  0.14563229880E+04  0.10100000352E+00 0. -1.
       -3    1    3    3    0  502  0.27938812052E+03  0.23633045740E+03 -0.11427181622E+03  0.38336388088E+03  0.10100000352E+00 0.  1.
</event>
<event>
 5   0  0.2511542E-03  0.1368832E+04  0.7818609E-02  0.8976693E-01
       -1   -1    0    0    0  501  0.00000000000E+00  0.00000000000E+00  0.19353196575E+04  0.19353196575E+04  0.50400001928E-02 0.  1.
        1   -1    0    0  501    0  0.00000000000E+00  0.00000000000E+00 -0.24204037516E+03  0.24204037521E+03  0.50400001928E-02 0. -1.
    10030    2    1    2    0    0  0.00000000000E+00  0.00000000000E+00  0.16932792824E+04  0.21773600328E+04  0.13688323433E+04 0.  0.
        4    1    3    3  502    0  0.66957217303E+03 -0.13883830548E+03  0.89221484275E+03  0.11241227284E+04  0.12699999809E+01 0. -1.
       -4    1    3    3    0  502 -0.66957217303E+03  0.13883830548E+03  0.80106443962E+03  0.10532373044E+04  0.12699999809E+01 0.  1.
</event>
<event>
 5   0  0.2462055E-03  0.1316781E+04  0.7818609E-02  0.9016362E-01
        1   -1    0    0  501    0  0.00000000000E+00  0.00000000000E+00  0.67597339169E+03  0.67597339171E+03  0.50400001928E-02 0. -1.
       -1   -1    0    0    0  501  0.00000000000E+00  0.00000000000E+00 -0.64126540889E+03  0.64126540891E+03  0.50400001928E-02 0.  1.
    10030    2    1    2    0    0  0.00000000000E+00  0.00000000000E+00  0.34707982801E+02  0.13172388006E+04  0.13167814601E+04 0.  0.
        2    1    3    3  502    0 -0.35387915898E+03 -0.53323171366E+03 -0.13733423272E+03  0.65454351352E+03  0.25500000920E-02 0. -1.
       -2    1    3    3    0  502  0.35387915898E+03  0.53323171366E+03  0.17204221552E+03  0.66269528710E+03  0.25500000920E-02 0.  1.
</event>
<event>
 5   0  0.4453011E-03  0.1304249E+04  0.7818609E-02  0.9026203E-01
       -2   -1    0    0    0  501  0.00000000000E+00  0.00000000000E+00  0.22382623816E+03  0.22382623818E+03  0.25500000920E-02 0. -1.
        2   -1    0    0  501    0  0.00000000000E+00  0.00000000000E+00 -0.18999838331E+04  0.18999838331E+04  0.25500000920E-02 0.  1.
    10030    2    1    2    0    0  0.00000000000E+00  0.00000000000E+00 -0.16761575949E+04  0.21238100712E+04  0.13042488013E+04 0.  0.
        1    1    3    3  502    0  0.11864885154E+03 -0.31904363426E+03 -0.17438432541E+04  0.17767542558E+04  0.50400001928E-02 0.  1.
       -1    1    3    3    0  502 -0.11864885154E+03  0.31904363426E+03  0.67685659232E+02  0.34705581543E+03  0.50400001928E-02 0. -1.
</event>
<event>
 5   0  0.2356769E-03  0.1311241E+04  0.7818609E-02  0.9020698E-01
       -1   -1    0    0    0  501  0.00000000000E+00  0.00000000000E+00  0.31492788523E+03  0.31492788527E+03  0.50400001928E-02 0.  1.
        1   -1    0    0  501    0  0.00000000000E+00  0.00000000000E+00 -0.13648793309E+04  0.13648793309E+04  0.50400001928E-02 0. -1.
    10030    2    1    2    0    0  0.00000000000E+00  0.00000000000E+00 -0.10499514456E+04  0.16798072161E+04  0.13112414900E+04 0.  0.
        1    1    3    3  502    0 -0.58529772465E+03 -0.33870992924E+02 -0.14903146845E+03  0.60492234977E+03  0.50400001928E-02 0.  1.
       -1    1    3    3    0  502  0.58529772465E+03  0.33870992924E+02 -0.90091997717E+03  0.10748848664E+04  0.50400001928E-02 0. -1.
</event>
<event>
 5   0  0.4453011E-03  0.9581799E+03  0.7818609E-02  0.9355640E-01
        2   -1    0    0  501    0  0.00000000000E+00  0.00000000000E+00  0.67419919602E+03  0.67419919602E+03  0.25500000920E-02 0. -1.
       -2   -1    0    0    0  501  0.00000000000E+00  0.00000000000E+00 -0.34044413812E+03  0.34044413813E+03  0.25500000920E-02 0.  1.
    10030    2    1    2    0    0  0.00000000000E+00  0.00000000000E+00  0.33375505790E+03  0.10146433342E+04  0.95817986666E+03 0.  0.
        1    1    3    3  502    0  0.36019593650E+02 -0.24063795796E+02  0.67212116018E+03  0.67351565044E+03  0.50400001928E-02 0. -1.
       -1    1    3    3    0  502 -0.36019593650E+02  0.24063795796E+02 -0.33836610228E+03  0.34112768371E+03  0.50400001928E-02 0.  1.
</event>
<event>
 5   0  0.4263540E-03  0.1318338E+04  0.7818609E-02  0.9015148E-01
        2   -1    0    0  501    0  0.00000000000E+00  0.00000000000E+00  0.80789949943E+03  0.80789949943E+03  0.25500000920E-02 0. -1.
       -2   -1    0    0    0  501  0.00000000000E+00  0.00000000000E+00 -0.53781897696E+03  0.53781897697E+03  0.25500000920E-02 0.  1.
    10030    2    1    2    0    0  0.00000000000E+00  0.00000000000E+00  0.27008052247E+03  0.13457184764E+04  0.13183378661E+04 0.  0.
        2    1    3    3  502    0 -0.36081412117E+03 -0.17282794865E+03 -0.39971739558E+03  0.56553543320E+03  0.25500000920E-02 0.  1.
       -2    1    3    3    0  502  0.36081412117E+03  0.17282794865E+03  0.66979791805E+03  0.78018304320E+03  0.25500000920E-02 0. -1.
</event>
<event>
 5   0  0.4310889E-03  0.1289879E+04  0.7818609E-02  0.9037630E-01
       -2   -1    0    0    0  501  0.00000000000E+00  0.00000000000E+00  0.35141673973E+03  0.35141673974E+03  0.25500000920E-02 0.  1.
        2   -1    0    0  501    0  0.00000000000E+00  0.00000000000E+00 -0.11836289498E+04  0.11836289498E+04  0.25500000920E-02 0. -1.
    10030    2    1    2    0    0  0.00000000000E+00  0.00000000000E+00 -0.83221221012E+03  0.15350456896E+04  0.12898791054E+04 0.  0.
        4    1    3    3  502    0 -0.62973390631E+03  0.10424650924E+03 -0.30630140821E+03  0.70799314475E+03  0.12699999809E+01 0.  1.
       -4    1    3    3    0  502  0.62973390631E+03 -0.10424650924E+03 -0.52591080191E+03  0.82705254483E+03  0.12699999809E+01 0. -1.
</event>
<event>
 5   0  0.2462055E-03  0.1348432E+04  0.7818609E-02  0.8992016E-01
       -1   -1    0    0    0  501  0.00000000000E+00  0.00000000000E+00  0.51334175051E+03  0.51334175054E+03  0.50400001928E-02 0.  1.
        1   -1    0    0  501    0  0.00000000000E+00  0.00000000000E+00 -0.88550568341E+03  0.88550568343E+03  0.50400001928E-02 0. -1.
    10030    2    1    2    0    0  0.00000000000E+00  0.00000000000E+00 -0.37216393290E+03  0.13988474340E+04  0.13484317374E+04 0.  0.
        2    1    3    3  502    0  0.10944656108E+03  0.66527319903E+03 -0.18633299572E+03  0.69949050342E+03  0.25500000920E-02 0.  1.
       -2    1    3    3    0  502 -0.10944656108E+03 -0.66527319903E+03 -0.18583093718E+03  0.69935693054E+03  0.25500000920E-02 0. -1.
</event>
<event>
 5   0  0.2356769E-03  0.1264982E+04  0.7818609E-02  0.9057805E-01
        1   -1    0    0  501    0  0.00000000000E+00  0.00000000000E+00  0.10932255016E+04  0.10932255016E+04  0.50400001928E-02 0.  1.
       -1   -1    0    0    0  501  0.00000000000E+00  0.00000000000E+00 -0.36593073877E+03  0.36593073880E+03  0.50400001928E-02 0. -1.
    10030    2    1    2    0    0  0.00000000000E+00  0.00000000000E+00  0.72729476284E+03  0.14591562404E+04  0.12649819216E+04 0.  0.
        1    1    3    3  502    0  0.40452948890E+03 -0.31579041710E+03  0.79009470032E+03  0.94213445453E+03  0.50400001928E-02 0.  1.
       -1    1    3    3    0  502 -0.40452948890E+03  0.31579041710E+03 -0.62799937478E+02  0.51702178589E+03  0.50400001928E-02 0. -1.
</event>
<event>
 5   0  0.4310889E-03  0.1288180E+04  0.7818609E-02  0.9038991E-01
        2   -1    0    0  501    0  0.00000000000E+00  0.00000000000E+00  0.12105375063E+04  0.12105375063E+04  0.25500000920E-02 0. -1.
       -2   -1    0    0    0  501  0.00000000000E+00  0.00000000000E+00 -0.34270056854E+03  0.34270056855E+03  0.25500000920E-02 0.  1.
    10030    2    1    2    0    0  0.00000000000E+00  0.00000000000E+00  0.86783693776E+03  0.15532380749E+04  0.12881799434E+04 0.  0.
        4    1    3    3  502    0 -0.55247084761E+03  0.33048049037E+03  0.40953682227E+03  0.76299633923E+03  0.12699999809E+01 0. -1.
       -4    1    3    3    0  502  0.55247084761E+03 -0.33048049037E+03  0.45830011548E+03  0.79024173563E+03  0.12699999809E+01 0.  1.
</event>
<event>
 5   0  0.4388937E-03  0.1022079E+04  0.7818609E-02  0.9284655E-01
        2   -1    0    0  501    0  0.00000000000E+00  0.00000000000E+00  0.10846566695E+04  0.10846566695E+04  0.25500000920E-02 0. -1.
       -2   -1    0    0    0  501  0.00000000000E+00  0.00000000000E+00 -0.24077784005E+03  0.24077784006E+03  0.25500000920E-02 0.  1.
    10030    2    1    2    0    0  0.00000000000E+00  0.00000000000E+00  0.84387882944E+03  0.13254345096E+04  0.10220788425E+04 0.  0.
        5    1    3    3  502    0 -0.23664006691E+03  0.41375481040E+03  0.66087379342E+03  0.81484220879E+03  0.46999998093E+01 0. -1.
       -5    1    3    3    0  502  0.23664006691E+03 -0.41375481040E+03  0.18300503602E+03  0.51059230077E+03  0.46999998093E+01 0.  1.
</event>
<event>
 5   0  0.2462055E-03  0.1359250E+04  0.7818609E-02  0.8983855E-01
        1   -1    0    0  501    0  0.00000000000E+00  0.00000000000E+00  0.21894018866E+04  0.21894018866E+04  0.50400001928E-02 0. -1.
       -1   -1    0    0    0  501  0.00000000000E+00  0.00000000000E+00 -0.21096636681E+03  0.21096636687E+03  0.50400001928E-02 0.  1.
    10030    2    1    2    0    0  0.00000000000E+00  0.00000000000E+00  0.19784355198E+04  0.24003682535E+04  0.13592500308E+04 0.  0.
        2    1    3    3  502    0  0.60131873965E+03 -0.95378319703E+02  0.15225491654E+04  0.16397674261E+04  0.25500000920E-02 0.  1.
       -2    1    3    3    0  502 -0.60131873965E+03  0.95378319703E+02  0.45588635437E+03  0.76060082739E+03  0.25500000920E-02 0. -1.
</event>
<event>
 5   0  0.1661750E-03  0.1320457E+04  0.7818609E-02  0.9013498E-01
       -3   -1    0    0    0  501  0.00000000000E+00  0.00000000000E+00  0.52136737429E+03  0.52136738407E+03  0.10100000352E+00 0.  1.
        3   -1    0    0  501    0  0.00000000000E+00  0.00000000000E+00 -0.83607383787E+03  0.83607384397E+03  0.10100000352E+00 0. -1.
    10030    2    1    2    0    0  0.00000000000E+00  0.00000000000E+00 -0.31470646358E+03  0.13574412280E+04  0.13204569396E+04 0.  0.
        1    1    3    3  502    0  0.33842434766E+03  0.37236930168E+03 -0.59677338076E+03  0.78059490386E+03  0.50400001928E-02 0. -1.
       -1    1    3    3    0  502 -0.33842434766E+03 -0.37236930168E+03  0.28206691718E+03  0.57684632418E+03  0.50400001928E-02 0.  1.
</event>
<event>
 5   0  0.2370801E-03  0.1312543E+04  0.7818609E-02  0.9019677E-01
        1   -1    0    0  501    0  0.00000000000E+00  0.00000000000E+00  0.60226637908E+03  0.60226637910E+03  0.50400001928E-02 0. -1.
       -1   -1    0    0    0  501  0.00000000000E+00  0.00000000000E+00 -0.71511963413E+03  0.71511963414E+03  0.50400001928E-02 0.  1.
    10030    2    1    2    0    0  0.00000000000E+00  0.00000000000E+00 -0.11285325505E+03  0.13173860132E+04  0.13125433519E+04 0.  0.
        3    1    3    3  502    0 -0.47533547455E+03 -0.79530252690E+02 -0.50351778925E+03  0.69699286133E+03  0.10100000352E+00 0.  1.
       -3    1    3    3    0  502  0.47533547455E+03  0.79530252690E+02  0.39066453420E+03  0.62039315191E+03  0.10100000352E+00 0. -1.
</event>
<event>
 5   0  0.4263540E-03  0.1323622E+04  0.7818609E-02  0.9011039E-01
       -2   -1    0    0    0  501  0.00000000000E+00  0.00000000000E+00  0.22373225555E+03  0.22373225557E+03  0.25500000920E-02 0. -1.
        2   -1    0    0  501    0  0.00000000000E+00  0.00000000000E+00 -0.19576700025E+04  0.19576700025E+04  0.25500000920E-02 0.  1.
    10030    2    1    2    0    0  0.00000000000E+00  0.00000000000E+00 -0.17339377470E+04  0.21814022581E+04  0.13236221898E+04 0.  0.
        2    1    3    3  502    0 -0.29446891765E+03  0.38516039106E+03 -0.16093869606E+04  0.16808292178E+04  0.25500000920E-02 0.  1.
       -2    1    3    3    0  502  0.29446891765E+03 -0.38516039106E+03 -0.12455078635E+03  0.50057304032E+03  0.25500000920E-02 0. -1.
</event>
<event>
 5   0  0.4310889E-03  0.1353445E+04  0.7818609E-02  0.8988225E-01
       -2   -1    0    0    0  501  0.00000000000E+00  0.00000000000E+00  0.45836700076E+03  0.45836700077E+03  0.25500000920E-02 0. -1.
        2   -1    0    0  501    0  0.00000000000E+00  0.00000000000E+00 -0.99909687417E+03  0.99909687417E+03  0.25500000920E-02 0.  1.
    10030    2    1    2    0    0  0.00000000000E+00  0.00000000000E+00 -0.54072987341E+03  0.14574638749E+04  0.13534445503E+04 0.  0.
        4    1    3    3  502    0 -0.42383814958E+03  0.52519200774E+03 -0.21667311561E+03  0.70881187487E+03  0.12699999809E+01 0. -1.
       -4    1    3    3    0  502  0.42383814958E+03 -0.52519200774E+03 -0.32405675780E+03  0.74865200007E+03  0.12699999809E+01 0.  1.
</event>
<event>
 5   0  0.2356769E-03  0.1288477E+04  0.7818609E-02  0.9038753E-01
       -1   -1    0    0    0  501  0.00000000000E+00  0.00000000000E+00  0.91304274455E+03  0.91304274456E+03  0.50400001928E-02 0. -1.
        1   -1    0    0  501    0  0.00000000000E+00  0.00000000000E+00 -0.45457172961E+03  0.45457172964E+03  0.50400001928E-02 0.  1.
    10030    2    1    2    0    0  0.00000000000E+00  0.00000000000E+00  0.45847101494E+03  0.13676144742E+04  0.12884772712E+04 0.  0.
        1    1    3    3  502    0  0.56026849394E+03 -0.68503693747E+02 -0.10040287043E+03  0.57330121034E+03  0.50400001928E-02 0. -1.
       -1    1    3    3    0  502 -0.56026849394E+03  0.68503693747E+02  0.55887388536E+03  0.79431326385E+03  0.50400001928E-02 0.  1.
</event>
<event>
 5   0  0.2356769E-03  0.1267190E+04  0.7818609E-02  0.9055996E-01
       -1   -1    0    0    0  501  0.00000000000E+00  0.00000000000E+00  0.28687729516E+03  0.28687729520E+03  0.50400001928E-02 0. -1.
        1   -1    0    0  501    0  0.00000000000E+00  0.00000000000E+00 -0.13993534041E+04  0.13993534041E+04  0.50400001928E-02 0.  1.
    10030    2    1    2    0    0  0.00000000000E+00  0.00000000000E+00 -0.11124761089E+04  0.16862306993E+04  0.12671901508E+04 0.  0.
        1    1    3    3  502    0  0.54305651187E+03 -0.27780557458E+03 -0.32824235536E+03  0.69269716055E+03  0.50400001928E-02 0. -1.
       -1    1    3    3    0  502 -0.54305651187E+03  0.27780557458E+03 -0.78423375355E+03  0.99353353873E+03  0.50400001928E-02 0.  1.
</event>
<event>
 5   0  0.4306214E-03  0.1205330E+04  0.7818609E-02  0.9108204E-01
        2   -1    0    0  501    0  0.00000000000E+00  0.00000000000E+00  0.10921851895E+04  0.10921851895E+04  0.25500000920E-02 0. -1.
       -2   -1    0    0    0  501  0.00000000000E+00  0.00000000000E+00 -0.33254895567E+03  0.33254895568E+03  0.25500000920E-02 0.  1.
    10030    2    1    2    0    0  0.00000000000E+00  0.00000000000E+00  0.75963623381E+03  0.14247341452E+04  0.12053299037E+04 0.  0.
        3    1    3    3  502    0  0.11445395779E+03  0.58729300510E+03  0.46499186700E+03  0.75777980236E+03  0.10100000352E+00 0. -1.
       -3    1    3    3    0  502 -0.11445395779E+03 -0.58729300510E+03  0.29464436681E+03  0.66695434280E+03  0.10100000352E+00 0.  1.
</event>
<event>
 5   0  0.2511542E-03  0.1304461E+04  0.7818609E-02  0.9026035E-01
       -1   -1    0    0    0  501  0.00000000000E+00  0.00000000000E+00  0.26750612140E+03  0.26750612145E+03  0.50400001928E-02 0.  1.
        1   -1    0    0  501    0  0.00000000000E+00  0.00000000000E+00 -0.15902606134E+04  0.15902606134E+04  0.50400001928E-02 0. -1.
    10030    2    1    2    0    0  0.00000000000E+00  0.00000000000E+00 -0.13227544920E+04  0.18577667349E+04  0.13044607296E+04 0.  0.
        4    1    3    3  502    0  0.31251139903E+03  0.52033974124E+02 -0.14733158377E+04  0.15069943860E+04  0.12699999809E+01 0. -1.
       -4    1    3    3    0  502 -0.31251139903E+03 -0.52033974124E+02  0.15056134571E+03  0.35077234884E+03  0.12699999809E+01 0.  1.
</event>
<event>
 5   0  0.2356769E-03  0.1313129E+04  0.7818609E-02  0.9019218E-01
        1   -1    0    0  501    0  0.00000000000E+00  0.00000000000E+00  0.92028044965E+03  0.92028044967E+03  0.50400001928E-02 0.  1.
       -1   -1    0    0    0  501  0.00000000000E+00  0.00000000000E+00 -0.46841925360E+03  0.46841925363E+03  0.50400001928E-02 0. -1.
    10030    2    1    2    0    0  0.00000000000E+00  0.00000000000E+00  0.45186119605E+03  0.13886997033E+04  0.13131292113E+04 0.  0.
        1    1    3    3  502    0 -0.45479265040E+03  0.21921462187E+03  0.66983165463E+03  0.83878832304E+03  0.50400001928E-02 0.  1.
       -1    1    3    3    0  502  0.45479265040E+03 -0.21921462187E+03 -0.21797045858E+03  0.54991138026E+03  0.50400001928E-02 0. -1.
</event>
<event>
 5   0  0.1661750E-03  0.1465484E+04  0.7818609E-02  0.8907736E-01
        3   -1    0    0  501    0  0.00000000000E+00  0.00000000000E+00  0.30544838907E+03  0.30544840577E+03  0.10100000352E+00 0.  1.
       -3   -1    0    0    0  501  0.00000000000E+00  0.00000000000E+00 -0.17577789380E+04  0.17577789409E+04  0.10100000352E+00 0. -1.
    10030    2    1    2    0    0  0.00000000000E+00  0.00000000000E+00 -0.14523305489E+04  0.20632273467E+04  0.14654838998E+04 0.  0.
        3    1    3    3  502    0  0.25020850515E+03  0.68865873183E+03 -0.71566640592E+03  0.10242233935E+04  0.10100000352E+00 0.  1.
       -3    1    3    3    0  502 -0.25020850515E+03 -0.68865873183E+03 -0.73666414303E+03  0.10390039532E+04  0.10100000352E+00 0. -1.
</event>
<event>
 5   0  0.2356769E-03  0.1338591E+04  0.7818609E-02  0.8999510E-01
       -1   -1    0    0    0  501  0.00000000000E+00  0.00000000000E+00  0.41519311021E+03  0.41519311024E+03  0.50400001928E-02 0. -1.
        1   -1    0    0  501    0  0.00000000000E+00  0.00000000000E+00 -0.10789113500E+04  0.10789113500E+04  0.50400001928E-02 0.  1.
    10030    2    1    2    0    0  0.00000000000E+00  0.00000000000E+00 -0.66371823977E+03  0.14941044602E+04  0.13385911386E+04 0.  0.
        1    1    3    3  502    0 -0.27307071580E+03 -0.60846212075E+03 -0.26908678944E+03  0.71916720482E+03  0.50400001928E-02 0. -1.
       -1    1    3    3    0  502  0.27307071580E+03  0.60846212075E+03 -0.39463145034E+03  0.77493725542E+03  0.50400001928E-02 0.  1.
</event>
<event>
 5   0  0.2370801E-03  0.1350448E+04  0.7818609E-02  0.8990489E-01
       -1   -1    0    0    0  501  0.00000000000E+00  0.00000000000E+00  0.48118272558E+03  0.48118272561E+03  0.50400001928E-02 0. -1.
        1   -1    0    0  501    0  0.00000000000E+00  0.00000000000E+00 -0.94751394210E+03  0.94751394212E+03  0.50400001928E-02 0.  1.
    10030    2    1    2    0    0  0.00000000000E+00  0.00000000000E+00 -0.46633121652E+03  0.14286966677E+04  0.13504478386E+04 0.  0.
        3    1    3    3  502    0  0.26458959589E+03  0.14131387363E+03  0.40682430985E+03  0.50545355317E+03  0.10100000352E+00 0. -1.
       -3    1    3    3    0  502 -0.26458959589E+03 -0.14131387363E+03 -0.87315552637E+03  0.92324311455E+03  0.10100000352E+00 0.  1.
</event>
<event>
 5   0  0.4388937E-03  0.1118869E+04  0.7818609E-02  0.9186993E-01
       -2   -1    0    0    0  501  0.00000000000E+00  0.00000000000E+00  0.23838408080E+03  0.23838408081E+03  0.25500000920E-02 0. -1.
        2   -1    0    0  501    0  0.00000000000E+00  0.00000000000E+00 -0.13128687134E+04  0.13128687134E+04  0.25500000920E-02 0.  1.
    10030    2    1    2    0    0  0.00000000000E+00  0.00000000000E+00 -0.10744846326E+04  0.15512527942E+04  0.11188690745E+04 0.  0.
        5    1    3    3  502    0  0.24439454712E+03  0.36232416736E+02 -0.12330998702E+04  0.12576163416E+04  0.46999998093E+01 0.  1.
       -5    1    3    3    0  502 -0.24439454712E+03 -0.36232416736E+02  0.15861523765E+03  0.29363645260E+03  0.46999998093E+01 0. -1.
</event>
<event>
 5   0  0.2511542E-03  0.1284796E+04  0.7818609E-02  0.9041710E-01
       -1   -1    0    0    0  501  0.00000000000E+00  0.00000000000E+00  0.38375108347E+03  0.38375108350E+03  0.50400001928E-02 0.  1.
        1   -1    0    0  501    0  0.00000000000E+00  0.00000000000E+00 -0.10753722939E+04  0.10753722939E+04  0.50400001928E-02 0. -1.
    10030    2    1    2    0    0  0.00000000000E+00  0.00000000000E+00 -0.69162121046E+03  0.14591233774E+04  0.12847961441E+04 0.  0.
        4    1    3    3  502    0 -0.68251161397E+01 -0.42188476806E+03  0.20431153223E+03  0.46880502859E+03  0.12699999809E+01 0.  1.
       -4    1    3    3    0  502  0.68251161397E+01  0.42188476806E+03 -0.89593274270E+03  0.99031834885E+03  0.12699999809E+01 0. -1.
</event>
<event>
 5   0  0.2356769E-03  0.1296309E+04  0.7818609E-02  0.9032497E-01
        1   -1    0    0  501    0  0.00000000000E+00  0.00000000000E+00  0.13677401100E+04  0.13677401100E+04  0.50400001928E-02 0. -1.
       -1   -1    0    0    0  501  0.00000000000E+00  0.00000000000E+00 -0.30715217471E+03  0.30715217475E+03  0.50400001928E-02 0.  1.
    10030    2    1    2    0    0  0.00000000000E+00  0.00000000000E+00  0.10605879353E+04  0.16748922848E+04  0.12963091441E+04 0.  0.
        1    1    3    3  502    0 -0.32081300385E+03  0.31036907909E+02  0.12568565313E+04  0.12975255734E+04  0.50400001928E-02 0. -1.
       -1    1    3    3    0  502  0.32081300385E+03 -0.31036907909E+02 -0.19626859603E+03  0.37736671144E+03  0.50400001928E-02 0.  1.
</event>
<event>
 5   0  0.2356769E-03  0.1302932E+04  0.7818609E-02  0.9027243E-01
        1   -1    0    0  501    0  0.00000000000E+00  0.00000000000E+00  0.11746513583E+04  0.11746513583E+04  0.50400001928E-02 0.  1.
       -1   -1    0    0    0  501  0.00000000000E+00  0.00000000000E+00 -0.36130570802E+03  0.36130570805E+03  0.50400001928E-02 0. -1.
    10030    2    1    2    0    0  0.00000000000E+00  0.00000000000E+00  0.81334565024E+03  0.15359570663E+04  0.13029324475E+04 0.  0.
        1    1    3    3  502    0 -0.40971455999E+03 -0.49570575505E+03  0.52928431102E+03  0.83290581590E+03  0.50400001928E-02 0.  1.
       -1    1    3    3    0  502  0.40971455999E+03  0.49570575505E+03  0.28406133922E+03  0.70305125042E+03  0.50400001928E-02 0. -1.
</event>
<event>
 5   0  0.4388937E-03  0.1272539E+04  0.7818609E-02  0.9051630E-01
        2   -1    0    0  501    0  0.00000000000E+00  0.00000000000E+00  0.14889408041E+04  0.14889408041E+04  0.25500000920E-02 0. -1.
       -2   -1    0    0    0  501  0.00000000000E+00  0.00000000000E+00 -0.27189732235E+03  0.27189732236E+03  0.25500000920E-02 0.  1.
    10030    2    1    2    0    0  0.00000000000E+00  0.00000000000E+00  0.12170434817E+04  0.17608381265E+04  0.12725392219E+04 0.  0.
        5    1    3    3  502    0 -0.16177943814E+03 -0.78808184205E+02  0.14529693110E+04  0.14640782852E+04  0.46999998093E+01 0. -1.
       -5    1    3    3    0  502  0.16177943814E+03  0.78808184205E+02 -0.23592582923E+03  0.29675984129E+03  0.46999998093E+01 0.  1.
</event>
<event>
 5   0  0.4310889E-03  0.9530263E+03  0.7818609E-02  0.9361620E-01
       -2   -1    0    0    0  501  0.00000000000E+00  0.00000000000E+00  0.98925208239E+02  0.98925208272E+02  0.25500000920E-02 0. -1.
        2   -1    0    0  501    0  0.00000000000E+00  0.00000000000E+00 -0.22953178817E+04  0.22953178817E+04  0.25500000920E-02 0.  1.
    10030    2    1    2    0    0  0.00000000000E+00  0.00000000000E+00 -0.21963926735E+04  0.23942430900E+04  0.95302633640E+03 0.  0.
        4    1    3    3  502    0  0.43085328221E+03  0.20339009914E+03 -0.11178342728E+04  0.12151366826E+04  0.12699999809E+01 0. -1.
       -4    1    3    3    0  502 -0.43085328221E+03 -0.20339009914E+03 -0.10785584007E+04  0.11791064074E+04  0.12699999809E+01 0.  1.
</event>
<event>
 5   0  0.2458456E-03  0.1247515E+04  0.7818609E-02  0.9072254E-01
        1   -1    0    0  501    0  0.00000000000E+00  0.00000000000E+00  0.25082550552E+03  0.25082550557E+03  0.50400001928E-02 0. -1.
       -1   -1    0    0    0  501  0.00000000000E+00  0.00000000000E+00 -0.15511706145E+04  0.15511706145E+04  0.50400001928E-02 0.  1.
    10030    2    1    2    0    0  0.00000000000E+00  0.00000000000E+00 -0.13003451090E+04  0.18019961201E+04  0.12475145748E+04 0.  0.
        5    1    3    3  502    0 -0.49043719650E+03 -0.12353737626E+03 -0.11774748402E+04  0.12815066197E+04  0.46999998093E+01 0.  1.
       -5    1    3    3    0  502  0.49043719650E+03  0.12353737626E+03 -0.12287026878E+03  0.52048950037E+03  0.46999998093E+01 0. -1.
</event>
<event>
 5   0  0.4310889E-03  0.1271628E+04  0.7818609E-02  0.9052372E-01
        2   -1    0    0  501    0  0.00000000000E+00  0.00000000000E+00  0.11558566333E+04  0.11558566333E+04  0.25500000920E-02 0.  1.
       -2   -1    0    0    0  501  0.00000000000E+00  0.00000000000E+00 -0.34974886305E+03  0.34974886306E+03  0.25500000920E-02 0. -1.
    10030    2    1    2    0    0  0.00000000000E+00  0.00000000000E+00  0.80610777023E+03  0.15056054963E+04  0.12716281585E+04 0.  0.
        4    1    3    3  502    0  0.48890724897E+03  0.36057203615E+03  0.62524035518E+03  0.87176235638E+03  0.12699999809E+01 0.  1.
       -4    1    3    3    0  502 -0.48890724897E+03 -0.36057203615E+03  0.18086741505E+03  0.63384313996E+03  0.12699999809E+01 0. -1.
</event>
<event>
 5   0  0.2370801E-03  0.1347244E+04  0.7818609E-02  0.8992917E-01
        1   -1    0    0  501    0  0.00000000000E+00  0.00000000000E+00  0.17386346420E+04  0.17386346420E+04  0.50400001928E-02 0. -1.
       -1   -1    0    0    0  501  0.00000000000E+00  0.00000000000E+00 -0.26099008671E+03  0.26099008676E+03  0.50400001928E-02 0.  1.
    10030    2    1    2    0    0  0.00000000000E+00  0.00000000000E+00  0.14776445553E+04  0.19996247287E+04  0.13472437137E+04 0.  0.
        3    1    3    3  502    0  0.50784978527E+03 -0.53818587283E+02  0.13908023889E+04  0.14816001957E+04  0.10100000352E+00 0. -1.
       -3    1    3    3    0  502 -0.50784978527E+03  0.53818587283E+02  0.86842166338E+02  0.51802453301E+03  0.10100000352E+00 0.  1.
</event>
<event>
 5   0  0.4263540E-03  0.8297471E+03  0.7818609E-02  0.9517930E-01
       -2   -1    0    0    0  501  0.00000000000E+00  0.00000000000E+00  0.31711351271E+03  0.31711351272E+03  0.25500000920E-02 0.  1.
        2   -1    0    0  501    0  0.00000000000E+00  0.00000000000E+00 -0.54277112281E+03  0.54277112281E+03  0.25500000920E-02 0. -1.
    10030    2    1    2    0    0  0.00000000000E+00  0.00000000000E+00 -0.22565761010E+03  0.85988463553E+03  0.82974708763E+03 0.  0.
        2    1    3    3  502    0  0.31812002322E+03  0.26533288218E+03 -0.13641894434E+03  0.43613302549E+03  0.25500000920E-02 0. -1.
       -2    1    3    3    0  502 -0.31812002322E+03 -0.26533288218E+03 -0.89238665756E+02  0.42375161004E+03  0.25500000920E-02 0.  1.
</event>
<event>
 5   0  0.4453011E-03  0.1296570E+04  0.7818609E-02  0.9032290E-01
       -2   -1    0    0    0  501  0.00000000000E+00  0.00000000000E+00  0.61911640794E+03  0.61911640795E+03  0.25500000920E-02 0.  1.
        2   -1    0    0  501    0  0.00000000000E+00  0.00000000000E+00 -0.67882731424E+03  0.67882731424E+03  0.25500000920E-02 0. -1.
    10030    2    1    2    0    0  0.00000000000E+00  0.00000000000E+00 -0.59710906296E+02  0.12979437222E+04  0.12965695175E+04 0.  0.
        1    1    3    3  502    0 -0.22492790642E+03  0.43152317392E+03 -0.45864144826E+03  0.66869783221E+03  0.50400001928E-02 0. -1.
       -1    1    3    3    0  502  0.22492790642E+03 -0.43152317392E+03  0.39893054196E+03  0.62924588998E+03  0.50400001928E-02 0.  1.
</event>
<event>
 5   0  0.2511542E-03  0.1382440E+04  0.7818609E-02  0.8966628E-01
       -1   -1    0    0    0  501  0.00000000000E+00  0.00000000000E+00  0.82679382161E+03  0.82679382163E+03  0.50400001928E-02 0. -1.
        1   -1    0    0  501    0  0.00000000000E+00  0.00000000000E+00 -0.57787700850E+03  0.57787700852E+03  0.50400001928E-02 0.  1.
    10030    2    1    2    0    0  0.00000000000E+00  0.00000000000E+00  0.24891681311E+03  0.14046708301E+04  0.13824400751E+04 0.  0.
        4    1    3    3  502    0  0.15523717802E+03  0.50522916569E+03 -0.32815790759E+03  0.62212885844E+03  0.12699999809E+01 0.  1.
       -4    1    3    3    0  502 -0.15523717802E+03 -0.50522916569E+03  0.57707472070E+03  0.78254197170E+03  0.12699999809E+01 0. -1.
</event>
<event>
 5   0  0.4453011E-03  0.1283854E+04  0.7818609E-02  0.9042468E-01
        2   -1    0    0  501    0  0.00000000000E+00  0.00000000000E+00  0.80000967967E+03  0.80000967968E+03  0.25500000920E-02 0.  1.
       -2   -1    0    0    0  501  0.00000000000E+00  0.00000000000E+00 -0.51508195356E+03  0.51508195357E+03  0.25500000920E-02 0. -1.
    10030    2    1    2    0    0  0.00000000000E+00  0.00000000000E+00  0.28492772611E+03  0.13150916332E+04  0.12838544289E+04 0.  0.
        1    1    3    3  502    0  0.46571917297E+02  0.20148753748E+03 -0.48002625123E+03  0.52267712131E+03  0.50400001928E-02 0. -1.
       -1    1    3    3    0  502 -0.46571917297E+02 -0.20148753748E+03  0.76495397735E+03  0.79241451193E+03  0.50400001928E-02 0.  1.
</event>
<event>
 5   0  0.1661750E-03  0.1273404E+04  0.7818609E-02  0.9050926E-01
       -4   -1    0    0    0  501  0.00000000000E+00  0.00000000000E+00  0.41028397052E+03  0.41028593610E+03  0.12699999809E+01 0. -1.
        4   -1    0    0  501    0  0.00000000000E+00  0.00000000000E+00 -0.98806589682E+03  0.98806671301E+03  0.12699999809E+01 0.  1.
    10030    2    1    2    0    0  0.00000000000E+00  0.00000000000E+00 -0.57778192630E+03  0.13983526491E+04  0.12734041687E+04 0.  0.
        3    1    3    3  502    0 -0.30967482471E+03 -0.41883169203E+03 -0.69097603435E+03  0.86531287611E+03  0.10100000352E+00 0.  1.
       -3    1    3    3    0  502  0.30967482471E+03  0.41883169203E+03  0.11319410805E+03  0.53303977300E+03  0.10100000352E+00 0. -1.
</event>
<event>
 5   0  0.4310889E-03  0.1282676E+04  0.7818609E-02  0.9043417E-01
       -2   -1    0    0    0  501  0.00000000000E+00  0.00000000000E+00  0.23820145370E+03  0.23820145371E+03  0.25500000920E-02 0. -1.
        2   -1    0    0  501    0  0.00000000000E+00  0.00000000000E+00 -0.17267514326E+04  0.17267514326E+04  0.25500000920E-02 0.  1.
    10030    2    1    2    0    0  0.00000000000E+00  0.00000000000E+00 -0.14885499789E+04  0.19649528863E+04  0.12826764229E+04 0.  0.
        4    1    3    3  502    0 -0.17903744236E+03 -0.60701703574E+03 -0.58515466764E+03  0.86193484986E+03  0.12699999809E+01 0. -1.
       -4    1    3    3    0  502  0.17903744236E+03  0.60701703574E+03 -0.90339531126E+03  0.11030180365E+04  0.12699999809E+01 0.  1.
</event>
<event>
 5   0  0.4306214E-03  0.1154590E+04  0.7818609E-02  0.9153559E-01
       -2   -1    0    0    0  501  0.00000000000E+00  0.00000000000E+00  0.31461605487E+03  0.31461605488E+03  0.25500000920E-02 0. -1.
        2   -1    0    0  501    0  0.00000000000E+00  0.00000000000E+00 -0.10592895910E+04  0.10592895910E+04  0.25500000920E-02 0.  1.
    10030    2    1    2    0    0  0.00000000000E+00  0.00000000000E+00 -0.74467353616E+03  0.13739056459E+04  0.11545899915E+04 0.  0.
        3    1    3    3  502    0  0.18969881649E+02  0.57508638273E+03 -0.42796361495E+03  0.71710324915E+03  0.10100000352E+00 0.  1.
       -3    1    3    3    0  502 -0.18969881649E+02 -0.57508638273E+03 -0.31670992121E+03  0.65680239677E+03  0.10100000352E+00 0. -1.
</event>
<event>
 5   0  0.2462055E-03  0.1261017E+04  0.7818609E-02  0.9061064E-01
       -1   -1    0    0    0  501  0.00000000000E+00  0.00000000000E+00  0.53952441317E+03  0.53952441319E+03  0.50400001928E-02 0. -1.
        1   -1    0    0  501    0  0.00000000000E+00  0.00000000000E+00 -0.73683547708E+03  0.73683547710E+03  0.50400001928E-02 0.  1.
    10030    2    1    2    0    0  0.00000000000E+00  0.00000000000E+00 -0.19731106391E+03  0.12763598903E+04  0.12610166191E+04 0.  0.
        2    1    3    3  502    0 -0.37253294468E+03 -0.50867939203E+03 -0.96345294830E+02  0.63782280814E+03  0.25500000920E-02 0.  1.
       -2    1    3    3    0  502  0.37253294468E+03  0.50867939203E+03 -0.10096576908E+03  0.63853708215E+03  0.25500000920E-02 0. -1.
</event>
<event>
 5   0  0.2511542E-03  0.1297422E+04  0.7818609E-02  0.9031612E-01
       -1   -1    0    0    0  501  0.00000000000E+00  0.00000000000E+00  0.76010045234E+03  0.76010045236E+03  0.50400001928E-02 0. -1.
        1   -1    0    0  501    0  0.00000000000E+00  0.00000000000E+00 -0.55364498532E+03  0.55364498534E+03  0.50400001928E-02 0.  1.
    10030    2    1    2    0    0  0.00000000000E+00  0.00000000000E+00  0.20645546702E+03  0.13137454377E+04  0.12974217569E+04 0.  0.
        4    1    3    3  502    0  0.50365646310E+03  0.30751400965E+03  0.37604190283E+03  0.69974554270E+03  0.12699999809E+01 0. -1.
       -4    1    3    3    0  502 -0.50365646310E+03 -0.30751400965E+03 -0.16958643581E+03  0.61399989500E+03  0.12699999809E+01 0.  1.
</event>
<event>
 5   0  0.2370801E-03  0.1339775E+04  0.7818609E-02  0.8998605E-01
       -1   -1    0    0    0  501  0.00000000000E+00  0.00000000000E+00  0.31400468799E+03  0.31400468803E+03  0.50400001928E-02 0.  1.
        1   -1    0    0  501    0  0.00000000000E+00  0.00000000000E+00 -0.14291159282E+04  0.14291159282E+04  0.50400001928E-02 0. -1.
    10030    2    1    2    0    0  0.00000000000E+00  0.00000000000E+00 -0.11151112402E+04  0.17431206162E+04  0.13397747589E+04 0.  0.
        3    1    3    3  502    0  0.43787025707E+03 -0.50110040309E+03 -0.45747484693E+03  0.80753651421E+03  0.10100000352E+00 0.  1.
       -3    1    3    3    0  502 -0.43787025707E+03  0.50110040309E+03 -0.65763639323E+03  0.93558410199E+03  0.10100000352E+00 0. -1.
</event>
<event>
 5   0  0.2370801E-03  0.1284668E+04  0.7818609E-02  0.9041813E-01
        1   -1    0    0  501    0  0.00000000000E+00  0.00000000000E+00  0.97114406206E+03  0.97114406208E+03  0.50400001928E-02 0. -1.
       -1   -1    0    0    0  501  0.00000000000E+00  0.00000000000E+00 -0.42485259368E+03  0.42485259371E+03  0.50400001928E-02 0.  1.
    10030    2    1    2    0    0  0.00000000000E+00  0.00000000000E+00  0.54629146839E+03  0.13959966558E+04  0.12846681651E+04 0.  0.
        3    1    3    3  502    0  0.13858166064E+03  0.53115381056E+03  0.63561433529E+03  0.83984215217E+03  0.10100000352E+00 0. -1.
       -3    1    3    3    0  502 -0.13858166064E+03 -0.53115381056E+03 -0.89322866899E+02  0.55615450362E+03  0.10100000352E+00 0.  1.
</event>
<event>
 5   0  0.4453011E-03  0.1236358E+04  0.7818609E-02  0.9081614E-01
       -2   -1    0    0    0  501  0.00000000000E+00  0.00000000000E+00  0.36700112590E+03  0.36700112590E+03  0.25500000920E-02 0. -1.
        2   -1    0    0  501    0  0.00000000000E+00  0.00000000000E+00 -0.10412649334E+04  0.10412649334E+04  0.25500000920E-02 0.  1.
    10030    2    1    2    0    0  0.00000000000E+00  0.00000000000E+00 -0.67426380751E+03  0.14082660593E+04  0.12363582053E+04 0.  0.
        1    1    3    3  502    0  0.20566682954E+03 -0.54060466749E+03 -0.58562402840E+03  0.82310859183E+03  0.50400001928E-02 0.  1.
       -1    1    3    3    0  502 -0.20566682954E+03  0.54060466749E+03 -0.88639779111E+02  0.58515746748E+03  0.50400001928E-02 0. -1.
</event>
<event>
 5   0  0.4388937E-03  0.1345604E+04  0.7818609E-02  0.8994162E-01
        2   -1    0    0  501    0  0.00000000000E+00  0.00000000000E+00  0.87413996343E+03  0.87413996344E+03  0.25500000920E-02 0.  1.
       -2   -1    0    0    0  501  0.00000000000E+00  0.00000000000E+00 -0.51783784917E+03  0.51783784917E+03  0.25500000920E-02 0. -1.
    10030    2    1    2    0    0  0.00000000000E+00  0.00000000000E+00  0.35630211427E+03  0.13919778126E+04  0.13456043379E+04 0.  0.
        5    1    3    3  502    0 -0.20039682758E+03  0.33959011060E+03 -0.38575966898E+03  0.55164566883E+03  0.46999998093E+01 0. -1.
       -5    1    3    3    0  502  0.20039682758E+03 -0.33959011060E+03  0.74206178325E+03  0.84033214379E+03  0.46999998093E+01 0.  1.
</event>
<event>
 5   0  0.4263540E-03  0.1316279E+04  0.7818609E-02  0.9016755E-01
        2   -1    0    0  501    0  0.00000000000E+00  0.00000000000E+00  0.96329632822E+03  0.96329632822E+03  0.25500000920E-02 0. -1.
       -2   -1    0    0    0  501  0.00000000000E+00  0.00000000000E+00 -0.44965126480E+03  0.44965126480E+03  0.25500000920E-02 0.  1.
    10030    2    1    2    0    0  0.00000000000E+00  0.00000000000E+00  0.51364506342E+03  0.14129475930E+04  0.13162787127E+04 0.  0.
        2    1    3    3  502    0  0.50350852208E+03 -0.12967492749E+03  0.68995432116E+03  0.86392903870E+03  0.25500000920E-02 0. -1.
       -2    1    3    3    0  502 -0.50350852208E+03  0.12967492749E+03 -0.17630925773E+03  0.54901855432E+03  0.25500000920E-02 0.  1.
</event>
<event>
 5   0  0.2356769E-03  0.1303829E+04  0.7818609E-02  0.9026534E-01
        1   -1    0    0  501    0  0.00000000000E+00  0.00000000000E+00  0.76977292822E+03  0.76977292824E+03  0.50400001928E-02 0. -1.
       -1   -1    0    0    0  501  0.00000000000E+00  0.00000000000E+00 -0.55210149319E+03  0.55210149321E+03  0.50400001928E-02 0.  1.
    10030    2    1    2    0    0  0.00000000000E+00  0.00000000000E+00  0.21767143503E+03  0.13218744214E+04  0.13038294108E+04 0.  0.
        1    1    3    3  502    0 -0.72280676456E+02  0.47191543388E+02  0.76395309060E+03  0.76881458274E+03  0.50400001928E-02 0. -1.
       -1    1    3    3    0  502  0.72280676456E+02 -0.47191543388E+02 -0.54628165557E+03  0.55305983871E+03  0.50400001928E-02 0.  1.
</event>
<event>
 5   0  0.4263540E-03  0.1223505E+04  0.7818609E-02  0.9092528E-01
       -2   -1    0    0    0  501  0.00000000000E+00  0.00000000000E+00  0.72717313969E+03  0.72717313970E+03  0.25500000920E-02 0. -1.
        2   -1    0    0  501    0  0.00000000000E+00  0.00000000000E+00 -0.51465214837E+03  0.51465214838E+03  0.25500000920E-02 0.  1.
    10030    2    1    2    0    0  0.00000000000E+00  0.00000000000E+00  0.21252099132E+03  0.12418252881E+04  0.12235051591E+04 0.  0.
        2    1    3    3  502    0 -0.46766350542E+03  0.22105194174E+03 -0.22523068688E+03  0.56418257468E+03  0.25500000920E-02 0.  1.
       -2    1    3    3    0  502  0.46766350542E+03 -0.22105194174E+03  0.43775167820E+03  0.67764271340E+03  0.25500000920E-02 0. -1.
</event>
<event>
 5   0  0.2356769E-03  0.1303545E+04  0.7818609E-02  0.9026758E-01
        1   -1    0    0  501    0  0.00000000000E+00  0.00000000000E+00  0.82146519182E+03  0.82146519183E+03  0.50400001928E-02 0. -1.
       -1   -1    0    0    0  501  0.00000000000E+00  0.00000000000E+00 -0.51713405395E+03  0.51713405397E+03  0.50400001928E-02 0.  1.
    10030    2    1    2    0    0  0.00000000000E+00  0.00000000000E+00  0.30433113787E+03  0.13385992458E+04  0.13035453576E+04 0.  0.
        1    1    3    3  502    0 -0.49588579440E+03 -0.23995924236E+03 -0.20551769710E+03  0.58798017222E+03  0.50400001928E-02 0.  1.
       -1    1    3    3    0  502  0.49588579440E+03  0.23995924236E+03  0.50984883497E+03  0.75061907358E+03  0.50400001928E-02 0. -1.
</event>
<event>
 5   0  0.2458456E-03  0.1295842E+04  0.7818609E-02  0.9032869E-01
       -1   -1    0    0    0  501  0.00000000000E+00  0.00000000000E+00  0.22458077388E+03  0.22458077394E+03  0.50400001928E-02 0. -1.
        1   -1    0    0  501    0  0.00000000000E+00  0.00000000000E+00 -0.18692665771E+04  0.18692665771E+04  0.50400001928E-02 0.  1.
    10030    2    1    2    0    0  0.00000000000E+00  0.00000000000E+00 -0.16446858032E+04  0.20938473511E+04  0.12958415560E+04 0.  0.
        5    1    3    3  502    0 -0.49672684561E+03 -0.41519098157E+03 -0.78089043751E+03  0.10143633845E+04  0.46999998093E+01 0. -1.
       -5    1    3    3    0  502  0.49672684561E+03  0.41519098157E+03 -0.86379536572E+03  0.10794839666E+04  0.46999998093E+01 0.  1.
</event>
<event>
 5   0  0.4310889E-03  0.1307583E+04  0.7818609E-02  0.9023573E-01
        2   -1    0    0  501    0  0.00000000000E+00  0.00000000000E+00  0.77855615684E+03  0.77855615684E+03  0.25500000920E-02 0. -1.
       -2   -1    0    0    0  501  0.00000000000E+00  0.00000000000E+00 -0.54902088863E+03  0.54902088863E+03  0.25500000920E-02 0.  1.
    10030    2    1    2    0    0  0.00000000000E+00  0.00000000000E+00  0.22953526821E+03  0.13275770455E+04  0.13075834093E+04 0.  0.
        4    1    3    3  502    0 -0.53845051803E+03  0.36026381908E+03  0.20399197816E+03  0.67921522344E+03  0.12699999809E+01 0. -1.
       -4    1    3    3    0  502  0.53845051803E+03 -0.36026381908E+03  0.25543290044E+02  0.64836182203E+03  0.12699999809E+01 0.  1.
</event>
<event>
 5   0  0.2356769E-03  0.1315727E+04  0.7818609E-02  0.9017186E-01
       -1   -1    0    0    0  501  0.00000000000E+00  0.00000000000E+00  0.21353589484E+03  0.21353589490E+03  0.50400001928E-02 0.  1.
        1   -1    0    0  501    0  0.00000000000E+00  0.00000000000E+00 -0.20267522458E+04  0.20267522458E+04  0.50400001928E-02 0. -1.
    10030    2    1    2    0    0  0.00000000000E+00  0.00000000000E+00 -0.18132163510E+04  0.22402881407E+04  0.13157269542E+04 0.  0.
        1    1    3    3  502    0 -0.38166683448E+03 -0.52703499082E+03 -0.74197461356E+03  0.98689502040E+03  0.50400001928E-02 0.  1.
       -1    1    3    3    0  502  0.38166683448E+03  0.52703499082E+03 -0.10712417374E+04  0.12533931203E+04  0.50400001928E-02 0. -1.
</event>
<event>
 5   0  0.2458456E-03  0.1331182E+04  0.7818609E-02  0.9005197E-01
       -1   -1    0    0    0  501  0.00000000000E+00  0.00000000000E+00  0.18910584728E+03  0.18910584735E+03  0.50400001928E-02 0.  1.
        1   -1    0    0  501    0  0.00000000000E+00  0.00000000000E+00 -0.23426627168E+04  0.23426627168E+04  0.50400001928E-02 0. -1.
    10030    2    1    2    0    0  0.00000000000E+00  0.00000000000E+00 -0.21535568696E+04  0.25317685642E+04  0.13311817578E+04 0.  0.
        5    1    3    3  502    0  0.84357537079E+02  0.81775488563E+01 -0.23323263143E+04  0.23338704319E+04  0.46999998093E+01 0. -1.
       -5    1    3    3    0  502 -0.84357537079E+02 -0.81775488563E+01  0.17876944479E+03  0.19789813227E+03  0.46999998093E+01 0.  1.
</event>
<event>
 5   0  0.2356769E-03  0.1292959E+04  0.7818609E-02  0.9035167E-01
       -1   -1    0    0    0  501  0.00000000000E+00  0.00000000000E+00  0.48063555737E+03  0.48063555739E+03  0.50400001928E-02 0. -1.
        1   -1    0    0  501    0  0.00000000000E+00  0.00000000000E+00 -0.86954820104E+03  0.86954820105E+03  0.50400001928E-02 0.  1.
    10030    2    1    2    0    0  0.00000000000E+00  0.00000000000E+00 -0.38891264367E+03  0.13501837584E+04  0.12929590624E+04 0.  0.
        1    1    3    3  502    0  0.22059744481E+03 -0.17434438576E+03 -0.80235176384E+03  0.85019265491E+03  0.50400001928E-02 0.  1.
       -1    1    3    3    0  502 -0.22059744481E+03  0.17434438576E+03  0.41343912017E+03  0.49999110353E+03  0.50400001928E-02 0. -1.
</event>
<event>
 5   0  0.2462055E-03  0.1346366E+04  0.7818609E-02  0.8993584E-01
        1   -1    0    0  501    0  0.00000000000E+00  0.00000000000E+00  0.58173262057E+03  0.58173262059E+03  0.50400001928E-02 0.  1.
       -1   -1    0    0    0  501  0.00000000000E+00  0.00000000000E+00 -0.77900968460E+03  0.77900968461E+03  0.50400001928E-02 0. -1.
    10030    2    1    2    0    0  0.00000000000E+00  0.00000000000E+00 -0.19727706403E+03  0.13607423052E+04  0.13463659908E+04 0.  0.
        2    1    3    3  502    0  0.13795277787E+03 -0.55402680327E+03  0.26181895653E+03  0.62811291475E+03  0.25500000920E-02 0. -1.
       -2    1    3    3    0  502 -0.13795277787E+03  0.55402680327E+03 -0.45909602056E+03  0.73262939046E+03  0.25500000920E-02 0.  1.
</event>
<event>
 5   0  0.2511542E-03  0.1281766E+04  0.7818609E-02  0.9044151E-01
        1   -1    0    0  501    0  0.00000000000E+00  0.00000000000E+00  0.74831215790E+03  0.74831215792E+03  0.50400001928E-02 0.  1.
       -1   -1    0    0    0  501  0.00000000000E+00  0.00000000000E+00 -0.54887691365E+03  0.54887691367E+03  0.50400001928E-02 0. -1.
    10030    2    1    2    0    0  0.00000000000E+00  0.00000000000E+00  0.19943524425E+03  0.12971890716E+04  0.12817663870E+04 0.  0.
        4    1    3    3  502    0 -0.59416719720E+03 -0.23038989149E+03  0.30962743450E+02  0.63802387472E+03  0.12699999809E+01 0. -1.
       -4    1    3    3    0  502  0.59416719720E+03  0.23038989149E+03  0.16847250080E+03  0.65916519686E+03  0.12699999809E+01 0.  1.
</event>
<event>
 5   0  0.2458456E-03  0.1303095E+04  0.7818609E-02  0.9027115E-01
        1   -1    0    0  501    0  0.00000000000E+00  0.00000000000E+00  0.69435990645E+03  0.69435990647E+03  0.50400001928E-02 0. -1.
       -1   -1    0    0    0  501  0.00000000000E+00  0.00000000000E+00 -0.61137445030E+03  0.61137445032E+03  0.50400001928E-02 0.  1.
    10030    2    1    2    0    0  0.00000000000E+00  0.00000000000E+00  0.82985456148E+02  0.13057343568E+04  0.13030946338E+04 0.  0.
        5    1    3    3  502    0 -0.48996373455E+03 -0.89710257873E+01  0.47171884024E+03  0.68021003721E+03  0.46999998093E+01 0. -1.
       -5    1    3    3    0  502  0.48996373455E+03  0.89710257873E+01 -0.38873338410E+03  0.62552431958E+03  0.46999998093E+01 0.  1.
</event>
<event>
 5   0  0.4453011E-03  0.1137498E+04  0.7818609E-02  0.9169395E-01
        2   -1    0    0  501    0  0.00000000000E+00  0.00000000000E+00  0.11791289538E+04  0.11791289538E+04  0.25500000920E-02 0.  1.
       -2   -1    0    0    0  501  0.00000000000E+00  0.00000000000E+00 -0.27433417995E+03  0.27433417996E+03  0.25500000920E-02 0. -1.
    10030    2    1    2    0    0  0.00000000000E+00  0.00000000000E+00  0.90479477389E+03  0.14534631338E+04  0.11374979114E+04 0.  0.
        1    1    3    3  502    0  0.15993083566E+03  0.51795739455E+03  0.67229911210E+03  0.86362250487E+03  0.50400001928E-02 0.  1.
       -1    1    3    3    0  502 -0.15993083566E+03 -0.51795739455E+03  0.23249566179E+03  0.58984062893E+03  0.50400001928E-02 0. -1.
</event>
<event>
 5   0  0.2462055E-03  0.1311371E+04  0.7818609E-02  0.9020597E-01
        1   -1    0    0  501    0  0.00000000000E+00  0.00000000000E+00  0.89999852381E+03  0.89999852382E+03  0.50400001928E-02 0. -1.
       -1   -1    0    0    0  501  0.00000000000E+00  0.00000000000E+00 -0.47769318976E+03  0.47769318979E+03  0.50400001928E-02 0.  1.
    10030    2    1    2    0    0  0.00000000000E+00  0.00000000000E+00  0.42230533405E+03  0.13776917136E+04  0.13113705283E+04 0.  0.
        2    1    3    3  502    0 -0.44380928378E+03 -0.21509301833E+02 -0.29540902983E+03  0.53356895088E+03  0.25500000920E-02 0.  1.
       -2    1    3    3    0  502  0.44380928378E+03  0.21509301833E+02  0.71771436388E+03  0.84412276273E+03  0.25500000920E-02 0. -1.
</event>
<event>
 5   0  0.4306214E-03  0.1242996E+04  0.7818609E-02  0.9076033E-01
       -2   -1    0    0    0  501  0.00000000000E+00  0.00000000000E+00  0.32662527116E+03  0.32662527117E+03  0.25500000920E-02 0. -1.
        2   -1    0    0  501    0  0.00000000000E+00  0.00000000000E+00 -0.11825777873E+04  0.11825777873E+04  0.25500000920E-02 0.  1.
    10030    2    1    2    0    0  0.00000000000E+00  0.00000000000E+00 -0.85595251610E+03  0.15092030584E+04  0.12429960425E+04 0.  0.
        3    1    3    3  502    0  0.49701619939E+02  0.18197327885E+03  0.29102639260E+03  0.34681536389E+03  0.10100000352E+00 0. -1.
       -3    1    3    3    0  502 -0.49701619939E+02 -0.18197327885E+03 -0.11469789087E+04  0.11623876945E+04  0.10100000352E+00 0.  1.
</event>
<event>
 5   0  0.2511542E-03  0.1273792E+04  0.7818609E-02  0.9050611E-01
       -1   -1    0    0    0  501  0.00000000000E+00  0.00000000000E+00  0.15452761430E+04  0.15452761430E+04  0.50400001928E-02 0.  1.
        1   -1    0    0  501    0  0.00000000000E+00  0.00000000000E+00 -0.26250083740E+03  0.26250083745E+03  0.50400001928E-02 0. -1.
    10030    2    1    2    0    0  0.00000000000E+00  0.00000000000E+00  0.12827753056E+04  0.18077769805E+04  0.12737916338E+04 0.  0.
        4    1    3    3  502    0 -0.15729500625E+03  0.54545167668E+03  0.10511815366E+04  0.11946729621E+04  0.12699999809E+01 0.  1.
       -4    1    3    3    0  502  0.15729500625E+03 -0.54545167668E+03  0.23159376899E+03  0.61310401836E+03  0.12699999809E+01 0. -1.
</event>
<event>
 5   0  0.4453011E-03  0.1300594E+04  0.7818609E-02  0.9029095E-01
        2   -1    0    0  501    0  0.00000000000E+00  0.00000000000E+00  0.10465298702E+04  0.10465298702E+04  0.25500000920E-02 0. -1.
       -2   -1    0    0    0  501  0.00000000000E+00  0.00000000000E+00 -0.40408390427E+03  0.40408390428E+03  0.25500000920E-02 0.  1.
    10030    2    1    2    0    0  0.00000000000E+00  0.00000000000E+00  0.64244596593E+03  0.14506137745E+04  0.13005935197E+04 0.  0.
        1    1    3    3  502    0  0.51001340589E+03 -0.39524148493E+03  0.23091171344E+03  0.68530994815E+03  0.50400001928E-02 0.  1.
       -1    1    3    3    0  502 -0.51001340589E+03  0.39524148493E+03  0.41153425249E+03  0.76530382633E+03  0.50400001928E-02 0. -1.
</event>
<event>
 5   0  0.2370801E-03  0.1287574E+04  0.7818609E-02  0.9039478E-01
       -1   -1    0    0    0  501  0.00000000000E+00  0.00000000000E+00  0.36888495451E+03  0.36888495455E+03  0.50400001928E-02 0. -1.
        1   -1    0    0  501    0  0.00000000000E+00  0.00000000000E+00 -0.11235527175E+04  0.11235527175E+04  0.50400001928E-02 0.  1.
    10030    2    1    2    0    0  0.00000000000E+00  0.00000000000E+00 -0.75466776296E+03  0.14924376720E+04  0.12875739872E+04 0.  0.
        3    1    3    3  502    0 -0.45825437376E+03  0.16633538371E+02 -0.90110198814E+03  0.10110680239E+04  0.10100000352E+00 0.  1.
       -3    1    3    3    0  502  0.45825437376E+03 -0.16633538371E+02  0.14643422517E+03  0.48136964817E+03  0.10100000352E+00 0. -1.
</event>
<event>
 5   0  0.4310889E-03  0.1310692E+04  0.7818609E-02  0.9021129E-01
        2   -1    0    0  501    0  0.00000000000E+00  0.00000000000E+00  0.92469739483E+03  0.92469739484E+03  0.25500000920E-02 0.  1.
       -2   -1    0    0    0  501  0.00000000000E+00  0.00000000000E+00 -0.46445320200E+03  0.46445320201E+03  0.25500000920E-02 0. -1.
    10030    2    1    2    0    0  0.00000000000E+00  0.00000000000E+00  0.46024419283E+03  0.13891505968E+04  0.13106924367E+04 0.  0.
        4    1    3    3  502    0 -0.44830474613E+03 -0.42232349504E+03 -0.72079428012E+01  0.61594467869E+03  0.12699999809E+01 0. -1.
       -4    1    3    3    0  502  0.44830474613E+03  0.42232349504E+03  0.46745213563E+03  0.77320591816E+03  0.12699999809E+01 0.  1.
</event>
<event>
 5   0  0.1661750E-03  0.1291142E+04  0.7818609E-02  0.9036619E-01
       -3   -1    0    0    0  501  0.00000000000E+00  0.00000000000E+00  0.29277514568E+03  0.29277516310E+03  0.10100000352E+00 0. -1.
        3   -1    0    0  501    0  0.00000000000E+00  0.00000000000E+00 -0.14234886722E+04  0.14234886758E+04  0.10100000352E+00 0.  1.
    10030    2    1    2    0    0  0.00000000000E+00  0.00000000000E+00 -0.11307135266E+04  0.17162638389E+04  0.12911423181E+04 0.  0.
        1    1    3    3  502    0  0.54457162209E+03  0.10190896474E+03 -0.12485509540E+03  0.56791943403E+03  0.50400001928E-02 0.  1.
       -1    1    3    3    0  502 -0.54457162209E+03 -0.10190896474E+03 -0.10058584312E+04  0.11483444049E+04  0.50400001928E-02 0. -1.
</event>
<event>
 5   0  0.4263540E-03  0.1322268E+04  0.7818609E-02  0.9012090E-01
        2   -1    0    0  501    0  0.00000000000E+00  0.00000000000E+00  0.12188787572E+04  0.12188787572E+04  0.25500000920E-02 0. -1.
       -2   -1    0    0    0  501  0.00000000000E+00  0.00000000000E+00 -0.35860687027E+03  0.35860687028E+03  0.25500000920E-02 0.  1.
    10030    2    1    2    0    0  0.00000000000E+00  0.00000000000E+00  0.86027188692E+03  0.15774856275E+04  0.13222681973E+04 0.  0.
        2    1    3    3  502    0  0.16333666027E+02 -0.35889654220E+03 -0.23198707515E+03  0.42765818090E+03  0.25500000920E-02 0.  1.
       -2    1    3    3    0  502 -0.16333666027E+02  0.35889654220E+03  0.10922589621E+04  0.11498274466E+04  0.25500000920E-02 0. -1.
</event>
<event>
 5   0  0.4388937E-03  0.1315933E+04  0.7818609E-02  0.9017024E-01
       -2   -1    0    0    0  501  0.00000000000E+00  0.00000000000E+00  0.18223658445E+03  0.18223658447E+03  0.25500000920E-02 0.  1.
        2   -1    0    0  501    0  0.00000000000E+00  0.00000000000E+00 -0.23755941705E+04  0.23755941705E+04  0.25500000920E-02 0. -1.
    10030    2    1    2    0    0  0.00000000000E+00  0.00000000000E+00 -0.21933575861E+04  0.25578307550E+04  0.13159333839E+04 0.  0.
        5    1    3    3  502    0  0.52931110649E+03  0.38035636681E+03 -0.12711488607E+04  0.14285246688E+04  0.46999998093E+01 0. -1.
       -5    1    3    3    0  502 -0.52931110649E+03 -0.38035636681E+03 -0.92220872532E+03  0.11293060862E+04  0.46999998093E+01 0.  1.
</event>
<event>
 5   0  0.4263540E-03  0.1274206E+04  0.7818609E-02  0.9050274E-01
       -2   -1    0    0    0  501  0.00000000000E+00  0.00000000000E+00  0.24140881122E+03  0.24140881124E+03  0.25500000920E-02 0. -1.
        2   -1    0    0  501    0  0.00000000000E+00  0.00000000000E+00 -0.16813813939E+04  0.16813813939E+04  0.25500000920E-02 0.  1.
    10030    2    1    2    0    0  0.00000000000E+00  0.00000000000E+00 -0.14399725827E+04  0.19227902052E+04  0.12742060799E+04 0.  0.
        2    1    3    3  502    0  0.41385103722E+03  0.33993433775E+03 -0.12406981946E+04  0.13513548923E+04  0.25500000920E-02 0. -1.
       -2    1    3    3    0  502 -0.41385103722E+03 -0.33993433775E+03 -0.19927438814E+03  0.57143531285E+03  0.25500000920E-02 0.  1.
</event>
<event>
 5   0  0.4306214E-03  0.1291282E+04  0.7818609E-02  0.9036507E-01
       -2   -1    0    0    0  501  0.00000000000E+00  0.00000000000E+00  0.49296535747E+03  0.49296535747E+03  0.25500000920E-02 0.  1.
        2   -1    0    0  501    0  0.00000000000E+00  0.00000000000E+00 -0.84560160287E+03  0.84560160288E+03  0.25500000920E-02 0. -1.
    10030    2    1    2    0    0  0.00000000000E+00  0.00000000000E+00 -0.35263624541E+03  0.13385669603E+04  0.12912819931E+04 0.  0.
        3    1    3    3  502    0  0.50133317025E+03  0.36445863037E+03  0.11098526119E+02  0.61990985500E+03  0.10100000352E+00 0.  1.
       -3    1    3    3    0  502 -0.50133317025E+03 -0.36445863037E+03 -0.36373477153E+03  0.71865710535E+03  0.10100000352E+00 0. -1.
</event>
<event>
 5   0  0.4306214E-03  0.1311037E+04  0.7818609E-02  0.9020858E-01
        2   -1    0    0  501    0  0.00000000000E+00  0.00000000000E+00  0.10350618478E+04  0.10350618478E+04  0.25500000920E-02 0.  1.
       -2   -1    0    0    0  501  0.00000000000E+00  0.00000000000E+00 -0.41514890122E+03  0.41514890123E+03  0.25500000920E-02 0. -1.
    10030    2    1    2    0    0  0.00000000000E+00  0.00000000000E+00  0.61991294662E+03  0.14502107491E+04  0.13110374348E+04 0.  0.
        3    1    3    3  502    0 -0.41407327421E+03  0.15539930355E+03 -0.22524334061E+03  0.49632669951E+03  0.10100000352E+00 0. -1.
       -3    1    3    3    0  502  0.41407327421E+03 -0.15539930355E+03  0.84515628723E+03  0.95388404956E+03  0.10100000352E+00 0.  1.
</event>
<event>
 5   0  0.4263540E-03  0.1285964E+04  0.7818609E-02  0.9040770E-01
       -2   -1    0    0    0  501  0.00000000000E+00  0.00000000000E+00  0.23974955239E+03  0.23974955241E+03  0.25500000920E-02 0. -1.
        2   -1    0    0  501    0  0.00000000000E+00  0.00000000000E+00 -0.17244079977E+04  0.17244079977E+04  0.25500000920E-02 0.  1.
    10030    2    1    2    0    0  0.00000000000E+00  0.00000000000E+00 -0.14846584453E+04  0.19641575501E+04  0.12859643006E+04 0.  0.
        2    1    3    3  502    0 -0.59165282088E+03 -0.75037991863E+02 -0.37530528436E+03  0.70465439554E+03  0.25500000920E-02 0. -1.
       -2    1    3    3    0  502  0.59165282088E+03  0.75037991863E+02 -0.11093531609E+04  0.12595031546E+04  0.25500000920E-02 0.  1.
</event>
<event>
 5   0  0.1661750E-03  0.1324809E+04  0.7818609E-02  0.9010120E-01
       -3   -1    0    0    0  501  0.00000000000E+00  0.00000000000E+00  0.13508531323E+04  0.13508531360E+04  0.10100000352E+00 0. -1.
        3   -1    0    0  501    0  0.00000000000E+00  0.00000000000E+00 -0.32481671487E+03  0.32481673057E+03  0.10100000352E+00 0.  1.
    10030    2    1    2    0    0  0.00000000000E+00  0.00000000000E+00  0.10260364174E+04  0.16756698666E+04  0.13248089568E+04 0.  0.
        4    1    3    3  502    0 -0.22874291575E+03 -0.43676898525E+03  0.10725398271E+04  0.11804379533E+04  0.12699999809E+01 0. -1.
       -4    1    3    3    0  502  0.22874291575E+03  0.43676898525E+03 -0.46503409665E+02  0.49523191334E+03  0.12699999809E+01 0.  1.
</event>
<event>
 5   0  0.4388937E-03  0.1361835E+04  0.7818609E-02  0.8981917E-01
        2   -1    0    0  501    0  0.00000000000E+00  0.00000000000E+00  0.12379368917E+04  0.12379368917E+04  0.25500000920E-02 0.  1.
       -2   -1    0    0    0  501  0.00000000000E+00  0.00000000000E+00 -0.37453355624E+03  0.37453355625E+03  0.25500000920E-02 0. -1.
    10030    2    1    2    0    0  0.00000000000E+00  0.00000000000E+00  0.86340333546E+03  0.16124704479E+04  0.13618353887E+04 0.  0.
        5    1    3    3  502    0  0.16118348858E+03  0.26496010882E+03 -0.28602989178E+03  0.42192317458E+03  0.46999998093E+01 0. -1.
       -5    1    3    3    0  502 -0.16118348858E+03 -0.26496010882E+03  0.11494332272E+04  0.11905472734E+04  0.46999998093E+01 0.  1.
</event>
<event>
 5   0  0.4306214E-03  0.1337777E+04  0.7818609E-02  0.9000133E-01
       -2   -1    0    0    0  501  0.00000000000E+00  0.00000000000E+00  0.43596923995E+03  0.43596923996E+03  0.25500000920E-02 0. -1.
        2   -1    0    0  501    0  0.00000000000E+00  0.00000000000E+00 -0.10262458877E+04  0.10262458877E+04  0.25500000920E-02 0.  1.
    10030    2    1    2    0    0  0.00000000000E+00  0.00000000000E+00 -0.59027664770E+03  0.14622151276E+04  0.13377767223E+04 0.  0.
        3    1    3    3  502    0 -0.37401138508E+03  0.54901561993E+02  0.30801886461E+03  0.48762109146E+03  0.10100000352E+00 0. -1.
       -3    1    3    3    0  502  0.37401138508E+03 -0.54901561993E+02 -0.89829551231E+03  0.97459403616E+03  0.10100000352E+00 0.  1.
</event>
<event>
 5   0  0.2511542E-03  0.1288733E+04  0.7818609E-02  0.9038548E-01
       -1   -1    0    0    0  501  0.00000000000E+00  0.00000000000E+00  0.49879792663E+03  0.49879792665E+03  0.50400001928E-02 0. -1.
        1   -1    0    0  501    0  0.00000000000E+00  0.00000000000E+00 -0.83241706985E+03  0.83241706986E+03  0.50400001928E-02 0.  1.
    10030    2    1    2    0    0  0.00000000000E+00  0.00000000000E+00 -0.33361914322E+03  0.13312149965E+04  0.12887325689E+04 0.  0.
        4    1    3    3  502    0  0.16682363029E+03 -0.49432405048E+03  0.22383666078E+03  0.56770666203E+03  0.12699999809E+01 0. -1.
       -4    1    3    3    0  502 -0.16682363029E+03  0.49432405048E+03 -0.55745580400E+03  0.76350833448E+03  0.12699999809E+01 0.  1.
</event>
<event>
 5   0  0.4453011E-03  0.1221447E+04  0.7818609E-02  0.9094288E-01
       -2   -1    0    0    0  501  0.00000000000E+00  0.00000000000E+00  0.82874786293E+03  0.82874786294E+03  0.25500000920E-02 0. -1.
        2   -1    0    0  501    0  0.00000000000E+00  0.00000000000E+00 -0.45005647209E+03  0.45005647210E+03  0.25500000920E-02 0.  1.
    10030    2    1    2    0    0  0.00000000000E+00  0.00000000000E+00  0.37869139084E+03  0.12788043350E+04  0.12214472391E+04 0.  0.
        1    1    3    3  502    0 -0.38446341105E+03 -0.25820746103E+03 -0.22747013211E+03  0.51597080188E+03  0.50400001928E-02 0.  1.
       -1    1    3    3    0  502  0.38446341105E+03  0.25820746103E+03  0.60616152295E+03  0.76283353315E+03  0.50400001928E-02 0. -1.
</event>
<event>
 5   0  0.4263540E-03  0.1294701E+04  0.7818609E-02  0.9033778E-01
       -2   -1    0    0    0  501  0.00000000000E+00  0.00000000000E+00  0.19757054381E+03  0.19757054382E+03  0.25500000920E-02 0. -1.
        2   -1    0    0  501    0  0.00000000000E+00  0.00000000000E+00 -0.21210791733E+04  0.21210791733E+04  0.25500000920E-02 0.  1.
    10030    2    1    2    0    0  0.00000000000E+00  0.00000000000E+00 -0.19235086295E+04  0.23186497172E+04  0.12947011482E+04 0.  0.
        2    1    3    3  502    0 -0.46326989084E+03  0.44966183580E+03 -0.87684321211E+03  0.10888841890E+04  0.25500000920E-02 0.  1.
       -2    1    3    3    0  502  0.46326989084E+03 -0.44966183580E+03 -0.10466654174E+04  0.12297655282E+04  0.25500000920E-02 0. -1.
</event>
<event>
 5   0  0.2462055E-03  0.1282520E+04  0.7818609E-02  0.9043543E-01
        1   -1    0    0  501    0  0.00000000000E+00  0.00000000000E+00  0.18340361314E+03  0.18340361320E+03  0.50400001928E-02 0. -1.
       -1   -1    0    0    0  501  0.00000000000E+00  0.00000000000E+00 -0.22421281074E+04  0.22421281074E+04  0.50400001928E-02 0.  1.
    10030    2    1    2    0    0  0.00000000000E+00  0.00000000000E+00 -0.20587244943E+04  0.24255317207E+04  0.12825200133E+04 0.  0.
        2    1    3    3  502    0 -0.27857183011E+03 -0.56163723832E+03 -0.12843321436E+04  0.14291772833E+04  0.25500000920E-02 0. -1.
       -2    1    3    3    0  502  0.27857183011E+03  0.56163723832E+03 -0.77439235071E+03  0.99635443736E+03  0.25500000920E-02 0.  1.
</event>
<event>
 5   0  0.4388937E-03  0.1335033E+04  0.7818609E-02  0.9002236E-01
       -2   -1    0    0    0  501  0.00000000000E+00  0.00000000000E+00  0.37265783948E+03  0.37265783949E+03  0.25500000920E-02 0. -1.
        2   -1    0    0  501    0  0.00000000000E+00  0.00000000000E+00 -0.11956764574E+04  0.11956764574E+04  0.25500000920E-02 0.  1.
    10030    2    1    2    0    0  0.00000000000E+00  0.00000000000E+00 -0.82301861791E+03  0.15683342969E+04  0.13350328915E+04 0.  0.
        5    1    3    3  502    0  0.51882166622E+03  0.32637016547E+03 -0.10100374590E+03  0.62122238605E+03  0.46999998093E+01 0. -1.
       -5    1    3    3    0  502 -0.51882166622E+03 -0.32637016547E+03 -0.72201487201E+03  0.94711191084E+03  0.46999998093E+01 0.  1.
</event>
<event>
 5   0  0.2370801E-03  0.1318956E+04  0.7818609E-02  0.9014666E-01
       -1   -1    0    0    0  501  0.00000000000E+00  0.00000000000E+00  0.17163432509E+04  0.17163432509E+04  0.50400001928E-02 0.  1.
        1   -1    0    0  501    0  0.00000000000E+00  0.00000000000E+00 -0.25339409635E+03  0.25339409640E+03  0.50400001928E-02 0. -1.
    10030    2    1    2    0    0  0.00000000000E+00  0.00000000000E+00  0.14629491546E+04  0.19697373473E+04  0.13189560222E+04 0.  0.
        3    1    3    3  502    0  0.31484222877E+03 -0.12638831493E+03  0.15760240820E+04  0.16121264071E+04  0.10100000352E+00 0.  1.
       -3    1    3    3    0  502 -0.31484222877E+03  0.12638831493E+03 -0.11307492744E+03  0.35761094024E+03  0.10100000352E+00 0. -1.
</event>
<event>
 5   0  0.2370801E-03  0.1269025E+04  0.7818609E-02  0.9054496E-01
        1   -1    0    0  501    0  0.00000000000E+00  0.00000000000E+00  0.13915262661E+04  0.13915262661E+04  0.50400001928E-02 0.  1.
       -1   -1    0    0    0  501  0.00000000000E+00  0.00000000000E+00 -0.28932711196E+03  0.28932711200E+03  0.50400001928E-02 0. -1.
    10030    2    1    2    0    0  0.00000000000E+00  0.00000000000E+00  0.11021991542E+04  0.16808533781E+04  0.12690252572E+04 0.  0.
        3    1    3    3  502    0 -0.34191781950E+03  0.30090651272E+03 -0.34024549476E+02  0.45673866144E+03  0.10100000352E+00 0. -1.
       -3    1    3    3    0  502  0.34191781950E+03 -0.30090651272E+03  0.11362237036E+04  0.12241147167E+04  0.10100000352E+00 0.  1.
</event>
<event>
 5   0  0.2511542E-03  0.1191146E+04  0.7818609E-02  0.9120642E-01
       -1   -1    0    0    0  501  0.00000000000E+00  0.00000000000E+00  0.39857743922E+03  0.39857743925E+03  0.50400001928E-02 0. -1.
        1   -1    0    0  501    0  0.00000000000E+00  0.00000000000E+00 -0.88993303081E+03  0.88993303082E+03  0.50400001928E-02 0.  1.
    10030    2    1    2    0    0  0.00000000000E+00  0.00000000000E+00 -0.49135559159E+03  0.12885104701E+04  0.11911460507E+04 0.  0.
        4    1    3    3  502    0  0.27807449484E+03  0.17088228921E+03  0.29321928589E+03  0.43875430934E+03  0.12699999809E+01 0. -1.
       -4    1    3    3    0  502 -0.27807449484E+03 -0.17088228921E+03 -0.78457487747E+03  0.84975616074E+03  0.12699999809E+01 0.  1.
</event>
<event>
 5   0  0.4310889E-03  0.1297620E+04  0.7818609E-02  0.9031455E-01
       -2   -1    0    0    0  501  0.00000000000E+00  0.00000000000E+00  0.44840558746E+03  0.44840558747E+03  0.25500000920E-02 0.  1.
        2   -1    0    0  501    0  0.00000000000E+00  0.00000000000E+00 -0.93878055247E+03  0.93878055247E+03  0.25500000920E-02 0. -1.
    10030    2    1    2    0    0  0.00000000000E+00  0.00000000000E+00 -0.49037496500E+03  0.13871861399E+04  0.12976200447E+04 0.  0.
        4    1    3    3  502    0  0.22410556281E+03  0.52131318133E+03 -0.58148343288E+03  0.81247481925E+03  0.12699999809E+01 0. -1.
       -4    1    3    3    0  502 -0.22410556281E+03 -0.52131318133E+03  0.91108467874E+02  0.57471132069E+03  0.12699999809E+01 0.  1.
</event>
<event>
 5   0  0.4263540E-03  0.1319382E+04  0.7818609E-02  0.9014335E-01
        2   -1    0    0  501    0  0.00000000000E+00  0.00000000000E+00  0.11923945686E+04  0.11923945686E+04  0.25500000920E-02 0.  1.
       -2   -1    0    0    0  501  0.00000000000E+00  0.00000000000E+00 -0.36497315916E+03  0.36497315917E+03  0.25500000920E-02 0. -1.
    10030    2    1    2    0    0  0.00000000000E+00  0.00000000000E+00  0.82742140939E+03  0.15573677277E+04  0.13193816926E+04 0.  0.
        2    1    3    3  502    0  0.58671220658E+01  0.34357116272E+03  0.10784174713E+04  0.11318391270E+04  0.25500000920E-02 0.  1.
       -2    1    3    3    0  502 -0.58671220658E+01 -0.34357116272E+03 -0.25099606189E+03  0.42552860076E+03  0.25500000920E-02 0. -1.
</event>
<event>
 5   0  0.4310889E-03  0.1307869E+04  0.7818609E-02  0.9023348E-01
        2   -1    0    0  501    0  0.00000000000E+00  0.00000000000E+00  0.19811747470E+04  0.19811747470E+04  0.25500000920E-02 0. -1.
       -2   -1    0    0    0  501  0.00000000000E+00  0.00000000000E+00 -0.21584700213E+03  0.21584700215E+03  0.25500000920E-02 0.  1.
    10030    2    1    2    0    0  0.00000000000E+00  0.00000000000E+00  0.17653277449E+04  0.21970217492E+04  0.13078694581E+04 0.  0.
        4    1    3    3  502    0 -0.20717258157E+03 -0.29363557625E+03  0.18004308788E+04  0.18359453402E+04  0.12699999809E+01 0. -1.
       -4    1    3    3    0  502  0.20717258157E+03  0.29363557625E+03 -0.35103133867E+02  0.36107640895E+03  0.12699999809E+01 0.  1.
</event>
<event>
 5   0  0.4453011E-03  0.1266478E+04  0.7818609E-02  0.9056579E-01
        2   -1    0    0  501    0  0.00000000000E+00  0.00000000000E+00  0.47906795482E+03  0.47906795483E+03  0.25500000920E-02 0. -1.
       -2   -1    0    0    0  501  0.00000000000E+00  0.00000000000E+00 -0.83702446942E+03  0.83702446942E+03  0.25500000920E-02 0.  1.
    10030    2    1    2    0    0  0.00000000000E+00  0.00000000000E+00 -0.35795651459E+03  0.13160924242E+04  0.12664779520E+04 0.  0.
        1    1    3    3  502    0 -0.21956216943E+03  0.14258725425E+03 -0.77815346852E+03  0.82101247976E+03  0.50400001928E-02 0.  1.
       -1    1    3    3    0  502  0.21956216943E+03 -0.14258725425E+03  0.42019695393E+03  0.49507994449E+03  0.50400001928E-02 0. -1.
</event>
<event>
 5   0  0.4306214E-03  0.1285919E+04  0.7818609E-02  0.9040807E-01
        2   -1    0    0  501    0  0.00000000000E+00  0.00000000000E+00  0.10740125499E+04  0.10740125499E+04  0.25500000920E-02 0.  1.
       -2   -1    0    0    0  501  0.00000000000E+00  0.00000000000E+00 -0.38490884884E+03  0.38490884885E+03  0.25500000920E-02 0. -1.
    10030    2    1    2    0    0  0.00000000000E+00  0.00000000000E+00  0.68910370108E+03  0.14589213988E+04  0.12859190243E+04 0.  0.
        3    1    3    3  502    0 -0.14666367495E+03 -0.62547055103E+03  0.37399038744E+03  0.74336563268E+03  0.10100000352E+00 0. -1.
       -3    1    3    3    0  502  0.14666367495E+03  0.62547055103E+03  0.31511331364E+03  0.71555576609E+03  0.10100000352E+00 0.  1.
</event>
<event>
 5   0  0.2356769E-03  0.7607277E+03  0.7818609E-02  0.9618669E-01
        1   -1    0    0  501    0  0.00000000000E+00  0.00000000000E+00  0.20161195025E+04  0.20161195025E+04  0.50400001928E-02 0. -1.
       -1   -1    0    0    0  501  0.00000000000E+00  0.00000000000E+00 -0.71759968552E+02  0.71759968729E+02  0.50400001928E-02 0.  1.
    10030    2    1    2    0    0  0.00000000000E+00  0.00000000000E+00  0.19443595340E+04  0.20878794713E+04  0.76072773655E+03 0.  0.
        1    1    3    3  502    0 -0.28274812999E+03 -0.14286046289E+03  0.15499846660E+04  0.15820265743E+04  0.50400001928E-02 0. -1.
       -1    1    3    3    0  502  0.28274812999E+03  0.14286046289E+03  0.39437486798E+03  0.50585289698E+03  0.50400001928E-02 0.  1.
</event>
<event>
 5   0  0.4263540E-03  0.1213405E+04  0.7818609E-02  0.9101204E-01
        2   -1    0    0  501    0  0.00000000000E+00  0.00000000000E+00  0.15042926047E+04  0.15042926047E+04  0.25500000920E-02 0.  1.
       -2   -1    0    0    0  501  0.00000000000E+00  0.00000000000E+00 -0.24469153611E+03  0.24469153613E+03  0.25500000920E-02 0. -1.
    10030    2    1    2    0    0  0.00000000000E+00  0.00000000000E+00  0.12596010686E+04  0.17489841409E+04  0.12134045792E+04 0.  0.
        2    1    3    3  502    0  0.33738283535E+03  0.35478862507E+02 -0.95206126762E+02  0.35234944849E+03  0.25500000920E-02 0. -1.
       -2    1    3    3    0  502 -0.33738283535E+03 -0.35478862507E+02  0.13548071954E+04  0.13966346924E+04  0.25500000920E-02 0.  1.
</event>
<event>
 5   0  0.2462055E-03  0.1340325E+04  0.7818609E-02  0.8998185E-01
       -1   -1    0    0    0  501  0.00000000000E+00  0.00000000000E+00  0.67986494026E+03  0.67986494028E+03  0.50400001928E-02 0. -1.
        1   -1    0    0  501    0  0.00000000000E+00  0.00000000000E+00 -0.66059842174E+03  0.66059842175E+03  0.50400001928E-02 0.  1.
    10030    2    1    2    0    0  0.00000000000E+00  0.00000000000E+00  0.19266518529E+02  0.13404633620E+04  0.13403248958E+04 0.  0.
        2    1    3    3  502    0 -0.31904809046E+03 -0.58567400994E+03 -0.56039167032E+02  0.66928776934E+03  0.25500000920E-02 0. -1.
       -2    1    3    3    0  502  0.31904809046E+03  0.58567400994E+03  0.75305685560E+02  0.67117559269E+03  0.25500000920E-02 0.  1.
</event>
<event>
 5   0  0.4263540E-03  0.1298473E+04  0.7818609E-02  0.9030777E-01
       -2   -1    0    0    0  501  0.00000000000E+00  0.00000000000E+00  0.29661409935E+03  0.29661409936E+03  0.25500000920E-02 0. -1.
        2   -1    0    0  501    0  0.00000000000E+00  0.00000000000E+00 -0.14210651757E+04  0.14210651757E+04  0.25500000920E-02 0.  1.
    10030    2    1    2    0    0  0.00000000000E+00  0.00000000000E+00 -0.11244510764E+04  0.17176792751E+04  0.12984728988E+04 0.  0.
        2    1    3    3  502    0  0.29129203927E+03  0.63283835131E+02  0.20073891061E+03  0.35937724771E+03  0.25500000920E-02 0. -1.
       -2    1    3    3    0  502 -0.29129203927E+03 -0.63283835131E+02 -0.13251899870E+04  0.13583020274E+04  0.25500000920E-02 0.  1.
</event>
<event>
 5   0  0.4310889E-03  0.1285415E+04  0.7818609E-02  0.9041212E-01
        2   -1    0    0  501    0  0.00000000000E+00  0.00000000000E+00  0.83658368289E+03  0.83658368290E+03  0.25500000920E-02 0.  1.
       -2   -1    0    0    0  501  0.00000000000E+00  0.00000000000E+00 -0.49376127551E+03  0.49376127551E+03  0.25500000920E-02 0. -1.
    10030    2    1    2    0    0  0.00000000000E+00  0.00000000000E+00  0.34282240739E+03  0.13303449584E+04  0.12854145267E+04 0.  0.
        4    1    3    3  502    0 -0.23258002448E+03 -0.37540168108E+03  0.65469276841E+03  0.78971141808E+03  0.12699999809E+01 0.  1.
       -4    1    3    3    0  502  0.23258002448E+03  0.37540168108E+03 -0.31187036102E+03  0.54063354033E+03  0.12699999809E+01 0. -1.
</event>
<event>
 5   0  0.2356769E-03  0.1300246E+04  0.7818609E-02  0.9029370E-01
        1   -1    0    0  501    0  0.00000000000E+00  0.00000000000E+00  0.42346156232E+03  0.42346156235E+03  0.50400001928E-02 0.  1.
       -1   -1    0    0    0  501  0.00000000000E+00  0.00000000000E+00 -0.99810666406E+03  0.99810666407E+03  0.50400001928E-02 0. -1.
    10030    2    1    2    0    0  0.00000000000E+00  0.00000000000E+00 -0.57464510174E+03  0.14215682264E+04  0.13002458342E+04 0.  0.
        1    1    3    3  502    0 -0.42660565485E+03  0.34431857194E+02 -0.82235307170E+03  0.92706122349E+03  0.50400001928E-02 0. -1.
       -1    1    3    3    0  502  0.42660565485E+03 -0.34431857194E+02  0.24770796996E+03  0.49450700293E+03  0.50400001928E-02 0.  1.
</event>
<event>
 5   0  0.2370801E-03  0.1268076E+04  0.7818609E-02  0.9055272E-01
       -1   -1    0    0    0  501  0.00000000000E+00  0.00000000000E+00  0.61554203524E+03  0.61554203526E+03  0.50400001928E-02 0. -1.
        1   -1    0    0  501    0  0.00000000000E+00  0.00000000000E+00 -0.65308958901E+03  0.65308958903E+03  0.50400001928E-02 0.  1.
    10030    2    1    2    0    0  0.00000000000E+00  0.00000000000E+00 -0.37547553776E+02  0.12686316243E+04  0.12680758571E+04 0.  0.
        3    1    3    3  502    0  0.71986578284E+02 -0.28210404526E+03 -0.58226065564E+03  0.65099327271E+03  0.10100000352E+00 0.  1.
       -3    1    3    3    0  502 -0.71986578284E+02  0.28210404526E+03  0.54471310186E+03  0.61763835158E+03  0.10100000352E+00 0. -1.
</event>
<event>
 5   0  0.4306214E-03  0.1271207E+04  0.7818609E-02  0.9052715E-01
        2   -1    0    0  501    0  0.00000000000E+00  0.00000000000E+00  0.12769762497E+04  0.12769762497E+04  0.25500000920E-02 0. -1.
       -2   -1    0    0    0  501  0.00000000000E+00  0.00000000000E+00 -0.31636612983E+03  0.31636612984E+03  0.25500000920E-02 0.  1.
    10030    2    1    2    0    0  0.00000000000E+00  0.00000000000E+00  0.96061011984E+03  0.15933423795E+04  0.12712073537E+04 0.  0.
        3    1    3    3  502    0 -0.35806558347E+02  0.42982819102E+03  0.10654706228E+04  0.11494616312E+04  0.10100000352E+00 0. -1.
       -3    1    3    3    0  502  0.35806558347E+02 -0.42982819102E+03 -0.10486050295E+03  0.44388074829E+03  0.10100000352E+00 0.  1.
</event>
<event>
 5   0  0.2458456E-03  0.1292572E+04  0.7818609E-02  0.9035477E-01
       -1   -1    0    0    0  501  0.00000000000E+00  0.00000000000E+00  0.49750503069E+03  0.49750503072E+03  0.50400001928E-02 0.  1.
        1   -1    0    0  501    0  0.00000000000E+00  0.00000000000E+00 -0.83956032122E+03  0.83956032123E+03  0.50400001928E-02 0. -1.
    10030    2    1    2    0    0  0.00000000000E+00  0.00000000000E+00 -0.34205529053E+03  0.13370653519E+04  0.12925718292E+04 0.  0.
        5    1    3    3  502    0  0.60244543839E+03  0.14977348955E+03  0.14854329085E+02  0.62097934386E+03  0.46999998093E+01 0. -1.
       -5    1    3    3    0  502 -0.60244543839E+03 -0.14977348955E+03 -0.35690961961E+03  0.71608600809E+03  0.46999998093E+01 0.  1.
</event>
<event>
 5   0  0.2511542E-03  0.1251643E+04  0.7818609E-02  0.9068817E-01
       -1   -1    0    0    0  501  0.00000000000E+00  0.00000000000E+00  0.35290348805E+03  0.35290348809E+03  0.50400001928E-02 0.  1.
        1   -1    0    0  501    0  0.00000000000E+00  0.00000000000E+00 -0.11098003297E+04  0.11098003297E+04  0.50400001928E-02 0. -1.
    10030    2    1    2    0    0  0.00000000000E+00  0.00000000000E+00 -0.75689684163E+03  0.14627038178E+04  0.12516427724E+04 0.  0.
        4    1    3    3  502    0 -0.43708003831E+03 -0.41439063163E+03 -0.57708837151E+03  0.83414096945E+03  0.12699999809E+01 0. -1.
       -4    1    3    3    0  502  0.43708003831E+03  0.41439063163E+03 -0.17980847012E+03  0.62856284833E+03  0.12699999809E+01 0.  1.
</event>
<event>
 5   0  0.4310889E-03  0.1277012E+04  0.7818609E-02  0.9047996E-01
       -2   -1    0    0    0  501  0.00000000000E+00  0.00000000000E+00  0.30345129168E+03  0.30345129169E+03  0.25500000920E-02 0.  1.
        2   -1    0    0  501    0  0.00000000000E+00  0.00000000000E+00 -0.13435095293E+04  0.13435095293E+04  0.25500000920E-02 0. -1.
    10030    2    1    2    0    0  0.00000000000E+00  0.00000000000E+00 -0.10400582376E+04  0.16469608210E+04  0.12770116711E+04 0.  0.
        4    1    3    3  502    0  0.13094138599E+03 -0.15975863217E+03  0.25916650914E+03  0.33141719852E+03  0.12699999809E+01 0.  1.
       -4    1    3    3    0  502 -0.13094138599E+03  0.15975863217E+03 -0.12992247467E+04  0.13155436224E+04  0.12699999809E+01 0. -1.
</event>
<event>
 5   0  0.4453011E-03  0.1292604E+04  0.7818609E-02  0.9035451E-01
        2   -1    0    0  501    0  0.00000000000E+00  0.00000000000E+00  0.15508997402E+04  0.15508997402E+04  0.25500000920E-02 0. -1.
       -2   -1    0    0    0  501  0.00000000000E+00  0.00000000000E+00 -0.26933176835E+03  0.26933176836E+03  0.25500000920E-02 0.  1.
    10030    2    1    2    0    0  0.00000000000E+00  0.00000000000E+00  0.12815679719E+04  0.18202315086E+04  0.12926044555E+04 0.  0.
        1    1    3    3  502    0  0.72861618966E+02  0.62034678274E+03  0.87459267197E+03  0.10747331242E+04  0.50400001928E-02 0.  1.
       -1    1    3    3    0  502 -0.72861618966E+02 -0.62034678274E+03  0.40697529993E+03  0.74549838441E+03  0.50400001928E-02 0. -1.
</event>
<event>
 5   0  0.2462055E-03  0.1300621E+04  0.7818609E-02  0.9029073E-01
       -1   -1    0    0    0  501  0.00000000000E+00  0.00000000000E+00  0.60925119647E+03  0.60925119649E+03  0.50400001928E-02 0. -1.
        1   -1    0    0  501    0  0.00000000000E+00  0.00000000000E+00 -0.69413684519E+03  0.69413684520E+03  0.50400001928E-02 0.  1.
    10030    2    1    2    0    0  0.00000000000E+00  0.00000000000E+00 -0.84885648715E+02  0.13033880417E+04  0.13006209340E+04 0.  0.
        2    1    3    3  502    0 -0.18535202787E+03  0.41652875254E+03 -0.50716657012E+03  0.68196004706E+03  0.25500000920E-02 0.  1.
       -2    1    3    3    0  502  0.18535202787E+03 -0.41652875254E+03  0.42228092140E+03  0.62142799464E+03  0.25500000920E-02 0. -1.
</event>
<event>
 5   0  0.4263540E-03  0.1271906E+04  0.7818609E-02  0.9052146E-01
        2   -1    0    0  501    0  0.00000000000E+00  0.00000000000E+00  0.26559977804E+03  0.26559977806E+03  0.25500000920E-02 0. -1.
       -2   -1    0    0    0  501  0.00000000000E+00  0.00000000000E+00 -0.15227270677E+04  0.15227270677E+04  0.25500000920E-02 0.  1.
    10030    2    1    2    0    0  0.00000000000E+00  0.00000000000E+00 -0.12571272897E+04  0.17883268458E+04  0.12719056116E+04 0.  0.
        2    1    3    3  502    0  0.60655528961E+03  0.18662022478E+03 -0.57059966966E+03  0.85341690320E+03  0.25500000920E-02 0. -1.
       -2    1    3    3    0  502 -0.60655528961E+03 -0.18662022478E+03 -0.68652762000E+03  0.93490994255E+03  0.25500000920E-02 0.  1.
</event>
<event>
 5   0  0.4453011E-03  0.1298387E+04  0.7818609E-02  0.9030845E-01
        2   -1    0    0  501    0  0.00000000000E+00  0.00000000000E+00  0.90457676374E+03  0.90457676375E+03  0.25500000920E-02 0.  1.
       -2   -1    0    0    0  501  0.00000000000E+00  0.00000000000E+00 -0.46591120212E+03  0.46591120213E+03  0.25500000920E-02 0. -1.
    10030    2    1    2    0    0  0.00000000000E+00  0.00000000000E+00  0.43866556162E+03  0.13704879659E+04  0.12983873804E+04 0.  0.
        1    1    3    3  502    0 -0.74463659442E+02 -0.34066013656E+03  0.79733428015E+03  0.87025060732E+03  0.50400001928E-02 0.  1.
       -1    1    3    3    0  502  0.74463659442E+02  0.34066013656E+03 -0.35866871853E+03  0.50023735856E+03  0.50400001928E-02 0. -1.
</event>
<event>
 5   0  0.4306214E-03  0.1312441E+04  0.7818609E-02  0.9019757E-01
       -2   -1    0    0    0  501  0.00000000000E+00  0.00000000000E+00  0.24899187641E+03  0.24899187642E+03  0.25500000920E-02 0. -1.
        2   -1    0    0  501    0  0.00000000000E+00  0.00000000000E+00 -0.17294759876E+04  0.17294759876E+04  0.25500000920E-02 0.  1.
    10030    2    1    2    0    0  0.00000000000E+00  0.00000000000E+00 -0.14804841112E+04  0.19784678640E+04  0.13124411932E+04 0.  0.
        3    1    3    3  502    0  0.56775054697E+02  0.65267334443E+03 -0.79703913367E+03  0.10317350882E+04  0.10100000352E+00 0.  1.
       -3    1    3    3    0  502 -0.56775054697E+02 -0.65267334443E+03 -0.68344497750E+03  0.94673277584E+03  0.10100000352E+00 0. -1.
</event>
<event>
 5   0  0.4263540E-03  0.1284066E+04  0.7818609E-02  0.9042297E-01
       -2   -1    0    0    0  501  0.00000000000E+00  0.00000000000E+00  0.12661061624E+04  0.12661061624E+04  0.25500000920E-02 0.  1.
        2   -1    0    0  501    0  0.00000000000E+00  0.00000000000E+00 -0.32557013705E+03  0.32557013706E+03  0.25500000920E-02 0. -1.
    10030    2    1    2    0    0  0.00000000000E+00  0.00000000000E+00  0.94053602532E+03  0.15916762994E+04  0.12840659746E+04 0.  0.
        2    1    3    3  502    0 -0.68140111702E+02 -0.27220589937E+03  0.11860718011E+04  0.12188131292E+04  0.25500000920E-02 0.  1.
       -2    1    3    3    0  502  0.68140111702E+02  0.27220589937E+03 -0.24553577583E+03  0.37286317020E+03  0.25500000920E-02 0. -1.
</event>
<event>
 5   0  0.2458456E-03  0.1308365E+04  0.7818609E-02  0.9022958E-01
       -1   -1    0    0    0  501  0.00000000000E+00  0.00000000000E+00  0.49505508879E+03  0.49505508881E+03  0.50400001928E-02 0. -1.
        1   -1    0    0  501    0  0.00000000000E+00  0.00000000000E+00 -0.86445895173E+03  0.86445895175E+03  0.50400001928E-02 0.  1.
    10030    2    1    2    0    0  0.00000000000E+00  0.00000000000E+00 -0.36940386294E+03  0.13595140406E+04  0.13083650914E+04 0.  0.
        5    1    3    3  502    0 -0.18013414267E+02 -0.12193170336E+03  0.48286297354E+03  0.49836790084E+03  0.46999998093E+01 0. -1.
       -5    1    3    3    0  502  0.18013414267E+02  0.12193170336E+03 -0.85226683648E+03  0.86114613971E+03  0.46999998093E+01 0.  1.
</event>
<event>
 5   0  0.4310889E-03  0.1272831E+04  0.7818609E-02  0.9051393E-01
       -2   -1    0    0    0  501  0.00000000000E+00  0.00000000000E+00  0.25226645769E+03  0.25226645770E+03  0.25500000920E-02 0. -1.
        2   -1    0    0  501    0  0.00000000000E+00  0.00000000000E+00 -0.16055419277E+04  0.16055419277E+04  0.25500000920E-02 0.  1.
    10030    2    1    2    0    0  0.00000000000E+00  0.00000000000E+00 -0.13532754701E+04  0.18578083854E+04  0.12728305068E+04 0.  0.
        4    1    3    3  502    0 -0.34224611140E+03 -0.39881960332E+02  0.10434396569E+03  0.36001701016E+03  0.12699999809E+01 0. -1.
       -4    1    3    3    0  502  0.34224611140E+03  0.39881960332E+02 -0.14576194357E+04  0.14977913753E+04  0.12699999809E+01 0.  1.
</event>
<event>
 5   0  0.2370801E-03  0.1305465E+04  0.7818609E-02  0.9025243E-01
       -1   -1    0    0    0  501  0.00000000000E+00  0.00000000000E+00  0.31674106496E+03  0.31674106500E+03  0.50400001928E-02 0.  1.
        1   -1    0    0  501    0  0.00000000000E+00  0.00000000000E+00 -0.13451355269E+04  0.13451355269E+04  0.50400001928E-02 0. -1.
    10030    2    1    2    0    0  0.00000000000E+00  0.00000000000E+00 -0.10283944620E+04  0.16618765919E+04  0.13054649124E+04 0.  0.
        3    1    3    3  502    0 -0.59500511469E+02  0.61064182834E+03 -0.79781373476E+03  0.10064444937E+04  0.10100000352E+00 0. -1.
       -3    1    3    3    0  502  0.59500511469E+02 -0.61064182834E+03 -0.23058072720E+03  0.65543209819E+03  0.10100000352E+00 0.  1.
</event>
<event>
 5   0  0.2356769E-03  0.1088467E+04  0.7818609E-02  0.9216506E-01
        1   -1    0    0  501    0  0.00000000000E+00  0.00000000000E+00  0.39487853716E+03  0.39487853720E+03  0.50400001928E-02 0.  1.
       -1   -1    0    0    0  501  0.00000000000E+00  0.00000000000E+00 -0.75007948612E+03  0.75007948613E+03  0.50400001928E-02 0. -1.
    10030    2    1    2    0    0  0.00000000000E+00  0.00000000000E+00 -0.35520094895E+03  0.11449580233E+04  0.10884673450E+04 0.  0.
        1    1    3    3  502    0  0.51973855873E+03 -0.13949008391E+03 -0.26308719300E+03  0.59899960275E+03  0.50400001928E-02 0. -1.
       -1    1    3    3    0  502 -0.51973855873E+03  0.13949008391E+03 -0.92113755956E+02  0.54595842058E+03  0.50400001928E-02 0.  1.
</event>
<event>
 5   0  0.4306214E-03  0.1322606E+04  0.7818609E-02  0.9011828E-01
       -2   -1    0    0    0  501  0.00000000000E+00  0.00000000000E+00  0.27464657477E+03  0.27464657478E+03  0.25500000920E-02 0.  1.
        2   -1    0    0  501    0  0.00000000000E+00  0.00000000000E+00 -0.15923059574E+04  0.15923059574E+04  0.25500000920E-02 0. -1.
    10030    2    1    2    0    0  0.00000000000E+00  0.00000000000E+00 -0.13176593826E+04  0.18669525322E+04  0.13226055757E+04 0.  0.
        3    1    3    3  502    0  0.94170150023E+02  0.48830520990E+03 -0.43521461964E+02  0.49920348859E+03  0.10100000352E+00 0.  1.
       -3    1    3    3    0  502 -0.94170150023E+02 -0.48830520990E+03 -0.12741379207E+04  0.13677490436E+04  0.10100000352E+00 0. -1.
</event>
<event>
 5   0  0.2458456E-03  0.8635762E+03  0.7818609E-02  0.9472294E-01
        1   -1    0    0  501    0  0.00000000000E+00  0.00000000000E+00  0.17913286659E+04  0.17913286659E+04  0.50400001928E-02 0.  1.
       -1   -1    0    0    0  501  0.00000000000E+00  0.00000000000E+00 -0.10407971445E+03  0.10407971457E+03  0.50400001928E-02 0. -1.
    10030    2    1    2    0    0  0.00000000000E+00  0.00000000000E+00  0.16872489515E+04  0.18954083805E+04  0.86357622976E+03 0.  0.
        5    1    3    3  502    0 -0.23443587628E+03  0.23862497247E+03  0.24448311922E+03  0.41436233317E+03  0.46999998093E+01 0. -1.
       -5    1    3    3    0  502  0.23443587628E+03 -0.23862497247E+03  0.14427658322E+04  0.14810460473E+04  0.46999998093E+01 0.  1.
</event>
<event>
 5   0  0.2370801E-03  0.7577602E+03  0.7818609E-02  0.9623254E-01
       -1   -1    0    0    0  501  0.00000000000E+00  0.00000000000E+00  0.17805103603E+03  0.17805103610E+03  0.50400001928E-02 0. -1.
        1   -1    0    0  501    0  0.00000000000E+00  0.00000000000E+00 -0.80623025880E+03  0.80623025881E+03  0.50400001928E-02 0.  1.
    10030    2    1    2    0    0  0.00000000000E+00  0.00000000000E+00 -0.62817922277E+03  0.98428129492E+03  0.75776020719E+03 0.  0.
        3    1    3    3  502    0 -0.65780889873E+02  0.33088884475E+03 -0.90101190396E+02  0.34918875664E+03  0.10100000352E+00 0. -1.
       -3    1    3    3    0  502  0.65780889873E+02 -0.33088884475E+03 -0.53807803237E+03  0.63509253828E+03  0.10100000352E+00 0.  1.
</event>
<event>
 5   0  0.2511542E-03  0.1230327E+04  0.7818609E-02  0.9086718E-01
        1   -1    0    0  501    0  0.00000000000E+00  0.00000000000E+00  0.14266638335E+04  0.14266638335E+04  0.50400001928E-02 0. -1.
       -1   -1    0    0    0  501  0.00000000000E+00  0.00000000000E+00 -0.26525256470E+03  0.26525256474E+03  0.50400001928E-02 0.  1.
    10030    2    1    2    0    0  0.00000000000E+00  0.00000000000E+00  0.11614112688E+04  0.16919163983E+04  0.12303271774E+04 0.  0.
        4    1    3    3  502    0 -0.32392780549E+03 -0.44641314539E+03  0.20608510709E+03  0.58880098829E+03  0.12699999809E+01 0.  1.
       -4    1    3    3    0  502  0.32392780549E+03  0.44641314539E+03  0.95532616175E+03  0.11031154100E+04  0.12699999809E+01 0. -1.
</event>
<event>
 5   0  0.2458456E-03  0.1424206E+04  0.7818609E-02  0.8936481E-01
       -1   -1    0    0    0  501  0.00000000000E+00  0.00000000000E+00  0.46085945210E+03  0.46085945212E+03  0.50400001928E-02 0.  1.
        1   -1    0    0  501    0  0.00000000000E+00  0.00000000000E+00 -0.11003147136E+04  0.11003147136E+04  0.50400001928E-02 0. -1.
    10030    2    1    2    0    0  0.00000000000E+00  0.00000000000E+00 -0.63945526151E+03  0.15611741657E+04  0.14242056538E+04 0.  0.
        5    1    3    3  502    0  0.23979574059E+03  0.31003776712E+03  0.33195823381E+03  0.51365725269E+03  0.46999998093E+01 0.  1.
       -5    1    3    3    0  502 -0.23979574059E+03 -0.31003776712E+03 -0.97141349531E+03  0.10475169130E+04  0.46999998093E+01 0. -1.
</event>
<event>
 5   0  0.2511542E-03  0.1328297E+04  0.7818609E-02  0.9007421E-01
       -1   -1    0    0    0  501  0.00000000000E+00  0.00000000000E+00  0.10304266640E+04  0.10304266640E+04  0.50400001928E-02 0. -1.
        1   -1    0    0  501    0  0.00000000000E+00  0.00000000000E+00 -0.42806864402E+03  0.42806864405E+03  0.50400001928E-02 0.  1.
    10030    2    1    2    0    0  0.00000000000E+00  0.00000000000E+00  0.60235802000E+03  0.14584953081E+04  0.13282971729E+04 0.  0.
        4    1    3    3  502    0  0.27098860726E+02 -0.62769028033E+03  0.64754632472E+02  0.63160447402E+03  0.12699999809E+01 0. -1.
       -4    1    3    3    0  502 -0.27098860726E+02  0.62769028033E+03  0.53760338753E+03  0.82689083407E+03  0.12699999809E+01 0.  1.
</event>
<event>
 5   0  0.4306214E-03  0.1314334E+04  0.7818609E-02  0.9018275E-01
        2   -1    0    0  501    0  0.00000000000E+00  0.00000000000E+00  0.16484775121E+04  0.16484775121E+04  0.25500000920E-02 0.  1.
       -2   -1    0    0    0  501  0.00000000000E+00  0.00000000000E+00 -0.26198004448E+03  0.26198004449E+03  0.25500000920E-02 0. -1.
    10030    2    1    2    0    0  0.00000000000E+00  0.00000000000E+00  0.13864974677E+04  0.19104575566E+04  0.13143336136E+04 0.  0.
        3    1    3    3  502    0  0.61567007297E+02  0.53037783102E+02 -0.25464891389E+03  0.26730054689E+03  0.10100000352E+00 0. -1.
       -3    1    3    3    0  502 -0.61567007297E+02 -0.53037783102E+02  0.16411463815E+04  0.16431570098E+04  0.10100000352E+00 0.  1.
</event>
<event>
 5   0  0.2511542E-03  0.1272073E+04  0.7818609E-02  0.9052009E-01
        1   -1    0    0  501    0  0.00000000000E+00  0.00000000000E+00  0.64440598275E+03  0.64440598276E+03  0.50400001928E-02 0.  1.
       -1   -1    0    0    0  501  0.00000000000E+00  0.00000000000E+00 -0.62777570427E+03  0.62777570429E+03  0.50400001928E-02 0. -1.
    10030    2    1    2    0    0  0.00000000000E+00  0.00000000000E+00  0.16630278476E+02  0.12721816871E+04  0.12720729848E+04 0.  0.
        4    1    3    3  502    0 -0.14765163561E+03 -0.23836398557E+03 -0.56262979333E+03  0.62862730800E+03  0.12699999809E+01 0. -1.
       -4    1    3    3    0  502  0.14765163561E+03  0.23836398557E+03  0.57926007180E+03  0.64355437906E+03  0.12699999809E+01 0.  1.
</event>
<event>
 5   0  0.4306214E-03  0.1344113E+04  0.7818609E-02  0.8995296E-01
       -2   -1    0    0    0  501  0.00000000000E+00  0.00000000000E+00  0.29678947356E+03  0.29678947357E+03  0.25500000920E-02 0. -1.
        2   -1    0    0  501    0  0.00000000000E+00  0.00000000000E+00 -0.15218202200E+04  0.15218202200E+04  0.25500000920E-02 0.  1.
    10030    2    1    2    0    0  0.00000000000E+00  0.00000000000E+00 -0.12250307464E+04  0.18186096936E+04  0.13441134207E+04 0.  0.
        3    1    3    3  502    0 -0.12375490055E+03  0.10533196877E+03 -0.14948347214E+04  0.15036425617E+04  0.10100000352E+00 0.  1.
       -3    1    3    3    0  502  0.12375490055E+03 -0.10533196877E+03  0.26980397492E+03  0.31496713184E+03  0.10100000352E+00 0. -1.
</event>
<event>
 5   0  0.4310889E-03  0.1302535E+04  0.7818609E-02  0.9027558E-01
        2   -1    0    0  501    0  0.00000000000E+00  0.00000000000E+00  0.24364225043E+03  0.24364225045E+03  0.25500000920E-02 0.  1.
       -2   -1    0    0    0  501  0.00000000000E+00  0.00000000000E+00 -0.17408683651E+04  0.17408683651E+04  0.25500000920E-02 0. -1.
    10030    2    1    2    0    0  0.00000000000E+00  0.00000000000E+00 -0.14972261146E+04  0.19845106155E+04  0.13025345849E+04 0.  0.
        4    1    3    3  502    0 -0.39949915792E+03  0.22098483824E+03 -0.40988455360E+02  0.45838361913E+03  0.12699999809E+01 0.  1.
       -4    1    3    3    0  502  0.39949915792E+03 -0.22098483824E+03 -0.14562376593E+04  0.15261269964E+04  0.12699999809E+01 0. -1.
</event>
<event>
 5   0  0.2511542E-03  0.1271954E+04  0.7818609E-02  0.9052106E-01
       -1   -1    0    0    0  501  0.00000000000E+00  0.00000000000E+00  0.33441631435E+03  0.33441631439E+03  0.50400001928E-02 0. -1.
        1   -1    0    0  501    0  0.00000000000E+00  0.00000000000E+00 -0.12094716158E+04  0.12094716158E+04  0.50400001928E-02 0.  1.
    10030    2    1    2    0    0  0.00000000000E+00  0.00000000000E+00 -0.87505530147E+03  0.15438879302E+04  0.12719544648E+04 0.  0.
        4    1    3    3  502    0  0.42333852978E+03 -0.66797602145E+02 -0.10078651636E+04  0.10952037397E+04  0.12699999809E+01 0.  1.
       -4    1    3    3    0  502 -0.42333852978E+03  0.66797602145E+02  0.13280986216E+03  0.44868419054E+03  0.12699999809E+01 0. -1.
</event>
<event>
 5   0  0.2356769E-03  0.1322083E+04  0.7818609E-02  0.9012234E-01
       -1   -1    0    0    0  501  0.00000000000E+00  0.00000000000E+00  0.19540356903E+03  0.19540356909E+03  0.50400001928E-02 0.  1.
        1   -1    0    0  501    0  0.00000000000E+00  0.00000000000E+00 -0.22362747466E+04  0.22362747466E+04  0.50400001928E-02 0. -1.
    10030    2    1    2    0    0  0.00000000000E+00  0.00000000000E+00 -0.20408711776E+04  0.24316783157E+04  0.13220833059E+04 0.  0.
        1    1    3    3  502    0 -0.72262248205E+02  0.47396486375E+03 -0.18574818329E+04  0.19183595294E+04  0.50400001928E-02 0. -1.
       -1    1    3    3    0  502  0.72262248205E+02 -0.47396486375E+03 -0.18338934470E+03  0.51331878630E+03  0.50400001928E-02 0.  1.
</event>
<event>
 5   0  0.4263540E-03  0.1283390E+04  0.7818609E-02  0.9042842E-01
       -2   -1    0    0    0  501  0.00000000000E+00  0.00000000000E+00  0.23663130014E+03  0.23663130015E+03  0.25500000920E-02 0.  1.
        2   -1    0    0  501    0  0.00000000000E+00  0.00000000000E+00 -0.17401435187E+04  0.17401435187E+04  0.25500000920E-02 0. -1.
    10030    2    1    2    0    0  0.00000000000E+00  0.00000000000E+00 -0.15035122186E+04  0.19767748189E+04  0.12833899225E+04 0.  0.
        2    1    3    3  502    0  0.17557427812E+03  0.61112382114E+03 -0.61859773646E+03  0.88710868075E+03  0.25500000920E-02 0.  1.
       -2    1    3    3    0  502 -0.17557427812E+03 -0.61112382114E+03 -0.88491448213E+03  0.10896661381E+04  0.25500000920E-02 0. -1.
</event>
<event>
 5   0  0.4306214E-03  0.9475869E+03  0.7818609E-02  0.9367976E-01
        2   -1    0    0  501    0  0.00000000000E+00  0.00000000000E+00  0.15563428884E+04  0.15563428884E+04  0.25500000920E-02 0.  1.
       -2   -1    0    0    0  501  0.00000000000E+00  0.00000000000E+00 -0.14423572393E+03  0.14423572396E+03  0.25500000920E-02 0. -1.
    10030    2    1    2    0    0  0.00000000000E+00  0.00000000000E+00  0.14121071645E+04  0.17005786124E+04  0.94758692101E+03 0.  0.
        3    1    3    3  502    0 -0.22555719937E+02  0.31711392676E+03  0.75599827133E+02  0.32678027345E+03  0.10100000352E+00 0. -1.
       -3    1    3    3    0  502  0.22555719937E+02 -0.31711392676E+03  0.13365073373E+04  0.13737983389E+04  0.10100000352E+00 0.  1.
</event>
<event>
 5   0  0.2511542E-03  0.1308497E+04  0.7818609E-02  0.9022854E-01
       -1   -1    0    0    0  501  0.00000000000E+00  0.00000000000E+00  0.33833672404E+03  0.33833672408E+03  0.50400001928E-02 0.  1.
        1   -1    0    0  501    0  0.00000000000E+00  0.00000000000E+00 -0.12651331328E+04  0.12651331328E+04  0.50400001928E-02 0. -1.
    10030    2    1    2    0    0  0.00000000000E+00  0.00000000000E+00 -0.92679640875E+03  0.16034698569E+04  0.13084968470E+04 0.  0.
        4    1    3    3  502    0  0.11930496353E+03  0.62863676535E+03 -0.63062112199E+03  0.89838881865E+03  0.12699999809E+01 0. -1.
       -4    1    3    3    0  502 -0.11930496353E+03 -0.62863676535E+03 -0.29617528676E+03  0.70508103822E+03  0.12699999809E+01 0.  1.
</event>
<event>
 5   0  0.2462055E-03  0.1219831E+04  0.7818609E-02  0.9095674E-01
       -1   -1    0    0    0  501  0.00000000000E+00  0.00000000000E+00  0.50304110297E+03  0.50304110300E+03  0.50400001928E-02 0. -1.
        1   -1    0    0  501    0  0.00000000000E+00  0.00000000000E+00 -0.73949548362E+03  0.73949548364E+03  0.50400001928E-02 0.  1.
    10030    2    1    2    0    0  0.00000000000E+00  0.00000000000E+00 -0.23645438065E+03  0.12425365866E+04  0.12198305190E+04 0.  0.
        2    1    3    3  502    0 -0.17510614260E+03 -0.20331671006E+03  0.43968774275E+03  0.51509723053E+03  0.25500000920E-02 0. -1.
       -2    1    3    3    0  502  0.17510614260E+03  0.20331671006E+03 -0.67614212340E+03  0.72743935610E+03  0.25500000920E-02 0.  1.
</event>
<event>
 5   0  0.2356769E-03  0.1336280E+04  0.7818609E-02  0.9001279E-01
        1   -1    0    0  501    0  0.00000000000E+00  0.00000000000E+00  0.17384142007E+04  0.17384142007E+04  0.50400001928E-02 0. -1.
       -1   -1    0    0    0  501  0.00000000000E+00  0.00000000000E+00 -0.25679214346E+03  0.25679214351E+03  0.50400001928E-02 0.  1.
    10030    2    1    2    0    0  0.00000000000E+00  0.00000000000E+00  0.14816220573E+04  0.19952063442E+04  0.13362800738E+04 0.  0.
        1    1    3    3  502    0  0.49612405364E+03  0.42848229356E+03  0.54800408171E+03  0.85442648958E+03  0.50400001928E-02 0.  1.
       -1    1    3    3    0  502 -0.49612405364E+03 -0.42848229356E+03  0.93361797557E+03  0.11407798547E+04  0.50400001928E-02 0. -1.
</event>
<event>
 5   0  0.4263540E-03  0.1307086E+04  0.7818609E-02  0.9023965E-01
        2   -1    0    0  501    0  0.00000000000E+00  0.00000000000E+00  0.93163334479E+03  0.93163334480E+03  0.25500000920E-02 0.  1.
       -2   -1    0    0    0  501  0.00000000000E+00  0.00000000000E+00 -0.45846173895E+03  0.45846173895E+03  0.25500000920E-02 0. -1.
    10030    2    1    2    0    0  0.00000000000E+00  0.00000000000E+00  0.47317160585E+03  0.13900950838E+04  0.13070856794E+04 0.  0.
        2    1    3    3  502    0  0.50202936600E+03 -0.39113772790E+03  0.39467334356E+03  0.74885863462E+03  0.25500000920E-02 0.  1.
       -2    1    3    3    0  502 -0.50202936600E+03  0.39113772790E+03  0.78498262282E+02  0.64123644913E+03  0.25500000920E-02 0. -1.
</event>
<event>
 5   0  0.2458456E-03  0.1328592E+04  0.7818609E-02  0.9007194E-01
       -1   -1    0    0    0  501  0.00000000000E+00  0.00000000000E+00  0.24580274150E+03  0.24580274156E+03  0.50400001928E-02 0.  1.
        1   -1    0    0  501    0  0.00000000000E+00  0.00000000000E+00 -0.17952981071E+04  0.17952981071E+04  0.50400001928E-02 0. -1.
    10030    2    1    2    0    0  0.00000000000E+00  0.00000000000E+00 -0.15494953656E+04  0.20411008487E+04  0.13285920316E+04 0.  0.
        5    1    3    3  502    0 -0.61651775059E+03  0.22487551160E+02 -0.11531467711E+04  0.13078109162E+04  0.46999998093E+01 0. -1.
       -5    1    3    3    0  502  0.61651775059E+03 -0.22487551160E+02 -0.39634859451E+03  0.73328993251E+03  0.46999998093E+01 0.  1.
</event>
<event>
 5   0  0.2370801E-03  0.1164504E+04  0.7818609E-02  0.9144506E-01
        1   -1    0    0  501    0  0.00000000000E+00  0.00000000000E+00  0.11415491362E+04  0.11415491362E+04  0.50400001928E-02 0.  1.
       -1   -1    0    0    0  501  0.00000000000E+00  0.00000000000E+00 -0.29698002612E+03  0.29698002617E+03  0.50400001928E-02 0. -1.
    10030    2    1    2    0    0  0.00000000000E+00  0.00000000000E+00  0.84456911008E+03  0.14385291624E+04  0.11645038297E+04 0.  0.
        3    1    3    3  502    0  0.66953741965E+02 -0.15163104436E+03 -0.26721883077E+03  0.31445300268E+03  0.10100000352E+00 0. -1.
       -3    1    3    3    0  502 -0.66953741965E+02  0.15163104436E+03  0.11117879409E+04  0.11240761597E+04  0.10100000352E+00 0.  1.
</event>
<event>
 5   0  0.4306214E-03  0.1281895E+04  0.7818609E-02  0.9044047E-01
       -2   -1    0    0    0  501  0.00000000000E+00  0.00000000000E+00  0.30501409613E+03  0.30501409615E+03  0.25500000920E-02 0.  1.
        2   -1    0    0  501    0  0.00000000000E+00  0.00000000000E+00 -0.13468671634E+04  0.13468671634E+04  0.25500000920E-02 0. -1.
    10030    2    1    2    0    0  0.00000000000E+00  0.00000000000E+00 -0.10418530672E+04  0.16518812595E+04  0.12818946454E+04 0.  0.
        3    1    3    3  502    0 -0.63730734307E+03  0.24674268719E+02 -0.60287325698E+03  0.87762500149E+03  0.10100000352E+00 0.  1.
       -3    1    3    3    0  502  0.63730734307E+03 -0.24674268719E+02 -0.43897981025E+03  0.77425625802E+03  0.10100000352E+00 0. -1.
</event>
<event>
 5   0  0.4306214E-03  0.1322941E+04  0.7818609E-02  0.9011568E-01
        2   -1    0    0  501    0  0.00000000000E+00  0.00000000000E+00  0.85388215514E+03  0.85388215514E+03  0.25500000920E-02 0. -1.
       -2   -1    0    0    0  501  0.00000000000E+00  0.00000000000E+00 -0.51241610470E+03  0.51241610470E+03  0.25500000920E-02 0.  1.
    10030    2    1    2    0    0  0.00000000000E+00  0.00000000000E+00  0.34146605044E+03  0.13662982598E+04  0.13229406152E+04 0.  0.
        3    1    3    3  502    0  0.16176404333E+03 -0.63174323457E+03  0.56305440709E+02  0.65455132190E+03  0.10100000352E+00 0.  1.
       -3    1    3    3    0  502 -0.16176404333E+03  0.63174323457E+03  0.28516060973E+03  0.71174693795E+03  0.10100000352E+00 0. -1.
</event>
<event>
 5   0  0.2356769E-03  0.6945184E+03  0.7818609E-02  0.9726653E-01
        1   -1    0    0  501    0  0.00000000000E+00  0.00000000000E+00  0.82806782412E+03  0.82806782414E+03  0.50400001928E-02 0.  1.
       -1   -1    0    0    0  501  0.00000000000E+00  0.00000000000E+00 -0.14562688640E+03  0.14562688649E+03  0.50400001928E-02 0. -1.
    10030    2    1    2    0    0  0.00000000000E+00  0.00000000000E+00  0.68244093772E+03  0.97369471063E+03  0.69451836263E+03 0.  0.
        1    1    3    3  502    0 -0.12123147889E+03  0.28651917880E+03  0.12494112888E+03  0.33526198264E+03  0.50400001928E-02 0.  1.
       -1    1    3    3    0  502  0.12123147889E+03 -0.28651917880E+03  0.55749980884E+03  0.63843272799E+03  0.50400001928E-02 0. -1.
</event>
<event>
 5   0  0.4453011E-03  0.1353351E+04  0.7818609E-02  0.8988296E-01
       -2   -1    0    0    0  501  0.00000000000E+00  0.00000000000E+00  0.59360473617E+03  0.59360473618E+03  0.25500000920E-02 0. -1.
        2   -1    0    0  501    0  0.00000000000E+00  0.00000000000E+00 -0.77137108899E+03  0.77137108899E+03  0.25500000920E-02 0.  1.
    10030    2    1    2    0    0  0.00000000000E+00  0.00000000000E+00 -0.17776635281E+03  0.13649758252E+04  0.13533507037E+04 0.  0.
        1    1    3    3  502    0  0.14493839650E+03 -0.59190857260E+03 -0.38556402530E+03  0.72112586608E+03  0.50400001928E-02 0.  1.
       -1    1    3    3    0  502 -0.14493839650E+03  0.59190857260E+03  0.20779767249E+03  0.64384995909E+03  0.50400001928E-02 0. -1.
</event>
<event>
 5   0  0.2462055E-03  0.1215480E+04  0.7818609E-02  0.9099414E-01
       -1   -1    0    0    0  501  0.00000000000E+00  0.00000000000E+00  0.92978176591E+03  0.92978176592E+03  0.50400001928E-02 0.  1.
        1   -1    0    0  501    0  0.00000000000E+00  0.00000000000E+00 -0.39724152337E+03  0.39724152340E+03  0.50400001928E-02 0. -1.
    10030    2    1    2    0    0  0.00000000000E+00  0.00000000000E+00  0.53254024254E+03  0.13270232893E+04  0.12154800288E+04 0.  0.
        2    1    3    3  502    0 -0.19004310721E+03  0.35169409528E+03 -0.23349632509E+03  0.46295318672E+03  0.25500000920E-02 0. -1.
       -2    1    3    3    0  502  0.19004310721E+03 -0.35169409528E+03  0.76603656763E+03  0.86407010260E+03  0.25500000920E-02 0.  1.
</event>
<event>
 5   0  0.2356769E-03  0.1313933E+04  0.7818609E-02  0.9018588E-01
        1   -1    0    0  501    0  0.00000000000E+00  0.00000000000E+00  0.66497748783E+03  0.66497748785E+03  0.50400001928E-02 0.  1.
       -1   -1    0    0    0  501  0.00000000000E+00  0.00000000000E+00 -0.64905232548E+03  0.64905232550E+03  0.50400001928E-02 0. -1.
    10030    2    1    2    0    0  0.00000000000E+00  0.00000000000E+00  0.15925162352E+02  0.13140298133E+04  0.13139333086E+04 0.  0.
        1    1    3    3  502    0  0.15744715849E+03 -0.46493025760E+03  0.44463573120E+03  0.66230709315E+03  0.50400001928E-02 0.  1.
       -1    1    3    3    0  502 -0.15744715849E+03  0.46493025760E+03 -0.42871056885E+03  0.65172272019E+03  0.50400001928E-02 0. -1.
</event>
<event>
 5   0  0.1661750E-03  0.1295807E+04  0.7818609E-02  0.9032897E-01
       -4   -1    0    0    0  501  0.00000000000E+00  0.00000000000E+00  0.16402366605E+04  0.16402371522E+04  0.12699999809E+01 0.  1.
        4   -1    0    0  501    0  0.00000000000E+00  0.00000000000E+00 -0.25592371528E+03  0.25592686639E+03  0.12699999809E+01 0. -1.
    10030    2    1    2    0    0  0.00000000000E+00  0.00000000000E+00  0.13843129453E+04  0.18961640186E+04  0.12958069513E+04 0.  0.
        2    1    3    3  502    0 -0.13687144261E+03  0.29756738243E+03 -0.12585567929E+03  0.35088429846E+03  0.25500000920E-02 0. -1.
       -2    1    3    3    0  502  0.13687144261E+03 -0.29756738243E+03  0.15101686246E+04  0.15452797201E+04  0.25500000920E-02 0.  1.
</event>
<event>
 5   0  0.4453011E-03  0.1236205E+04  0.7818609E-02  0.9081744E-01
       -2   -1    0    0    0  501  0.00000000000E+00  0.00000000000E+00  0.79821817319E+03  0.79821817320E+03  0.25500000920E-02 0.  1.
        2   -1    0    0  501    0  0.00000000000E+00  0.00000000000E+00 -0.47862945177E+03  0.47862945178E+03  0.25500000920E-02 0. -1.
    10030    2    1    2    0    0  0.00000000000E+00  0.00000000000E+00  0.31958872142E+03  0.12768476250E+04  0.12362050423E+04 0.  0.
        1    1    3    3  502    0  0.31209703484E+03  0.50640667553E+03 -0.13650387138E+02  0.59501143961E+03  0.50400001928E-02 0. -1.
       -1    1    3    3    0  502 -0.31209703484E+03 -0.50640667553E+03  0.33323910856E+03  0.68183618536E+03  0.50400001928E-02 0.  1.
</event>
<event>
 5   0  0.2462055E-03  0.1268836E+04  0.7818609E-02  0.9054651E-01
       -1   -1    0    0    0  501  0.00000000000E+00  0.00000000000E+00  0.38639634395E+03  0.38639634398E+03  0.50400001928E-02 0. -1.
        1   -1    0    0  501    0  0.00000000000E+00  0.00000000000E+00 -0.10416401687E+04  0.10416401688E+04  0.50400001928E-02 0.  1.
    10030    2    1    2    0    0  0.00000000000E+00  0.00000000000E+00 -0.65524382479E+03  0.14280365127E+04  0.12688356126E+04 0.  0.
        2    1    3    3  502    0 -0.14053518456E+03  0.19611307131E+03 -0.98799139827E+03  0.10170238335E+04  0.25500000920E-02 0.  1.
       -2    1    3    3    0  502  0.14053518456E+03 -0.19611307131E+03  0.33274757348E+03  0.41101267924E+03  0.25500000920E-02 0. -1.
</event>
<event>
 5   0  0.2462055E-03  0.1289720E+04  0.7818609E-02  0.9037757E-01
       -1   -1    0    0    0  501  0.00000000000E+00  0.00000000000E+00  0.15120627121E+03  0.15120627129E+03  0.50400001928E-02 0.  1.
        1   -1    0    0  501    0  0.00000000000E+00  0.00000000000E+00 -0.27501788197E+04  0.27501788197E+04  0.50400001928E-02 0. -1.
    10030    2    1    2    0    0  0.00000000000E+00  0.00000000000E+00 -0.25989725485E+04  0.29013850910E+04  0.12897197907E+04 0.  0.
        2    1    3    3  502    0 -0.96987763099E+02  0.52529763201E+03 -0.48681415521E+03  0.72272557040E+03  0.25500000920E-02 0.  1.
       -2    1    3    3    0  502  0.96987763099E+02 -0.52529763201E+03 -0.21121583933E+04  0.21786595206E+04  0.25500000920E-02 0. -1.
</event>
<event>
 5   0  0.4263540E-03  0.1297889E+04  0.7818609E-02  0.9031241E-01
        2   -1    0    0  501    0  0.00000000000E+00  0.00000000000E+00  0.10860450936E+04  0.10860450937E+04  0.25500000920E-02 0. -1.
       -2   -1    0    0    0  501  0.00000000000E+00  0.00000000000E+00 -0.38776395662E+03  0.38776395663E+03  0.25500000920E-02 0.  1.
    10030    2    1    2    0    0  0.00000000000E+00  0.00000000000E+00  0.69828113703E+03  0.14738090503E+04  0.12978892751E+04 0.  0.
        2    1    3    3  502    0  0.21929287573E+03  0.55876509189E+03  0.69093132553E+02  0.60421987242E+03  0.25500000920E-02 0. -1.
       -2    1    3    3    0  502 -0.21929287573E+03 -0.55876509189E+03  0.62918800448E+03  0.86958917786E+03  0.25500000920E-02 0.  1.
</event>
<event>
 5   0  0.1661750E-03  0.1321962E+04  0.7818609E-02  0.9012328E-01
       -3   -1    0    0    0  501  0.00000000000E+00  0.00000000000E+00  0.81299713040E+03  0.81299713667E+03  0.10100000352E+00 0.  1.
        3   -1    0    0  501    0  0.00000000000E+00  0.00000000000E+00 -0.53738903855E+03  0.53738904805E+03  0.10100000352E+00 0. -1.
    10030    2    1    2    0    0  0.00000000000E+00  0.00000000000E+00  0.27560809184E+03  0.13503861847E+04  0.13219618102E+04 0.  0.
        1    1    3    3  502    0  0.64808812780E+03  0.10524269471E+03  0.21560942547E+03  0.69107284027E+03  0.50400001928E-02 0.  1.
       -1    1    3    3    0  502 -0.64808812780E+03 -0.10524269471E+03  0.59998666377E+02  0.65931334445E+03  0.50400001928E-02 0. -1.
</event>
<event>
 5   0  0.2370801E-03  0.9266482E+03  0.7818609E-02  0.9392870E-01
       -1   -1    0    0    0  501  0.00000000000E+00  0.00000000000E+00  0.14488942757E+04  0.14488942757E+04  0.50400001928E-02 0. -1.
        1   -1    0    0  501    0  0.00000000000E+00  0.00000000000E+00 -0.14816071066E+03  0.14816071074E+03  0.50400001928E-02 0.  1.
    10030    2    1    2    0    0  0.00000000000E+00  0.00000000000E+00  0.13007335650E+04  0.15970549864E+04  0.92664816545E+03 0.  0.
        3    1    3    3  502    0  0.15798319793E+03  0.41419175078E+03  0.41814044326E+03  0.60938898721E+03  0.10100000352E+00 0. -1.
       -3    1    3    3    0  502 -0.15798319793E+03 -0.41419175078E+03  0.88259312177E+03  0.98766599924E+03  0.10100000352E+00 0.  1.
</event>
<event>
 5   0  0.4388937E-03  0.1306726E+04  0.7818609E-02  0.9024249E-01
        2   -1    0    0  501    0  0.00000000000E+00  0.00000000000E+00  0.14633724418E+04  0.14633724419E+04  0.25500000920E-02 0.  1.
       -2   -1    0    0    0  501  0.00000000000E+00  0.00000000000E+00 -0.29171174102E+03  0.29171174103E+03  0.25500000920E-02 0. -1.
    10030    2    1    2    0    0  0.00000000000E+00  0.00000000000E+00  0.11716607008E+04  0.17550841829E+04  0.13067255608E+04 0.  0.
        5    1    3    3  502    0 -0.29187200617E+03 -0.43401629395E+03  0.11117103534E+04  0.12286095438E+04  0.46999998093E+01 0.  1.
       -5    1    3    3    0  502  0.29187200617E+03  0.43401629395E+03  0.59950347456E+02  0.52647463905E+03  0.46999998093E+01 0. -1.
</event>
<event>
 5   0  0.2370801E-03  0.1278972E+04  0.7818609E-02  0.9046408E-01
        1   -1    0    0  501    0  0.00000000000E+00  0.00000000000E+00  0.79551165989E+03  0.79551165991E+03  0.50400001928E-02 0.  1.
       -1   -1    0    0    0  501  0.00000000000E+00  0.00000000000E+00 -0.51406232187E+03  0.51406232189E+03  0.50400001928E-02 0. -1.
    10030    2    1    2    0    0  0.00000000000E+00  0.00000000000E+00  0.28144933802E+03  0.13095739818E+04  0.12789723546E+04 0.  0.
        3    1    3    3  502    0 -0.41812920134E+03  0.45071787697E+03 -0.39451313685E+02  0.61606416060E+03  0.10100000352E+00 0. -1.
       -3    1    3    3    0  502  0.41812920134E+03 -0.45071787697E+03  0.32090065171E+03  0.69350982120E+03  0.10100000352E+00 0.  1.
</event>
<event>
 5   0  0.4263540E-03  0.1261188E+04  0.7818609E-02  0.9060923E-01
       -2   -1    0    0    0  501  0.00000000000E+00  0.00000000000E+00  0.53161718566E+03  0.53161718567E+03  0.25500000920E-02 0.  1.
        2   -1    0    0  501    0  0.00000000000E+00  0.00000000000E+00 -0.74799794780E+03  0.74799794780E+03  0.25500000920E-02 0. -1.
    10030    2    1    2    0    0  0.00000000000E+00  0.00000000000E+00 -0.21638076213E+03  0.12796151335E+04  0.12611876369E+04 0.  0.
        2    1    3    3  502    0  0.17565070966E+03  0.46437897039E+03 -0.50264790007E+03  0.70650966829E+03  0.25500000920E-02 0. -1.
       -2    1    3    3    0  502 -0.17565070966E+03 -0.46437897039E+03  0.28626713793E+03  0.57310546518E+03  0.25500000920E-02 0.  1.
</event>
<event>
 5   0  0.4263540E-03  0.1297584E+04  0.7818609E-02  0.9031483E-01
        2   -1    0    0  501    0  0.00000000000E+00  0.00000000000E+00  0.48626679178E+03  0.48626679178E+03  0.25500000920E-02 0. -1.
       -2   -1    0    0    0  501  0.00000000000E+00  0.00000000000E+00 -0.86563794164E+03  0.86563794164E+03  0.25500000920E-02 0.  1.
    10030    2    1    2    0    0  0.00000000000E+00  0.00000000000E+00 -0.37937114986E+03  0.13519047334E+04  0.12975838851E+04 0.  0.
        2    1    3    3  502    0 -0.16786032202E+03 -0.23504366155E+03 -0.79496083329E+03  0.84580455013E+03  0.25500000920E-02 0.  1.
       -2    1    3    3    0  502  0.16786032202E+03  0.23504366155E+03  0.41558968344E+03  0.50610018329E+03  0.25500000920E-02 0. -1.
</event>
<event>
 5   0  0.2356769E-03  0.9737108E+03  0.7818609E-02  0.9337858E-01
       -1   -1    0    0    0  501  0.00000000000E+00  0.00000000000E+00  0.10237473633E+04  0.10237473633E+04  0.50400001928E-02 0.  1.
        1   -1    0    0  501    0  0.00000000000E+00  0.00000000000E+00 -0.23152995589E+03  0.23152995594E+03  0.50400001928E-02 0. -1.
    10030    2    1    2    0    0  0.00000000000E+00  0.00000000000E+00  0.79221740739E+03  0.12552773192E+04  0.97371080286E+03 0.  0.
        1    1    3    3  502    0 -0.80853835474E+02  0.47700138226E+03  0.46625322066E+03  0.67190752875E+03  0.50400001928E-02 0.  1.
       -1    1    3    3    0  502  0.80853835474E+02 -0.47700138226E+03  0.32596418672E+03  0.58336979048E+03  0.50400001928E-02 0. -1.
</event>
<event>
 5   0  0.4306214E-03  0.1303556E+04  0.7818609E-02  0.9026750E-01
        2   -1    0    0  501    0  0.00000000000E+00  0.00000000000E+00  0.17299437573E+04  0.17299437573E+04  0.25500000920E-02 0.  1.
       -2   -1    0    0    0  501  0.00000000000E+00  0.00000000000E+00 -0.24556540728E+03  0.24556540730E+03  0.25500000920E-02 0. -1.
    10030    2    1    2    0    0  0.00000000000E+00  0.00000000000E+00  0.14843783500E+04  0.19755091646E+04  0.13035556656E+04 0.  0.
        3    1    3    3  502    0  0.13039322796E+03  0.27870296350E+03  0.16129448281E+04  0.16420319012E+04  0.10100000352E+00 0.  1.
       -3    1    3    3    0  502 -0.13039322796E+03 -0.27870296350E+03 -0.12856647806E+03  0.33347726346E+03  0.10100000352E+00 0. -1.
</event>
<event>
 5   0  0.4263540E-03  0.1342907E+04  0.7818609E-02  0.8996215E-01
        2   -1    0    0  501    0  0.00000000000E+00  0.00000000000E+00  0.11212145635E+04  0.11212145635E+04  0.25500000920E-02 0.  1.
       -2   -1    0    0    0  501  0.00000000000E+00  0.00000000000E+00 -0.40210824874E+03  0.40210824875E+03  0.25500000920E-02 0. -1.
    10030    2    1    2    0    0  0.00000000000E+00  0.00000000000E+00  0.71910631471E+03  0.15233228122E+04  0.13429067348E+04 0.  0.
        2    1    3    3  502    0 -0.65518308206E+03  0.11503011640E+03  0.46322547514E+03  0.81060140607E+03  0.25500000920E-02 0.  1.
       -2    1    3    3    0  502  0.65518308206E+03 -0.11503011640E+03  0.25588083957E+03  0.71272140614E+03  0.25500000920E-02 0. -1.
</event>
<event>
 5   0  0.2370801E-03  0.1403460E+04  0.7818609E-02  0.8951318E-01
        1   -1    0    0  501    0  0.00000000000E+00  0.00000000000E+00  0.75427761128E+03  0.75427761129E+03  0.50400001928E-02 0.  1.
       -1   -1    0    0    0  501  0.00000000000E+00  0.00000000000E+00 -0.65284305677E+03  0.65284305679E+03  0.50400001928E-02 0. -1.
    10030    2    1    2    0    0  0.00000000000E+00  0.00000000000E+00  0.10143455451E+03  0.14071206681E+04  0.14034598696E+04 0.  0.
        3    1    3    3  502    0  0.25385007833E+03 -0.34969314831E+03 -0.50362611021E+03  0.66359960016E+03  0.10100000352E+00 0. -1.
       -3    1    3    3    0  502 -0.25385007833E+03  0.34969314831E+03  0.60506066472E+03  0.74352106792E+03  0.10100000352E+00 0.  1.
</event>
<event>
 5   0  0.2370801E-03  0.1333072E+04  0.7818609E-02  0.9003742E-01
       -1   -1    0    0    0  501  0.00000000000E+00  0.00000000000E+00  0.54504628843E+03  0.54504628845E+03  0.50400001928E-02 0. -1.
        1   -1    0    0  501    0  0.00000000000E+00  0.00000000000E+00 -0.81510539344E+03  0.81510539346E+03  0.50400001928E-02 0.  1.
    10030    2    1    2    0    0  0.00000000000E+00  0.00000000000E+00 -0.27005910501E+03  0.13601516819E+04  0.13330718951E+04 0.  0.
        3    1    3    3  502    0 -0.56288440230E+02  0.19841710125E+03 -0.78172858835E+03  0.80847840455E+03  0.10100000352E+00 0.  1.
       -3    1    3    3    0  502  0.56288440230E+02 -0.19841710125E+03  0.51166948334E+03  0.55167327736E+03  0.10100000352E+00 0. -1.
</event>
<event>
 5   0  0.2511542E-03  0.1309511E+04  0.7818609E-02  0.9022057E-01
        1   -1    0    0  501    0  0.00000000000E+00  0.00000000000E+00  0.28303943183E+03  0.28303943187E+03  0.50400001928E-02 0.  1.
       -1   -1    0    0    0  501  0.00000000000E+00  0.00000000000E+00 -0.15146459690E+04  0.15146459690E+04  0.50400001928E-02 0. -1.
    10030    2    1    2    0    0  0.00000000000E+00  0.00000000000E+00 -0.12316065372E+04  0.17976854009E+04  0.13095106483E+04 0.  0.
        4    1    3    3  502    0 -0.60096557102E+03 -0.25607194296E+03 -0.55486516694E+03  0.85709359110E+03  0.12699999809E+01 0.  1.
       -4    1    3    3    0  502  0.60096557102E+03  0.25607194296E+03 -0.67674137024E+03  0.94059180978E+03  0.12699999809E+01 0. -1.
</event>
<event>
 5   0  0.4306214E-03  0.1327589E+04  0.7818609E-02  0.9007969E-01
        2   -1    0    0  501    0  0.00000000000E+00  0.00000000000E+00  0.15135662259E+04  0.15135662259E+04  0.25500000920E-02 0. -1.
       -2   -1    0    0    0  501  0.00000000000E+00  0.00000000000E+00 -0.29111577460E+03  0.29111577461E+03  0.25500000920E-02 0.  1.
    10030    2    1    2    0    0  0.00000000000E+00  0.00000000000E+00  0.12224504513E+04  0.18046820005E+04  0.13275887982E+04 0.  0.
        3    1    3    3  502    0  0.62105786514E+03  0.95980300662E+02  0.90181829256E+03  0.10991821200E+04  0.10100000352E+00 0. -1.
       -3    1    3    3    0  502 -0.62105786514E+03 -0.95980300662E+02  0.32063215876E+03  0.70549988051E+03  0.10100000352E+00 0.  1.
</event>
<event>
 5   0  0.4263540E-03  0.1292645E+04  0.7818609E-02  0.9035418E-01
        2   -1    0    0  501    0  0.00000000000E+00  0.00000000000E+00  0.89059365997E+03  0.89059365997E+03  0.25500000920E-02 0. -1.
       -2   -1    0    0    0  501  0.00000000000E+00  0.00000000000E+00 -0.46904988735E+03  0.46904988735E+03  0.25500000920E-02 0.  1.
    10030    2    1    2    0    0  0.00000000000E+00  0.00000000000E+00  0.42154377262E+03  0.13596435473E+04  0.12926451267E+04 0.  0.
        2    1    3    3  502    0 -0.14454519853E+03 -0.26709235237E+03  0.81086972261E+03  0.86587605705E+03  0.25500000920E-02 0. -1.
       -2    1    3    3    0  502  0.14454519853E+03  0.26709235237E+03 -0.38932594999E+03  0.49376749028E+03  0.25500000920E-02 0.  1.
</event>
<event>
 5   0  0.4310889E-03  0.1311089E+04  0.7818609E-02  0.9020818E-01
       -2   -1    0    0    0  501  0.00000000000E+00  0.00000000000E+00  0.82806216835E+03  0.82806216836E+03  0.25500000920E-02 0. -1.
        2   -1    0    0  501    0  0.00000000000E+00  0.00000000000E+00 -0.51896872623E+03  0.51896872624E+03  0.25500000920E-02 0.  1.
    10030    2    1    2    0    0  0.00000000000E+00  0.00000000000E+00  0.30909344212E+03  0.13470308946E+04  0.13110886603E+04 0.  0.
        4    1    3    3  502    0  0.59196625637E+03  0.22101526465E+03  0.33387376985E+03  0.71466432889E+03  0.12699999809E+01 0. -1.
       -4    1    3    3    0  502 -0.59196625637E+03 -0.22101526465E+03 -0.24780327728E+02  0.63236656571E+03  0.12699999809E+01 0.  1.
</event>
<event>
 5   0  0.2462055E-03  0.1315558E+04  0.7818609E-02  0.9017318E-01
       -1   -1    0    0    0  501  0.00000000000E+00  0.00000000000E+00  0.21191509295E+03  0.21191509301E+03  0.50400001928E-02 0. -1.
        1   -1    0    0  501    0  0.00000000000E+00  0.00000000000E+00 -0.20417278838E+04  0.20417278838E+04  0.50400001928E-02 0.  1.
    10030    2    1    2    0    0  0.00000000000E+00  0.00000000000E+00 -0.18298127908E+04  0.22536429768E+04  0.13155576070E+04 0.  0.
        2    1    3    3  502    0 -0.18034337472E+03 -0.63182065236E+03 -0.86205366391E+03  0.10839084782E+04  0.25500000920E-02 0. -1.
       -2    1    3    3    0  502  0.18034337472E+03  0.63182065236E+03 -0.96775912690E+03  0.11697344986E+04  0.25500000920E-02 0.  1.
</event>
<event>
 5   0  0.1661750E-03  0.1277280E+04  0.7818609E-02  0.9047779E-01
        3   -1    0    0  501    0  0.00000000000E+00  0.00000000000E+00  0.50266891237E+03  0.50266892252E+03  0.10100000352E+00 0.  1.
       -3   -1    0    0    0  501  0.00000000000E+00  0.00000000000E+00 -0.81139134412E+03  0.81139135041E+03  0.10100000352E+00 0. -1.
    10030    2    1    2    0    0  0.00000000000E+00  0.00000000000E+00 -0.30872243175E+03  0.13140602729E+04  0.12772802594E+04 0.  0.
        2    1    3    3  502    0 -0.39936564483E+03 -0.36668870568E+03  0.19285948403E+03  0.57545486854E+03  0.25500000920E-02 0.  1.
       -2    1    3    3    0  502  0.39936564483E+03  0.36668870568E+03 -0.50158191578E+03  0.73860540439E+03  0.25500000920E-02 0. -1.
</event>
<event>
 5   0  0.4453011E-03  0.1285176E+04  0.7818609E-02  0.9041404E-01
       -2   -1    0    0    0  501  0.00000000000E+00  0.00000000000E+00  0.44404323778E+03  0.44404323779E+03  0.25500000920E-02 0.  1.
        2   -1    0    0  501    0  0.00000000000E+00  0.00000000000E+00 -0.92990864646E+03  0.92990864647E+03  0.25500000920E-02 0. -1.
    10030    2    1    2    0    0  0.00000000000E+00  0.00000000000E+00 -0.48586540868E+03  0.13739518843E+04  0.12851764801E+04 0.  0.
        1    1    3    3  502    0 -0.56734924862E+03  0.27462443592E+03 -0.10933708986E+03  0.63973303022E+03  0.50400001928E-02 0. -1.
       -1    1    3    3    0  502  0.56734924862E+03 -0.27462443592E+03 -0.37652831882E+03  0.73421885403E+03  0.50400001928E-02 0.  1.
</event>
<event>
 5   0  0.4263540E-03  0.1297445E+04  0.7818609E-02  0.9031593E-01
       -2   -1    0    0    0  501  0.00000000000E+00  0.00000000000E+00  0.91753884672E+03  0.91753884672E+03  0.25500000920E-02 0.  1.
        2   -1    0    0  501    0  0.00000000000E+00  0.00000000000E+00 -0.45866309174E+03  0.45866309175E+03  0.25500000920E-02 0. -1.
    10030    2    1    2    0    0  0.00000000000E+00  0.00000000000E+00  0.45887575498E+03  0.13762019385E+04  0.12974454967E+04 0.  0.
        2    1    3    3  502    0 -0.63050481033E+03 -0.15036975814E+03  0.25737732220E+03  0.69741699578E+03  0.25500000920E-02 0. -1.
       -2    1    3    3    0  502  0.63050481033E+03  0.15036975814E+03  0.20149843278E+03  0.67878494270E+03  0.25500000920E-02 0.  1.
</event>
<event>
 5   0  0.2356769E-03  0.1311298E+04  0.7818609E-02  0.9020653E-01
        1   -1    0    0  501    0  0.00000000000E+00  0.00000000000E+00  0.19077889389E+04  0.19077889389E+04  0.50400001928E-02 0.  1.
       -1   -1    0    0    0  501  0.00000000000E+00  0.00000000000E+00 -0.22532666160E+03  0.22532666165E+03  0.50400001928E-02 0. -1.
    10030    2    1    2    0    0  0.00000000000E+00  0.00000000000E+00  0.16824622773E+04  0.21331156006E+04  0.13112981548E+04 0.  0.
        1    1    3    3  502    0  0.10060904469E+03  0.22837388744E+03 -0.14504844602E+03  0.28864487533E+03  0.50400001928E-02 0. -1.
       -1    1    3    3    0  502 -0.10060904469E+03 -0.22837388744E+03  0.18275107233E+04  0.18444707252E+04  0.50400001928E-02 0.  1.
</event>
<event>
 5   0  0.2370801E-03  0.1279408E+04  0.7818609E-02  0.9046056E-01
        1   -1    0    0  501    0  0.00000000000E+00  0.00000000000E+00  0.93364321699E+03  0.93364321700E+03  0.50400001928E-02 0. -1.
       -1   -1    0    0    0  501  0.00000000000E+00  0.00000000000E+00 -0.43830589562E+03  0.43830589565E+03  0.50400001928E-02 0.  1.
    10030    2    1    2    0    0  0.00000000000E+00  0.00000000000E+00  0.49533732137E+03  0.13719491127E+04  0.12794081858E+04 0.  0.
        3    1    3    3  502    0  0.40971759876E+03 -0.76931770935E+02  0.76798055376E+03  0.87383130481E+03  0.10100000352E+00 0. -1.
       -3    1    3    3    0  502 -0.40971759876E+03  0.76931770935E+02 -0.27264323240E+03  0.49811780784E+03  0.10100000352E+00 0.  1.
</event>
<event>
 5   0  0.2511542E-03  0.1339094E+04  0.7818609E-02  0.8999125E-01
       -1   -1    0    0    0  501  0.00000000000E+00  0.00000000000E+00  0.39618026660E+03  0.39618026663E+03  0.50400001928E-02 0.  1.
        1   -1    0    0  501    0  0.00000000000E+00  0.00000000000E+00 -0.11315385245E+04  0.11315385245E+04  0.50400001928E-02 0. -1.
    10030    2    1    2    0    0  0.00000000000E+00  0.00000000000E+00 -0.73535825790E+03  0.15277187911E+04  0.13390940734E+04 0.  0.
        4    1    3    3  502    0  0.31913805668E+03  0.58839624225E+03 -0.35028768083E+03  0.75548812655E+03  0.12699999809E+01 0. -1.
       -4    1    3    3    0  502 -0.31913805668E+03 -0.58839624225E+03 -0.38507057707E+03  0.77223066460E+03  0.12699999809E+01 0.  1.
</event>
<event>
 5   0  0.1661750E-03  0.1301203E+04  0.7818609E-02  0.9028612E-01
       -3   -1    0    0    0  501  0.00000000000E+00  0.00000000000E+00  0.83880875282E+03  0.83880875890E+03  0.10100000352E+00 0. -1.
        3   -1    0    0  501    0  0.00000000000E+00  0.00000000000E+00 -0.50462332014E+03  0.50462333025E+03  0.10100000352E+00 0.  1.
    10030    2    1    2    0    0  0.00000000000E+00  0.00000000000E+00  0.33418543268E+03  0.13434320892E+04  0.13012032411E+04 0.  0.
        1    1    3    3  502    0  0.61535543641E+03  0.72906992713E+01 -0.50867528821E+02  0.61749734649E+03  0.50400001928E-02 0.  1.
       -1    1    3    3    0  502 -0.61535543641E+03 -0.72906992713E+01  0.38505296150E+03  0.72593474266E+03  0.50400001928E-02 0. -1.
</event>
<event>
 5   0  0.2356769E-03  0.1176061E+04  0.7818609E-02  0.9134073E-01
       -1   -1    0    0    0  501  0.00000000000E+00  0.00000000000E+00  0.23491869746E+03  0.23491869752E+03  0.50400001928E-02 0.  1.
        1   -1    0    0  501    0  0.00000000000E+00  0.00000000000E+00 -0.14719118326E+04  0.14719118326E+04  0.50400001928E-02 0. -1.
    10030    2    1    2    0    0  0.00000000000E+00  0.00000000000E+00 -0.12369931351E+04  0.17068305301E+04  0.11760605606E+04 0.  0.
        1    1    3    3  502    0 -0.10331443427E+03  0.57472172421E+03 -0.71905349648E+03  0.92629199685E+03  0.50400001928E-02 0. -1.
       -1    1    3    3    0  502  0.10331443427E+03 -0.57472172421E+03 -0.51793963866E+03  0.78053853328E+03  0.50400001928E-02 0.  1.
</event>
<event>
 5   0  0.4306214E-03  0.1257417E+04  0.7818609E-02  0.9064032E-01
       -2   -1    0    0    0  501  0.00000000000E+00  0.00000000000E+00  0.48994325145E+03  0.48994325146E+03  0.25500000920E-02 0. -1.
        2   -1    0    0  501    0  0.00000000000E+00  0.00000000000E+00 -0.80677622766E+03  0.80677622766E+03  0.25500000920E-02 0.  1.
    10030    2    1    2    0    0  0.00000000000E+00  0.00000000000E+00 -0.31683297621E+03  0.12967194791E+04  0.12574173025E+04 0.  0.
        3    1    3    3  502    0 -0.52463689861E+03 -0.25678042466E+02  0.19788415167E+03  0.56130329139E+03  0.10100000352E+00 0. -1.
       -3    1    3    3    0  502  0.52463689861E+03  0.25678042466E+02 -0.51471712788E+03  0.73541618773E+03  0.10100000352E+00 0.  1.
</event>
<event>
 5   0  0.2462055E-03  0.1317118E+04  0.7818609E-02  0.9016100E-01
       -1   -1    0    0    0  501  0.00000000000E+00  0.00000000000E+00  0.23481419925E+03  0.23481419930E+03  0.50400001928E-02 0.  1.
        1   -1    0    0  501    0  0.00000000000E+00  0.00000000000E+00 -0.18469911286E+04  0.18469911286E+04  0.50400001928E-02 0. -1.
    10030    2    1    2    0    0  0.00000000000E+00  0.00000000000E+00 -0.16121769294E+04  0.20818053279E+04  0.13171176758E+04 0.  0.
        2    1    3    3  502    0 -0.30478822314E+02 -0.44380516891E+03 -0.15736170883E+04  0.16352867416E+04  0.25500000920E-02 0. -1.
       -2    1    3    3    0  502  0.30478822314E+02  0.44380516891E+03 -0.38559841013E+02  0.44651858630E+03  0.25500000920E-02 0.  1.
</event>
<event>
 5   0  0.4453011E-03  0.1311601E+04  0.7818609E-02  0.9020416E-01
        2   -1    0    0  501    0  0.00000000000E+00  0.00000000000E+00  0.11937918353E+04  0.11937918353E+04  0.25500000920E-02 0. -1.
       -2   -1    0    0    0  501  0.00000000000E+00  0.00000000000E+00 -0.36025881993E+03  0.36025881994E+03  0.25500000920E-02 0.  1.
    10030    2    1    2    0    0  0.00000000000E+00  0.00000000000E+00  0.83353301537E+03  0.15540506553E+04  0.13116006067E+04 0.  0.
        1    1    3    3  502    0 -0.51944676326E+03 -0.28145149389E+03  0.79481051601E+02  0.59611837823E+03  0.50400001928E-02 0.  1.
       -1    1    3    3    0  502  0.51944676326E+03  0.28145149389E+03  0.75405196377E+03  0.95793227702E+03  0.50400001928E-02 0. -1.
</event>
<event>
 5   0  0.2462055E-03  0.1324332E+04  0.7818609E-02  0.9010489E-01
        1   -1    0    0  501    0  0.00000000000E+00  0.00000000000E+00  0.12919047428E+04  0.12919047428E+04  0.50400001928E-02 0.  1.
       -1   -1    0    0    0  501  0.00000000000E+00  0.00000000000E+00 -0.33939320048E+03  0.33939320052E+03  0.50400001928E-02 0. -1.
    10030    2    1    2    0    0  0.00000000000E+00  0.00000000000E+00  0.95251154229E+03  0.16312979433E+04  0.13243318095E+04 0.  0.
        2    1    3    3  502    0  0.25119530063E+03  0.43858478924E+03  0.10032083113E+04  0.11233354852E+04  0.25500000920E-02 0.  1.
       -2    1    3    3    0  502 -0.25119530063E+03 -0.43858478924E+03 -0.50696769046E+02  0.50796245807E+03  0.25500000920E-02 0. -1.
</event>
<event>
 5   0  0.2370801E-03  0.1316280E+04  0.7818609E-02  0.9016754E-01
       -1   -1    0    0    0  501  0.00000000000E+00  0.00000000000E+00  0.41540016898E+03  0.41540016901E+03  0.50400001928E-02 0. -1.
        1   -1    0    0  501    0  0.00000000000E+00  0.00000000000E+00 -0.10427254317E+04  0.10427254317E+04  0.50400001928E-02 0.  1.
    10030    2    1    2    0    0  0.00000000000E+00  0.00000000000E+00 -0.62732526268E+03  0.14581256007E+04  0.13162800926E+04 0.  0.
        3    1    3    3  502    0 -0.88588768685E+02 -0.36826741865E+03  0.28255589210E+03  0.47255338739E+03  0.10100000352E+00 0. -1.
       -3    1    3    3    0  502  0.88588768685E+02  0.36826741865E+03 -0.90988115478E+03  0.98557221329E+03  0.10100000352E+00 0.  1.
</event>
<event>
 5   0  0.4310889E-03  0.1210456E+04  0.7818609E-02  0.9103753E-01
       -2   -1    0    0    0  501  0.00000000000E+00  0.00000000000E+00  0.38824200304E+03  0.38824200304E+03  0.25500000920E-02 0.  1.
        2   -1    0    0  501    0  0.00000000000E+00  0.00000000000E+00 -0.94348590494E+03  0.94348590495E+03  0.25500000920E-02 0. -1.
    10030    2    1    2    0    0  0.00000000000E+00  0.00000000000E+00 -0.55524390191E+03  0.13317279080E+04  0.12104558771E+04 0.  0.
        4    1    3    3  502    0  0.35108535852E+03  0.22231017628E+03 -0.76172489254E+03  0.86770338726E+03  0.12699999809E+01 0. -1.
       -4    1    3    3    0  502 -0.35108535852E+03 -0.22231017628E+03  0.20648099063E+03  0.46402452073E+03  0.12699999809E+01 0.  1.
</event>
<event>
 5   0  0.2511542E-03  0.1277883E+04  0.7818609E-02  0.9047290E-01
       -1   -1    0    0    0  501  0.00000000000E+00  0.00000000000E+00  0.61157174740E+03  0.61157174742E+03  0.50400001928E-02 0.  1.
        1   -1    0    0  501    0  0.00000000000E+00  0.00000000000E+00 -0.66753603118E+03  0.66753603120E+03  0.50400001928E-02 0. -1.
    10030    2    1    2    0    0  0.00000000000E+00  0.00000000000E+00 -0.55964283777E+02  0.12791077786E+04  0.12778829008E+04 0.  0.
        4    1    3    3  502    0 -0.20301390046E+03 -0.30549262487E+03  0.49568677115E+03  0.61664201578E+03  0.12699999809E+01 0.  1.
       -4    1    3    3    0  502  0.20301390046E+03  0.30549262487E+03 -0.55165105492E+03  0.66246576284E+03  0.12699999809E+01 0. -1.
</event>
<event>
 5   0  0.4263540E-03  0.1300028E+04  0.7818609E-02  0.9029543E-01
        2   -1    0    0  501    0  0.00000000000E+00  0.00000000000E+00  0.12203473534E+04  0.12203473534E+04  0.25500000920E-02 0.  1.
       -2   -1    0    0    0  501  0.00000000000E+00  0.00000000000E+00 -0.34622780224E+03  0.34622780225E+03  0.25500000920E-02 0. -1.
    10030    2    1    2    0    0  0.00000000000E+00  0.00000000000E+00  0.87411955114E+03  0.15665751556E+04  0.13000279722E+04 0.  0.
        2    1    3    3  502    0  0.18516566187E+03 -0.12770836021E+03 -0.29783426535E+03  0.37323048807E+03  0.25500000920E-02 0. -1.
       -2    1    3    3    0  502 -0.18516566187E+03  0.12770836021E+03  0.11719538165E+04  0.11933446676E+04  0.25500000920E-02 0.  1.
</event>
<event>
 5   0  0.2370801E-03  0.1308336E+04  0.7818609E-02  0.9022981E-01
       -1   -1    0    0    0  501  0.00000000000E+00  0.00000000000E+00  0.75227413125E+03  0.75227413127E+03  0.50400001928E-02 0. -1.
        1   -1    0    0  501    0  0.00000000000E+00  0.00000000000E+00 -0.56885600528E+03  0.56885600530E+03  0.50400001928E-02 0.  1.
    10030    2    1    2    0    0  0.00000000000E+00  0.00000000000E+00  0.18341812597E+03  0.13211301366E+04  0.13083358242E+04 0.  0.
        3    1    3    3  502    0  0.90016370502E+01 -0.27012887438E+02 -0.56822997940E+03  0.56894291914E+03  0.10100000352E+00 0.  1.
       -3    1    3    3    0  502 -0.90016370502E+01  0.27012887438E+02  0.75164810537E+03  0.75218721743E+03  0.10100000352E+00 0. -1.
</event>
<event>
 5   0  0.4306214E-03  0.1324288E+04  0.7818609E-02  0.9010523E-01
        2   -1    0    0  501    0  0.00000000000E+00  0.00000000000E+00  0.15275682018E+04  0.15275682018E+04  0.25500000920E-02 0. -1.
       -2   -1    0    0    0  501  0.00000000000E+00  0.00000000000E+00 -0.28701489575E+03  0.28701489576E+03  0.25500000920E-02 0.  1.
    10030    2    1    2    0    0  0.00000000000E+00  0.00000000000E+00  0.12405533061E+04  0.18145830976E+04  0.13242882288E+04 0.  0.
        3    1    3    3  502    0 -0.57566589105E+03  0.20341331909E+03  0.26914766985E+03  0.66723959332E+03  0.10100000352E+00 0.  1.
       -3    1    3    3    0  502  0.57566589105E+03 -0.20341331909E+03  0.97140563623E+03  0.11473435043E+04  0.10100000352E+00 0. -1.
</event>
<event>
 5   0  0.2462055E-03  0.1316516E+04  0.7818609E-02  0.9016570E-01
       -1   -1    0    0    0  501  0.00000000000E+00  0.00000000000E+00  0.65116698433E+03  0.65116698434E+03  0.50400001928E-02 0.  1.
        1   -1    0    0  501    0  0.00000000000E+00  0.00000000000E+00 -0.66542594832E+03  0.66542594834E+03  0.50400001928E-02 0. -1.
    10030    2    1    2    0    0  0.00000000000E+00  0.00000000000E+00 -0.14258963991E+02  0.13165929327E+04  0.13165157167E+04 0.  0.
        2    1    3    3  502    0 -0.24193421461E+03  0.62762757997E+02 -0.61612503311E+03  0.66489200959E+03  0.25500000920E-02 0. -1.
       -2    1    3    3    0  502  0.24193421461E+03 -0.62762757997E+02  0.60186606912E+03  0.65170092309E+03  0.25500000920E-02 0.  1.
</event>
<event>
 5   0  0.4263540E-03  0.7784693E+03  0.7818609E-02  0.9591716E-01
       -2   -1    0    0    0  501  0.00000000000E+00  0.00000000000E+00  0.23129361942E+03  0.23129361943E+03  0.25500000920E-02 0. -1.
        2   -1    0    0  501    0  0.00000000000E+00  0.00000000000E+00 -0.65502724311E+03  0.65502724312E+03  0.25500000920E-02 0.  1.
    10030    2    1    2    0    0  0.00000000000E+00  0.00000000000E+00 -0.42373362369E+03  0.88632086255E+03  0.77846932345E+03 0.  0.
        2    1    3    3  502    0  0.37485449803E+02  0.34960557087E+03 -0.21779865933E+02  0.35228337556E+03  0.25500000920E-02 0. -1.
       -2    1    3    3    0  502 -0.37485449803E+02 -0.34960557087E+03 -0.40195375776E+03  0.53403748699E+03  0.25500000920E-02 0.  1.
</event>
<event>
 5   0  0.4453011E-03  0.1284383E+04  0.7818609E-02  0.9042042E-01
        2   -1    0    0  501    0  0.00000000000E+00  0.00000000000E+00  0.94332782477E+03  0.94332782478E+03  0.25500000920E-02 0. -1.
       -2   -1    0    0    0  501  0.00000000000E+00  0.00000000000E+00 -0.43718608393E+03  0.43718608394E+03  0.25500000920E-02 0.  1.
    10030    2    1    2    0    0  0.00000000000E+00  0.00000000000E+00  0.50614174084E+03  0.13805139087E+04  0.12843828052E+04 0.  0.
        1    1    3    3  502    0 -0.42600862386E+03  0.34718758360E+03 -0.10404218289E+03  0.55932757992E+03  0.50400001928E-02 0. -1.
       -1    1    3    3    0  502  0.42600862386E+03 -0.34718758360E+03  0.61018392373E+03  0.82118632880E+03  0.50400001928E-02 0.  1.
</event>
<event>
 5   0  0.2370801E-03  0.1275361E+04  0.7818609E-02  0.9049335E-01
        1   -1    0    0  501    0  0.00000000000E+00  0.00000000000E+00  0.12711990066E+04  0.12711990066E+04  0.50400001928E-02 0.  1.
       -1   -1    0    0    0  501  0.00000000000E+00  0.00000000000E+00 -0.31988438981E+03  0.31988438985E+03  0.50400001928E-02 0. -1.
    10030    2    1    2    0    0  0.00000000000E+00  0.00000000000E+00  0.95131461682E+03  0.15910833965E+04  0.12753614681E+04 0.  0.
        3    1    3    3  502    0 -0.33202958376E+03 -0.22169571925E+03 -0.14467242172E+03  0.42464427022E+03  0.10100000352E+00 0. -1.
       -3    1    3    3    0  502  0.33202958376E+03  0.22169571925E+03  0.10959870385E+04  0.11664391263E+04  0.10100000352E+00 0.  1.
</event>
<event>
 5   0  0.2462055E-03  0.1309927E+04  0.7818609E-02  0.9021730E-01
       -1   -1    0    0    0  501  0.00000000000E+00  0.00000000000E+00  0.44772499447E+03  0.44772499450E+03  0.50400001928E-02 0. -1.
        1   -1    0    0  501    0  0.00000000000E+00  0.00000000000E+00 -0.95812683442E+03  0.95812683443E+03  0.50400001928E-02 0.  1.
    10030    2    1    2    0    0  0.00000000000E+00  0.00000000000E+00 -0.51040183995E+03  0.14058518289E+04  0.13099272219E+04 0.  0.
        2    1    3    3  502    0  0.31310378258E+03  0.47407433375E+03  0.94541458947E+02  0.57595011941E+03  0.25500000920E-02 0. -1.
       -2    1    3    3    0  502 -0.31310378258E+03 -0.47407433375E+03 -0.60494329889E+03  0.82990170952E+03  0.25500000920E-02 0.  1.
</event>
<event>
 5   0  0.4263540E-03  0.1283828E+04  0.7818609E-02  0.9042489E-01
        2   -1    0    0  501    0  0.00000000000E+00  0.00000000000E+00  0.96994931228E+03  0.96994931228E+03  0.25500000920E-02 0. -1.
       -2   -1    0    0    0  501  0.00000000000E+00  0.00000000000E+00 -0.42481998359E+03  0.42481998360E+03  0.25500000920E-02 0.  1.
    10030    2    1    2    0    0  0.00000000000E+00  0.00000000000E+00  0.54512932869E+03  0.13947692959E+04  0.12838284168E+04 0.  0.
        2    1    3    3  502    0  0.39753639009E+03 -0.67743585236E+02  0.81515153590E+03  0.90944840495E+03  0.25500000920E-02 0. -1.
       -2    1    3    3    0  502 -0.39753639009E+03  0.67743585236E+02 -0.27002220721E+03  0.48532089093E+03  0.25500000920E-02 0.  1.
</event>
<event>
 5   0  0.4310889E-03  0.1237766E+04  0.7818609E-02  0.9080427E-01
       -2   -1    0    0    0  501  0.00000000000E+00  0.00000000000E+00  0.48625454958E+03  0.48625454959E+03  0.25500000920E-02 0.  1.
        2   -1    0    0  501    0  0.00000000000E+00  0.00000000000E+00 -0.78768670850E+03  0.78768670850E+03  0.25500000920E-02 0. -1.
    10030    2    1    2    0    0  0.00000000000E+00  0.00000000000E+00 -0.30143215892E+03  0.12739412581E+04  0.12377661260E+04 0.  0.
        4    1    3    3  502    0 -0.34234629856E+03  0.14419270877E+03 -0.66018001391E+03  0.75751685728E+03  0.12699999809E+01 0. -1.
       -4    1    3    3    0  502  0.34234629856E+03 -0.14419270877E+03  0.35874785499E+03  0.51642440082E+03  0.12699999809E+01 0.  1.
</event>
<event>
 5   0  0.4306214E-03  0.1301791E+04  0.7818609E-02  0.9028146E-01
       -2   -1    0    0    0  501  0.00000000000E+00  0.00000000000E+00  0.27217721317E+03  0.27217721318E+03  0.25500000920E-02 0.  1.
        2   -1    0    0  501    0  0.00000000000E+00  0.00000000000E+00 -0.15565766239E+04  0.15565766239E+04  0.25500000920E-02 0. -1.
    10030    2    1    2    0    0  0.00000000000E+00  0.00000000000E+00 -0.12843994107E+04  0.18287538370E+04  0.13017905939E+04 0.  0.
        3    1    3    3  502    0  0.51000937972E+03 -0.13876774821E+03 -0.11758358195E+04  0.12891687011E+04  0.10100000352E+00 0. -1.
       -3    1    3    3    0  502 -0.51000937972E+03  0.13876774821E+03 -0.10856359117E+03  0.53958513589E+03  0.10100000352E+00 0.  1.
</event>
<event>
 5   0  0.4388937E-03  0.1293637E+04  0.7818609E-02  0.9034626E-01
        2   -1    0    0  501    0  0.00000000000E+00  0.00000000000E+00  0.83928437147E+03  0.83928437147E+03  0.25500000920E-02 0. -1.
       -2   -1    0    0    0  501  0.00000000000E+00  0.00000000000E+00 -0.49848953327E+03  0.49848953327E+03  0.25500000920E-02 0.  1.
    10030    2    1    2    0    0  0.00000000000E+00  0.00000000000E+00  0.34079483820E+03  0.13377739047E+04  0.12936374679E+04 0.  0.
        5    1    3    3  502    0 -0.13315448521E+03 -0.12211983927E+03 -0.47184653980E+03  0.50527677484E+03  0.46999998093E+01 0.  1.
       -5    1    3    3    0  502  0.13315448521E+03  0.12211983927E+03  0.81264137799E+03  0.83249712991E+03  0.46999998093E+01 0. -1.
</event>
<event>
 5   0  0.2511542E-03  0.1365440E+04  0.7818609E-02  0.8979222E-01
       -1   -1    0    0    0  501  0.00000000000E+00  0.00000000000E+00  0.32202253924E+03  0.32202253928E+03  0.50400001928E-02 0.  1.
        1   -1    0    0  501    0  0.00000000000E+00  0.00000000000E+00 -0.14474352524E+04  0.14474352524E+04  0.50400001928E-02 0. -1.
    10030    2    1    2    0    0  0.00000000000E+00  0.00000000000E+00 -0.11254127131E+04  0.17694577917E+04  0.13654402593E+04 0.  0.
        4    1    3    3  502    0 -0.27546149844E+03 -0.58685865772E+03 -0.84010827404E+03  0.10611624033E+04  0.12699999809E+01 0. -1.
       -4    1    3    3    0  502  0.27546149844E+03  0.58685865772E+03 -0.28530443911E+03  0.70829538834E+03  0.12699999809E+01 0.  1.
</event>
<event>
 5   0  0.2370801E-03  0.1304428E+04  0.7818609E-02  0.9026061E-01
        1   -1    0    0  501    0  0.00000000000E+00  0.00000000000E+00  0.11880881295E+04  0.11880881295E+04  0.50400001928E-02 0.  1.
       -1   -1    0    0    0  501  0.00000000000E+00  0.00000000000E+00 -0.35804022543E+03  0.35804022546E+03  0.50400001928E-02 0. -1.
    10030    2    1    2    0    0  0.00000000000E+00  0.00000000000E+00  0.83004790403E+03  0.15461283549E+04  0.13044283679E+04 0.  0.
        3    1    3    3  502    0  0.31449450957E+03 -0.51775528774E+03  0.12857051941E+03  0.61928000387E+03  0.10100000352E+00 0.  1.
       -3    1    3    3    0  502 -0.31449450957E+03  0.51775528774E+03  0.70147738462E+03  0.92684835106E+03  0.10100000352E+00 0. -1.
</event>
<event>
 5   0  0.2356769E-03  0.1324411E+04  0.7818609E-02  0.9010428E-01
        1   -1    0    0  501    0  0.00000000000E+00  0.00000000000E+00  0.10266538158E+04  0.10266538158E+04  0.50400001928E-02 0. -1.
       -1   -1    0    0    0  501  0.00000000000E+00  0.00000000000E+00 -0.42713121917E+03  0.42713121920E+03  0.50400001928E-02 0.  1.
    10030    2    1    2    0    0  0.00000000000E+00  0.00000000000E+00  0.59952259659E+03  0.14537850350E+04  0.13244106554E+04 0.  0.
        1    1    3    3  502    0  0.60861066690E+03 -0.15287332246E+03  0.53193830358E+03  0.82263938359E+03  0.50400001928E-02 0. -1.
       -1    1    3    3    0  502 -0.60861066690E+03  0.15287332246E+03  0.67584293010E+02  0.63114565139E+03  0.50400001928E-02 0.  1.
</event>
<event>
 5   0  0.4310889E-03  0.1359870E+04  0.7818609E-02  0.8983390E-01
       -2   -1    0    0    0  501  0.00000000000E+00  0.00000000000E+00  0.41426368375E+03  0.41426368376E+03  0.25500000920E-02 0.  1.
        2   -1    0    0  501    0  0.00000000000E+00  0.00000000000E+00 -0.11159836495E+04  0.11159836495E+04  0.25500000920E-02 0. -1.
    10030    2    1    2    0    0  0.00000000000E+00  0.00000000000E+00 -0.70171996572E+03  0.15302473332E+04  0.13598698433E+04 0.  0.
        4    1    3    3  502    0 -0.33467168385E+03  0.59997420286E+02  0.31172925479E+03  0.46128252471E+03  0.12699999809E+01 0.  1.
       -4    1    3    3    0  502  0.33467168385E+03 -0.59997420286E+02 -0.10134492205E+04  0.10689648085E+04  0.12699999809E+01 0. -1.
</event>
<event>
 5   0  0.4310889E-03  0.1314913E+04  0.7818609E-02  0.9017822E-01
       -2   -1    0    0    0  501  0.00000000000E+00  0.00000000000E+00  0.27498392038E+03  0.27498392040E+03  0.25500000920E-02 0. -1.
        2   -1    0    0  501    0  0.00000000000E+00  0.00000000000E+00 -0.15719059774E+04  0.15719059774E+04  0.25500000920E-02 0.  1.
    10030    2    1    2    0    0  0.00000000000E+00  0.00000000000E+00 -0.12969220570E+04  0.18468898978E+04  0.13149127243E+04 0.  0.
        4    1    3    3  502    0  0.29687161438E+03 -0.53418238273E+03 -0.30797556352E+03  0.68434942396E+03  0.12699999809E+01 0. -1.
       -4    1    3    3    0  502 -0.29687161438E+03  0.53418238273E+03 -0.98894649351E+03  0.11625404739E+04  0.12699999809E+01 0.  1.
</event>
<event>
 5   0  0.2458456E-03  0.1298170E+04  0.7818609E-02  0.9031018E-01
        1   -1    0    0  501    0  0.00000000000E+00  0.00000000000E+00  0.73487454006E+03  0.73487454008E+03  0.50400001928E-02 0.  1.
       -1   -1    0    0    0  501  0.00000000000E+00  0.00000000000E+00 -0.57331017930E+03  0.57331017932E+03  0.50400001928E-02 0. -1.
    10030    2    1    2    0    0  0.00000000000E+00  0.00000000000E+00  0.16156436076E+03  0.13081847194E+04  0.12981695642E+04 0.  0.
        5    1    3    3  502    0 -0.10944991642E+03 -0.33570741060E+01 -0.56391783119E+03  0.57447015978E+03  0.46999998093E+01 0. -1.
       -5    1    3    3    0  502  0.10944991642E+03  0.33570741060E+01  0.72548219195E+03  0.73371455962E+03  0.46999998093E+01 0.  1.
</event>
<event>
 5   0  0.4263540E-03  0.1440824E+04  0.7818609E-02  0.8924787E-01
       -2   -1    0    0    0  501  0.00000000000E+00  0.00000000000E+00  0.62303424185E+03  0.62303424186E+03  0.25500000920E-02 0.  1.
        2   -1    0    0  501    0  0.00000000000E+00  0.00000000000E+00 -0.83300973770E+03  0.83300973771E+03  0.25500000920E-02 0. -1.
    10030    2    1    2    0    0  0.00000000000E+00  0.00000000000E+00 -0.20997549585E+03  0.14560439796E+04  0.14408241952E+04 0.  0.
        2    1    3    3  502    0  0.65340455061E+03  0.77365670503E+02  0.19148925235E+03  0.68526716505E+03  0.25500000920E-02 0.  1.
       -2    1    3    3    0  502 -0.65340455061E+03 -0.77365670503E+02 -0.40146474820E+03  0.77077681451E+03  0.25500000920E-02 0. -1.
</event>
<event>
 5   0  0.2462055E-03  0.1283056E+04  0.7818609E-02  0.9043111E-01
       -1   -1    0    0    0  501  0.00000000000E+00  0.00000000000E+00  0.36545375253E+03  0.36545375257E+03  0.50400001928E-02 0. -1.
        1   -1    0    0  501    0  0.00000000000E+00  0.00000000000E+00 -0.11261571244E+04  0.11261571244E+04  0.50400001928E-02 0.  1.
    10030    2    1    2    0    0  0.00000000000E+00  0.00000000000E+00 -0.76070337184E+03  0.14916108769E+04  0.12830562686E+04 0.  0.
        2    1    3    3  502    0 -0.13693956573E+03  0.33348788492E+03 -0.99725881507E+03  0.10604205573E+04  0.25500000920E-02 0.  1.
       -2    1    3    3    0  502  0.13693956573E+03 -0.33348788492E+03  0.23655544323E+03  0.43119031967E+03  0.25500000920E-02 0. -1.
</event>
<event>
 5   0  0.2370801E-03  0.1300680E+04  0.7818609E-02  0.9029026E-01
        1   -1    0    0  501    0  0.00000000000E+00  0.00000000000E+00  0.13381377281E+04  0.13381377281E+04  0.50400001928E-02 0.  1.
       -1   -1    0    0    0  501  0.00000000000E+00  0.00000000000E+00 -0.31606752646E+03  0.31606752650E+03  0.50400001928E-02 0. -1.
    10030    2    1    2    0    0  0.00000000000E+00  0.00000000000E+00  0.10220702016E+04  0.16542052546E+04  0.13006796405E+04 0.  0.
        3    1    3    3  502    0  0.42686547630E+03 -0.20111624388E+03  0.10801996445E+04  0.11787676448E+04  0.10100000352E+00 0.  1.
       -3    1    3    3    0  502 -0.42686547630E+03  0.20111624388E+03 -0.58129442871E+02  0.47543760973E+03  0.10100000352E+00 0. -1.
</event>
<event>
 5   0  0.4388937E-03  0.1440612E+04  0.7818609E-02  0.8924935E-01
        2   -1    0    0  501    0  0.00000000000E+00  0.00000000000E+00  0.97146257249E+03  0.97146257249E+03  0.25500000920E-02 0. -1.
       -2   -1    0    0    0  501  0.00000000000E+00  0.00000000000E+00 -0.53408204708E+03  0.53408204708E+03  0.25500000920E-02 0.  1.
    10030    2    1    2    0    0  0.00000000000E+00  0.00000000000E+00  0.43738052541E+03  0.15055446196E+04  0.14406119802E+04 0.  0.
        5    1    3    3  502    0  0.71930993309E+02 -0.67924851228E+03 -0.20231838147E+02  0.68336229520E+03  0.46999998093E+01 0. -1.
       -5    1    3    3    0  502 -0.71930993309E+02  0.67924851228E+03  0.45761236355E+03  0.82218232437E+03  0.46999998093E+01 0.  1.
</event>
<event>
 5   0  0.4453011E-03  0.1273396E+04  0.7818609E-02  0.9050932E-01
       -2   -1    0    0    0  501  0.00000000000E+00  0.00000000000E+00  0.36607787879E+03  0.36607787880E+03  0.25500000920E-02 0. -1.
        2   -1    0    0  501    0  0.00000000000E+00  0.00000000000E+00 -0.11073723079E+04  0.11073723080E+04  0.25500000920E-02 0.  1.
    10030    2    1    2    0    0  0.00000000000E+00  0.00000000000E+00 -0.74129442916E+03  0.14734501867E+04  0.12733962550E+04 0.  0.
        1    1    3    3  502    0 -0.15910105292E+03  0.13849355330E+03  0.32447289586E+03  0.38700939203E+03  0.50400001928E-02 0. -1.
       -1    1    3    3    0  502  0.15910105292E+03 -0.13849355330E+03 -0.10657673250E+04  0.10864407947E+04  0.50400001928E-02 0.  1.
</event>
<event>
 5   0  0.2511542E-03  0.1310245E+04  0.7818609E-02  0.9021480E-01
       -1   -1    0    0    0  501  0.00000000000E+00  0.00000000000E+00  0.42672501874E+03  0.42672501877E+03  0.50400001928E-02 0. -1.
        1   -1    0    0  501    0  0.00000000000E+00  0.00000000000E+00 -0.10057662921E+04  0.10057662921E+04  0.50400001928E-02 0.  1.
    10030    2    1    2    0    0  0.00000000000E+00  0.00000000000E+00 -0.57904127333E+03  0.14324913108E+04  0.13102452287E+04 0.  0.
        4    1    3    3  502    0 -0.63113284796E+03  0.12558495040E+03 -0.15524586014E+03  0.66196913941E+03  0.12699999809E+01 0. -1.
       -4    1    3    3    0  502  0.63113284796E+03 -0.12558495040E+03 -0.42379541319E+03  0.77052217144E+03  0.12699999809E+01 0.  1.
</event>
<event>
 5   0  0.2511542E-03  0.1289168E+04  0.7818609E-02  0.9038199E-01
       -1   -1    0    0    0  501  0.00000000000E+00  0.00000000000E+00  0.22930434857E+03  0.22930434862E+03  0.50400001928E-02 0. -1.
        1   -1    0    0  501    0  0.00000000000E+00  0.00000000000E+00 -0.18119523523E+04  0.18119523523E+04  0.50400001928E-02 0.  1.
    10030    2    1    2    0    0  0.00000000000E+00  0.00000000000E+00 -0.15826480038E+04  0.20412567010E+04  0.12891680323E+04 0.  0.
        4    1    3    3  502    0  0.29752234027E+03  0.34054452582E+03 -0.64003123145E+02  0.45671449473E+03  0.12699999809E+01 0. -1.
       -4    1    3    3    0  502 -0.29752234027E+03 -0.34054452582E+03 -0.15186448806E+04  0.15845422062E+04  0.12699999809E+01 0.  1.
</event>
<event>
 5   0  0.2370801E-03  0.1382231E+04  0.7818609E-02  0.8966782E-01
       -1   -1    0    0    0  501  0.00000000000E+00  0.00000000000E+00  0.78127991932E+03  0.78127991934E+03  0.50400001928E-02 0. -1.
        1   -1    0    0  501    0  0.00000000000E+00  0.00000000000E+00 -0.61135637287E+03  0.61135637289E+03  0.50400001928E-02 0.  1.
    10030    2    1    2    0    0  0.00000000000E+00  0.00000000000E+00  0.16992354646E+03  0.13926362922E+04  0.13822307444E+04 0.  0.
        3    1    3    3  502    0  0.17630584197E+03  0.19002431391E+03  0.73044646219E+03  0.77507743750E+03  0.10100000352E+00 0. -1.
       -3    1    3    3    0  502 -0.17630584197E+03 -0.19002431391E+03 -0.56052291574E+03  0.61755885473E+03  0.10100000352E+00 0.  1.
</event>
<event>
 5   0  0.4310889E-03  0.1290797E+04  0.7818609E-02  0.9036895E-01
       -2   -1    0    0    0  501  0.00000000000E+00  0.00000000000E+00  0.51322675678E+03  0.51322675679E+03  0.25500000920E-02 0. -1.
        2   -1    0    0  501    0  0.00000000000E+00  0.00000000000E+00 -0.81160876193E+03  0.81160876193E+03  0.25500000920E-02 0.  1.
    10030    2    1    2    0    0  0.00000000000E+00  0.00000000000E+00 -0.29838200515E+03  0.13248355187E+04  0.12907971687E+04 0.  0.
        4    1    3    3  502    0  0.62978115423E+03 -0.86344193934E+02 -0.34631841301E+02  0.63661652459E+03  0.12699999809E+01 0.  1.
       -4    1    3    3    0  502 -0.62978115423E+03  0.86344193934E+02 -0.26375016385E+03  0.68821899413E+03  0.12699999809E+01 0. -1.
</event>
<event>
 5   0  0.2458456E-03  0.1300745E+04  0.7818609E-02  0.9028974E-01
        1   -1    0    0  501    0  0.00000000000E+00  0.00000000000E+00  0.12974468314E+04  0.12974468314E+04  0.50400001928E-02 0.  1.
       -1   -1    0    0    0  501  0.00000000000E+00  0.00000000000E+00 -0.32601295779E+03  0.32601295783E+03  0.50400001928E-02 0. -1.
    10030    2    1    2    0    0  0.00000000000E+00  0.00000000000E+00  0.97143387361E+03  0.16234597892E+04  0.13007451389E+04 0.  0.
        5    1    3    3  502    0  0.63151725680E+03  0.14479001296E+03  0.55614555966E+03  0.85387245360E+03  0.46999998093E+01 0. -1.
       -5    1    3    3    0  502 -0.63151725680E+03 -0.14479001296E+03  0.41528831395E+03  0.76958733564E+03  0.46999998093E+01 0.  1.
</event>
<event>
 5   0  0.4306214E-03  0.1296726E+04  0.7818609E-02  0.9032166E-01
       -2   -1    0    0    0  501  0.00000000000E+00  0.00000000000E+00  0.84603017035E+03  0.84603017036E+03  0.25500000920E-02 0. -1.
        2   -1    0    0  501    0  0.00000000000E+00  0.00000000000E+00 -0.49687894434E+03  0.49687894435E+03  0.25500000920E-02 0.  1.
    10030    2    1    2    0    0  0.00000000000E+00  0.00000000000E+00  0.34915122601E+03  0.13429091147E+04  0.12967259972E+04 0.  0.
        3    1    3    3  502    0  0.62493159032E+03  0.68482438583E+01  0.35331504128E+03  0.71792612407E+03  0.10100000352E+00 0. -1.
       -3    1    3    3    0  502 -0.62493159032E+03 -0.68482438583E+01 -0.41638152759E+01  0.62498299063E+03  0.10100000352E+00 0.  1.
</event>
<event>
 5   0  0.4306214E-03  0.1320092E+04  0.7818609E-02  0.9013782E-01
        2   -1    0    0  501    0  0.00000000000E+00  0.00000000000E+00  0.81333421324E+03  0.81333421325E+03  0.25500000920E-02 0.  1.
       -2   -1    0    0    0  501  0.00000000000E+00  0.00000000000E+00 -0.53564792669E+03  0.53564792670E+03  0.25500000920E-02 0. -1.
    10030    2    1    2    0    0  0.00000000000E+00  0.00000000000E+00  0.27768628655E+03  0.13489821399E+04  0.13200920953E+04 0.  0.
        3    1    3    3  502    0 -0.24280438397E+03  0.13754952170E+03 -0.47240029247E+03  0.54866737311E+03  0.10100000352E+00 0. -1.
       -3    1    3    3    0  502  0.24280438397E+03 -0.13754952170E+03  0.75008657902E+03  0.80031476684E+03  0.10100000352E+00 0.  1.
</event>
<event>
 5   0  0.2458456E-03  0.1391572E+04  0.7818609E-02  0.8959942E-01
        1   -1    0    0  501    0  0.00000000000E+00  0.00000000000E+00  0.12594395711E+04  0.12594395711E+04  0.50400001928E-02 0. -1.
       -1   -1    0    0    0  501  0.00000000000E+00  0.00000000000E+00 -0.38439167465E+03  0.38439167468E+03  0.50400001928E-02 0.  1.
    10030    2    1    2    0    0  0.00000000000E+00  0.00000000000E+00  0.87504789645E+03  0.16438312458E+04  0.13915718967E+04 0.  0.
        5    1    3    3  502    0 -0.16993396800E+03 -0.44268745141E+02  0.12328123815E+04  0.12452653265E+04  0.46999998093E+01 0. -1.
       -5    1    3    3    0  502  0.16993396800E+03  0.44268745141E+02 -0.35776448507E+03  0.39856591933E+03  0.46999998093E+01 0.  1.
</event>
<event>
 5   0  0.2458456E-03  0.1355808E+04  0.7818609E-02  0.8986443E-01
       -1   -1    0    0    0  501  0.00000000000E+00  0.00000000000E+00  0.48365959334E+03  0.48365959337E+03  0.50400001928E-02 0.  1.
        1   -1    0    0  501    0  0.00000000000E+00  0.00000000000E+00 -0.95015912167E+03  0.95015912168E+03  0.50400001928E-02 0. -1.
    10030    2    1    2    0    0  0.00000000000E+00  0.00000000000E+00 -0.46649952833E+03  0.14338187151E+04  0.13558076183E+04 0.  0.
        5    1    3    3  502    0  0.18336535992E+03 -0.28606957561E+03 -0.85357773318E+03  0.91873592173E+03  0.46999998093E+01 0. -1.
       -5    1    3    3    0  502 -0.18336535992E+03  0.28606957561E+03  0.38707820485E+03  0.51508279332E+03  0.46999998093E+01 0.  1.
</event>
<event>
 5   0  0.4306214E-03  0.1272555E+04  0.7818609E-02  0.9051617E-01
        2   -1    0    0  501    0  0.00000000000E+00  0.00000000000E+00  0.11074387600E+04  0.11074387600E+04  0.25500000920E-02 0. -1.
       -2   -1    0    0    0  501  0.00000000000E+00  0.00000000000E+00 -0.36557269097E+03  0.36557269098E+03  0.25500000920E-02 0.  1.
    10030    2    1    2    0    0  0.00000000000E+00  0.00000000000E+00  0.74186606899E+03  0.14730114509E+04  0.12725554881E+04 0.  0.
        3    1    3    3  502    0 -0.28713318790E+03  0.56483926847E+03  0.43803430382E+03  0.77030054415E+03  0.10100000352E+00 0. -1.
       -3    1    3    3    0  502  0.28713318790E+03 -0.56483926847E+03  0.30383176517E+03  0.70271090679E+03  0.10100000352E+00 0.  1.
</event>
<event>
 5   0  0.1661750E-03  0.1289102E+04  0.7818609E-02  0.9038252E-01
       -3   -1    0    0    0  501  0.00000000000E+00  0.00000000000E+00  0.81540880918E+03  0.81540881544E+03  0.10100000352E+00 0. -1.
        3   -1    0    0  501    0  0.00000000000E+00  0.00000000000E+00 -0.50949448706E+03  0.50949449707E+03  0.10100000352E+00 0.  1.
    10030    2    1    2    0    0  0.00000000000E+00  0.00000000000E+00  0.30591432212E+03  0.13249033125E+04  0.12891024843E+04 0.  0.
        4    1    3    3  502    0  0.53061097115E+03 -0.23638236319E+02  0.52825285526E+03  0.74910577418E+03  0.12699999809E+01 0. -1.
       -4    1    3    3    0  502 -0.53061097115E+03  0.23638236319E+02 -0.22233853314E+03  0.57579753832E+03  0.12699999809E+01 0.  1.
</event>
<event>
 5   0  0.4263540E-03  0.1294163E+04  0.7818609E-02  0.9034207E-01
        2   -1    0    0  501    0  0.00000000000E+00  0.00000000000E+00  0.12063970612E+04  0.12063970612E+04  0.25500000920E-02 0. -1.
       -2   -1    0    0    0  501  0.00000000000E+00  0.00000000000E+00 -0.34707823785E+03  0.34707823786E+03  0.25500000920E-02 0.  1.
    10030    2    1    2    0    0  0.00000000000E+00  0.00000000000E+00  0.85931882336E+03  0.15534752991E+04  0.12941625341E+04 0.  0.
        2    1    3    3  502    0 -0.47264396481E+03 -0.20973670251E+03  0.89662130150E+03  0.10350418157E+04  0.25500000920E-02 0. -1.
       -2    1    3    3    0  502  0.47264396481E+03  0.20973670251E+03 -0.37302478141E+02  0.51843348342E+03  0.25500000920E-02 0.  1.
</event>
<event>
 5   0  0.4453011E-03  0.1305105E+04  0.7818609E-02  0.9025526E-01
       -2   -1    0    0    0  501  0.00000000000E+00  0.00000000000E+00  0.45593547164E+03  0.45593547165E+03  0.25500000920E-02 0.  1.
        2   -1    0    0  501    0  0.00000000000E+00  0.00000000000E+00 -0.93395873449E+03  0.93395873449E+03  0.25500000920E-02 0. -1.
    10030    2    1    2    0    0  0.00000000000E+00  0.00000000000E+00 -0.47802326284E+03  0.13898942061E+04  0.13051052312E+04 0.  0.
        1    1    3    3  502    0  0.34227880676E+03 -0.52346957937E+02  0.35003163824E+03  0.49235874457E+03  0.50400001928E-02 0.  1.
       -1    1    3    3    0  502 -0.34227880676E+03  0.52346957937E+02 -0.82805490108E+03  0.89753546158E+03  0.50400001928E-02 0. -1.
</event>
<event>
 5   0  0.2356769E-03  0.1323919E+04  0.7818609E-02  0.9010809E-01
        1   -1    0    0  501    0  0.00000000000E+00  0.00000000000E+00  0.11785116638E+04  0.11785116638E+04  0.50400001928E-02 0.  1.
       -1   -1    0    0    0  501  0.00000000000E+00  0.00000000000E+00 -0.37181699027E+03  0.37181699030E+03  0.50400001928E-02 0. -1.
    10030    2    1    2    0    0  0.00000000000E+00  0.00000000000E+00  0.80669467354E+03  0.15503286541E+04  0.13239194233E+04 0.  0.
        1    1    3    3  502    0  0.35611586655E+03  0.30341212782E+03  0.95174378823E+03  0.10605157557E+04  0.50400001928E-02 0.  1.
       -1    1    3    3    0  502 -0.35611586655E+03 -0.30341212782E+03 -0.14504911469E+03  0.48981289838E+03  0.50400001928E-02 0. -1.
</event>
<event>
 5   0  0.4310889E-03  0.1309796E+04  0.7818609E-02  0.9021833E-01
        2   -1    0    0  501    0  0.00000000000E+00  0.00000000000E+00  0.11213587244E+04  0.11213587244E+04  0.25500000920E-02 0.  1.
       -2   -1    0    0    0  501  0.00000000000E+00  0.00000000000E+00 -0.38247463644E+03  0.38247463644E+03  0.25500000920E-02 0. -1.
    10030    2    1    2    0    0  0.00000000000E+00  0.00000000000E+00  0.73888408795E+03  0.15038333608E+04  0.13097958168E+04 0.  0.
        4    1    3    3  502    0 -0.10735237616E+03  0.53524031023E+03  0.78481443724E+03  0.95600315698E+03  0.12699999809E+01 0.  1.
       -4    1    3    3    0  502  0.10735237616E+03 -0.53524031023E+03 -0.45930349289E+02  0.54783020385E+03  0.12699999809E+01 0. -1.
</event>
<event>
 5   0  0.4310889E-03  0.1303397E+04  0.7818609E-02  0.9026876E-01
       -2   -1    0    0    0  501  0.00000000000E+00  0.00000000000E+00  0.73992706135E+03  0.73992706136E+03  0.25500000920E-02 0.  1.
        2   -1    0    0  501    0  0.00000000000E+00  0.00000000000E+00 -0.57399030069E+03  0.57399030069E+03  0.25500000920E-02 0. -1.
    10030    2    1    2    0    0  0.00000000000E+00  0.00000000000E+00  0.16593676067E+03  0.13139173620E+04  0.13033970330E+04 0.  0.
        4    1    3    3  502    0  0.54810399866E+03  0.74899700073E+02 -0.26431390159E+03  0.61309983680E+03  0.12699999809E+01 0. -1.
       -4    1    3    3    0  502 -0.54810399866E+03 -0.74899700073E+02  0.43025066226E+03  0.70081752524E+03  0.12699999809E+01 0.  1.
</event>
<event>
 5   0  0.4306214E-03  0.1279804E+04  0.7818609E-02  0.9045736E-01
       -2   -1    0    0    0  501  0.00000000000E+00  0.00000000000E+00  0.43919900731E+03  0.43919900732E+03  0.25500000920E-02 0. -1.
        2   -1    0    0  501    0  0.00000000000E+00  0.00000000000E+00 -0.93232088010E+03  0.93232088010E+03  0.25500000920E-02 0.  1.
    10030    2    1    2    0    0  0.00000000000E+00  0.00000000000E+00 -0.49312187278E+03  0.13715198874E+04  0.12798037428E+04 0.  0.
        3    1    3    3  502    0  0.19438972057E+03  0.60624292401E+03 -0.31565252173E+03  0.71060141503E+03  0.10100000352E+00 0. -1.
       -3    1    3    3    0  502 -0.19438972057E+03 -0.60624292401E+03 -0.17746935106E+03  0.66091847239E+03  0.10100000352E+00 0.  1.
</event>
<event>
 5   0  0.2511542E-03  0.1359650E+04  0.7818609E-02  0.8983555E-01
        1   -1    0    0  501    0  0.00000000000E+00  0.00000000000E+00  0.43694212925E+03  0.43694212928E+03  0.50400001928E-02 0.  1.
       -1   -1    0    0    0  501  0.00000000000E+00  0.00000000000E+00 -0.10577188936E+04  0.10577188937E+04  0.50400001928E-02 0. -1.
    10030    2    1    2    0    0  0.00000000000E+00  0.00000000000E+00 -0.62077676439E+03  0.14946610229E+04  0.13596498749E+04 0.  0.
        4    1    3    3  502    0  0.61822579858E+01  0.36119860606E+03 -0.94347138129E+03  0.10102685354E+04  0.12699999809E+01 0. -1.
       -4    1    3    3    0  502 -0.61822579858E+01 -0.36119860606E+03  0.32269461690E+03  0.48439248757E+03  0.12699999809E+01 0.  1.
</event>
<event>
 5   0  0.2462055E-03  0.1298745E+04  0.7818609E-02  0.9030561E-01
        1   -1    0    0  501    0  0.00000000000E+00  0.00000000000E+00  0.56533336002E+03  0.56533336005E+03  0.50400001928E-02 0.  1.
       -1   -1    0    0    0  501  0.00000000000E+00  0.00000000000E+00 -0.74590397439E+03  0.74590397440E+03  0.50400001928E-02 0. -1.
    10030    2    1    2    0    0  0.00000000000E+00  0.00000000000E+00 -0.18057061436E+03  0.13112373344E+04  0.12987446248E+04 0.  0.
        2    1    3    3  502    0 -0.20360296512E+03 -0.37885789219E+03  0.40090960068E+03  0.58797617112E+03  0.25500000920E-02 0.  1.
       -2    1    3    3    0  502  0.20360296512E+03  0.37885789219E+03 -0.58148021504E+03  0.72326116333E+03  0.25500000920E-02 0. -1.
</event>
<event>
 5   0  0.4306214E-03  0.1310503E+04  0.7818609E-02  0.9021277E-01
       -2   -1    0    0    0  501  0.00000000000E+00  0.00000000000E+00  0.75597610316E+03  0.75597610317E+03  0.25500000920E-02 0.  1.
        2   -1    0    0  501    0  0.00000000000E+00  0.00000000000E+00 -0.56794751840E+03  0.56794751840E+03  0.25500000920E-02 0. -1.
    10030    2    1    2    0    0  0.00000000000E+00  0.00000000000E+00  0.18802858477E+03  0.13239236216E+04  0.13105033411E+04 0.  0.
        3    1    3    3  502    0 -0.96428318293E+01 -0.15592879545E+03  0.73688614414E+03  0.75326487578E+03  0.10100000352E+00 0.  1.
       -3    1    3    3    0  502  0.96428318293E+01  0.15592879545E+03 -0.54885755938E+03  0.57065874579E+03  0.10100000352E+00 0. -1.
</event>
<event>
 5   0  0.4310889E-03  0.1269888E+04  0.7818609E-02  0.9053791E-01
       -2   -1    0    0    0  501  0.00000000000E+00  0.00000000000E+00  0.25556608421E+03  0.25556608423E+03  0.25500000920E-02 0. -1.
        2   -1    0    0  501    0  0.00000000000E+00  0.00000000000E+00 -0.15774945425E+04  0.15774945425E+04  0.25500000920E-02 0.  1.
    10030    2    1    2    0    0  0.00000000000E+00  0.00000000000E+00 -0.13219284583E+04  0.18330606267E+04  0.12698883464E+04 0.  0.
        4    1    3    3  502    0  0.57790992076E+03  0.25343958863E+03 -0.76242968647E+03  0.98970305714E+03  0.12699999809E+01 0.  1.
       -4    1    3    3    0  502 -0.57790992076E+03 -0.25343958863E+03 -0.55949877179E+03  0.84335756956E+03  0.12699999809E+01 0. -1.
</event>
<event>
 5   0  0.4310889E-03  0.1294679E+04  0.7818609E-02  0.9033795E-01
       -2   -1    0    0    0  501  0.00000000000E+00  0.00000000000E+00  0.43741862231E+03  0.43741862232E+03  0.25500000920E-02 0.  1.
        2   -1    0    0  501    0  0.00000000000E+00  0.00000000000E+00 -0.95800349380E+03  0.95800349381E+03  0.25500000920E-02 0. -1.
    10030    2    1    2    0    0  0.00000000000E+00  0.00000000000E+00 -0.52058487149E+03  0.13954221161E+04  0.12946792165E+04 0.  0.
        4    1    3    3  502    0 -0.55906157574E+03  0.32449860664E+03 -0.29759417814E+03  0.71162707856E+03  0.12699999809E+01 0. -1.
       -4    1    3    3    0  502  0.55906157574E+03 -0.32449860664E+03 -0.22299069335E+03  0.68379503756E+03  0.12699999809E+01 0.  1.
</event>
<event>
 5   0  0.2370801E-03  0.1293151E+04  0.7818609E-02  0.9035014E-01
       -1   -1    0    0    0  501  0.00000000000E+00  0.00000000000E+00  0.65549476031E+03  0.65549476033E+03  0.50400001928E-02 0. -1.
        1   -1    0    0  501    0  0.00000000000E+00  0.00000000000E+00 -0.63777753017E+03  0.63777753019E+03  0.50400001928E-02 0.  1.
    10030    2    1    2    0    0  0.00000000000E+00  0.00000000000E+00  0.17717230137E+02  0.12932722905E+04  0.12931509259E+04 0.  0.
        3    1    3    3  502    0  0.18966162373E+02  0.38675768363E+03 -0.50899167908E+03  0.63954183658E+03  0.10100000352E+00 0.  1.
       -3    1    3    3    0  502 -0.18966162373E+02 -0.38675768363E+03  0.52670890922E+03  0.65373045394E+03  0.10100000352E+00 0. -1.
</event>
<event>
 5   0  0.2356769E-03  0.1269666E+04  0.7818609E-02  0.9053972E-01
       -1   -1    0    0    0  501  0.00000000000E+00  0.00000000000E+00  0.14671094419E+04  0.14671094419E+04  0.50400001928E-02 0.  1.
        1   -1    0    0  501    0  0.00000000000E+00  0.00000000000E+00 -0.27469865711E+03  0.27469865716E+03  0.50400001928E-02 0. -1.
    10030    2    1    2    0    0  0.00000000000E+00  0.00000000000E+00  0.11924107848E+04  0.17418080990E+04  0.12696660877E+04 0.  0.
        1    1    3    3  502    0 -0.67034765418E+02  0.18216748038E+03 -0.23298838719E+03  0.30325276466E+03  0.50400001928E-02 0. -1.
       -1    1    3    3    0  502  0.67034765418E+02 -0.18216748038E+03  0.14253991719E+04  0.14385553344E+04  0.50400001928E-02 0.  1.
</event>
<event>
 5   0  0.2462055E-03  0.1242291E+04  0.7818609E-02  0.9076624E-01
        1   -1    0    0  501    0  0.00000000000E+00  0.00000000000E+00  0.62008701624E+03  0.62008701626E+03  0.50400001928E-02 0. -1.
       -1   -1    0    0    0  501  0.00000000000E+00  0.00000000000E+00 -0.62220547627E+03  0.62220547629E+03  0.50400001928E-02 0.  1.
    10030    2    1    2    0    0  0.00000000000E+00  0.00000000000E+00 -0.21184600338E+01  0.12422924926E+04  0.12422906863E+04 0.  0.
        2    1    3    3  502    0 -0.28065349269E+03 -0.21012341327E+03  0.51168248864E+03  0.62027187664E+03  0.25500000920E-02 0. -1.
       -2    1    3    3    0  502  0.28065349269E+03  0.21012341327E+03 -0.51380094867E+03  0.62202061592E+03  0.25500000920E-02 0.  1.
</event>
<event>
 5   0  0.4453011E-03  0.1300546E+04  0.7818609E-02  0.9029132E-01
        2   -1    0    0  501    0  0.00000000000E+00  0.00000000000E+00  0.47669547413E+03  0.47669547413E+03  0.25500000920E-02 0.  1.
       -2   -1    0    0    0  501  0.00000000000E+00  0.00000000000E+00 -0.88705505121E+03  0.88705505121E+03  0.25500000920E-02 0. -1.
    10030    2    1    2    0    0  0.00000000000E+00  0.00000000000E+00 -0.41035957708E+03  0.13637505253E+04  0.13005462363E+04 0.  0.
        1    1    3    3  502    0  0.12295774227E+03  0.30947252800E+03  0.38050085439E+03  0.50564093207E+03  0.50400001928E-02 0.  1.
       -1    1    3    3    0  502 -0.12295774227E+03 -0.30947252800E+03 -0.79086043147E+03  0.85810959327E+03  0.50400001928E-02 0. -1.
</event>
<event>
 5   0  0.4310889E-03  0.1291017E+04  0.7818609E-02  0.9036719E-01
       -2   -1    0    0    0  501  0.00000000000E+00  0.00000000000E+00  0.98534957864E+03  0.98534957864E+03  0.25500000920E-02 0. -1.
        2   -1    0    0  501    0  0.00000000000E+00  0.00000000000E+00 -0.42287649479E+03  0.42287649480E+03  0.25500000920E-02 0.  1.
    10030    2    1    2    0    0  0.00000000000E+00  0.00000000000E+00  0.56247308385E+03  0.14082260734E+04  0.12910169262E+04 0.  0.
        4    1    3    3  502    0  0.30788122595E+02 -0.59439909073E+03  0.55376202119E+03  0.81296505249E+03  0.12699999809E+01 0. -1.
       -4    1    3    3    0  502 -0.30788122595E+02  0.59439909073E+03  0.87110626564E+01  0.59526102095E+03  0.12699999809E+01 0.  1.
</event>
<event>
 5   0  0.2458456E-03  0.1267277E+04  0.7818609E-02  0.9055925E-01
       -1   -1    0    0    0  501  0.00000000000E+00  0.00000000000E+00  0.44560960997E+03  0.44560961000E+03  0.50400001928E-02 0.  1.
        1   -1    0    0  501    0  0.00000000000E+00  0.00000000000E+00 -0.90100726272E+03  0.90100726274E+03  0.50400001928E-02 0. -1.
    10030    2    1    2    0    0  0.00000000000E+00  0.00000000000E+00 -0.45539765275E+03  0.13466168727E+04  0.12672765996E+04 0.  0.
        5    1    3    3  502    0  0.43968936835E+03  0.10419697263E+03 -0.69968251967E+03  0.83292344671E+03  0.46999998093E+01 0. -1.
       -5    1    3    3    0  502 -0.43968936835E+03 -0.10419697263E+03  0.24428486692E+03  0.51369342603E+03  0.46999998093E+01 0.  1.
</event>
<event>
 5   0  0.4453011E-03  0.1437387E+04  0.7818609E-02  0.8927192E-01
        2   -1    0    0  501    0  0.00000000000E+00  0.00000000000E+00  0.17198546175E+04  0.17198546175E+04  0.25500000920E-02 0. -1.
       -2   -1    0    0    0  501  0.00000000000E+00  0.00000000000E+00 -0.30032802901E+03  0.30032802902E+03  0.25500000920E-02 0.  1.
    10030    2    1    2    0    0  0.00000000000E+00  0.00000000000E+00  0.14195265885E+04  0.20201826465E+04  0.14373872790E+04 0.  0.
        1    1    3    3  502    0 -0.48768382490E+03 -0.37349741980E+03  0.18542375706E+03  0.64165240230E+03  0.50400001928E-02 0.  1.
       -1    1    3    3    0  502  0.48768382490E+03  0.37349741980E+03  0.12341028314E+04  0.13785302442E+04  0.50400001928E-02 0. -1.
</event>
<event>
 5   0  0.2370801E-03  0.1334667E+04  0.7818609E-02  0.9002517E-01
        1   -1    0    0  501    0  0.00000000000E+00  0.00000000000E+00  0.84622660968E+03  0.84622660969E+03  0.50400001928E-02 0.  1.
       -1   -1    0    0    0  501  0.00000000000E+00  0.00000000000E+00 -0.52625843646E+03  0.52625843649E+03  0.50400001928E-02 0. -1.
    10030    2    1    2    0    0  0.00000000000E+00  0.00000000000E+00  0.31996817322E+03  0.13724850462E+04  0.13346668386E+04 0.  0.
        3    1    3    3  502    0 -0.27748967247E+03 -0.21548811300E+03  0.74342119811E+03  0.82225952909E+03  0.10100000352E+00 0.  1.
       -3    1    3    3    0  502  0.27748967247E+03  0.21548811300E+03 -0.42345302489E+03  0.55022551710E+03  0.10100000352E+00 0. -1.
</event>
<event>
 5   0  0.2458456E-03  0.1266480E+04  0.7818609E-02  0.9056578E-01
        1   -1    0    0  501    0  0.00000000000E+00  0.00000000000E+00  0.75899761089E+03  0.75899761090E+03  0.50400001928E-02 0. -1.
       -1   -1    0    0    0  501  0.00000000000E+00  0.00000000000E+00 -0.52831891597E+03  0.52831891599E+03  0.50400001928E-02 0.  1.
    10030    2    1    2    0    0  0.00000000000E+00  0.00000000000E+00  0.23067869492E+03  0.12873165269E+04  0.12664798380E+04 0.  0.
        5    1    3    3  502    0 -0.18761618614E+03  0.60411014690E+03  0.14447808287E+03  0.64887973409E+03  0.46999998093E+01 0. -1.
       -5    1    3    3    0  502  0.18761618614E+03 -0.60411014690E+03  0.86200612052E+02  0.63843679280E+03  0.46999998093E+01 0.  1.
</event>
<event>
 5   0  0.2458456E-03  0.1314111E+04  0.7818609E-02  0.9018449E-01
       -1   -1    0    0    0  501  0.00000000000E+00  0.00000000000E+00  0.42208314194E+03  0.42208314197E+03  0.50400001928E-02 0.  1.
        1   -1    0    0  501    0  0.00000000000E+00  0.00000000000E+00 -0.10228358144E+04  0.10228358144E+04  0.50400001928E-02 0. -1.
    10030    2    1    2    0    0  0.00000000000E+00  0.00000000000E+00 -0.60075267247E+03  0.14449189564E+04  0.13141107324E+04 0.  0.
        5    1    3    3  502    0  0.11484883687E+03  0.35588502716E+02 -0.10106177419E+04  0.10177559173E+04  0.46999998093E+01 0. -1.
       -5    1    3    3    0  502 -0.11484883687E+03 -0.35588502716E+02  0.40986506945E+03  0.42716303914E+03  0.46999998093E+01 0.  1.
</event>
<event>
 5   0  0.4388937E-03  0.1308374E+04  0.7818609E-02  0.9022951E-01
       -2   -1    0    0    0  501  0.00000000000E+00  0.00000000000E+00  0.56916700163E+03  0.56916700163E+03  0.25500000920E-02 0.  1.
        2   -1    0    0  501    0  0.00000000000E+00  0.00000000000E+00 -0.75190674115E+03  0.75190674116E+03  0.25500000920E-02 0. -1.
    10030    2    1    2    0    0  0.00000000000E+00  0.00000000000E+00 -0.18273973952E+03  0.13210737428E+04  0.13083738080E+04 0.  0.
        5    1    3    3  502    0 -0.51134850001E+03 -0.16178120836E+03  0.28681611556E+03  0.60822366116E+03  0.46999998093E+01 0.  1.
       -5    1    3    3    0  502  0.51134850001E+03  0.16178120836E+03 -0.46955585509E+03  0.71285008164E+03  0.46999998093E+01 0. -1.
</event>
<event>
 5   0  0.4388937E-03  0.1308032E+04  0.7818609E-02  0.9023220E-01
        2   -1    0    0  501    0  0.00000000000E+00  0.00000000000E+00  0.83635527411E+03  0.83635527411E+03  0.25500000920E-02 0. -1.
       -2   -1    0    0    0  501  0.00000000000E+00  0.00000000000E+00 -0.51142973027E+03  0.51142973027E+03  0.25500000920E-02 0.  1.
    10030    2    1    2    0    0  0.00000000000E+00  0.00000000000E+00  0.32492554384E+03  0.13477850044E+04  0.13080320367E+04 0.  0.
        5    1    3    3  502    0 -0.55081991438E+03  0.29722021613E+03  0.35789091742E+03  0.72100654208E+03  0.46999998093E+01 0. -1.
       -5    1    3    3    0  502  0.55081991438E+03 -0.29722021613E+03 -0.32965373583E+02  0.62677846230E+03  0.46999998093E+01 0.  1.
</event>
<event>
 5   0  0.4263540E-03  0.1300290E+04  0.7818609E-02  0.9029335E-01
        2   -1    0    0  501    0  0.00000000000E+00  0.00000000000E+00  0.12705857272E+04  0.12705857272E+04  0.25500000920E-02 0.  1.
       -2   -1    0    0    0  501  0.00000000000E+00  0.00000000000E+00 -0.33267214869E+03  0.33267214870E+03  0.25500000920E-02 0. -1.
    10030    2    1    2    0    0  0.00000000000E+00  0.00000000000E+00  0.93791357854E+03  0.16032578759E+04  0.13002899430E+04 0.  0.
        2    1    3    3  502    0  0.18775503974E+03  0.47098073720E+03  0.97073439471E+03  0.10951712537E+04  0.25500000920E-02 0. -1.
       -2    1    3    3    0  502 -0.18775503974E+03 -0.47098073720E+03 -0.32820816164E+02  0.50808662228E+03  0.25500000920E-02 0.  1.
</event>
<event>
 5   0  0.2356769E-03  0.1279292E+04  0.7818609E-02  0.9046150E-01
       -1   -1    0    0    0  501  0.00000000000E+00  0.00000000000E+00  0.35912595440E+03  0.35912595444E+03  0.50400001928E-02 0. -1.
        1   -1    0    0  501    0  0.00000000000E+00  0.00000000000E+00 -0.11392856587E+04  0.11392856587E+04  0.50400001928E-02 0.  1.
    10030    2    1    2    0    0  0.00000000000E+00  0.00000000000E+00 -0.78015970433E+03  0.14984116132E+04  0.12792920692E+04 0.  0.
        1    1    3    3  502    0 -0.40727517514E+03 -0.48740077951E+03 -0.30153790386E+03  0.70310574997E+03  0.50400001928E-02 0.  1.
       -1    1    3    3    0  502  0.40727517514E+03  0.48740077951E+03 -0.47862180047E+03  0.79530586321E+03  0.50400001928E-02 0. -1.
</event>
<event>
 5   0  0.4388937E-03  0.1304192E+04  0.7818609E-02  0.9026248E-01
        2   -1    0    0  501    0  0.00000000000E+00  0.00000000000E+00  0.21015527174E+03  0.21015527175E+03  0.25500000920E-02 0. -1.
       -2   -1    0    0    0  501  0.00000000000E+00  0.00000000000E+00 -0.20234041358E+04  0.20234041358E+04  0.25500000920E-02 0.  1.
    10030    2    1    2    0    0  0.00000000000E+00  0.00000000000E+00 -0.18132488641E+04  0.22335594076E+04  0.13041917743E+04 0.  0.
        5    1    3    3  502    0 -0.38418838845E+03  0.44894261520E+03 -0.13789320824E+04  0.15002086413E+04  0.46999998093E+01 0.  1.
       -5    1    3    3    0  502  0.38418838845E+03 -0.44894261520E+03 -0.43431678170E+03  0.73335076630E+03  0.46999998093E+01 0. -1.
</event>
<event>
 5   0  0.2458456E-03  0.1262171E+04  0.7818609E-02  0.9060114E-01
        1   -1    0    0  501    0  0.00000000000E+00  0.00000000000E+00  0.14681872048E+04  0.14681872049E+04  0.50400001928E-02 0. -1.
       -1   -1    0    0    0  501  0.00000000000E+00  0.00000000000E+00 -0.27126554051E+03  0.27126554056E+03  0.50400001928E-02 0.  1.
    10030    2    1    2    0    0  0.00000000000E+00  0.00000000000E+00  0.11969216643E+04  0.17394527454E+04  0.12621705047E+04 0.  0.
        5    1    3    3  502    0 -0.40855530399E+03  0.15388408398E+03 -0.29538637423E+02  0.43759841044E+03  0.46999998093E+01 0.  1.
       -5    1    3    3    0  502  0.40855530399E+03 -0.15388408398E+03  0.12264603018E+04  0.13018543350E+04  0.46999998093E+01 0. -1.
</event>
<event>
 5   0  0.4306214E-03  0.1279690E+04  0.7818609E-02  0.9045828E-01
       -2   -1    0    0    0  501  0.00000000000E+00  0.00000000000E+00  0.44538578877E+03  0.44538578878E+03  0.25500000920E-02 0. -1.
        2   -1    0    0  501    0  0.00000000000E+00  0.00000000000E+00 -0.91920702536E+03  0.91920702536E+03  0.25500000920E-02 0.  1.
    10030    2    1    2    0    0  0.00000000000E+00  0.00000000000E+00 -0.47382123659E+03  0.13645928141E+04  0.12796901907E+04 0.  0.
        3    1    3    3  502    0 -0.31328493250E+03 -0.44326319701E+03 -0.59816761021E+03  0.80773399758E+03  0.10100000352E+00 0.  1.
       -3    1    3    3    0  502  0.31328493250E+03  0.44326319701E+03  0.12434637362E+03  0.55685881656E+03  0.10100000352E+00 0. -1.
</event>
<event>
 5   0  0.4388937E-03  0.1283823E+04  0.7818609E-02  0.9042493E-01
       -2   -1    0    0    0  501  0.00000000000E+00  0.00000000000E+00  0.33576135895E+03  0.33576135896E+03  0.25500000920E-02 0.  1.
        2   -1    0    0  501    0  0.00000000000E+00  0.00000000000E+00 -0.12272123168E+04  0.12272123168E+04  0.25500000920E-02 0. -1.
    10030    2    1    2    0    0  0.00000000000E+00  0.00000000000E+00 -0.89145095780E+03  0.15629736757E+04  0.12838231579E+04 0.  0.
        5    1    3    3  502    0  0.53823372787E+03 -0.26576324420E+03 -0.16890180574E+03  0.62359887569E+03  0.46999998093E+01 0.  1.
       -5    1    3    3    0  502 -0.53823372787E+03  0.26576324420E+03 -0.72254915206E+03  0.93937480003E+03  0.46999998093E+01 0. -1.
</event>
<event>
 5   0  0.2511542E-03  0.1421617E+04  0.7818609E-02  0.8938318E-01
       -1   -1    0    0    0  501  0.00000000000E+00  0.00000000000E+00  0.67160798091E+03  0.67160798093E+03  0.50400001928E-02 0. -1.
        1   -1    0    0  501    0  0.00000000000E+00  0.00000000000E+00 -0.75229698610E+03  0.75229698611E+03  0.50400001928E-02 0.  1.
    10030    2    1    2    0    0  0.00000000000E+00  0.00000000000E+00 -0.80689005189E+02  0.14239049670E+04  0.14216169103E+04 0.  0.
        4    1    3    3  502    0 -0.14564648193E+03  0.53305971359E+03  0.40745614202E+03  0.68657678123E+03  0.12699999809E+01 0. -1.
       -4    1    3    3    0  502  0.14564648193E+03 -0.53305971359E+03 -0.48814514721E+03  0.73732818581E+03  0.12699999809E+01 0.  1.
</event>
<event>
 5   0  0.4306214E-03  0.1494314E+04  0.7818609E-02  0.8888243E-01
        2   -1    0    0  501    0  0.00000000000E+00  0.00000000000E+00  0.64800316525E+03  0.64800316526E+03  0.25500000920E-02 0. -1.
       -2   -1    0    0    0  501  0.00000000000E+00  0.00000000000E+00 -0.86148286872E+03  0.86148286872E+03  0.25500000920E-02 0.  1.
    10030    2    1    2    0    0  0.00000000000E+00  0.00000000000E+00 -0.21347970347E+03  0.15094860340E+04  0.14943140577E+04 0.  0.
        3    1    3    3  502    0 -0.64978518815E+03 -0.32542761023E+03  0.68572495386E+02  0.72994939384E+03  0.10100000352E+00 0. -1.
       -3    1    3    3    0  502  0.64978518815E+03  0.32542761023E+03 -0.28205219885E+03  0.77953664014E+03  0.10100000352E+00 0.  1.
</event>
<event>
 5   0  0.4263540E-03  0.1342094E+04  0.7818609E-02  0.8996835E-01
       -2   -1    0    0    0  501  0.00000000000E+00  0.00000000000E+00  0.11610579280E+04  0.11610579280E+04  0.25500000920E-02 0.  1.
        2   -1    0    0  501    0  0.00000000000E+00  0.00000000000E+00 -0.38783930771E+03  0.38783930772E+03  0.25500000920E-02 0. -1.
    10030    2    1    2    0    0  0.00000000000E+00  0.00000000000E+00  0.77321862029E+03  0.15488972357E+04  0.13420937419E+04 0.  0.
        2    1    3    3  502    0 -0.35113273194E+03 -0.38285693399E+03 -0.10361456620E+03  0.52972597225E+03  0.25500000920E-02 0. -1.
       -2    1    3    3    0  502  0.35113273194E+03  0.38285693399E+03  0.87683318649E+03  0.10191712635E+04  0.25500000920E-02 0.  1.
</event>
<event>
 5   0  0.4310889E-03  0.1237588E+04  0.7818609E-02  0.9080577E-01
       -2   -1    0    0    0  501  0.00000000000E+00  0.00000000000E+00  0.62310766758E+03  0.62310766758E+03  0.25500000920E-02 0. -1.
        2   -1    0    0  501    0  0.00000000000E+00  0.00000000000E+00 -0.61451022360E+03  0.61451022361E+03  0.25500000920E-02 0.  1.
    10030    2    1    2    0    0  0.00000000000E+00  0.00000000000E+00  0.85974439744E+01  0.12376178912E+04  0.12375880286E+04 0.  0.
        4    1    3    3  502    0  0.32991623926E+03  0.25757232226E+03 -0.45147119528E+03  0.61564281786E+03  0.12699999809E+01 0.  1.
       -4    1    3    3    0  502 -0.32991623926E+03 -0.25757232226E+03  0.46006863925E+03  0.62197507333E+03  0.12699999809E+01 0. -1.
</event>
<event>
 5   0  0.4306214E-03  0.1299813E+04  0.7818609E-02  0.9029714E-01
       -2   -1    0    0    0  501  0.00000000000E+00  0.00000000000E+00  0.34911116379E+03  0.34911116380E+03  0.25500000920E-02 0.  1.
        2   -1    0    0  501    0  0.00000000000E+00  0.00000000000E+00 -0.12098679265E+04  0.12098679265E+04  0.25500000920E-02 0. -1.
    10030    2    1    2    0    0  0.00000000000E+00  0.00000000000E+00 -0.86075676272E+03  0.15589790903E+04  0.12998129094E+04 0.  0.
        3    1    3    3  502    0 -0.29141143032E+02 -0.37955574597E+03  0.20140007961E+03  0.43066666087E+03  0.10100000352E+00 0.  1.
       -3    1    3    3    0  502  0.29141143032E+02  0.37955574597E+03 -0.10621568423E+04  0.11283124294E+04  0.10100000352E+00 0. -1.
</event>
<event>
 5   0  0.4453011E-03  0.9091129E+03  0.7818609E-02  0.9414261E-01
        2   -1    0    0  501    0  0.00000000000E+00  0.00000000000E+00  0.22910535684E+04  0.22910535684E+04  0.25500000920E-02 0.  1.
       -2   -1    0    0    0  501  0.00000000000E+00  0.00000000000E+00 -0.90186262713E+02  0.90186262749E+02  0.25500000920E-02 0. -1.
    10030    2    1    2    0    0  0.00000000000E+00  0.00000000000E+00  0.22008673057E+04  0.23812398311E+04  0.90911288420E+03 0.  0.
        1    1    3    3  502    0 -0.25099853751E+03  0.36478109614E+03  0.83131986807E+03  0.94189077764E+03  0.50400001928E-02 0.  1.
       -1    1    3    3    0  502  0.25099853751E+03 -0.36478109614E+03  0.13695474376E+04  0.14393490535E+04  0.50400001928E-02 0. -1.
</event>
<event>
 5   0  0.4453011E-03  0.1298396E+04  0.7818609E-02  0.9030838E-01
       -2   -1    0    0    0  501  0.00000000000E+00  0.00000000000E+00  0.58450522740E+03  0.58450522741E+03  0.25500000920E-02 0.  1.
        2   -1    0    0  501    0  0.00000000000E+00  0.00000000000E+00 -0.72105060098E+03  0.72105060099E+03  0.25500000920E-02 0. -1.
    10030    2    1    2    0    0  0.00000000000E+00  0.00000000000E+00 -0.13654537358E+03  0.13055558284E+04  0.12983956955E+04 0.  0.
        1    1    3    3  502    0 -0.25937371689E+02  0.17180212944E+03  0.56069186771E+03  0.58699581726E+03  0.50400001928E-02 0.  1.
       -1    1    3    3    0  502  0.25937371689E+02 -0.17180212944E+03 -0.69723724130E+03  0.71856001114E+03  0.50400001928E-02 0. -1.
</event>
<event>
 5   0  0.2356769E-03  0.7206834E+03  0.7818609E-02  0.9682500E-01
       -1   -1    0    0    0  501  0.00000000000E+00  0.00000000000E+00  0.23327349298E+03  0.23327349303E+03  0.50400001928E-02 0. -1.
        1   -1    0    0  501    0  0.00000000000E+00  0.00000000000E+00 -0.55662624153E+03  0.55662624155E+03  0.50400001928E-02 0.  1.
    10030    2    1    2    0    0  0.00000000000E+00  0.00000000000E+00 -0.32335274855E+03  0.78989973458E+03  0.72068341919E+03 0.  0.
        1    1    3    3  502    0  0.13449761993E+03 -0.13044116497E+02  0.20445171511E+03  0.24507195388E+03  0.50400001928E-02 0. -1.
       -1    1    3    3    0  502 -0.13449761993E+03  0.13044116497E+02 -0.52780446366E+03  0.54482778070E+03  0.50400001928E-02 0.  1.
</event>
<event>
 5   0  0.2462055E-03  0.1289443E+04  0.7818609E-02  0.9037979E-01
        1   -1    0    0  501    0  0.00000000000E+00  0.00000000000E+00  0.66169682142E+03  0.66169682144E+03  0.50400001928E-02 0. -1.
       -1   -1    0    0    0  501  0.00000000000E+00  0.00000000000E+00 -0.62818213152E+03  0.62818213154E+03  0.50400001928E-02 0.  1.
    10030    2    1    2    0    0  0.00000000000E+00  0.00000000000E+00  0.33514689894E+02  0.12898789530E+04  0.12894434764E+04 0.  0.
        2    1    3    3  502    0  0.26498463683E+02 -0.61406266912E+03  0.21147916518E+03  0.64999889808E+03  0.25500000920E-02 0. -1.
       -2    1    3    3    0  502 -0.26498463683E+02  0.61406266912E+03 -0.17796447529E+03  0.63988005490E+03  0.25500000920E-02 0.  1.
</event>
<event>
 5   0  0.4453011E-03  0.1177546E+04  0.7818609E-02  0.9132741E-01
       -2   -1    0    0    0  501  0.00000000000E+00  0.00000000000E+00  0.61059743965E+03  0.61059743966E+03  0.25500000920E-02 0.  1.
        2   -1    0    0  501    0  0.00000000000E+00  0.00000000000E+00 -0.56772855999E+03  0.56772856000E+03  0.25500000920E-02 0. -1.
    10030    2    1    2    0    0  0.00000000000E+00  0.00000000000E+00  0.42868879663E+02  0.11783259997E+04  0.11775459314E+04 0.  0.
        1    1    3    3  502    0  0.95904530492E+02  0.21122415712E+03 -0.52007123481E+03  0.56946238929E+03  0.50400001928E-02 0. -1.
       -1    1    3    3    0  502 -0.95904530492E+02 -0.21122415712E+03  0.56294011447E+03  0.60886361036E+03  0.50400001928E-02 0.  1.
</event>
<event>
 5   0  0.2370801E-03  0.1298468E+04  0.7818609E-02  0.9030781E-01
        1   -1    0    0  501    0  0.00000000000E+00  0.00000000000E+00  0.11011985398E+04  0.11011985398E+04  0.50400001928E-02 0.  1.
       -1   -1    0    0    0  501  0.00000000000E+00  0.00000000000E+00 -0.38276939996E+03  0.38276939999E+03  0.50400001928E-02 0. -1.
    10030    2    1    2    0    0  0.00000000000E+00  0.00000000000E+00  0.71842913987E+03  0.14839679398E+04  0.12984684892E+04 0.  0.
        3    1    3    3  502    0  0.28075475147E+03  0.98899147951E+02 -0.30018785135E+03  0.42274936811E+03  0.10100000352E+00 0. -1.
       -3    1    3    3    0  502 -0.28075475147E+03 -0.98899147951E+02  0.10186169912E+04  0.10612185717E+04  0.10100000352E+00 0.  1.
</event>
<event>
 5   0  0.4388937E-03  0.1381456E+04  0.7818609E-02  0.8967352E-01
        2   -1    0    0  501    0  0.00000000000E+00  0.00000000000E+00  0.12113941481E+04  0.12113941481E+04  0.25500000920E-02 0. -1.
       -2   -1    0    0    0  501  0.00000000000E+00  0.00000000000E+00 -0.39384776032E+03  0.39384776033E+03  0.25500000920E-02 0.  1.
    10030    2    1    2    0    0  0.00000000000E+00  0.00000000000E+00  0.81754638782E+03  0.16052419085E+04  0.13814555688E+04 0.  0.
        5    1    3    3  502    0 -0.25024805826E+03  0.50660640368E+03 -0.52830165669E+02  0.56752731680E+03  0.46999998093E+01 0. -1.
       -5    1    3    3    0  502  0.25024805826E+03 -0.50660640368E+03  0.87037655349E+03  0.10377145917E+04  0.46999998093E+01 0.  1.
</event>
<event>
 5   0  0.2370801E-03  0.1280462E+04  0.7818609E-02  0.9045204E-01
        1   -1    0    0  501    0  0.00000000000E+00  0.00000000000E+00  0.10432208284E+04  0.10432208284E+04  0.50400001928E-02 0. -1.
       -1   -1    0    0    0  501  0.00000000000E+00  0.00000000000E+00 -0.39291366674E+03  0.39291366677E+03  0.50400001928E-02 0.  1.
    10030    2    1    2    0    0  0.00000000000E+00  0.00000000000E+00  0.65030716168E+03  0.14361344952E+04  0.12804619806E+04 0.  0.
        3    1    3    3  502    0  0.99965113817E+02  0.48431198583E+03  0.78121508673E+03  0.92457998331E+03  0.10100000352E+00 0. -1.
       -3    1    3    3    0  502 -0.99965113817E+02 -0.48431198583E+03 -0.13090792505E+03  0.51155451189E+03  0.10100000352E+00 0.  1.
</event>
<event>
 5   0  0.4263540E-03  0.1312692E+04  0.7818609E-02  0.9019561E-01
       -2   -1    0    0    0  501  0.00000000000E+00  0.00000000000E+00  0.31142089490E+03  0.31142089492E+03  0.25500000920E-02 0. -1.
        2   -1    0    0  501    0  0.00000000000E+00  0.00000000000E+00 -0.13833047320E+04  0.13833047320E+04  0.25500000920E-02 0.  1.
    10030    2    1    2    0    0  0.00000000000E+00  0.00000000000E+00 -0.10718838371E+04  0.16947256270E+04  0.13126918871E+04 0.  0.
        2    1    3    3  502    0  0.24739857825E+03 -0.11439172048E+02 -0.13206646715E+04  0.13436860071E+04  0.25500000920E-02 0.  1.
       -2    1    3    3    0  502 -0.24739857825E+03  0.11439172048E+02  0.24878083434E+03  0.35103961987E+03  0.25500000920E-02 0. -1.
</event>
<event>
 5   0  0.2511542E-03  0.1295943E+04  0.7818609E-02  0.9032789E-01
        1   -1    0    0  501    0  0.00000000000E+00  0.00000000000E+00  0.63218546855E+03  0.63218546857E+03  0.50400001928E-02 0.  1.
       -1   -1    0    0    0  501  0.00000000000E+00  0.00000000000E+00 -0.66415168087E+03  0.66415168088E+03  0.50400001928E-02 0. -1.
    10030    2    1    2    0    0  0.00000000000E+00  0.00000000000E+00 -0.31966212317E+02  0.12963371495E+04  0.12959429641E+04 0.  0.
        4    1    3    3  502    0  0.46543679211E+03 -0.24414813661E+03  0.36311199379E+03  0.63882051704E+03  0.12699999809E+01 0. -1.
       -4    1    3    3    0  502 -0.46543679211E+03  0.24414813661E+03 -0.39507820610E+03  0.65751663241E+03  0.12699999809E+01 0.  1.
</event>
<event>
 5   0  0.2458456E-03  0.1214455E+04  0.7818609E-02  0.9100297E-01
        1   -1    0    0  501    0  0.00000000000E+00  0.00000000000E+00  0.33802324549E+03  0.33802324553E+03  0.50400001928E-02 0. -1.
       -1   -1    0    0    0  501  0.00000000000E+00  0.00000000000E+00 -0.10908278558E+04  0.10908278558E+04  0.50400001928E-02 0.  1.
    10030    2    1    2    0    0  0.00000000000E+00  0.00000000000E+00 -0.75280461031E+03  0.14288511013E+04  0.12144548936E+04 0.  0.
        5    1    3    3  502    0 -0.49479399466E+03  0.59985612220E+02  0.31643572347E+02  0.49944246565E+03  0.46999998093E+01 0. -1.
       -5    1    3    3    0  502  0.49479399466E+03 -0.59985612220E+02 -0.78444818266E+03  0.92940863569E+03  0.46999998093E+01 0.  1.
</event>
<event>
 5   0  0.2356769E-03  0.1308025E+04  0.7818609E-02  0.9023225E-01
       -1   -1    0    0    0  501  0.00000000000E+00  0.00000000000E+00  0.61756103964E+03  0.61756103966E+03  0.50400001928E-02 0. -1.
        1   -1    0    0  501    0  0.00000000000E+00  0.00000000000E+00 -0.69261579081E+03  0.69261579083E+03  0.50400001928E-02 0.  1.
    10030    2    1    2    0    0  0.00000000000E+00  0.00000000000E+00 -0.75054751178E+02  0.13101768305E+04  0.13080252717E+04 0.  0.
        1    1    3    3  502    0  0.18177605337E+03 -0.43826779252E+02 -0.66527126868E+03  0.69104933335E+03  0.50400001928E-02 0.  1.
       -1    1    3    3    0  502 -0.18177605337E+03  0.43826779252E+02  0.59021651750E+03  0.61912749714E+03  0.50400001928E-02 0. -1.
</event>
<event>
 5   0  0.2462055E-03  0.6831216E+03  0.7818609E-02  0.9746540E-01
       -1   -1    0    0    0  501  0.00000000000E+00  0.00000000000E+00  0.30497997015E+03  0.30497997020E+03  0.50400001928E-02 0.  1.
        1   -1    0    0  501    0  0.00000000000E+00  0.00000000000E+00 -0.38252929735E+03  0.38252929739E+03  0.50400001928E-02 0. -1.
    10030    2    1    2    0    0  0.00000000000E+00  0.00000000000E+00 -0.77549327200E+02  0.68750926758E+03  0.68312158132E+03 0.  0.
        2    1    3    3  502    0  0.23404827387E+02  0.51048086011E+02  0.30030189531E+03  0.30550764535E+03  0.25500000920E-02 0.  1.
       -2    1    3    3    0  502 -0.23404827387E+02 -0.51048086011E+02 -0.37785122251E+03  0.38200162224E+03  0.25500000920E-02 0. -1.
</event>
<event>
 5   0  0.4306214E-03  0.1258118E+04  0.7818609E-02  0.9063453E-01
        2   -1    0    0  501    0  0.00000000000E+00  0.00000000000E+00  0.16981487000E+04  0.16981487000E+04  0.25500000920E-02 0. -1.
       -2   -1    0    0    0  501  0.00000000000E+00  0.00000000000E+00 -0.23302759990E+03  0.23302759991E+03  0.25500000920E-02 0.  1.
    10030    2    1    2    0    0  0.00000000000E+00  0.00000000000E+00  0.14651211001E+04  0.19311762999E+04  0.12581184616E+04 0.  0.
        3    1    3    3  502    0 -0.31379881575E+03 -0.80516495349E+02 -0.95133600082E+02  0.33764332491E+03  0.10100000352E+00 0.  1.
       -3    1    3    3    0  502  0.31379881575E+03  0.80516495349E+02  0.15602547001E+04  0.15935329750E+04  0.10100000352E+00 0. -1.
</event>
<event>
 5   0  0.4453011E-03  0.1316017E+04  0.7818609E-02  0.9016959E-01
        2   -1    0    0  501    0  0.00000000000E+00  0.00000000000E+00  0.94875803477E+03  0.94875803477E+03  0.25500000920E-02 0. -1.
       -2   -1    0    0    0  501  0.00000000000E+00  0.00000000000E+00 -0.45635984614E+03  0.45635984615E+03  0.25500000920E-02 0.  1.
    10030    2    1    2    0    0  0.00000000000E+00  0.00000000000E+00  0.49239818863E+03  0.14051178809E+04  0.13160168248E+04 0.  0.
        1    1    3    3  502    0 -0.11534921885E+03  0.33093935111E+03  0.84081476901E+03  0.91093126646E+03  0.50400001928E-02 0. -1.
       -1    1    3    3    0  502  0.11534921885E+03 -0.33093935111E+03 -0.34841658039E+03  0.49418661446E+03  0.50400001928E-02 0.  1.
</event>
<event>
 5   0  0.2462055E-03  0.1289096E+04  0.7818609E-02  0.9038257E-01
       -1   -1    0    0    0  501  0.00000000000E+00  0.00000000000E+00  0.80698365177E+03  0.80698365178E+03  0.50400001928E-02 0.  1.
        1   -1    0    0  501    0  0.00000000000E+00  0.00000000000E+00 -0.51480881659E+03  0.51480881662E+03  0.50400001928E-02 0. -1.
    10030    2    1    2    0    0  0.00000000000E+00  0.00000000000E+00  0.29217483517E+03  0.13217924684E+04  0.12890962707E+04 0.  0.
        2    1    3    3  502    0  0.32432640523E+03 -0.45606578695E+03 -0.18180246129E+03  0.58841800966E+03  0.25500000920E-02 0. -1.
       -2    1    3    3    0  502 -0.32432640523E+03  0.45606578695E+03  0.47397729646E+03  0.73337445873E+03  0.25500000920E-02 0.  1.
</event>
<event>
 5   0  0.2511542E-03  0.1284175E+04  0.7818609E-02  0.9042209E-01
        1   -1    0    0  501    0  0.00000000000E+00  0.00000000000E+00  0.12851124008E+04  0.12851124008E+04  0.50400001928E-02 0.  1.
       -1   -1    0    0    0  501  0.00000000000E+00  0.00000000000E+00 -0.32080970342E+03  0.32080970346E+03  0.50400001928E-02 0. -1.
    10030    2    1    2    0    0  0.00000000000E+00  0.00000000000E+00  0.96430269735E+03  0.16059221042E+04  0.12841752656E+04 0.  0.
        4    1    3    3  502    0 -0.15357754823E+03  0.58952030912E+03  0.22845765663E+03  0.65062644579E+03  0.12699999809E+01 0. -1.
       -4    1    3    3    0  502  0.15357754823E+03 -0.58952030912E+03  0.73584504072E+03  0.95529565844E+03  0.12699999809E+01 0.  1.
</event>
<event>
 5   0  0.2370801E-03  0.1300231E+04  0.7818609E-02  0.9029382E-01
        1   -1    0    0  501    0  0.00000000000E+00  0.00000000000E+00  0.41458215411E+03  0.41458215414E+03  0.50400001928E-02 0. -1.
       -1   -1    0    0    0  501  0.00000000000E+00  0.00000000000E+00 -0.10194608686E+04  0.10194608686E+04  0.50400001928E-02 0.  1.
    10030    2    1    2    0    0  0.00000000000E+00  0.00000000000E+00 -0.60487871447E+03  0.14340430227E+04  0.13002311840E+04 0.  0.
        3    1    3    3  502    0  0.42361989591E+03 -0.16111374468E+03 -0.81649522222E+03  0.93385004848E+03  0.10100000352E+00 0.  1.
       -3    1    3    3    0  502 -0.42361989591E+03  0.16111374468E+03  0.21161650775E+03  0.50019297425E+03  0.10100000352E+00 0. -1.
</event>
<event>
 5   0  0.2511542E-03  0.9658998E+03  0.7818609E-02  0.9346757E-01
        1   -1    0    0  501    0  0.00000000000E+00  0.00000000000E+00  0.44849627831E+03  0.44849627834E+03  0.50400001928E-02 0.  1.
       -1   -1    0    0    0  501  0.00000000000E+00  0.00000000000E+00 -0.52005025486E+03  0.52005025488E+03  0.50400001928E-02 0. -1.
    10030    2    1    2    0    0  0.00000000000E+00  0.00000000000E+00 -0.71553976546E+02  0.96854653322E+03  0.96589979576E+03 0.  0.
        4    1    3    3  502    0  0.47462893334E+03  0.30973113717E+02 -0.11971438441E+03  0.49047436719E+03  0.12699999809E+01 0. -1.
       -4    1    3    3    0  502 -0.47462893334E+03 -0.30973113717E+02  0.48160407863E+02  0.47807216602E+03  0.12699999809E+01 0.  1.
</event>
<event>
 5   0  0.4263540E-03  0.1312608E+04  0.7818609E-02  0.9019626E-01
       -2   -1    0    0    0  501  0.00000000000E+00  0.00000000000E+00  0.10503121886E+04  0.10503121886E+04  0.25500000920E-02 0. -1.
        2   -1    0    0  501    0  0.00000000000E+00  0.00000000000E+00 -0.41010207786E+03  0.41010207787E+03  0.25500000920E-02 0.  1.
    10030    2    1    2    0    0  0.00000000000E+00  0.00000000000E+00  0.64021011070E+03  0.14604142664E+04  0.13126084122E+04 0.  0.
        2    1    3    3  502    0 -0.34814026286E+03 -0.53703513873E+03  0.48182293283E+03  0.80110031923E+03  0.25500000920E-02 0.  1.
       -2    1    3    3    0  502  0.34814026286E+03  0.53703513873E+03  0.15838717787E+03  0.65931394720E+03  0.25500000920E-02 0. -1.
</event>
<event>
 5   0  0.4453011E-03  0.1240633E+04  0.7818609E-02  0.9078015E-01
       -2   -1    0    0    0  501  0.00000000000E+00  0.00000000000E+00  0.61658676357E+03  0.61658676358E+03  0.25500000920E-02 0. -1.
        2   -1    0    0  501    0  0.00000000000E+00  0.00000000000E+00 -0.62406901946E+03  0.62406901947E+03  0.25500000920E-02 0.  1.
    10030    2    1    2    0    0  0.00000000000E+00  0.00000000000E+00 -0.74822558908E+01  0.12406557830E+04  0.12406332205E+04 0.  0.
        1    1    3    3  502    0 -0.18633907502E+02  0.47285081850E+02  0.61450113650E+03  0.61659934176E+03  0.50400001928E-02 0. -1.
       -1    1    3    3    0  502  0.18633907502E+02 -0.47285081850E+02 -0.62198339239E+03  0.62405644129E+03  0.50400001928E-02 0.  1.
</event>
<event>
 5   0  0.1661750E-03  0.1304468E+04  0.7818609E-02  0.9026029E-01
       -3   -1    0    0    0  501  0.00000000000E+00  0.00000000000E+00  0.64413358104E+03  0.64413358896E+03  0.10100000352E+00 0. -1.
        3   -1    0    0  501    0  0.00000000000E+00  0.00000000000E+00 -0.66043646446E+03  0.66043647218E+03  0.10100000352E+00 0.  1.
    10030    2    1    2    0    0  0.00000000000E+00  0.00000000000E+00 -0.16302883422E+02  0.13045700611E+04  0.13044681907E+04 0.  0.
        3    1    3    3  502    0  0.16154060529E+03 -0.45102533157E+03 -0.45078072758E+03  0.65781645725E+03  0.10100000352E+00 0.  1.
       -3    1    3    3    0  502 -0.16154060529E+03  0.45102533157E+03  0.43447784416E+03  0.64675360389E+03  0.10100000352E+00 0. -1.
</event>
<event>
 5   0  0.2356769E-03  0.1300099E+04  0.7818609E-02  0.9029487E-01
       -1   -1    0    0    0  501  0.00000000000E+00  0.00000000000E+00  0.90629651577E+03  0.90629651578E+03  0.50400001928E-02 0.  1.
        1   -1    0    0  501    0  0.00000000000E+00  0.00000000000E+00 -0.46625366325E+03  0.46625366327E+03  0.50400001928E-02 0. -1.
    10030    2    1    2    0    0  0.00000000000E+00  0.00000000000E+00  0.44004285252E+03  0.13725501791E+04  0.13000985663E+04 0.  0.
        1    1    3    3  502    0 -0.36332782888E+03  0.98209684864E+01  0.78899945667E+03  0.86869079960E+03  0.50400001928E-02 0.  1.
       -1    1    3    3    0  502  0.36332782888E+03 -0.98209684864E+01 -0.34895660415E+03  0.50385937945E+03  0.50400001928E-02 0. -1.
</event>
<event>
 5   0  0.4263540E-03  0.1341681E+04  0.7818609E-02  0.8997149E-01
        2   -1    0    0  501    0  0.00000000000E+00  0.00000000000E+00  0.13731255872E+04  0.13731255872E+04  0.25500000920E-02 0. -1.
       -2   -1    0    0    0  501  0.00000000000E+00  0.00000000000E+00 -0.32773910253E+03  0.32773910253E+03  0.25500000920E-02 0.  1.
    10030    2    1    2    0    0  0.00000000000E+00  0.00000000000E+00  0.10453864847E+04  0.17008646897E+04  0.13416809570E+04 0.  0.
        2    1    3    3  502    0 -0.69819362337E+01  0.27342087483E+03  0.12992318465E+04  0.13277089716E+04  0.25500000920E-02 0. -1.
       -2    1    3    3    0  502  0.69819362337E+01 -0.27342087483E+03 -0.25384536186E+03  0.37315571813E+03  0.25500000920E-02 0.  1.
</event>
<event>
 5   0  0.2370801E-03  0.1278719E+04  0.7818609E-02  0.9046613E-01
       -1   -1    0    0    0  501  0.00000000000E+00  0.00000000000E+00  0.24998020520E+03  0.24998020525E+03  0.50400001928E-02 0. -1.
        1   -1    0    0  501    0  0.00000000000E+00  0.00000000000E+00 -0.16352523042E+04  0.16352523042E+04  0.50400001928E-02 0.  1.
    10030    2    1    2    0    0  0.00000000000E+00  0.00000000000E+00 -0.13852720990E+04  0.18852325095E+04  0.12787192133E+04 0.  0.
        3    1    3    3  502    0  0.43316866736E+03  0.28087338910E+03 -0.13657223936E+03  0.53401960812E+03  0.10100000352E+00 0.  1.
       -3    1    3    3    0  502 -0.43316866736E+03 -0.28087338910E+03 -0.12486998597E+04  0.13512129014E+04  0.10100000352E+00 0. -1.
</event>
<event>
 5   0  0.4453011E-03  0.1344693E+04  0.7818609E-02  0.8994855E-01
        2   -1    0    0  501    0  0.00000000000E+00  0.00000000000E+00  0.79545130898E+03  0.79545130899E+03  0.25500000920E-02 0.  1.
       -2   -1    0    0    0  501  0.00000000000E+00  0.00000000000E+00 -0.56829385195E+03  0.56829385196E+03  0.25500000920E-02 0. -1.
    10030    2    1    2    0    0  0.00000000000E+00  0.00000000000E+00  0.22715745703E+03  0.13637451609E+04  0.13446934051E+04 0.  0.
        1    1    3    3  502    0 -0.63875844752E+03 -0.37170888342E+02  0.32303834924E+03  0.71676202768E+03  0.50400001928E-02 0.  1.
       -1    1    3    3    0  502  0.63875844752E+03  0.37170888342E+02 -0.95880892213E+02  0.64698313327E+03  0.50400001928E-02 0. -1.
</event>
<event>
 5   0  0.2370801E-03  0.1204392E+04  0.7818609E-02  0.9109021E-01
       -1   -1    0    0    0  501  0.00000000000E+00  0.00000000000E+00  0.85439188235E+03  0.85439188236E+03  0.50400001928E-02 0.  1.
        1   -1    0    0  501    0  0.00000000000E+00  0.00000000000E+00 -0.42444236290E+03  0.42444236293E+03  0.50400001928E-02 0. -1.
    10030    2    1    2    0    0  0.00000000000E+00  0.00000000000E+00  0.42994951945E+03  0.12788342453E+04  0.12043921445E+04 0.  0.
        3    1    3    3  502    0  0.17148036109E+03  0.14175415513E+03 -0.37920226644E+03  0.43965227602E+03  0.10100000352E+00 0. -1.
       -3    1    3    3    0  502 -0.17148036109E+03 -0.14175415513E+03  0.80915178589E+03  0.83918196927E+03  0.10100000352E+00 0.  1.
</event>
<event>
 5   0  0.4388937E-03  0.1281732E+04  0.7818609E-02  0.9044178E-01
       -2   -1    0    0    0  501  0.00000000000E+00  0.00000000000E+00  0.36001298850E+03  0.36001298851E+03  0.25500000920E-02 0.  1.
        2   -1    0    0  501    0  0.00000000000E+00  0.00000000000E+00 -0.11408183397E+04  0.11408183397E+04  0.25500000920E-02 0. -1.
    10030    2    1    2    0    0  0.00000000000E+00  0.00000000000E+00 -0.78080535117E+03  0.15008313282E+04  0.12817322963E+04 0.  0.
        5    1    3    3  502    0 -0.82144590138E+02  0.25539299329E+03 -0.10718795809E+04  0.11049530490E+04  0.46999998093E+01 0. -1.
       -5    1    3    3    0  502  0.82144590138E+02 -0.25539299329E+03  0.29107422970E+03  0.39587827915E+03  0.46999998093E+01 0.  1.
</event>
<event>
 5   0  0.4453011E-03  0.9722491E+03  0.7818609E-02  0.9339516E-01
        2   -1    0    0  501    0  0.00000000000E+00  0.00000000000E+00  0.69181773246E+03  0.69181773246E+03  0.25500000920E-02 0.  1.
       -2   -1    0    0    0  501  0.00000000000E+00  0.00000000000E+00 -0.34158861752E+03  0.34158861753E+03  0.25500000920E-02 0. -1.
    10030    2    1    2    0    0  0.00000000000E+00  0.00000000000E+00  0.35022911493E+03  0.10334063500E+04  0.97224906853E+03 0.  0.
        1    1    3    3  502    0  0.23453715728E+02  0.13210921783E+03 -0.32151724120E+03  0.34839095658E+03  0.50400001928E-02 0. -1.
       -1    1    3    3    0  502 -0.23453715728E+02 -0.13210921783E+03  0.67174635613E+03  0.68501539342E+03  0.50400001928E-02 0.  1.
</event>
<event>
 5   0  0.2462055E-03  0.1441304E+04  0.7818609E-02  0.8924452E-01
        1   -1    0    0  501    0  0.00000000000E+00  0.00000000000E+00  0.21096550830E+04  0.21096550830E+04  0.50400001928E-02 0.  1.
       -1   -1    0    0    0  501  0.00000000000E+00  0.00000000000E+00 -0.24617261502E+03  0.24617261507E+03  0.50400001928E-02 0. -1.
    10030    2    1    2    0    0  0.00000000000E+00  0.00000000000E+00  0.18634824679E+04  0.23558276980E+04  0.14413040049E+04 0.  0.
        2    1    3    3  502    0  0.56154405047E+03  0.37075444239E+03  0.13533967838E+04  0.15114474624E+04  0.25500000920E-02 0. -1.
       -2    1    3    3    0  502 -0.56154405047E+03 -0.37075444239E+03  0.51008568416E+03  0.84438023565E+03  0.25500000920E-02 0.  1.
</event>
<event>
 5   0  0.4263540E-03  0.1022188E+04  0.7818609E-02  0.9284539E-01
       -2   -1    0    0    0  501  0.00000000000E+00  0.00000000000E+00  0.56399315288E+03  0.56399315289E+03  0.25500000920E-02 0. -1.
        2   -1    0    0  501    0  0.00000000000E+00  0.00000000000E+00 -0.46315608679E+03  0.46315608679E+03  0.25500000920E-02 0.  1.
    10030    2    1    2    0    0  0.00000000000E+00  0.00000000000E+00  0.10083706610E+03  0.10271492397E+04  0.10221875790E+04 0.  0.
        2    1    3    3  502    0  0.23934908562E+03 -0.36088950543E+03  0.32319084115E+03  0.54035316204E+03  0.25500000920E-02 0. -1.
       -2    1    3    3    0  502 -0.23934908562E+03  0.36088950543E+03 -0.22235377505E+03  0.48679607764E+03  0.25500000920E-02 0.  1.
</event>
<event>
 5   0  0.4453011E-03  0.1311216E+04  0.7818609E-02  0.9020718E-01
       -2   -1    0    0    0  501  0.00000000000E+00  0.00000000000E+00  0.16240103386E+03  0.16240103388E+03  0.25500000920E-02 0.  1.
        2   -1    0    0  501    0  0.00000000000E+00  0.00000000000E+00 -0.26466705105E+04  0.26466705105E+04  0.25500000920E-02 0. -1.
    10030    2    1    2    0    0  0.00000000000E+00  0.00000000000E+00 -0.24842694767E+04  0.28090715444E+04  0.13112162708E+04 0.  0.
        1    1    3    3  502    0  0.61660958612E+03  0.20802169078E+03 -0.14127385129E+04  0.15554132928E+04  0.50400001928E-02 0. -1.
       -1    1    3    3    0  502 -0.61660958612E+03 -0.20802169078E+03 -0.10715309638E+04  0.12536582516E+04  0.50400001928E-02 0.  1.
</event>
<event>
 5   0  0.2462055E-03  0.1337790E+04  0.7818609E-02  0.9000122E-01
       -1   -1    0    0    0  501  0.00000000000E+00  0.00000000000E+00  0.28323585861E+03  0.28323585866E+03  0.50400001928E-02 0.  1.
        1   -1    0    0  501    0  0.00000000000E+00  0.00000000000E+00 -0.15796756200E+04  0.15796756201E+04  0.50400001928E-02 0. -1.
    10030    2    1    2    0    0  0.00000000000E+00  0.00000000000E+00 -0.12964397614E+04  0.18629114787E+04  0.13377903881E+04 0.  0.
        2    1    3    3  502    0  0.23866155152E+03 -0.94014741002E+02  0.21202328689E+03  0.33279420351E+03  0.25500000920E-02 0.  1.
       -2    1    3    3    0  502 -0.23866155152E+03  0.94014741002E+02 -0.15084630483E+04  0.15301172752E+04  0.25500000920E-02 0. -1.
</event>
<event>
 5   0  0.2511542E-03  0.1285692E+04  0.7818609E-02  0.9040989E-01
       -1   -1    0    0    0  501  0.00000000000E+00  0.00000000000E+00  0.31608605208E+03  0.31608605212E+03  0.50400001928E-02 0.  1.
        1   -1    0    0  501    0  0.00000000000E+00  0.00000000000E+00 -0.13073994987E+04  0.13073994987E+04  0.50400001928E-02 0. -1.
    10030    2    1    2    0    0  0.00000000000E+00  0.00000000000E+00 -0.99131344664E+03  0.16234855509E+04  0.12856916366E+04 0.  0.
        4    1    3    3  502    0  0.38893471604E+03  0.45258893421E+03 -0.19380754503E+03  0.62743121864E+03  0.12699999809E+01 0.  1.
       -4    1    3    3    0  502 -0.38893471604E+03 -0.45258893421E+03 -0.79750590161E+03  0.99605433222E+03  0.12699999809E+01 0. -1.
</event>
<event>
 5   0  0.4388937E-03  0.1326533E+04  0.7818609E-02  0.9008785E-01
        2   -1    0    0  501    0  0.00000000000E+00  0.00000000000E+00  0.17268321378E+04  0.17268321378E+04  0.25500000920E-02 0.  1.
       -2   -1    0    0    0  501  0.00000000000E+00  0.00000000000E+00 -0.25475692230E+03  0.25475692232E+03  0.25500000920E-02 0. -1.
    10030    2    1    2    0    0  0.00000000000E+00  0.00000000000E+00  0.14720752154E+04  0.19815890601E+04  0.13265329860E+04 0.  0.
        5    1    3    3  502    0  0.83147226945E+02  0.40580256394E+03 -0.37737790589E+02  0.41597525538E+03  0.46999998093E+01 0. -1.
       -5    1    3    3    0  502 -0.83147226945E+02 -0.40580256394E+03  0.15098130060E+04  0.15656138047E+04  0.46999998093E+01 0.  1.
</event>
<event>
 5   0  0.2370801E-03  0.1263564E+04  0.7818609E-02  0.9058969E-01
       -1   -1    0    0    0  501  0.00000000000E+00  0.00000000000E+00  0.48266456165E+03  0.48266456168E+03  0.50400001928E-02 0. -1.
        1   -1    0    0  501    0  0.00000000000E+00  0.00000000000E+00 -0.82696886309E+03  0.82696886311E+03  0.50400001928E-02 0.  1.
    10030    2    1    2    0    0  0.00000000000E+00  0.00000000000E+00 -0.34430430144E+03  0.13096334248E+04  0.12635641081E+04 0.  0.
        3    1    3    3  502    0  0.49253689659E+03  0.10077307973E+03  0.22442173599E+03  0.55055693065E+03  0.10100000352E+00 0. -1.
       -3    1    3    3    0  502 -0.49253689659E+03 -0.10077307973E+03 -0.56872603744E+03  0.75907649414E+03  0.10100000352E+00 0.  1.
</event>
<event>
 5   0  0.2356769E-03  0.1303841E+04  0.7818609E-02  0.9026525E-01
       -1   -1    0    0    0  501  0.00000000000E+00  0.00000000000E+00  0.84413429177E+03  0.84413429178E+03  0.50400001928E-02 0. -1.
        1   -1    0    0  501    0  0.00000000000E+00  0.00000000000E+00 -0.50347461654E+03  0.50347461657E+03  0.50400001928E-02 0.  1.
    10030    2    1    2    0    0  0.00000000000E+00  0.00000000000E+00  0.34065967522E+03  0.13476089083E+04  0.13038407708E+04 0.  0.
        1    1    3    3  502    0  0.47923872751E+02  0.76218622072E+02 -0.49701798728E+03  0.50510677647E+03  0.50400001928E-02 0.  1.
       -1    1    3    3    0  502 -0.47923872751E+02 -0.76218622072E+02  0.83767766251E+03  0.84250213188E+03  0.50400001928E-02 0. -1.
</event>
<event>
 5   0  0.4306214E-03  0.1383554E+04  0.7818609E-02  0.8965810E-01
        2   -1    0    0  501    0  0.00000000000E+00  0.00000000000E+00  0.51544074402E+03  0.51544074403E+03  0.25500000920E-02 0. -1.
       -2   -1    0    0    0  501  0.00000000000E+00  0.00000000000E+00 -0.92843919400E+03  0.92843919401E+03  0.25500000920E-02 0.  1.
    10030    2    1    2    0    0  0.00000000000E+00  0.00000000000E+00 -0.41299844998E+03  0.14438799380E+04  0.13835539584E+04 0.  0.
        3    1    3    3  502    0  0.41276891145E+03  0.55134297293E+03 -0.13888112585E+03  0.70259890790E+03  0.10100000352E+00 0.  1.
       -3    1    3    3    0  502 -0.41276891145E+03 -0.55134297293E+03 -0.27411732413E+03  0.74128103014E+03  0.10100000352E+00 0. -1.
</event>
<event>
 5   0  0.4388937E-03  0.1266436E+04  0.7818609E-02  0.9056613E-01
        2   -1    0    0  501    0  0.00000000000E+00  0.00000000000E+00  0.27516140242E+03  0.27516140243E+03  0.25500000920E-02 0. -1.
       -2   -1    0    0    0  501  0.00000000000E+00  0.00000000000E+00 -0.14572005318E+04  0.14572005318E+04  0.25500000920E-02 0.  1.
    10030    2    1    2    0    0  0.00000000000E+00  0.00000000000E+00 -0.11820391293E+04  0.17323619342E+04  0.12664364839E+04 0.  0.
        5    1    3    3  502    0 -0.56828537636E+03 -0.21699816104E+03 -0.35053782403E+03  0.70209353149E+03  0.46999998093E+01 0. -1.
       -5    1    3    3    0  502  0.56828537636E+03  0.21699816104E+03 -0.83150130532E+03  0.10302684027E+04  0.46999998093E+01 0.  1.
</event>
<event>
 5   0  0.2458456E-03  0.1321297E+04  0.7818609E-02  0.9012845E-01
        1   -1    0    0  501    0  0.00000000000E+00  0.00000000000E+00  0.42463856289E+03  0.42463856292E+03  0.50400001928E-02 0. -1.
       -1   -1    0    0    0  501  0.00000000000E+00  0.00000000000E+00 -0.10278300291E+04  0.10278300291E+04  0.50400001928E-02 0.  1.
    10030    2    1    2    0    0  0.00000000000E+00  0.00000000000E+00 -0.60319146622E+03  0.14524685920E+04  0.13212967365E+04 0.  0.
        5    1    3    3  502    0 -0.44901539204E+03 -0.31445411395E+03  0.10370442102E+03  0.55791837128E+03  0.46999998093E+01 0.  1.
       -5    1    3    3    0  502  0.44901539204E+03  0.31445411395E+03 -0.70689588724E+03  0.89455022076E+03  0.46999998093E+01 0. -1.
</event>
<event>
 5   0  0.2462055E-03  0.1305507E+04  0.7818609E-02  0.9025209E-01
        1   -1    0    0  501    0  0.00000000000E+00  0.00000000000E+00  0.77430693537E+03  0.77430693539E+03  0.50400001928E-02 0.  1.
       -1   -1    0    0    0  501  0.00000000000E+00  0.00000000000E+00 -0.55028227456E+03  0.55028227458E+03  0.50400001928E-02 0. -1.
    10030    2    1    2    0    0  0.00000000000E+00  0.00000000000E+00  0.22402466081E+03  0.13245892100E+04  0.13055073828E+04 0.  0.
        2    1    3    3  502    0 -0.28002174880E+03  0.14878605951E+03  0.69091115332E+03  0.76020240271E+03  0.25500000920E-02 0.  1.
       -2    1    3    3    0  502  0.28002174880E+03 -0.14878605951E+03 -0.46688649250E+03  0.56438680725E+03  0.25500000920E-02 0. -1.
</event>
<event>
 5   0  0.4310889E-03  0.1294193E+04  0.7818609E-02  0.9034183E-01
        2   -1    0    0  501    0  0.00000000000E+00  0.00000000000E+00  0.87402728527E+03  0.87402728528E+03  0.25500000920E-02 0.  1.
       -2   -1    0    0    0  501  0.00000000000E+00  0.00000000000E+00 -0.47908546864E+03  0.47908546864E+03  0.25500000920E-02 0. -1.
    10030    2    1    2    0    0  0.00000000000E+00  0.00000000000E+00  0.39494181664E+03  0.13531127539E+04  0.12941928320E+04 0.  0.
        4    1    3    3  502    0  0.31617296123E+03 -0.37275888272E+03  0.64082542304E+03  0.80596114161E+03  0.12699999809E+01 0.  1.
       -4    1    3    3    0  502 -0.31617296123E+03  0.37275888272E+03 -0.24588360641E+03  0.54715161232E+03  0.12699999809E+01 0. -1.
</event>
<event>
 5   0  0.4388937E-03  0.1283381E+04  0.7818609E-02  0.9042849E-01
        2   -1    0    0  501    0  0.00000000000E+00  0.00000000000E+00  0.13552401268E+04  0.13552401268E+04  0.25500000920E-02 0. -1.
       -2   -1    0    0    0  501  0.00000000000E+00  0.00000000000E+00 -0.30383308229E+03  0.30383308230E+03  0.25500000920E-02 0.  1.
    10030    2    1    2    0    0  0.00000000000E+00  0.00000000000E+00  0.10514070445E+04  0.16590732091E+04  0.12833811359E+04 0.  0.
        5    1    3    3  502    0  0.81787855708E+02  0.52467075766E+03  0.60002539904E+02  0.53440719688E+03  0.46999998093E+01 0.  1.
       -5    1    3    3    0  502 -0.81787855708E+02 -0.52467075766E+03  0.99140450461E+03  0.11246660122E+04  0.46999998093E+01 0. -1.
</event>
<event>
 5   0  0.2356769E-03  0.1339987E+04  0.7818609E-02  0.8998443E-01
        1   -1    0    0  501    0  0.00000000000E+00  0.00000000000E+00  0.23842800457E+03  0.23842800462E+03  0.50400001928E-02 0. -1.
       -1   -1    0    0    0  501  0.00000000000E+00  0.00000000000E+00 -0.18827119109E+04  0.18827119109E+04  0.50400001928E-02 0.  1.
    10030    2    1    2    0    0  0.00000000000E+00  0.00000000000E+00 -0.16442839063E+04  0.21211399155E+04  0.13399869315E+04 0.  0.
        1    1    3    3  502    0  0.10451136512E+03  0.56438769192E+03 -0.27508210973E+03  0.63649529405E+03  0.50400001928E-02 0. -1.
       -1    1    3    3    0  502 -0.10451136512E+03 -0.56438769192E+03 -0.13692017966E+04  0.14846446214E+04  0.50400001928E-02 0.  1.
</event>
<event>
 5   0  0.4263540E-03  0.1301758E+04  0.7818609E-02  0.9028172E-01
       -2   -1    0    0    0  501  0.00000000000E+00  0.00000000000E+00  0.52744054800E+03  0.52744054800E+03  0.25500000920E-02 0.  1.
        2   -1    0    0  501    0  0.00000000000E+00  0.00000000000E+00 -0.80320576556E+03  0.80320576557E+03  0.25500000920E-02 0. -1.
    10030    2    1    2    0    0  0.00000000000E+00  0.00000000000E+00 -0.27576521757E+03  0.13306463136E+04  0.13017577181E+04 0.  0.
        2    1    3    3  502    0  0.31430078394E+02  0.16978314546E+03 -0.77936743495E+03  0.79826547275E+03  0.25500000920E-02 0. -1.
       -2    1    3    3    0  502 -0.31430078394E+02 -0.16978314546E+03  0.50360221739E+03  0.53238084082E+03  0.25500000920E-02 0.  1.
</event>
<event>
 5   0  0.2462055E-03  0.1293333E+04  0.7818609E-02  0.9034869E-01
        1   -1    0    0  501    0  0.00000000000E+00  0.00000000000E+00  0.70042946179E+03  0.70042946181E+03  0.50400001928E-02 0.  1.
       -1   -1    0    0    0  501  0.00000000000E+00  0.00000000000E+00 -0.59703056993E+03  0.59703056996E+03  0.50400001928E-02 0. -1.
    10030    2    1    2    0    0  0.00000000000E+00  0.00000000000E+00  0.10339889186E+03  0.12974600318E+04  0.12933333689E+04 0.  0.
        2    1    3    3  502    0  0.63674338981E+03  0.32534602632E+02 -0.56706236001E+02  0.64009080766E+03  0.25500000920E-02 0.  1.
       -2    1    3    3    0  502 -0.63674338981E+03 -0.32534602632E+02  0.16010512786E+03  0.65736922411E+03  0.25500000920E-02 0. -1.
</event>
<event>
 5   0  0.4453011E-03  0.1311503E+04  0.7818609E-02  0.9020492E-01
        2   -1    0    0  501    0  0.00000000000E+00  0.00000000000E+00  0.42544885397E+03  0.42544885398E+03  0.25500000920E-02 0.  1.
       -2   -1    0    0    0  501  0.00000000000E+00  0.00000000000E+00 -0.10107211726E+04  0.10107211726E+04  0.25500000920E-02 0. -1.
    10030    2    1    2    0    0  0.00000000000E+00  0.00000000000E+00 -0.58527231866E+03  0.14361700266E+04  0.13115032056E+04 0.  0.
        1    1    3    3  502    0  0.29516607228E+03 -0.25265063198E+03 -0.87110671814E+03  0.95382507121E+03  0.50400001928E-02 0. -1.
       -1    1    3    3    0  502 -0.29516607228E+03  0.25265063198E+03  0.28583439947E+03  0.48234495541E+03  0.50400001928E-02 0.  1.
</event>
<event>
 5   0  0.2356769E-03  0.1294300E+04  0.7818609E-02  0.9034098E-01
        1   -1    0    0  501    0  0.00000000000E+00  0.00000000000E+00  0.82979454350E+03  0.82979454352E+03  0.50400001928E-02 0. -1.
       -1   -1    0    0    0  501  0.00000000000E+00  0.00000000000E+00 -0.50470675535E+03  0.50470675538E+03  0.50400001928E-02 0.  1.
    10030    2    1    2    0    0  0.00000000000E+00  0.00000000000E+00  0.32508778815E+03  0.13345012989E+04  0.12942996742E+04 0.  0.
        1    1    3    3  502    0 -0.58257391509E+03  0.15997922094E+03 -0.76647023030E+02  0.60898315563E+03  0.50400001928E-02 0.  1.
       -1    1    3    3    0  502  0.58257391509E+03 -0.15997922094E+03  0.40173481118E+03  0.72551814327E+03  0.50400001928E-02 0. -1.
</event>
<event>
 5   0  0.2370801E-03  0.1315432E+04  0.7818609E-02  0.9017416E-01
       -1   -1    0    0    0  501  0.00000000000E+00  0.00000000000E+00  0.59734151852E+03  0.59734151854E+03  0.50400001928E-02 0.  1.
        1   -1    0    0  501    0  0.00000000000E+00  0.00000000000E+00 -0.72419229921E+03  0.72419229923E+03  0.50400001928E-02 0. -1.
    10030    2    1    2    0    0  0.00000000000E+00  0.00000000000E+00 -0.12685078070E+03  0.13215338178E+04  0.13154316824E+04 0.  0.
        3    1    3    3  502    0  0.49584643054E+03 -0.34193045385E+03  0.20201609637E+03  0.63528783346E+03  0.10100000352E+00 0. -1.
       -3    1    3    3    0  502 -0.49584643054E+03  0.34193045385E+03 -0.32886687706E+03  0.68624598431E+03  0.10100000352E+00 0.  1.
</event>
<event>
 5   0  0.4310889E-03  0.1329959E+04  0.7818609E-02  0.9006139E-01
        2   -1    0    0  501    0  0.00000000000E+00  0.00000000000E+00  0.24462571808E+04  0.24462571808E+04  0.25500000920E-02 0. -1.
       -2   -1    0    0    0  501  0.00000000000E+00  0.00000000000E+00 -0.18076512849E+03  0.18076512850E+03  0.25500000920E-02 0.  1.
    10030    2    1    2    0    0  0.00000000000E+00  0.00000000000E+00  0.22654920523E+04  0.26270223093E+04  0.13299593883E+04 0.  0.
        4    1    3    3  502    0 -0.74069045466E+02 -0.20409118761E+03 -0.10877829459E+03  0.24284514948E+03  0.12699999809E+01 0.  1.
       -4    1    3    3    0  502  0.74069045466E+02  0.20409118761E+03  0.23742703469E+04  0.23841771598E+04  0.12699999809E+01 0. -1.
</event>
<event>
 5   0  0.4453011E-03  0.1303673E+04  0.7818609E-02  0.9026658E-01
        2   -1    0    0  501    0  0.00000000000E+00  0.00000000000E+00  0.56997538388E+03  0.56997538389E+03  0.25500000920E-02 0. -1.
       -2   -1    0    0    0  501  0.00000000000E+00  0.00000000000E+00 -0.74545446178E+03  0.74545446178E+03  0.25500000920E-02 0.  1.
    10030    2    1    2    0    0  0.00000000000E+00  0.00000000000E+00 -0.17547907790E+03  0.13154298457E+04  0.13036728010E+04 0.  0.
        1    1    3    3  502    0 -0.66282287271E+02 -0.21416732776E+03 -0.70532945022E+03  0.74010176278E+03  0.50400001928E-02 0.  1.
       -1    1    3    3    0  502  0.66282287271E+02  0.21416732776E+03  0.52985037233E+03  0.57532808290E+03  0.50400001928E-02 0. -1.
</event>
<event>
 5   0  0.1661750E-03  0.1341406E+04  0.7818609E-02  0.8997359E-01
       -4   -1    0    0    0  501  0.00000000000E+00  0.00000000000E+00  0.38235071296E+03  0.38235282214E+03  0.12699999809E+01 0.  1.
        4   -1    0    0  501    0  0.00000000000E+00  0.00000000000E+00 -0.11765121165E+04  0.11765128020E+04  0.12699999809E+01 0. -1.
    10030    2    1    2    0    0  0.00000000000E+00  0.00000000000E+00 -0.79416140355E+03  0.15588656241E+04  0.13414058667E+04 0.  0.
        2    1    3    3  502    0  0.43236535237E+03 -0.31262356359E+03  0.75213838382E+02  0.53882317316E+03  0.25500000920E-02 0.  1.
       -2    1    3    3    0  502 -0.43236535237E+03  0.31262356359E+03 -0.86937524193E+03  0.10200424509E+04  0.25500000920E-02 0. -1.
</event>
<event>
 5   0  0.2511542E-03  0.1316647E+04  0.7818609E-02  0.9016467E-01
       -1   -1    0    0    0  501  0.00000000000E+00  0.00000000000E+00  0.46920630115E+03  0.46920630117E+03  0.50400001928E-02 0.  1.
        1   -1    0    0  501    0  0.00000000000E+00  0.00000000000E+00 -0.92366522588E+03  0.92366522589E+03  0.50400001928E-02 0. -1.
    10030    2    1    2    0    0  0.00000000000E+00  0.00000000000E+00 -0.45445892473E+03  0.13928715271E+04  0.13166465648E+04 0.  0.
        4    1    3    3  502    0  0.39379229766E+03 -0.38322013231E+03 -0.61079110972E+03  0.82158227592E+03  0.12699999809E+01 0. -1.
       -4    1    3    3    0  502 -0.39379229766E+03  0.38322013231E+03  0.15633218499E+03  0.57128925114E+03  0.12699999809E+01 0.  1.
</event>
<event>
 5   0  0.2458456E-03  0.1229891E+04  0.7818609E-02  0.9087088E-01
       -1   -1    0    0    0  501  0.00000000000E+00  0.00000000000E+00  0.80473944033E+03  0.80473944035E+03  0.50400001928E-02 0.  1.
        1   -1    0    0  501    0  0.00000000000E+00  0.00000000000E+00 -0.46991351638E+03  0.46991351641E+03  0.50400001928E-02 0. -1.
    10030    2    1    2    0    0  0.00000000000E+00  0.00000000000E+00  0.33482592395E+03  0.12746529568E+04  0.12298909548E+04 0.  0.
        5    1    3    3  502    0  0.40034488687E+03  0.26434025379E+03  0.56610063459E+03  0.74205378289E+03  0.46999998093E+01 0.  1.
       -5    1    3    3    0  502 -0.40034488687E+03 -0.26434025379E+03 -0.23127471064E+03  0.53259917386E+03  0.46999998093E+01 0. -1.
</event>
<event>
 5   0  0.4263540E-03  0.1591506E+04  0.7818609E-02  0.8825783E-01
       -2   -1    0    0    0  501  0.00000000000E+00  0.00000000000E+00  0.64461694835E+03  0.64461694835E+03  0.25500000920E-02 0. -1.
        2   -1    0    0  501    0  0.00000000000E+00  0.00000000000E+00 -0.98232408767E+03  0.98232408767E+03  0.25500000920E-02 0.  1.
    10030    2    1    2    0    0  0.00000000000E+00  0.00000000000E+00 -0.33770713932E+03  0.16269410360E+04  0.15915058978E+04 0.  0.
        2    1    3    3  502    0  0.69984376525E+03  0.17706512980E+03 -0.51110544205E+03  0.88451236784E+03  0.25500000920E-02 0.  1.
       -2    1    3    3    0  502 -0.69984376525E+03 -0.17706512980E+03  0.17339830273E+03  0.74242866819E+03  0.25500000920E-02 0. -1.
</event>
<event>
 5   0  0.2511542E-03  0.1287497E+04  0.7818609E-02  0.9039540E-01
       -1   -1    0    0    0  501  0.00000000000E+00  0.00000000000E+00  0.39425771501E+03  0.39425771504E+03  0.50400001928E-02 0. -1.
        1   -1    0    0  501    0  0.00000000000E+00  0.00000000000E+00 -0.10511191045E+04  0.10511191045E+04  0.50400001928E-02 0.  1.
    10030    2    1    2    0    0  0.00000000000E+00  0.00000000000E+00 -0.65686138946E+03  0.14453768195E+04  0.12874965108E+04 0.  0.
        4    1    3    3  502    0 -0.16413451816E+03 -0.62247093276E+03 -0.32847080437E+03  0.72270663786E+03  0.12699999809E+01 0.  1.
       -4    1    3    3    0  502  0.16413451816E+03  0.62247093276E+03 -0.32839058509E+03  0.72267018166E+03  0.12699999809E+01 0. -1.
</event>
<event>
 5   0  0.4388937E-03  0.1283683E+04  0.7818609E-02  0.9042606E-01
        2   -1    0    0  501    0  0.00000000000E+00  0.00000000000E+00  0.51302406459E+03  0.51302406460E+03  0.25500000920E-02 0. -1.
       -2   -1    0    0    0  501  0.00000000000E+00  0.00000000000E+00 -0.80300391170E+03  0.80300391170E+03  0.25500000920E-02 0.  1.
    10030    2    1    2    0    0  0.00000000000E+00  0.00000000000E+00 -0.28997984710E+03  0.13160279763E+04  0.12836827189E+04 0.  0.
        5    1    3    3  502    0 -0.23163779963E+03 -0.35627796097E+03 -0.63809613738E+03  0.76666735044E+03  0.46999998093E+01 0.  1.
       -5    1    3    3    0  502  0.23163779963E+03  0.35627796097E+03  0.34811629028E+03  0.54936062586E+03  0.46999998093E+01 0. -1.
</event>
<event>
 5   0  0.2458456E-03  0.6794013E+03  0.7818609E-02  0.9753122E-01
       -1   -1    0    0    0  501  0.00000000000E+00  0.00000000000E+00  0.14655328209E+03  0.14655328218E+03  0.50400001928E-02 0. -1.
        1   -1    0    0  501    0  0.00000000000E+00  0.00000000000E+00 -0.78740322019E+03  0.78740322021E+03  0.50400001928E-02 0.  1.
    10030    2    1    2    0    0  0.00000000000E+00  0.00000000000E+00 -0.64084993810E+03  0.93395650239E+03  0.67940128436E+03 0.  0.
        5    1    3    3  502    0 -0.16142441221E+03  0.22525029102E+02  0.89240454921E+02  0.18587944100E+03  0.46999998093E+01 0. -1.
       -5    1    3    3    0  502  0.16142441221E+03 -0.22525029102E+02 -0.73009039302E+03  0.74807706139E+03  0.46999998093E+01 0.  1.
</event>
<event>
 5   0  0.2356769E-03  0.1278229E+04  0.7818609E-02  0.9047010E-01
       -1   -1    0    0    0  501  0.00000000000E+00  0.00000000000E+00  0.27247580678E+03  0.27247580682E+03  0.50400001928E-02 0.  1.
        1   -1    0    0  501    0  0.00000000000E+00  0.00000000000E+00 -0.14990956952E+04  0.14990956952E+04  0.50400001928E-02 0. -1.
    10030    2    1    2    0    0  0.00000000000E+00  0.00000000000E+00 -0.12266198885E+04  0.17715715021E+04  0.12782289451E+04 0.  0.
        1    1    3    3  502    0 -0.37816829125E+03 -0.41441327258E+03 -0.18902186498E+03  0.59201256952E+03  0.50400001928E-02 0.  1.
       -1    1    3    3    0  502  0.37816829125E+03  0.41441327258E+03 -0.10375980235E+04  0.11795589326E+04  0.50400001928E-02 0. -1.
</event>
<event>
 5   0  0.4263540E-03  0.1311144E+04  0.7818609E-02  0.9020774E-01
        2   -1    0    0  501    0  0.00000000000E+00  0.00000000000E+00  0.84496369473E+03  0.84496369473E+03  0.25500000920E-02 0. -1.
       -2   -1    0    0    0  501  0.00000000000E+00  0.00000000000E+00 -0.50863115997E+03  0.50863115997E+03  0.25500000920E-02 0.  1.
    10030    2    1    2    0    0  0.00000000000E+00  0.00000000000E+00  0.33633253476E+03  0.13535948547E+04  0.13111443310E+04 0.  0.
        2    1    3    3  502    0 -0.75105724765E+02 -0.50008552019E+03 -0.26253216818E+03  0.56978025302E+03  0.25500000920E-02 0.  1.
       -2    1    3    3    0  502  0.75105724765E+02  0.50008552019E+03  0.59886470294E+03  0.78381460169E+03  0.25500000920E-02 0. -1.
</event>
<event>
 5   0  0.2458456E-03  0.1067140E+04  0.7818609E-02  0.9237825E-01
       -1   -1    0    0    0  501  0.00000000000E+00  0.00000000000E+00  0.31620551667E+03  0.31620551671E+03  0.50400001928E-02 0. -1.
        1   -1    0    0  501    0  0.00000000000E+00  0.00000000000E+00 -0.90035422076E+03  0.90035422077E+03  0.50400001928E-02 0.  1.
    10030    2    1    2    0    0  0.00000000000E+00  0.00000000000E+00 -0.58414870409E+03  0.12165597375E+04  0.10671400500E+04 0.  0.
        5    1    3    3  502    0 -0.30900841368E+03  0.26095637170E+03 -0.68877871189E+03  0.79876318869E+03  0.46999998093E+01 0.  1.
       -5    1    3    3    0  502  0.30900841368E+03 -0.26095637170E+03  0.10463000780E+03  0.41779654879E+03  0.46999998093E+01 0. -1.
</event>
<event>
 5   0  0.4453011E-03  0.1271744E+04  0.7818609E-02  0.9052277E-01
       -2   -1    0    0    0  501  0.00000000000E+00  0.00000000000E+00  0.91416873322E+03  0.91416873322E+03  0.25500000920E-02 0.  1.
        2   -1    0    0  501    0  0.00000000000E+00  0.00000000000E+00 -0.44229631632E+03  0.44229631632E+03  0.25500000920E-02 0. -1.
    10030    2    1    2    0    0  0.00000000000E+00  0.00000000000E+00  0.47187241690E+03  0.13564650495E+04  0.12717444133E+04 0.  0.
        1    1    3    3  502    0 -0.16871231470E+03 -0.59653489642E+03  0.38683805192E+03  0.73072662893E+03  0.50400001928E-02 0.  1.
       -1    1    3    3    0  502  0.16871231470E+03  0.59653489642E+03  0.85034364977E+02  0.62573842062E+03  0.50400001928E-02 0. -1.
</event>
<event>
 5   0  0.2356769E-03  0.1284128E+04  0.7818609E-02  0.9042247E-01
       -1   -1    0    0    0  501  0.00000000000E+00  0.00000000000E+00  0.52003317264E+03  0.52003317267E+03  0.50400001928E-02 0.  1.
        1   -1    0    0  501    0  0.00000000000E+00  0.00000000000E+00 -0.79273060072E+03  0.79273060073E+03  0.50400001928E-02 0. -1.
    10030    2    1    2    0    0  0.00000000000E+00  0.00000000000E+00 -0.27269742808E+03  0.13127637734E+04  0.12841280456E+04 0.  0.
        1    1    3    3  502    0 -0.32306101482E+03  0.54085924442E+03 -0.26300281432E+03  0.68269145442E+03  0.50400001928E-02 0. -1.
       -1    1    3    3    0  502  0.32306101482E+03 -0.54085924442E+03 -0.96946137535E+01  0.63007231898E+03  0.50400001928E-02 0.  1.
</event>
<event>
 5   0  0.2462055E-03  0.1294124E+04  0.7818609E-02  0.9034238E-01
        1   -1    0    0  501    0  0.00000000000E+00  0.00000000000E+00  0.17535358593E+04  0.17535358593E+04  0.50400001928E-02 0. -1.
       -1   -1    0    0    0  501  0.00000000000E+00  0.00000000000E+00 -0.23876859140E+03  0.23876859145E+03  0.50400001928E-02 0.  1.
    10030    2    1    2    0    0  0.00000000000E+00  0.00000000000E+00  0.15147672679E+04  0.19923044507E+04  0.12941240855E+04 0.  0.
        2    1    3    3  502    0  0.41021058663E+03 -0.10395388344E+03  0.15109688889E+04  0.15691099766E+04  0.25500000920E-02 0. -1.
       -2    1    3    3    0  502 -0.41021058663E+03  0.10395388344E+03  0.37983789507E+01  0.42319447416E+03  0.25500000920E-02 0.  1.
</event>
<event>
 5   0  0.4310889E-03  0.1298289E+04  0.7818609E-02  0.9030923E-01
       -2   -1    0    0    0  501  0.00000000000E+00  0.00000000000E+00  0.63019081318E+03  0.63019081318E+03  0.25500000920E-02 0.  1.
        2   -1    0    0  501    0  0.00000000000E+00  0.00000000000E+00 -0.66866820940E+03  0.66866820940E+03  0.25500000920E-02 0. -1.
    10030    2    1    2    0    0  0.00000000000E+00  0.00000000000E+00 -0.38477396220E+02  0.12988590226E+04  0.12982889704E+04 0.  0.
        4    1    3    3  502    0  0.45607213005E+03  0.52474642654E+01  0.44287062786E+03  0.63573998585E+03  0.12699999809E+01 0.  1.
       -4    1    3    3    0  502 -0.45607213005E+03 -0.52474642654E+01 -0.48134802408E+03  0.66311903673E+03  0.12699999809E+01 0. -1.
</event>
<event>
 5   0  0.4263540E-03  0.1334080E+04  0.7818609E-02  0.9002968E-01
        2   -1    0    0  501    0  0.00000000000E+00  0.00000000000E+00  0.23330525215E+04  0.23330525215E+04  0.25500000920E-02 0. -1.
       -2   -1    0    0    0  501  0.00000000000E+00  0.00000000000E+00 -0.19071247320E+03  0.19071247322E+03  0.25500000920E-02 0.  1.
    10030    2    1    2    0    0  0.00000000000E+00  0.00000000000E+00  0.21423400483E+04  0.25237649948E+04  0.13340797825E+04 0.  0.
        2    1    3    3  502    0  0.10545359777E+03 -0.15588760333E+02  0.23168345651E+04  0.23192856385E+04  0.25500000920E-02 0. -1.
       -2    1    3    3    0  502 -0.10545359777E+03  0.15588760333E+02 -0.17449451681E+03  0.20447935625E+03  0.25500000920E-02 0.  1.
</event>
<event>
 5   0  0.4310889E-03  0.1261891E+04  0.7818609E-02  0.9060344E-01
       -2   -1    0    0    0  501  0.00000000000E+00  0.00000000000E+00  0.21597030223E+03  0.21597030225E+03  0.25500000920E-02 0.  1.
        2   -1    0    0  501    0  0.00000000000E+00  0.00000000000E+00 -0.18432728608E+04  0.18432728608E+04  0.25500000920E-02 0. -1.
    10030    2    1    2    0    0  0.00000000000E+00  0.00000000000E+00 -0.16273025586E+04  0.20592431631E+04  0.12618909570E+04 0.  0.
        4    1    3    3  502    0 -0.50196725621E+03 -0.37523239187E+03 -0.93267844724E+03  0.11236819715E+04  0.12699999809E+01 0.  1.
       -4    1    3    3    0  502  0.50196725621E+03  0.37523239187E+03 -0.69462411133E+03  0.93556119156E+03  0.12699999809E+01 0. -1.
</event>
<event>
 5   0  0.2462055E-03  0.1266389E+04  0.7818609E-02  0.9056652E-01
       -1   -1    0    0    0  501  0.00000000000E+00  0.00000000000E+00  0.25664168291E+03  0.25664168296E+03  0.50400001928E-02 0. -1.
        1   -1    0    0  501    0  0.00000000000E+00  0.00000000000E+00 -0.15622364525E+04  0.15622364525E+04  0.50400001928E-02 0.  1.
    10030    2    1    2    0    0  0.00000000000E+00  0.00000000000E+00 -0.13055947696E+04  0.18188781355E+04  0.12663885539E+04 0.  0.
        2    1    3    3  502    0 -0.38554719956E+03  0.36556654643E+03 -0.15806596885E+03  0.55431975742E+03  0.25500000920E-02 0. -1.
       -2    1    3    3    0  502  0.38554719956E+03 -0.36556654643E+03 -0.11475288007E+04  0.12645583781E+04  0.25500000920E-02 0.  1.
</event>
<event>
 5   0  0.4453011E-03  0.1351859E+04  0.7818609E-02  0.8989422E-01
        2   -1    0    0  501    0  0.00000000000E+00  0.00000000000E+00  0.19215150767E+04  0.19215150767E+04  0.25500000920E-02 0.  1.
       -2   -1    0    0    0  501  0.00000000000E+00  0.00000000000E+00 -0.23777100975E+03  0.23777100976E+03  0.25500000920E-02 0. -1.
    10030    2    1    2    0    0  0.00000000000E+00  0.00000000000E+00  0.16837440669E+04  0.21592860865E+04  0.13518588389E+04 0.  0.
        1    1    3    3  502    0  0.41685095861E+02 -0.64293822501E+03  0.51541306333E+03  0.82508050169E+03  0.50400001928E-02 0. -1.
       -1    1    3    3    0  502 -0.41685095861E+02  0.64293822501E+03  0.11683310036E+04  0.13342055848E+04  0.50400001928E-02 0.  1.
</event>
<event>
 5   0  0.2511542E-03  0.1309317E+04  0.7818609E-02  0.9022209E-01
        1   -1    0    0  501    0  0.00000000000E+00  0.00000000000E+00  0.12297416564E+04  0.12297416564E+04  0.50400001928E-02 0.  1.
       -1   -1    0    0    0  501  0.00000000000E+00  0.00000000000E+00 -0.34851036959E+03  0.34851036963E+03  0.50400001928E-02 0. -1.
    10030    2    1    2    0    0  0.00000000000E+00  0.00000000000E+00  0.88123128678E+03  0.15782520260E+04  0.13093169505E+04 0.  0.
        4    1    3    3  502    0  0.46339952794E+03 -0.44109614870E+03  0.27328109252E+03  0.69569325375E+03  0.12699999809E+01 0. -1.
       -4    1    3    3    0  502 -0.46339952794E+03  0.44109614870E+03  0.60795019426E+03  0.88255877226E+03  0.12699999809E+01 0.  1.
</event>
<event>
 5   0  0.2462055E-03  0.1187060E+04  0.7818609E-02  0.9124259E-01
        1   -1    0    0  501    0  0.00000000000E+00  0.00000000000E+00  0.17984358382E+03  0.17984358389E+03  0.50400001928E-02 0. -1.
       -1   -1    0    0    0  501  0.00000000000E+00  0.00000000000E+00 -0.19588025751E+04  0.19588025751E+04  0.50400001928E-02 0.  1.
    10030    2    1    2    0    0  0.00000000000E+00  0.00000000000E+00 -0.17789589913E+04  0.21386461590E+04  0.11870603610E+04 0.  0.
        2    1    3    3  502    0  0.38786579262E+03  0.43028594073E+03 -0.11222473857E+04  0.12629430148E+04  0.25500000920E-02 0.  1.
       -2    1    3    3    0  502 -0.38786579262E+03 -0.43028594073E+03 -0.65671160559E+03  0.87570314422E+03  0.25500000920E-02 0. -1.
</event>
<event>
 5   0  0.2356769E-03  0.1298974E+04  0.7818609E-02  0.9030379E-01
       -1   -1    0    0    0  501  0.00000000000E+00  0.00000000000E+00  0.65487530626E+03  0.65487530628E+03  0.50400001928E-02 0.  1.
        1   -1    0    0  501    0  0.00000000000E+00  0.00000000000E+00 -0.64414335515E+03  0.64414335517E+03  0.50400001928E-02 0. -1.
    10030    2    1    2    0    0  0.00000000000E+00  0.00000000000E+00  0.10731951111E+02  0.12990186615E+04  0.12989743292E+04 0.  0.
        1    1    3    3  502    0  0.56554871413E+03  0.24703659374E+03 -0.19702954373E+03  0.64783722325E+03  0.50400001928E-02 0. -1.
       -1    1    3    3    0  502 -0.56554871413E+03 -0.24703659374E+03  0.20776149484E+03  0.65118143820E+03  0.50400001928E-02 0.  1.
</event>
<event>
 5   0  0.4453011E-03  0.1268494E+04  0.7818609E-02  0.9054929E-01
        2   -1    0    0  501    0  0.00000000000E+00  0.00000000000E+00  0.12944908031E+04  0.12944908031E+04  0.25500000920E-02 0.  1.
       -2   -1    0    0    0  501  0.00000000000E+00  0.00000000000E+00 -0.31075496359E+03  0.31075496360E+03  0.25500000920E-02 0. -1.
    10030    2    1    2    0    0  0.00000000000E+00  0.00000000000E+00  0.98373583954E+03  0.16052457667E+04  0.12684942923E+04 0.  0.
        1    1    3    3  502    0  0.32981210063E+03 -0.24944542888E+03  0.11004414241E+04  0.11755723591E+04  0.50400001928E-02 0.  1.
       -1    1    3    3    0  502 -0.32981210063E+03  0.24944542888E+03 -0.11670558453E+03  0.42967340760E+03  0.50400001928E-02 0. -1.
</event>
<event>
 5   0  0.2370801E-03  0.1272240E+04  0.7818609E-02  0.9051874E-01
       -1   -1    0    0    0  501  0.00000000000E+00  0.00000000000E+00  0.38998508043E+03  0.38998508046E+03  0.50400001928E-02 0.  1.
        1   -1    0    0  501    0  0.00000000000E+00  0.00000000000E+00 -0.10376001547E+04  0.10376001547E+04  0.50400001928E-02 0. -1.
    10030    2    1    2    0    0  0.00000000000E+00  0.00000000000E+00 -0.64761507431E+03  0.14275852352E+04  0.12722398828E+04 0.  0.
        3    1    3    3  502    0  0.12308548041E+03 -0.30842340977E+03 -0.93261844209E+03  0.98997586027E+03  0.10100000352E+00 0. -1.
       -3    1    3    3    0  502 -0.12308548041E+03  0.30842340977E+03  0.28500336778E+03  0.43760937494E+03  0.10100000352E+00 0.  1.
</event>
<event>
 5   0  0.2458456E-03  0.1331464E+04  0.7818609E-02  0.9004979E-01
        1   -1    0    0  501    0  0.00000000000E+00  0.00000000000E+00  0.12866016183E+04  0.12866016183E+04  0.50400001928E-02 0. -1.
       -1   -1    0    0    0  501  0.00000000000E+00  0.00000000000E+00 -0.34447288906E+03  0.34447288909E+03  0.50400001928E-02 0.  1.
    10030    2    1    2    0    0  0.00000000000E+00  0.00000000000E+00  0.94212872928E+03  0.16310745074E+04  0.13314644217E+04 0.  0.
        5    1    3    3  502    0  0.11387446796E+03 -0.40752797560E+03 -0.15851979301E+03  0.45188168819E+03  0.46999998093E+01 0.  1.
       -5    1    3    3    0  502 -0.11387446796E+03  0.40752797560E+03  0.11006485223E+04  0.11791928193E+04  0.46999998093E+01 0. -1.
</event>
<event>
 5   0  0.2370801E-03  0.1238056E+04  0.7818609E-02  0.9080183E-01
        1   -1    0    0  501    0  0.00000000000E+00  0.00000000000E+00  0.17468835262E+04  0.17468835262E+04  0.50400001928E-02 0. -1.
       -1   -1    0    0    0  501  0.00000000000E+00  0.00000000000E+00 -0.21935949940E+03  0.21935949946E+03  0.50400001928E-02 0.  1.
    10030    2    1    2    0    0  0.00000000000E+00  0.00000000000E+00  0.15275240268E+04  0.19662430257E+04  0.12380557272E+04 0.  0.
        3    1    3    3  502    0 -0.16449248764E+03 -0.85707347979E+02  0.17017131909E+04  0.17117918455E+04  0.10100000352E+00 0. -1.
       -3    1    3    3    0  502  0.16449248764E+03  0.85707347979E+02 -0.17418916412E+03  0.25445118016E+03  0.10100000352E+00 0.  1.
</event>
<event>
 5   0  0.4263540E-03  0.9332205E+03  0.7818609E-02  0.9384981E-01
       -2   -1    0    0    0  501  0.00000000000E+00  0.00000000000E+00  0.46003805832E+03  0.46003805833E+03  0.25500000920E-02 0.  1.
        2   -1    0    0  501    0  0.00000000000E+00  0.00000000000E+00 -0.47327628974E+03  0.47327628975E+03  0.25500000920E-02 0. -1.
    10030    2    1    2    0    0  0.00000000000E+00  0.00000000000E+00 -0.13238231422E+02  0.93331434808E+03  0.93322045710E+03 0.  0.
        2    1    3    3  502    0 -0.21604091325E+02  0.18015474822E+03  0.42331090538E+03  0.46055900023E+03  0.25500000920E-02 0.  1.
       -2    1    3    3    0  502  0.21604091325E+02 -0.18015474822E+03 -0.43654913681E+03  0.47275534785E+03  0.25500000920E-02 0. -1.
</event>
<event>
 5   0  0.4263540E-03  0.1308285E+04  0.7818609E-02  0.9023021E-01
       -2   -1    0    0    0  501  0.00000000000E+00  0.00000000000E+00  0.27330126215E+03  0.27330126216E+03  0.25500000920E-02 0. -1.
        2   -1    0    0  501    0  0.00000000000E+00  0.00000000000E+00 -0.15656795252E+04  0.15656795252E+04  0.25500000920E-02 0.  1.
    10030    2    1    2    0    0  0.00000000000E+00  0.00000000000E+00 -0.12923782631E+04  0.18389807874E+04  0.13082846638E+04 0.  0.
        2    1    3    3  502    0 -0.38472940321E+03 -0.49494307006E+03 -0.38353008029E+03  0.73490181574E+03  0.25500000920E-02 0. -1.
       -2    1    3    3    0  502  0.38472940321E+03  0.49494307006E+03 -0.90884818279E+03  0.11040789717E+04  0.25500000920E-02 0.  1.
</event>
<event>
 5   0  0.4310889E-03  0.1311836E+04  0.7818609E-02  0.9020231E-01
        2   -1    0    0  501    0  0.00000000000E+00  0.00000000000E+00  0.49940116435E+03  0.49940116435E+03  0.25500000920E-02 0. -1.
       -2   -1    0    0    0  501  0.00000000000E+00  0.00000000000E+00 -0.86148904086E+03  0.86148904087E+03  0.25500000920E-02 0.  1.
    10030    2    1    2    0    0  0.00000000000E+00  0.00000000000E+00 -0.36208787652E+03  0.13608902052E+04  0.13118363161E+04 0.  0.
        4    1    3    3  502    0  0.39806023470E+03  0.40841188259E+03 -0.51715744782E+03  0.76987379163E+03  0.12699999809E+01 0.  1.
       -4    1    3    3    0  502 -0.39806023470E+03 -0.40841188259E+03  0.15506957131E+03  0.59101641359E+03  0.12699999809E+01 0. -1.
</event>
<event>
 5   0  0.2458456E-03  0.1121778E+04  0.7818609E-02  0.9184222E-01
       -1   -1    0    0    0  501  0.00000000000E+00  0.00000000000E+00  0.50901961437E+03  0.50901961439E+03  0.50400001928E-02 0.  1.
        1   -1    0    0  501    0  0.00000000000E+00  0.00000000000E+00 -0.61804336071E+03  0.61804336073E+03  0.50400001928E-02 0. -1.
    10030    2    1    2    0    0  0.00000000000E+00  0.00000000000E+00 -0.10902374634E+03  0.11270629751E+04  0.11217775058E+04 0.  0.
        5    1    3    3  502    0  0.50944001359E+03  0.20385565164E+03 -0.17119627486E+03  0.57481867461E+03  0.46999998093E+01 0. -1.
       -5    1    3    3    0  502 -0.50944001359E+03 -0.20385565164E+03  0.62172528522E+02  0.55224430052E+03  0.46999998093E+01 0.  1.
</event>
<event>
 5   0  0.2370801E-03  0.1333145E+04  0.7818609E-02  0.9003686E-01
        1   -1    0    0  501    0  0.00000000000E+00  0.00000000000E+00  0.18402632242E+04  0.18402632243E+04  0.50400001928E-02 0.  1.
       -1   -1    0    0    0  501  0.00000000000E+00  0.00000000000E+00 -0.24144295043E+03  0.24144295049E+03  0.50400001928E-02 0. -1.
    10030    2    1    2    0    0  0.00000000000E+00  0.00000000000E+00  0.15988202738E+04  0.20817061747E+04  0.13331445270E+04 0.  0.
        3    1    3    3  502    0 -0.11837390803E+02 -0.50840622763E+03  0.12651100522E+03  0.52404394926E+03  0.10100000352E+00 0. -1.
       -3    1    3    3    0  502  0.11837390803E+02  0.50840622763E+03  0.14723092686E+04  0.15576622255E+04  0.10100000352E+00 0.  1.
</event>
<event>
 5   0  0.2511542E-03  0.1321835E+04  0.7818609E-02  0.9012427E-01
       -1   -1    0    0    0  501  0.00000000000E+00  0.00000000000E+00  0.82976323945E+03  0.82976323947E+03  0.50400001928E-02 0. -1.
        1   -1    0    0  501    0  0.00000000000E+00  0.00000000000E+00 -0.52642974998E+03  0.52642975001E+03  0.50400001928E-02 0.  1.
    10030    2    1    2    0    0  0.00000000000E+00  0.00000000000E+00  0.30333348947E+03  0.13561929895E+04  0.13218351708E+04 0.  0.
        4    1    3    3  502    0 -0.51074606142E+03  0.54866916538E+02  0.57833473864E+03  0.77352737547E+03  0.12699999809E+01 0. -1.
       -4    1    3    3    0  502  0.51074606142E+03 -0.54866916538E+02 -0.27500124917E+03  0.58266561400E+03  0.12699999809E+01 0.  1.
</event>
<event>
 5   0  0.4388937E-03  0.1436275E+04  0.7818609E-02  0.8927971E-01
        2   -1    0    0  501    0  0.00000000000E+00  0.00000000000E+00  0.13363254493E+04  0.13363254493E+04  0.25500000920E-02 0.  1.
       -2   -1    0    0    0  501  0.00000000000E+00  0.00000000000E+00 -0.38592507557E+03  0.38592507558E+03  0.25500000920E-02 0. -1.
    10030    2    1    2    0    0  0.00000000000E+00  0.00000000000E+00  0.95040037377E+03  0.17222505249E+04  0.14362750434E+04 0.  0.
        5    1    3    3  502    0 -0.39789413746E+03  0.57756529077E+03  0.66018196276E+03  0.96320492299E+03  0.46999998093E+01 0. -1.
       -5    1    3    3    0  502  0.39789413746E+03 -0.57756529077E+03  0.29021841101E+03  0.75904560193E+03  0.46999998093E+01 0.  1.
</event>
<event>
 5   0  0.2370801E-03  0.1312946E+04  0.7818609E-02  0.9019362E-01
       -1   -1    0    0    0  501  0.00000000000E+00  0.00000000000E+00  0.64350576318E+03  0.64350576320E+03  0.50400001928E-02 0.  1.
        1   -1    0    0  501    0  0.00000000000E+00  0.00000000000E+00 -0.66970104539E+03  0.66970104541E+03  0.50400001928E-02 0. -1.
    10030    2    1    2    0    0  0.00000000000E+00  0.00000000000E+00 -0.26195282215E+02  0.13132068086E+04  0.13129455165E+04 0.  0.
        3    1    3    3  502    0 -0.16566552412E+03  0.48770307464E+03 -0.42018861295E+03  0.66472387918E+03  0.10100000352E+00 0. -1.
       -3    1    3    3    0  502  0.16566552412E+03 -0.48770307464E+03  0.39399333074E+03  0.64848292943E+03  0.10100000352E+00 0.  1.
</event>
<event>
 5   0  0.2462055E-03  0.1125207E+04  0.7818609E-02  0.9180965E-01
       -1   -1    0    0    0  501  0.00000000000E+00  0.00000000000E+00  0.49626176410E+03  0.49626176412E+03  0.50400001928E-02 0.  1.
        1   -1    0    0  501    0  0.00000000000E+00  0.00000000000E+00 -0.63781439307E+03  0.63781439309E+03  0.50400001928E-02 0. -1.
    10030    2    1    2    0    0  0.00000000000E+00  0.00000000000E+00 -0.14155262897E+03  0.11340761572E+04  0.11252073514E+04 0.  0.
        2    1    3    3  502    0  0.75136175945E+02 -0.32347155735E+03  0.38694369901E+03  0.50990657925E+03  0.25500000920E-02 0.  1.
       -2    1    3    3    0  502 -0.75136175945E+02  0.32347155735E+03 -0.52849632799E+03  0.62416957796E+03  0.25500000920E-02 0. -1.
</event>
<event>
 5   0  0.4306214E-03  0.1092690E+04  0.7818609E-02  0.9212346E-01
        2   -1    0    0  501    0  0.00000000000E+00  0.00000000000E+00  0.21456043854E+04  0.21456043854E+04  0.25500000920E-02 0. -1.
       -2   -1    0    0    0  501  0.00000000000E+00  0.00000000000E+00 -0.13911832438E+03  0.13911832441E+03  0.25500000920E-02 0.  1.
    10030    2    1    2    0    0  0.00000000000E+00  0.00000000000E+00  0.20064860610E+04  0.22847227098E+04  0.10926900510E+04 0.  0.
        3    1    3    3  502    0  0.41327739768E+03 -0.11344858355E+03  0.29472156482E+03  0.52012459999E+03  0.10100000352E+00 0.  1.
       -3    1    3    3    0  502 -0.41327739768E+03  0.11344858355E+03  0.17117644962E+04  0.17645981098E+04  0.10100000352E+00 0. -1.
</event>
<event>
 5   0  0.2370801E-03  0.8683794E+03  0.7818609E-02  0.9465995E-01
       -1   -1    0    0    0  501  0.00000000000E+00  0.00000000000E+00  0.21066025015E+03  0.21066025021E+03  0.50400001928E-02 0.  1.
        1   -1    0    0  501    0  0.00000000000E+00  0.00000000000E+00 -0.89490390093E+03  0.89490390094E+03  0.50400001928E-02 0. -1.
    10030    2    1    2    0    0  0.00000000000E+00  0.00000000000E+00 -0.68424365077E+03  0.11055641512E+04  0.86837936335E+03 0.  0.
        3    1    3    3  502    0  0.30117861454E+03  0.69874296093E+02 -0.73022903302E+03  0.79298513604E+03  0.10100000352E+00 0. -1.
       -3    1    3    3    0  502 -0.30117861454E+03 -0.69874296093E+02  0.45985382250E+02  0.31257901512E+03  0.10100000352E+00 0.  1.
</event>
<event>
 5   0  0.2370801E-03  0.1257962E+04  0.7818609E-02  0.9063582E-01
       -1   -1    0    0    0  501  0.00000000000E+00  0.00000000000E+00  0.37097086876E+03  0.37097086879E+03  0.50400001928E-02 0. -1.
        1   -1    0    0  501    0  0.00000000000E+00  0.00000000000E+00 -0.10664370455E+04  0.10664370455E+04  0.50400001928E-02 0.  1.
    10030    2    1    2    0    0  0.00000000000E+00  0.00000000000E+00 -0.69546617674E+03  0.14374079143E+04  0.12579619665E+04 0.  0.
        3    1    3    3  502    0  0.42240888825E+03  0.25059459578E+03  0.10124206866E+03  0.50147471220E+03  0.10100000352E+00 0. -1.
       -3    1    3    3    0  502 -0.42240888825E+03 -0.25059459578E+03 -0.79670824541E+03  0.93593320211E+03  0.10100000352E+00 0.  1.
</event>
<event>
 5   0  0.2370801E-03  0.1296901E+04  0.7818609E-02  0.9032026E-01
       -1   -1    0    0    0  501  0.00000000000E+00  0.00000000000E+00  0.42740491645E+03  0.42740491648E+03  0.50400001928E-02 0.  1.
        1   -1    0    0  501    0  0.00000000000E+00  0.00000000000E+00 -0.98381709350E+03  0.98381709351E+03  0.50400001928E-02 0. -1.
    10030    2    1    2    0    0  0.00000000000E+00  0.00000000000E+00 -0.55641217704E+03  0.14112220100E+04  0.12969013265E+04 0.  0.
        3    1    3    3  502    0  0.57158328796E+03  0.23635020523E+03 -0.49010025891E+03  0.78915597228E+03  0.10100000352E+00 0.  1.
       -3    1    3    3    0  502 -0.57158328796E+03 -0.23635020523E+03 -0.66311918135E+02  0.62206603772E+03  0.10100000352E+00 0. -1.
</event>
<event>
 5   0  0.1661750E-03  0.1220452E+04  0.7818609E-02  0.9095141E-01
        4   -1    0    0  501    0  0.00000000000E+00  0.00000000000E+00  0.49998697780E+03  0.49998859074E+03  0.12699999809E+01 0.  1.
       -4   -1    0    0    0  501  0.00000000000E+00  0.00000000000E+00 -0.74476772770E+03  0.74476881052E+03  0.12699999809E+01 0. -1.
    10030    2    1    2    0    0  0.00000000000E+00  0.00000000000E+00 -0.24478074990E+03  0.12447574013E+04  0.12204521181E+04 0.  0.
        4    1    3    3  502    0 -0.38240469099E+03 -0.23648709744E+03 -0.54317760226E+03  0.70512624079E+03  0.12699999809E+01 0. -1.
       -4    1    3    3    0  502  0.38240469099E+03  0.23648709744E+03  0.29839685236E+03  0.53963116047E+03  0.12699999809E+01 0.  1.
</event>
<event>
 5   0  0.2511542E-03  0.1288893E+04  0.7818609E-02  0.9038419E-01
       -1   -1    0    0    0  501  0.00000000000E+00  0.00000000000E+00  0.46979011426E+03  0.46979011429E+03  0.50400001928E-02 0. -1.
        1   -1    0    0  501    0  0.00000000000E+00  0.00000000000E+00 -0.88403639924E+03  0.88403639925E+03  0.50400001928E-02 0.  1.
    10030    2    1    2    0    0  0.00000000000E+00  0.00000000000E+00 -0.41424628498E+03  0.13538265135E+04  0.12888934185E+04 0.  0.
        4    1    3    3  502    0 -0.52077930298E+03 -0.10147378111E+03 -0.59134070293E+03  0.79447684076E+03  0.12699999809E+01 0.  1.
       -4    1    3    3    0  502  0.52077930298E+03  0.10147378111E+03  0.17709441795E+03  0.55934967278E+03  0.12699999809E+01 0. -1.
</event>
<event>
 5   0  0.2511542E-03  0.1241701E+04  0.7818609E-02  0.9077119E-01
       -1   -1    0    0    0  501  0.00000000000E+00  0.00000000000E+00  0.69440162307E+03  0.69440162309E+03  0.50400001928E-02 0. -1.
        1   -1    0    0  501    0  0.00000000000E+00  0.00000000000E+00 -0.55508986141E+03  0.55508986143E+03  0.50400001928E-02 0.  1.
    10030    2    1    2    0    0  0.00000000000E+00  0.00000000000E+00  0.13931176167E+03  0.12494914845E+04  0.12417009314E+04 0.  0.
        4    1    3    3  502    0  0.33265844364E+01 -0.19750481424E+02 -0.55476337905E+03  0.55512626250E+03  0.12699999809E+01 0.  1.
       -4    1    3    3    0  502 -0.33265844364E+01  0.19750481424E+02  0.69407514072E+03  0.69436522202E+03  0.12699999809E+01 0. -1.
</event>
<event>
 5   0  0.4306214E-03  0.1033966E+04  0.7818609E-02  0.9272056E-01
        2   -1    0    0  501    0  0.00000000000E+00  0.00000000000E+00  0.31911647752E+03  0.31911647753E+03  0.25500000920E-02 0. -1.
       -2   -1    0    0    0  501  0.00000000000E+00  0.00000000000E+00 -0.83753616600E+03  0.83753616601E+03  0.25500000920E-02 0.  1.
    10030    2    1    2    0    0  0.00000000000E+00  0.00000000000E+00 -0.51841968848E+03  0.11566526435E+04  0.10339663265E+04 0.  0.
        3    1    3    3  502    0  0.50722259062E+03 -0.96022347641E+01 -0.14787899996E+03  0.52842706988E+03  0.10100000352E+00 0. -1.
       -3    1    3    3    0  502 -0.50722259062E+03  0.96022347641E+01 -0.37054068852E+03  0.62822557366E+03  0.10100000352E+00 0.  1.
</event>
<event>
 5   0  0.4310889E-03  0.1216044E+04  0.7818609E-02  0.9098928E-01
       -2   -1    0    0    0  501  0.00000000000E+00  0.00000000000E+00  0.19551349636E+03  0.19551349637E+03  0.25500000920E-02 0.  1.
        2   -1    0    0  501    0  0.00000000000E+00  0.00000000000E+00 -0.18908702018E+04  0.18908702018E+04  0.25500000920E-02 0. -1.
    10030    2    1    2    0    0  0.00000000000E+00  0.00000000000E+00 -0.16953567055E+04  0.20863836982E+04  0.12160438221E+04 0.  0.
        4    1    3    3  502    0  0.20926515467E+03 -0.68604379492E+02 -0.18200366962E+04  0.18333122086E+04  0.12699999809E+01 0. -1.
       -4    1    3    3    0  502 -0.20926515467E+03  0.68604379492E+02  0.12467999074E+03  0.25307148957E+03  0.12699999809E+01 0.  1.
</event>
<event>
 5   0  0.4310889E-03  0.1319293E+04  0.7818609E-02  0.9014404E-01
       -2   -1    0    0    0  501  0.00000000000E+00  0.00000000000E+00  0.38823151023E+03  0.38823151024E+03  0.25500000920E-02 0. -1.
        2   -1    0    0  501    0  0.00000000000E+00  0.00000000000E+00 -0.11208089723E+04  0.11208089723E+04  0.25500000920E-02 0.  1.
    10030    2    1    2    0    0  0.00000000000E+00  0.00000000000E+00 -0.73257746208E+03  0.15090404825E+04  0.13192927803E+04 0.  0.
        4    1    3    3  502    0 -0.21235068525E+03 -0.20803845019E+03 -0.10398444627E+04  0.10815040129E+04  0.12699999809E+01 0.  1.
       -4    1    3    3    0  502  0.21235068525E+03  0.20803845019E+03  0.30726700067E+03  0.42753646966E+03  0.12699999809E+01 0. -1.
</event>
<event>
 5   0  0.2458456E-03  0.1377413E+04  0.7818609E-02  0.8970332E-01
       -1   -1    0    0    0  501  0.00000000000E+00  0.00000000000E+00  0.66038471496E+03  0.66038471498E+03  0.50400001928E-02 0.  1.
        1   -1    0    0  501    0  0.00000000000E+00  0.00000000000E+00 -0.71824328989E+03  0.71824328991E+03  0.50400001928E-02 0. -1.
    10030    2    1    2    0    0  0.00000000000E+00  0.00000000000E+00 -0.57858574931E+02  0.13786280049E+04  0.13774133589E+04 0.  0.
        5    1    3    3  502    0  0.47197552983E+03  0.19534986429E+03 -0.49125905368E+03  0.70871716365E+03  0.46999998093E+01 0. -1.
       -5    1    3    3    0  502 -0.47197552983E+03 -0.19534986429E+03  0.43340047875E+03  0.66991084124E+03  0.46999998093E+01 0.  1.
</event>
<event>
 5   0  0.2370801E-03  0.1308044E+04  0.7818609E-02  0.9023211E-01
        1   -1    0    0  501    0  0.00000000000E+00  0.00000000000E+00  0.52934822973E+03  0.52934822976E+03  0.50400001928E-02 0.  1.
       -1   -1    0    0    0  501  0.00000000000E+00  0.00000000000E+00 -0.80805891075E+03  0.80805891077E+03  0.50400001928E-02 0. -1.
    10030    2    1    2    0    0  0.00000000000E+00  0.00000000000E+00 -0.27871068102E+03  0.13374071405E+04  0.13080436598E+04 0.  0.
        3    1    3    3  502    0 -0.28932633015E+03 -0.58387052592E+03 -0.82152780278E+02  0.65678276916E+03  0.10100000352E+00 0.  1.
       -3    1    3    3    0  502  0.28932633015E+03  0.58387052592E+03 -0.19655790074E+03  0.68062437137E+03  0.10100000352E+00 0. -1.
</event>
<event>
 5   0  0.4310889E-03  0.1299382E+04  0.7818609E-02  0.9030056E-01
        2   -1    0    0  501    0  0.00000000000E+00  0.00000000000E+00  0.31646487935E+03  0.31646487936E+03  0.25500000920E-02 0. -1.
       -2   -1    0    0    0  501  0.00000000000E+00  0.00000000000E+00 -0.13337913575E+04  0.13337913575E+04  0.25500000920E-02 0.  1.
    10030    2    1    2    0    0  0.00000000000E+00  0.00000000000E+00 -0.10173264782E+04  0.16502562369E+04  0.12993815776E+04 0.  0.
        4    1    3    3  502    0 -0.83997098341E+02  0.25953078716E+03  0.24020861616E+03  0.36347425520E+03  0.12699999809E+01 0. -1.
       -4    1    3    3    0  502  0.83997098341E+02 -0.25953078716E+03 -0.12575350943E+04  0.12867819817E+04  0.12699999809E+01 0.  1.
</event>
<event>
 5   0  0.4388937E-03  0.1295215E+04  0.7818609E-02  0.9033368E-01
        2   -1    0    0  501    0  0.00000000000E+00  0.00000000000E+00  0.66490009460E+03  0.66490009460E+03  0.25500000920E-02 0.  1.
       -2   -1    0    0    0  501  0.00000000000E+00  0.00000000000E+00 -0.63076463448E+03  0.63076463449E+03  0.25500000920E-02 0. -1.
    10030    2    1    2    0    0  0.00000000000E+00  0.00000000000E+00  0.34135460115E+02  0.12956647291E+04  0.12952149862E+04 0.  0.
        5    1    3    3  502    0  0.54335429373E+03 -0.34612458449E+03  0.82948465159E+02  0.64956805215E+03  0.46999998093E+01 0.  1.
       -5    1    3    3    0  502 -0.54335429373E+03  0.34612458449E+03 -0.48813005044E+02  0.64609667694E+03  0.46999998093E+01 0. -1.
</event>
<event>
 5   0  0.2458456E-03  0.1262747E+04  0.7818609E-02  0.9059640E-01
        1   -1    0    0  501    0  0.00000000000E+00  0.00000000000E+00  0.11496678348E+04  0.11496678348E+04  0.50400001928E-02 0. -1.
       -1   -1    0    0    0  501  0.00000000000E+00  0.00000000000E+00 -0.34673724448E+03  0.34673724452E+03  0.50400001928E-02 0.  1.
    10030    2    1    2    0    0  0.00000000000E+00  0.00000000000E+00  0.80293059034E+03  0.14964050794E+04  0.12627472544E+04 0.  0.
        5    1    3    3  502    0  0.17024350532E+03 -0.52311108424E+03  0.76860283320E+03  0.94519863666E+03  0.46999998093E+01 0. -1.
       -5    1    3    3    0  502 -0.17024350532E+03  0.52311108424E+03  0.34327757145E+02  0.55120644269E+03  0.46999998093E+01 0.  1.
</event>
<event>
 5   0  0.2370801E-03  0.1261961E+04  0.7818609E-02  0.9060286E-01
        1   -1    0    0  501    0  0.00000000000E+00  0.00000000000E+00  0.11319873865E+04  0.11319873865E+04  0.50400001928E-02 0. -1.
       -1   -1    0    0    0  501  0.00000000000E+00  0.00000000000E+00 -0.35171469476E+03  0.35171469480E+03  0.50400001928E-02 0.  1.
    10030    2    1    2    0    0  0.00000000000E+00  0.00000000000E+00  0.78027269171E+03  0.14837020813E+04  0.12619613277E+04 0.  0.
        3    1    3    3  502    0  0.10223010273E+03 -0.37497875741E+03  0.97454468219E+03  0.10491889297E+04  0.10100000352E+00 0. -1.
       -3    1    3    3    0  502 -0.10223010273E+03  0.37497875741E+03 -0.19427199048E+03  0.43451315159E+03  0.10100000352E+00 0.  1.
</event>
<event>
 5   0  0.4263540E-03  0.1308024E+04  0.7818609E-02  0.9023227E-01
        2   -1    0    0  501    0  0.00000000000E+00  0.00000000000E+00  0.51434440096E+03  0.51434440097E+03  0.25500000920E-02 0.  1.
       -2   -1    0    0    0  501  0.00000000000E+00  0.00000000000E+00 -0.83160504670E+03  0.83160504670E+03  0.25500000920E-02 0. -1.
    10030    2    1    2    0    0  0.00000000000E+00  0.00000000000E+00 -0.31726064574E+03  0.13459494477E+04  0.13080235466E+04 0.  0.
        2    1    3    3  502    0 -0.52517306888E+03  0.13296972736E+03 -0.53564663552E+03  0.76184317206E+03  0.25500000920E-02 0. -1.
       -2    1    3    3    0  502  0.52517306888E+03 -0.13296972736E+03  0.21838598978E+03  0.58410627561E+03  0.25500000920E-02 0.  1.
</event>
<event>
 5   0  0.4388937E-03  0.1268607E+04  0.7818609E-02  0.9054838E-01
       -2   -1    0    0    0  501  0.00000000000E+00  0.00000000000E+00  0.21313414276E+03  0.21313414278E+03  0.25500000920E-02 0. -1.
        2   -1    0    0  501    0  0.00000000000E+00  0.00000000000E+00 -0.18877347095E+04  0.18877347095E+04  0.25500000920E-02 0.  1.
    10030    2    1    2    0    0  0.00000000000E+00  0.00000000000E+00 -0.16746005667E+04  0.21008688522E+04  0.12686066673E+04 0.  0.
        5    1    3    3  502    0 -0.12877855948E+03 -0.44024331626E+03 -0.15627923614E+04  0.16287234724E+04  0.46999998093E+01 0.  1.
       -5    1    3    3    0  502  0.12877855948E+03  0.44024331626E+03 -0.11180820532E+03  0.47214537980E+03  0.46999998093E+01 0. -1.
</event>
<event>
 5   0  0.4453011E-03  0.1356127E+04  0.7818609E-02  0.8986203E-01
       -2   -1    0    0    0  501  0.00000000000E+00  0.00000000000E+00  0.46618709675E+03  0.46618709676E+03  0.25500000920E-02 0.  1.
        2   -1    0    0  501    0  0.00000000000E+00  0.00000000000E+00 -0.98623455637E+03  0.98623455637E+03  0.25500000920E-02 0. -1.
    10030    2    1    2    0    0  0.00000000000E+00  0.00000000000E+00 -0.52004745961E+03  0.14524216531E+04  0.13561265790E+04 0.  0.
        1    1    3    3  502    0 -0.10616269260E+02 -0.45711634255E+03  0.27623106208E+03  0.53420188644E+03  0.50400001928E-02 0.  1.
       -1    1    3    3    0  502  0.10616269260E+02  0.45711634255E+03 -0.79627852170E+03  0.91821976669E+03  0.50400001928E-02 0. -1.
</event>
<event>
 5   0  0.4310889E-03  0.1296355E+04  0.7818609E-02  0.9032461E-01
        2   -1    0    0  501    0  0.00000000000E+00  0.00000000000E+00  0.81319613688E+03  0.81319613689E+03  0.25500000920E-02 0. -1.
       -2   -1    0    0    0  501  0.00000000000E+00  0.00000000000E+00 -0.51664509192E+03  0.51664509192E+03  0.25500000920E-02 0.  1.
    10030    2    1    2    0    0  0.00000000000E+00  0.00000000000E+00  0.29655104497E+03  0.13298412288E+04  0.12963545702E+04 0.  0.
        4    1    3    3  502    0 -0.61328030690E+03 -0.20911533516E+03  0.13079956521E+03  0.66102352257E+03  0.12699999809E+01 0. -1.
       -4    1    3    3    0  502  0.61328030690E+03  0.20911533516E+03  0.16575147976E+03  0.66881770624E+03  0.12699999809E+01 0.  1.
</event>
<event>
 5   0  0.4388937E-03  0.1318224E+04  0.7818609E-02  0.9015237E-01
        2   -1    0    0  501    0  0.00000000000E+00  0.00000000000E+00  0.49106788688E+03  0.49106788689E+03  0.25500000920E-02 0. -1.
       -2   -1    0    0    0  501  0.00000000000E+00  0.00000000000E+00 -0.88466097004E+03  0.88466097005E+03  0.25500000920E-02 0.  1.
    10030    2    1    2    0    0  0.00000000000E+00  0.00000000000E+00 -0.39359308316E+03  0.13757288569E+04  0.13182239463E+04 0.  0.
        5    1    3    3  502    0  0.52599303914E+02  0.61561334947E+03  0.42691681535E+02  0.61934736012E+03  0.46999998093E+01 0. -1.
       -5    1    3    3    0  502 -0.52599303914E+02 -0.61561334947E+03 -0.43628476469E+03  0.75638149681E+03  0.46999998093E+01 0.  1.
</event>
<event>
 5   0  0.4306214E-03  0.9547709E+03  0.7818609E-02  0.9359591E-01
        2   -1    0    0  501    0  0.00000000000E+00  0.00000000000E+00  0.47888528149E+03  0.47888528149E+03  0.25500000920E-02 0.  1.
       -2   -1    0    0    0  501  0.00000000000E+00  0.00000000000E+00 -0.47589027012E+03  0.47589027013E+03  0.25500000920E-02 0. -1.
    10030    2    1    2    0    0  0.00000000000E+00  0.00000000000E+00  0.29950113641E+01  0.95477555162E+03  0.95477085412E+03 0.  0.
        3    1    3    3  502    0  0.24928132780E+03  0.40647117346E+03 -0.21672427618E+02  0.47731509463E+03  0.10100000352E+00 0. -1.
       -3    1    3    3    0  502 -0.24928132780E+03 -0.40647117346E+03  0.24667438982E+02  0.47746045699E+03  0.10100000352E+00 0.  1.
</event>
<event>
 5   0  0.2462055E-03  0.1295047E+04  0.7818609E-02  0.9033502E-01
       -1   -1    0    0    0  501  0.00000000000E+00  0.00000000000E+00  0.71559092686E+03  0.71559092687E+03  0.50400001928E-02 0. -1.
        1   -1    0    0  501    0  0.00000000000E+00  0.00000000000E+00 -0.58593070699E+03  0.58593070702E+03  0.50400001928E-02 0.  1.
    10030    2    1    2    0    0  0.00000000000E+00  0.00000000000E+00  0.12966021986E+03  0.13015216339E+04  0.12950470226E+04 0.  0.
        2    1    3    3  502    0 -0.17412618243E+03  0.19313570530E+03 -0.53114847564E+03  0.59138822380E+03  0.25500000920E-02 0.  1.
       -2    1    3    3    0  502  0.17412618243E+03 -0.19313570530E+03  0.66080869550E+03  0.71013341009E+03  0.25500000920E-02 0. -1.
</event>
<event>
 5   0  0.4388937E-03  0.1247085E+04  0.7818609E-02  0.9072613E-01
        2   -1    0    0  501    0  0.00000000000E+00  0.00000000000E+00  0.90271237885E+03  0.90271237885E+03  0.25500000920E-02 0. -1.
       -2   -1    0    0    0  501  0.00000000000E+00  0.00000000000E+00 -0.43070765922E+03  0.43070765923E+03  0.25500000920E-02 0.  1.
    10030    2    1    2    0    0  0.00000000000E+00  0.00000000000E+00  0.47200471962E+03  0.13334200381E+04  0.12470848177E+04 0.  0.
        5    1    3    3  502    0 -0.55951429238E+03  0.25058882095E+03  0.11441047511E+03  0.62366886036E+03  0.46999998093E+01 0.  1.
       -5    1    3    3    0  502  0.55951429238E+03 -0.25058882095E+03  0.35759424451E+03  0.70975117772E+03  0.46999998093E+01 0. -1.
</event>
<event>
 5   0  0.2458456E-03  0.1260407E+04  0.7818609E-02  0.9061566E-01
       -1   -1    0    0    0  501  0.00000000000E+00  0.00000000000E+00  0.68323594131E+03  0.68323594133E+03  0.50400001928E-02 0. -1.
        1   -1    0    0  501    0  0.00000000000E+00  0.00000000000E+00 -0.58128713809E+03  0.58128713811E+03  0.50400001928E-02 0.  1.
    10030    2    1    2    0    0  0.00000000000E+00  0.00000000000E+00  0.10194880322E+03  0.12645230794E+04  0.12604067042E+04 0.  0.
        5    1    3    3  502    0  0.38770121334E+03 -0.35338543121E+03 -0.29936611342E+03  0.60401626938E+03  0.46999998093E+01 0.  1.
       -5    1    3    3    0  502 -0.38770121334E+03  0.35338543121E+03  0.40131491664E+03  0.66050681006E+03  0.46999998093E+01 0. -1.
</event>
<event>
 5   0  0.2458456E-03  0.1293021E+04  0.7818609E-02  0.9035118E-01
        1   -1    0    0  501    0  0.00000000000E+00  0.00000000000E+00  0.65817126148E+03  0.65817126150E+03  0.50400001928E-02 0. -1.
       -1   -1    0    0    0  501  0.00000000000E+00  0.00000000000E+00 -0.63505650745E+03  0.63505650747E+03  0.50400001928E-02 0.  1.
    10030    2    1    2    0    0  0.00000000000E+00  0.00000000000E+00  0.23114754032E+02  0.12932277690E+04  0.12930211795E+04 0.  0.
        5    1    3    3  502    0  0.26017964491E+03  0.44719217230E+03 -0.37616364516E+03  0.63968387859E+03  0.46999998093E+01 0. -1.
       -5    1    3    3    0  502 -0.26017964491E+03 -0.44719217230E+03  0.39927839919E+03  0.65354389038E+03  0.46999998093E+01 0.  1.
</event>
<event>
 5   0  0.2458456E-03  0.1309248E+04  0.7818609E-02  0.9022263E-01
        1   -1    0    0  501    0  0.00000000000E+00  0.00000000000E+00  0.16457323120E+04  0.16457323120E+04  0.50400001928E-02 0. -1.
       -1   -1    0    0    0  501  0.00000000000E+00  0.00000000000E+00 -0.26039018169E+03  0.26039018174E+03  0.50400001928E-02 0.  1.
    10030    2    1    2    0    0  0.00000000000E+00  0.00000000000E+00  0.13853421303E+04  0.19061224937E+04  0.13092479304E+04 0.  0.
        5    1    3    3  502    0 -0.10913321273E+02 -0.64870838997E+03  0.81933167180E+03  0.10451163353E+04  0.46999998093E+01 0. -1.
       -5    1    3    3    0  502  0.10913321273E+02  0.64870838997E+03  0.56601045846E+03  0.86100615845E+03  0.46999998093E+01 0.  1.
</event>
<event>
 5   0  0.2356769E-03  0.1337813E+04  0.7818609E-02  0.9000105E-01
        1   -1    0    0  501    0  0.00000000000E+00  0.00000000000E+00  0.77918029070E+03  0.77918029072E+03  0.50400001928E-02 0.  1.
       -1   -1    0    0    0  501  0.00000000000E+00  0.00000000000E+00 -0.57423941885E+03  0.57423941888E+03  0.50400001928E-02 0. -1.
    10030    2    1    2    0    0  0.00000000000E+00  0.00000000000E+00  0.20494087185E+03  0.13534197096E+04  0.13378131967E+04 0.  0.
        1    1    3    3  502    0 -0.14458897046E+03  0.21178997366E+03  0.72747605272E+03  0.77135100352E+03  0.50400001928E-02 0.  1.
       -1    1    3    3    0  502  0.14458897046E+03 -0.21178997366E+03 -0.52253518087E+03  0.58206870608E+03  0.50400001928E-02 0. -1.
</event>
<event>
 5   0  0.4306214E-03  0.1339106E+04  0.7818609E-02  0.8999116E-01
       -2   -1    0    0    0  501  0.00000000000E+00  0.00000000000E+00  0.61753959368E+03  0.61753959369E+03  0.25500000920E-02 0.  1.
        2   -1    0    0  501    0  0.00000000000E+00  0.00000000000E+00 -0.72594781959E+03  0.72594781959E+03  0.25500000920E-02 0. -1.
    10030    2    1    2    0    0  0.00000000000E+00  0.00000000000E+00 -0.10840822591E+03  0.13434874133E+04  0.13391064507E+04 0.  0.
        3    1    3    3  502    0 -0.18823402878E+03 -0.79559311207E+02  0.58548656606E+03  0.62012600561E+03  0.10100000352E+00 0.  1.
       -3    1    3    3    0  502  0.18823402878E+03  0.79559311207E+02 -0.69389479197E+03  0.72336140768E+03  0.10100000352E+00 0. -1.
</event>
<event>
 5   0  0.1661750E-03  0.1307285E+04  0.7818609E-02  0.9023808E-01
        4   -1    0    0  501    0  0.00000000000E+00  0.00000000000E+00  0.75867957075E+03  0.75868063371E+03  0.12699999809E+01 0.  1.
       -4   -1    0    0    0  501  0.00000000000E+00  0.00000000000E+00 -0.56314516384E+03  0.56314659588E+03  0.12699999809E+01 0. -1.
    10030    2    1    2    0    0  0.00000000000E+00  0.00000000000E+00  0.19553440691E+03  0.13218272296E+04  0.13072847894E+04 0.  0.
        2    1    3    3  502    0 -0.60032579270E+02  0.20953255198E+03  0.72085319910E+03  0.75308507857E+03  0.25500000920E-02 0.  1.
       -2    1    3    3    0  502  0.60032579270E+02 -0.20953255198E+03 -0.52531879219E+03  0.56874215102E+03  0.25500000920E-02 0. -1.
</event>
<event>
 5   0  0.2511542E-03  0.1257904E+04  0.7818609E-02  0.9063631E-01
       -1   -1    0    0    0  501  0.00000000000E+00  0.00000000000E+00  0.33995025709E+03  0.33995025712E+03  0.50400001928E-02 0. -1.
        1   -1    0    0  501    0  0.00000000000E+00  0.00000000000E+00 -0.11636418809E+04  0.11636418809E+04  0.50400001928E-02 0.  1.
    10030    2    1    2    0    0  0.00000000000E+00  0.00000000000E+00 -0.82369162383E+03  0.15035921380E+04  0.12579035839E+04 0.  0.
        4    1    3    3  502    0 -0.32721689717E+03 -0.34679901078E+03  0.78435248892E+02  0.48321232687E+03  0.12699999809E+01 0. -1.
       -4    1    3    3    0  502  0.32721689717E+03  0.34679901078E+03 -0.90212687272E+03  0.10203798112E+04  0.12699999809E+01 0.  1.
</event>
<event>
 5   0  0.4263540E-03  0.1295582E+04  0.7818609E-02  0.9033076E-01
       -2   -1    0    0    0  501  0.00000000000E+00  0.00000000000E+00  0.37061734466E+03  0.37061734467E+03  0.25500000920E-02 0.  1.
        2   -1    0    0  501    0  0.00000000000E+00  0.00000000000E+00 -0.11322546468E+04  0.11322546468E+04  0.25500000920E-02 0. -1.
    10030    2    1    2    0    0  0.00000000000E+00  0.00000000000E+00 -0.76163730209E+03  0.15028719914E+04  0.12955820478E+04 0.  0.
        2    1    3    3  502    0  0.40404121978E+03  0.50612661420E+03 -0.39801456402E+03  0.76015067590E+03  0.25500000920E-02 0. -1.
       -2    1    3    3    0  502 -0.40404121978E+03 -0.50612661420E+03 -0.36362273807E+03  0.74272131553E+03  0.25500000920E-02 0.  1.
</event>
<event>
 5   0  0.4263540E-03  0.1261270E+04  0.7818609E-02  0.9060855E-01
       -2   -1    0    0    0  501  0.00000000000E+00  0.00000000000E+00  0.19872890082E+03  0.19872890083E+03  0.25500000920E-02 0.  1.
        2   -1    0    0  501    0  0.00000000000E+00  0.00000000000E+00 -0.20012214827E+04  0.20012214827E+04  0.25500000920E-02 0. -1.
    10030    2    1    2    0    0  0.00000000000E+00  0.00000000000E+00 -0.18024925819E+04  0.21999503836E+04  0.12612700672E+04 0.  0.
        2    1    3    3  502    0 -0.29297014504E+03  0.31138943560E+03 -0.17098369555E+04  0.17624804399E+04  0.25500000920E-02 0. -1.
       -2    1    3    3    0  502  0.29297014504E+03 -0.31138943560E+03 -0.92655626349E+02  0.43746994364E+03  0.25500000920E-02 0.  1.
</event>
<event>
 5   0  0.2356769E-03  0.1315859E+04  0.7818609E-02  0.9017083E-01
       -1   -1    0    0    0  501  0.00000000000E+00  0.00000000000E+00  0.34909796715E+03  0.34909796719E+03  0.50400001928E-02 0. -1.
        1   -1    0    0  501    0  0.00000000000E+00  0.00000000000E+00 -0.12399703135E+04  0.12399703135E+04  0.50400001928E-02 0.  1.
    10030    2    1    2    0    0  0.00000000000E+00  0.00000000000E+00 -0.89087234638E+03  0.15890682807E+04  0.13158588311E+04 0.  0.
        1    1    3    3  502    0 -0.62880523735E+03  0.69521797509E+02 -0.22725344466E+03  0.67221531891E+03  0.50400001928E-02 0. -1.
       -1    1    3    3    0  502  0.62880523735E+03 -0.69521797509E+02 -0.66361890172E+03  0.91685296182E+03  0.50400001928E-02 0.  1.
</event>
<event>
 5   0  0.4388937E-03  0.1335641E+04  0.7818609E-02  0.9001770E-01
        2   -1    0    0  501    0  0.00000000000E+00  0.00000000000E+00  0.12250940794E+04  0.12250940794E+04  0.25500000920E-02 0. -1.
       -2   -1    0    0    0  501  0.00000000000E+00  0.00000000000E+00 -0.36404064787E+03  0.36404064788E+03  0.25500000920E-02 0.  1.
    10030    2    1    2    0    0  0.00000000000E+00  0.00000000000E+00  0.86105343150E+03  0.15891347273E+04  0.13356407337E+04 0.  0.
        5    1    3    3  502    0  0.19210858716E+03 -0.82270403432E+02  0.11851661691E+04  0.12034596241E+04  0.46999998093E+01 0. -1.
       -5    1    3    3    0  502 -0.19210858716E+03  0.82270403432E+02 -0.32411273756E+03  0.38567510315E+03  0.46999998093E+01 0.  1.
</event>
<event>
 5   0  0.2370801E-03  0.1273774E+04  0.7818609E-02  0.9050625E-01
       -1   -1    0    0    0  501  0.00000000000E+00  0.00000000000E+00  0.11033567390E+04  0.11033567390E+04  0.50400001928E-02 0. -1.
        1   -1    0    0  501    0  0.00000000000E+00  0.00000000000E+00 -0.36762791600E+03  0.36762791604E+03  0.50400001928E-02 0.  1.
    10030    2    1    2    0    0  0.00000000000E+00  0.00000000000E+00  0.73572882302E+03  0.14709846551E+04  0.12737735099E+04 0.  0.
        3    1    3    3  502    0  0.24494856454E+03 -0.10753802694E+03  0.10353294064E+04  0.10693321357E+04  0.10100000352E+00 0. -1.
       -3    1    3    3    0  502 -0.24494856454E+03  0.10753802694E+03 -0.29960058341E+03  0.40165251934E+03  0.10100000352E+00 0.  1.
</event>
<event>
 5   0  0.4310889E-03  0.1297511E+04  0.7818609E-02  0.9031542E-01
       -2   -1    0    0    0  501  0.00000000000E+00  0.00000000000E+00  0.59154086064E+03  0.59154086065E+03  0.25500000920E-02 0.  1.
        2   -1    0    0  501    0  0.00000000000E+00  0.00000000000E+00 -0.71150353021E+03  0.71150353021E+03  0.25500000920E-02 0. -1.
    10030    2    1    2    0    0  0.00000000000E+00  0.00000000000E+00 -0.11996266957E+03  0.13030443909E+04  0.12975105558E+04 0.  0.
        4    1    3    3  502    0 -0.27438238705E+03  0.43776790235E+03 -0.45402625038E+03  0.68779930182E+03  0.12699999809E+01 0. -1.
       -4    1    3    3    0  502  0.27438238705E+03 -0.43776790235E+03  0.33406358082E+03  0.61524508903E+03  0.12699999809E+01 0.  1.
</event>
<event>
 5   0  0.1661750E-03  0.1295852E+04  0.7818609E-02  0.9032861E-01
        3   -1    0    0  501    0  0.00000000000E+00  0.00000000000E+00  0.19359414877E+04  0.19359414903E+04  0.10100000352E+00 0. -1.
       -3   -1    0    0    0  501  0.00000000000E+00  0.00000000000E+00 -0.21684947133E+03  0.21684949485E+03  0.10100000352E+00 0.  1.
    10030    2    1    2    0    0  0.00000000000E+00  0.00000000000E+00  0.17190920163E+04  0.21527909852E+04  0.12958517142E+04 0.  0.
        4    1    3    3  502    0  0.11702214728E+03  0.32388327126E+03  0.17713101563E+04  0.18044766108E+04  0.12699999809E+01 0. -1.
       -4    1    3    3    0  502 -0.11702214728E+03 -0.32388327126E+03 -0.52218139910E+02  0.34831437437E+03  0.12699999809E+01 0.  1.
</event>
<event>
 5   0  0.1661750E-03  0.1304447E+04  0.7818609E-02  0.9026046E-01
        4   -1    0    0  501    0  0.00000000000E+00  0.00000000000E+00  0.15179834364E+04  0.15179839677E+04  0.12699999809E+01 0. -1.
       -4   -1    0    0    0  501  0.00000000000E+00  0.00000000000E+00 -0.28023535129E+03  0.28023822904E+03  0.12699999809E+01 0.  1.
    10030    2    1    2    0    0  0.00000000000E+00  0.00000000000E+00  0.12377480851E+04  0.17982221967E+04  0.13044472954E+04 0.  0.
        2    1    3    3  502    0  0.42407814531E+03  0.48864712599E+03  0.50538645541E+03  0.82099558853E+03  0.25500000920E-02 0. -1.
       -2    1    3    3    0  502 -0.42407814531E+03 -0.48864712599E+03  0.73236162974E+03  0.97722660821E+03  0.25500000920E-02 0.  1.
</event>
<event>
 5   0  0.2356769E-03  0.1259810E+04  0.7818609E-02  0.9062058E-01
       -1   -1    0    0    0  501  0.00000000000E+00  0.00000000000E+00  0.60701938586E+03  0.60701938588E+03  0.50400001928E-02 0.  1.
        1   -1    0    0  501    0  0.00000000000E+00  0.00000000000E+00 -0.65365317837E+03  0.65365317839E+03  0.50400001928E-02 0. -1.
    10030    2    1    2    0    0  0.00000000000E+00  0.00000000000E+00 -0.46633792511E+02  0.12606725643E+04  0.12598097490E+04 0.  0.
        1    1    3    3  502    0  0.14565302898E+03 -0.43573663162E+03  0.40790622816E+03  0.61438482077E+03  0.50400001928E-02 0.  1.
       -1    1    3    3    0  502 -0.14565302898E+03  0.43573663162E+03 -0.45454002068E+03  0.64628774351E+03  0.50400001928E-02 0. -1.
</event>
<event>
 5   0  0.2356769E-03  0.1208522E+04  0.7818609E-02  0.9105430E-01
        1   -1    0    0  501    0  0.00000000000E+00  0.00000000000E+00  0.96220804239E+03  0.96220804240E+03  0.50400001928E-02 0.  1.
       -1   -1    0    0    0  501  0.00000000000E+00  0.00000000000E+00 -0.37947240032E+03  0.37947240036E+03  0.50400001928E-02 0. -1.
    10030    2    1    2    0    0  0.00000000000E+00  0.00000000000E+00  0.58273564207E+03  0.13416804428E+04  0.12085220651E+04 0.  0.
        1    1    3    3  502    0  0.55471128157E+03 -0.20600619122E+03  0.42728357736E+03  0.72987287402E+03  0.50400001928E-02 0. -1.
       -1    1    3    3    0  502 -0.55471128157E+03  0.20600619122E+03  0.15545206471E+03  0.61180756874E+03  0.50400001928E-02 0.  1.
</event>
<event>
 5   0  0.2370801E-03  0.1229994E+04  0.7818609E-02  0.9087000E-01
       -1   -1    0    0    0  501  0.00000000000E+00  0.00000000000E+00  0.64907598042E+03  0.64907598044E+03  0.50400001928E-02 0.  1.
        1   -1    0    0  501    0  0.00000000000E+00  0.00000000000E+00 -0.58270745655E+03  0.58270745657E+03  0.50400001928E-02 0. -1.
    10030    2    1    2    0    0  0.00000000000E+00  0.00000000000E+00  0.66368523871E+02  0.12317834370E+04  0.12299941686E+04 0.  0.
        3    1    3    3  502    0 -0.48887958296E+03  0.37283555142E+03  0.47759072946E+02  0.61667700970E+03  0.10100000352E+00 0.  1.
       -3    1    3    3    0  502  0.48887958296E+03 -0.37283555142E+03  0.18609450924E+02  0.61510642730E+03  0.10100000352E+00 0. -1.
</event>
<event>
 5   0  0.4310889E-03  0.1320260E+04  0.7818609E-02  0.9013651E-01
       -2   -1    0    0    0  501  0.00000000000E+00  0.00000000000E+00  0.37425808788E+03  0.37425808788E+03  0.25500000920E-02 0.  1.
        2   -1    0    0  501    0  0.00000000000E+00  0.00000000000E+00 -0.11643616402E+04  0.11643616402E+04  0.25500000920E-02 0. -1.
    10030    2    1    2    0    0  0.00000000000E+00  0.00000000000E+00 -0.79010355232E+03  0.15386197281E+04  0.13202602184E+04 0.  0.
        4    1    3    3  502    0 -0.52341206925E+02  0.44114059732E+03  0.17399521069E+03  0.47709598069E+03  0.12699999809E+01 0.  1.
       -4    1    3    3    0  502  0.52341206925E+02 -0.44114059732E+03 -0.96409876301E+03  0.10615237474E+04  0.12699999809E+01 0. -1.
</event>
<event>
 5   0  0.4453011E-03  0.1274625E+04  0.7818609E-02  0.9049933E-01
       -2   -1    0    0    0  501  0.00000000000E+00  0.00000000000E+00  0.42276857943E+03  0.42276857943E+03  0.25500000920E-02 0. -1.
        2   -1    0    0  501    0  0.00000000000E+00  0.00000000000E+00 -0.96073180302E+03  0.96073180302E+03  0.25500000920E-02 0.  1.
    10030    2    1    2    0    0  0.00000000000E+00  0.00000000000E+00 -0.53796322359E+03  0.13835003825E+04  0.12746249952E+04 0.  0.
        1    1    3    3  502    0 -0.44010589255E+03 -0.33399460558E+03 -0.61379885322E+03  0.82582965886E+03  0.50400001928E-02 0.  1.
       -1    1    3    3    0  502  0.44010589255E+03  0.33399460558E+03  0.75835629628E+02  0.55767072360E+03  0.50400001928E-02 0. -1.
</event>
<event>
 5   0  0.1661750E-03  0.1296588E+04  0.7818609E-02  0.9032275E-01
        4   -1    0    0  501    0  0.00000000000E+00  0.00000000000E+00  0.81316131885E+03  0.81316231060E+03  0.12699999809E+01 0.  1.
       -4   -1    0    0    0  501  0.00000000000E+00  0.00000000000E+00 -0.51685123705E+03  0.51685279736E+03  0.12699999809E+01 0. -1.
    10030    2    1    2    0    0  0.00000000000E+00  0.00000000000E+00  0.29631008180E+03  0.13300151080E+04  0.12965880313E+04 0.  0.
        2    1    3    3  502    0 -0.16051566494E+03  0.30709028482E+03  0.71019999806E+03  0.79022386636E+03  0.25500000920E-02 0.  1.
       -2    1    3    3    0  502  0.16051566494E+03 -0.30709028482E+03 -0.41388991626E+03  0.53979124160E+03  0.25500000920E-02 0. -1.
</event>
<event>
 5   0  0.2462055E-03  0.1254879E+04  0.7818609E-02  0.9066132E-01
        1   -1    0    0  501    0  0.00000000000E+00  0.00000000000E+00  0.10829732789E+04  0.10829732789E+04  0.50400001928E-02 0. -1.
       -1   -1    0    0    0  501  0.00000000000E+00  0.00000000000E+00 -0.36351792290E+03  0.36351792294E+03  0.50400001928E-02 0.  1.
    10030    2    1    2    0    0  0.00000000000E+00  0.00000000000E+00  0.71945535597E+03  0.14464912018E+04  0.12548787940E+04 0.  0.
        2    1    3    3  502    0  0.12950542463E+03  0.44966673326E+03 -0.12207684558E+03  0.48360581287E+03  0.25500000920E-02 0.  1.
       -2    1    3    3    0  502 -0.12950542463E+03 -0.44966673326E+03  0.84153220155E+03  0.96288538895E+03  0.25500000920E-02 0. -1.
</event>
<event>
 5   0  0.2458456E-03  0.1261219E+04  0.7818609E-02  0.9060897E-01
       -1   -1    0    0    0  501  0.00000000000E+00  0.00000000000E+00  0.75241107379E+03  0.75241107380E+03  0.50400001928E-02 0.  1.
        1   -1    0    0  501    0  0.00000000000E+00  0.00000000000E+00 -0.52852568966E+03  0.52852568968E+03  0.50400001928E-02 0. -1.
    10030    2    1    2    0    0  0.00000000000E+00  0.00000000000E+00  0.22388538413E+03  0.12809367635E+04  0.12612193809E+04 0.  0.
        5    1    3    3  502    0  0.36182124246E+03 -0.11258448770E+03 -0.39997755491E+03  0.55099365949E+03  0.46999998093E+01 0. -1.
       -5    1    3    3    0  502 -0.36182124246E+03  0.11258448770E+03  0.62386293904E+03  0.72994310400E+03  0.46999998093E+01 0.  1.
</event>
<event>
 5   0  0.4310889E-03  0.1235056E+04  0.7818609E-02  0.9082713E-01
        2   -1    0    0  501    0  0.00000000000E+00  0.00000000000E+00  0.19407221532E+04  0.19407221532E+04  0.25500000920E-02 0. -1.
       -2   -1    0    0    0  501  0.00000000000E+00  0.00000000000E+00 -0.19649438627E+03  0.19649438628E+03  0.25500000920E-02 0.  1.
    10030    2    1    2    0    0  0.00000000000E+00  0.00000000000E+00  0.17442277669E+04  0.21372165395E+04  0.12350562877E+04 0.  0.
        4    1    3    3  502    0  0.10204786915E+03  0.43615682160E+03  0.13652989850E+03  0.46828257144E+03  0.12699999809E+01 0.  1.
       -4    1    3    3    0  502 -0.10204786915E+03 -0.43615682160E+03  0.16076978684E+04  0.16689339680E+04  0.12699999809E+01 0. -1.
</event>
<event>
 5   0  0.2370801E-03  0.1347345E+04  0.7818609E-02  0.8992840E-01
       -1   -1    0    0    0  501  0.00000000000E+00  0.00000000000E+00  0.32427040635E+03  0.32427040639E+03  0.50400001928E-02 0.  1.
        1   -1    0    0  501    0  0.00000000000E+00  0.00000000000E+00 -0.13995557432E+04  0.13995557432E+04  0.50400001928E-02 0. -1.
    10030    2    1    2    0    0  0.00000000000E+00  0.00000000000E+00 -0.10752853369E+04  0.17238261496E+04  0.13473448105E+04 0.  0.
        3    1    3    3  502    0  0.20418152063E+03  0.54772490878E+03 -0.96609107363E+03  0.11291698906E+04  0.10100000352E+00 0. -1.
       -3    1    3    3    0  502 -0.20418152063E+03 -0.54772490878E+03 -0.10919426322E+03  0.59465625902E+03  0.10100000352E+00 0.  1.
</event>
<event>
 5   0  0.4310889E-03  0.1308912E+04  0.7818609E-02  0.9022528E-01
       -2   -1    0    0    0  501  0.00000000000E+00  0.00000000000E+00  0.56519547040E+03  0.56519547040E+03  0.25500000920E-02 0.  1.
        2   -1    0    0  501    0  0.00000000000E+00  0.00000000000E+00 -0.75781308929E+03  0.75781308929E+03  0.25500000920E-02 0. -1.
    10030    2    1    2    0    0  0.00000000000E+00  0.00000000000E+00 -0.19261761889E+03  0.13230085597E+04  0.13089118007E+04 0.  0.
        4    1    3    3  502    0  0.25993459059E+03  0.49580567080E+03 -0.43896076313E+03  0.71139118567E+03  0.12699999809E+01 0. -1.
       -4    1    3    3    0  502 -0.25993459059E+03 -0.49580567080E+03  0.24634314424E+03  0.61161737402E+03  0.12699999809E+01 0.  1.
</event>
<event>
 5   0  0.2356769E-03  0.1284665E+04  0.7818609E-02  0.9041815E-01
        1   -1    0    0  501    0  0.00000000000E+00  0.00000000000E+00  0.14807793790E+04  0.14807793790E+04  0.50400001928E-02 0. -1.
       -1   -1    0    0    0  501  0.00000000000E+00  0.00000000000E+00 -0.27863092889E+03  0.27863092893E+03  0.50400001928E-02 0.  1.
    10030    2    1    2    0    0  0.00000000000E+00  0.00000000000E+00  0.12021484501E+04  0.17594103079E+04  0.12846648339E+04 0.  0.
        1    1    3    3  502    0 -0.56710055688E+03  0.23232623178E+03  0.86455625653E+03  0.10597339479E+04  0.50400001928E-02 0.  1.
       -1    1    3    3    0  502  0.56710055688E+03 -0.23232623178E+03  0.33759219356E+03  0.69967636002E+03  0.50400001928E-02 0. -1.
</event>
<event>
 5   0  0.2356769E-03  0.7827199E+03  0.7818609E-02  0.9585372E-01
       -1   -1    0    0    0  501  0.00000000000E+00  0.00000000000E+00  0.62159453979E+03  0.62159453981E+03  0.50400001928E-02 0. -1.
        1   -1    0    0  501    0  0.00000000000E+00  0.00000000000E+00 -0.24640275982E+03  0.24640275987E+03  0.50400001928E-02 0.  1.
    10030    2    1    2    0    0  0.00000000000E+00  0.00000000000E+00  0.37519177997E+03  0.86799729968E+03  0.78271989913E+03 0.  0.
        1    1    3    3  502    0  0.19437312661E+03  0.14580432292E+03  0.52781555422E+03  0.58105857900E+03  0.50400001928E-02 0. -1.
       -1    1    3    3    0  502 -0.19437312661E+03 -0.14580432292E+03 -0.15262377425E+03  0.28693872067E+03  0.50400001928E-02 0.  1.
</event>
<event>
 5   0  0.4310889E-03  0.1297151E+04  0.7818609E-02  0.9031828E-01
       -2   -1    0    0    0  501  0.00000000000E+00  0.00000000000E+00  0.91060116129E+03  0.91060116130E+03  0.25500000920E-02 0.  1.
        2   -1    0    0  501    0  0.00000000000E+00  0.00000000000E+00 -0.46194750213E+03  0.46194750214E+03  0.25500000920E-02 0. -1.
    10030    2    1    2    0    0  0.00000000000E+00  0.00000000000E+00  0.44865365916E+03  0.13725486634E+04  0.12971506187E+04 0.  0.
        4    1    3    3  502    0  0.33098836932E+03  0.21935478162E+02 -0.36539574735E+03  0.49350798464E+03  0.12699999809E+01 0. -1.
       -4    1    3    3    0  502 -0.33098836932E+03 -0.21935478162E+02  0.81404940651E+03  0.87904067879E+03  0.12699999809E+01 0.  1.
</event>
<event>
 5   0  0.4453011E-03  0.1278361E+04  0.7818609E-02  0.9046904E-01
        2   -1    0    0  501    0  0.00000000000E+00  0.00000000000E+00  0.98322915952E+03  0.98322915953E+03  0.25500000920E-02 0.  1.
       -2   -1    0    0    0  501  0.00000000000E+00  0.00000000000E+00 -0.41552003865E+03  0.41552003865E+03  0.25500000920E-02 0. -1.
    10030    2    1    2    0    0  0.00000000000E+00  0.00000000000E+00  0.56770912088E+03  0.13987491982E+04  0.12783605413E+04 0.  0.
        1    1    3    3  502    0  0.45473944974E+03  0.42033793520E+03  0.45713346078E+03  0.76970315571E+03  0.50400001928E-02 0.  1.
       -1    1    3    3    0  502 -0.45473944974E+03 -0.42033793520E+03  0.11057566010E+03  0.62904604247E+03  0.50400001928E-02 0. -1.
</event>
<event>
 5   0  0.4263540E-03  0.1324684E+04  0.7818609E-02  0.9010216E-01
        2   -1    0    0  501    0  0.00000000000E+00  0.00000000000E+00  0.70062057466E+03  0.70062057466E+03  0.25500000920E-02 0. -1.
       -2   -1    0    0    0  501  0.00000000000E+00  0.00000000000E+00 -0.62615516708E+03  0.62615516708E+03  0.25500000920E-02 0.  1.
    10030    2    1    2    0    0  0.00000000000E+00  0.00000000000E+00  0.74465407578E+02  0.13267757417E+04  0.13246844047E+04 0.  0.
        2    1    3    3  502    0 -0.11902290883E+03  0.18919647656E+03 -0.58723813580E+03  0.62833938896E+03  0.25500000920E-02 0.  1.
       -2    1    3    3    0  502  0.11902290883E+03 -0.18919647656E+03  0.66170354338E+03  0.69843635279E+03  0.25500000920E-02 0. -1.
</event>
<event>
 5   0  0.4310889E-03  0.1293919E+04  0.7818609E-02  0.9034402E-01
       -2   -1    0    0    0  501  0.00000000000E+00  0.00000000000E+00  0.25689702328E+03  0.25689702329E+03  0.25500000920E-02 0.  1.
        2   -1    0    0  501    0  0.00000000000E+00  0.00000000000E+00 -0.16292764799E+04  0.16292764799E+04  0.25500000920E-02 0. -1.
    10030    2    1    2    0    0  0.00000000000E+00  0.00000000000E+00 -0.13723794566E+04  0.18861735032E+04  0.12939185103E+04 0.  0.
        4    1    3    3  502    0  0.63156771544E+03 -0.12645503293E+03 -0.59768774784E+03  0.87869272864E+03  0.12699999809E+01 0.  1.
       -4    1    3    3    0  502 -0.63156771544E+03  0.12645503293E+03 -0.77469170875E+03  0.10074807745E+04  0.12699999809E+01 0. -1.
</event>
<event>
 5   0  0.2356769E-03  0.1297543E+04  0.7818609E-02  0.9031516E-01
       -1   -1    0    0    0  501  0.00000000000E+00  0.00000000000E+00  0.42063675994E+03  0.42063675997E+03  0.50400001928E-02 0.  1.
        1   -1    0    0  501    0  0.00000000000E+00  0.00000000000E+00 -0.10006364411E+04  0.10006364411E+04  0.50400001928E-02 0. -1.
    10030    2    1    2    0    0  0.00000000000E+00  0.00000000000E+00 -0.57999968119E+03  0.14212732011E+04  0.12975430174E+04 0.  0.
        1    1    3    3  502    0 -0.10266725527E+03 -0.14969939178E+03 -0.97225356920E+03  0.98905382869E+03  0.50400001928E-02 0. -1.
       -1    1    3    3    0  502  0.10266725527E+03  0.14969939178E+03  0.39225388801E+03  0.43221937241E+03  0.50400001928E-02 0.  1.
</event>
<event>
 5   0  0.2370801E-03  0.1311501E+04  0.7818609E-02  0.9020494E-01
       -1   -1    0    0    0  501  0.00000000000E+00  0.00000000000E+00  0.58577917129E+03  0.58577917131E+03  0.50400001928E-02 0. -1.
        1   -1    0    0  501    0  0.00000000000E+00  0.00000000000E+00 -0.73407997685E+03  0.73407997687E+03  0.50400001928E-02 0.  1.
    10030    2    1    2    0    0  0.00000000000E+00  0.00000000000E+00 -0.14830080556E+03  0.13198591482E+04  0.13115010645E+04 0.  0.
        3    1    3    3  502    0  0.15430024167E+02 -0.59847289009E+03  0.19513826172E+03  0.62967200764E+03  0.10100000352E+00 0. -1.
       -3    1    3    3    0  502 -0.15430024167E+02  0.59847289009E+03 -0.34343906729E+03  0.69018714054E+03  0.10100000352E+00 0.  1.
</event>
<event>
 5   0  0.4263540E-03  0.1289605E+04  0.7818609E-02  0.9037849E-01
       -2   -1    0    0    0  501  0.00000000000E+00  0.00000000000E+00  0.12585599973E+04  0.12585599973E+04  0.25500000920E-02 0. -1.
        2   -1    0    0  501    0  0.00000000000E+00  0.00000000000E+00 -0.33035392707E+03  0.33035392708E+03  0.25500000920E-02 0.  1.
    10030    2    1    2    0    0  0.00000000000E+00  0.00000000000E+00  0.92820607022E+03  0.15889139244E+04  0.12896049590E+04 0.  0.
        2    1    3    3  502    0  0.10422505451E+03  0.59204022717E+03  0.17674315020E+03  0.62658808936E+03  0.25500000920E-02 0.  1.
       -2    1    3    3    0  502 -0.10422505451E+03 -0.59204022717E+03  0.75146292002E+03  0.96232583502E+03  0.25500000920E-02 0. -1.
</event>
<event>
 5   0  0.2462055E-03  0.1313382E+04  0.7818609E-02  0.9019020E-01
        1   -1    0    0  501    0  0.00000000000E+00  0.00000000000E+00  0.62652122014E+03  0.62652122016E+03  0.50400001928E-02 0. -1.
       -1   -1    0    0    0  501  0.00000000000E+00  0.00000000000E+00 -0.68831356454E+03  0.68831356456E+03  0.50400001928E-02 0.  1.
    10030    2    1    2    0    0  0.00000000000E+00  0.00000000000E+00 -0.61792344400E+02  0.13148347847E+04  0.13133819769E+04 0.  0.
        2    1    3    3  502    0  0.65186180482E+03  0.79154042831E+02 -0.23547805690E+02  0.65707204646E+03  0.25500000920E-02 0. -1.
       -2    1    3    3    0  502 -0.65186180482E+03 -0.79154042831E+02 -0.38244538710E+02  0.65776273825E+03  0.25500000920E-02 0.  1.
</event>
<event>
 5   0  0.2511542E-03  0.7423214E+03  0.7818609E-02  0.9647475E-01
       -1   -1    0    0    0  501  0.00000000000E+00  0.00000000000E+00  0.14777353017E+03  0.14777353026E+03  0.50400001928E-02 0. -1.
        1   -1    0    0  501    0  0.00000000000E+00  0.00000000000E+00 -0.93223901543E+03  0.93223901544E+03  0.50400001928E-02 0.  1.
    10030    2    1    2    0    0  0.00000000000E+00  0.00000000000E+00 -0.78446548526E+03  0.10800125457E+04  0.74232135986E+03 0.  0.
        4    1    3    3  502    0  0.19137696909E+03  0.30849756934E+03 -0.50457932944E+03  0.62160904690E+03  0.12699999809E+01 0.  1.
       -4    1    3    3    0  502 -0.19137696909E+03 -0.30849756934E+03 -0.27988615582E+03  0.45840349880E+03  0.12699999809E+01 0. -1.
</event>
<event>
 5   0  0.2511542E-03  0.1297205E+04  0.7818609E-02  0.9031785E-01
       -1   -1    0    0    0  501  0.00000000000E+00  0.00000000000E+00  0.55603762280E+03  0.55603762283E+03  0.50400001928E-02 0. -1.
        1   -1    0    0  501    0  0.00000000000E+00  0.00000000000E+00 -0.75657686598E+03  0.75657686600E+03  0.50400001928E-02 0.  1.
    10030    2    1    2    0    0  0.00000000000E+00  0.00000000000E+00 -0.20053924318E+03  0.13126144888E+04  0.12972049985E+04 0.  0.
        4    1    3    3  502    0 -0.49404587398E+03  0.29043879252E+03 -0.40760039640E+03  0.70326077229E+03  0.12699999809E+01 0.  1.
       -4    1    3    3    0  502  0.49404587398E+03 -0.29043879252E+03  0.20706115321E+03  0.60935371654E+03  0.12699999809E+01 0. -1.
</event>
<event>
 5   0  0.4263540E-03  0.1299569E+04  0.7818609E-02  0.9029907E-01
        2   -1    0    0  501    0  0.00000000000E+00  0.00000000000E+00  0.13974638123E+04  0.13974638123E+04  0.25500000920E-02 0. -1.
       -2   -1    0    0    0  501  0.00000000000E+00  0.00000000000E+00 -0.30213300523E+03  0.30213300524E+03  0.25500000920E-02 0.  1.
    10030    2    1    2    0    0  0.00000000000E+00  0.00000000000E+00  0.10953308071E+04  0.16995968176E+04  0.12995690691E+04 0.  0.
        2    1    3    3  502    0 -0.26332407094E+03 -0.26104997172E+03 -0.15019035101E+03  0.40005474077E+03  0.25500000920E-02 0.  1.
       -2    1    3    3    0  502  0.26332407094E+03  0.26104997172E+03  0.12455211581E+04  0.12995420768E+04  0.25500000920E-02 0. -1.
</event>
<event>
 5   0  0.2356769E-03  0.1207122E+04  0.7818609E-02  0.9106645E-01
        1   -1    0    0  501    0  0.00000000000E+00  0.00000000000E+00  0.35544876496E+03  0.35544876500E+03  0.50400001928E-02 0. -1.
       -1   -1    0    0    0  501  0.00000000000E+00  0.00000000000E+00 -0.10248619084E+04  0.10248619084E+04  0.50400001928E-02 0.  1.
    10030    2    1    2    0    0  0.00000000000E+00  0.00000000000E+00 -0.66941314340E+03  0.13803106734E+04  0.12071220313E+04 0.  0.
        1    1    3    3  502    0 -0.46746336931E+03  0.17276240326E+03 -0.72401995169E+03  0.87896173983E+03  0.50400001928E-02 0.  1.
       -1    1    3    3    0  502  0.46746336931E+03 -0.17276240326E+03  0.54606808287E+02  0.50134893354E+03  0.50400001928E-02 0. -1.
</event>
<event>
 5   0  0.4263540E-03  0.1276372E+04  0.7818609E-02  0.9048515E-01
       -2   -1    0    0    0  501  0.00000000000E+00  0.00000000000E+00  0.26890475729E+03  0.26890475730E+03  0.25500000920E-02 0.  1.
        2   -1    0    0  501    0  0.00000000000E+00  0.00000000000E+00 -0.15145925218E+04  0.15145925218E+04  0.25500000920E-02 0. -1.
    10030    2    1    2    0    0  0.00000000000E+00  0.00000000000E+00 -0.12456877645E+04  0.17834972791E+04  0.12763716300E+04 0.  0.
        2    1    3    3  502    0 -0.45363810669E+03  0.43925063161E+02 -0.12470623553E+04  0.13277354635E+04  0.25500000920E-02 0. -1.
       -2    1    3    3    0  502  0.45363810669E+03 -0.43925063161E+02  0.13745908473E+01  0.45576181555E+03  0.25500000920E-02 0.  1.
</event>
<event>
 5   0  0.4263540E-03  0.1309832E+04  0.7818609E-02  0.9021804E-01
        2   -1    0    0  501    0  0.00000000000E+00  0.00000000000E+00  0.92342468581E+03  0.92342468581E+03  0.25500000920E-02 0.  1.
       -2   -1    0    0    0  501  0.00000000000E+00  0.00000000000E+00 -0.46448317875E+03  0.46448317876E+03  0.25500000920E-02 0. -1.
    10030    2    1    2    0    0  0.00000000000E+00  0.00000000000E+00  0.45894150705E+03  0.13879078646E+04  0.13098324067E+04 0.  0.
        2    1    3    3  502    0  0.52757500547E+03  0.38792207190E+03  0.21907184680E+03  0.69051531071E+03  0.25500000920E-02 0.  1.
       -2    1    3    3    0  502 -0.52757500547E+03 -0.38792207190E+03  0.23986966025E+03  0.69739255386E+03  0.25500000920E-02 0. -1.
</event>
<event>
 5   0  0.4263540E-03  0.1141354E+04  0.7818609E-02  0.9165797E-01
        2   -1    0    0  501    0  0.00000000000E+00  0.00000000000E+00  0.11645499898E+04  0.11645499898E+04  0.25500000920E-02 0. -1.
       -2   -1    0    0    0  501  0.00000000000E+00  0.00000000000E+00 -0.27965483704E+03  0.27965483705E+03  0.25500000920E-02 0.  1.
    10030    2    1    2    0    0  0.00000000000E+00  0.00000000000E+00  0.88489515280E+03  0.14442048269E+04  0.11413536483E+04 0.  0.
        2    1    3    3  502    0 -0.15161896977E+03 -0.41635660690E+02 -0.25170649789E+03  0.29677938156E+03  0.25500000920E-02 0.  1.
       -2    1    3    3    0  502  0.15161896977E+03  0.41635660690E+02  0.11366016507E+04  0.11474254453E+04  0.25500000920E-02 0. -1.
</event>
<event>
 5   0  0.4453011E-03  0.1290907E+04  0.7818609E-02  0.9036807E-01
       -2   -1    0    0    0  501  0.00000000000E+00  0.00000000000E+00  0.12635011781E+04  0.12635011781E+04  0.25500000920E-02 0.  1.
        2   -1    0    0  501    0  0.00000000000E+00  0.00000000000E+00 -0.32972666964E+03  0.32972666965E+03  0.25500000920E-02 0. -1.
    10030    2    1    2    0    0  0.00000000000E+00  0.00000000000E+00  0.93377450849E+03  0.15932278478E+04  0.12909067132E+04 0.  0.
        1    1    3    3  502    0  0.37140522265E+03  0.19839864400E+03 -0.13686669049E+03  0.44275992631E+03  0.50400001928E-02 0. -1.
       -1    1    3    3    0  502 -0.37140522265E+03 -0.19839864400E+03  0.10706411990E+04  0.11504679215E+04  0.50400001928E-02 0.  1.
</event>
<event>
 5   0  0.2462055E-03  0.1294102E+04  0.7818609E-02  0.9034256E-01
       -1   -1    0    0    0  501  0.00000000000E+00  0.00000000000E+00  0.62514443515E+03  0.62514443517E+03  0.50400001928E-02 0.  1.
        1   -1    0    0  501    0  0.00000000000E+00  0.00000000000E+00 -0.66972493962E+03  0.66972493964E+03  0.50400001928E-02 0. -1.
    10030    2    1    2    0    0  0.00000000000E+00  0.00000000000E+00 -0.44580504477E+02  0.12948693748E+04  0.12941017257E+04 0.  0.
        2    1    3    3  502    0 -0.63511628588E+03  0.94957901591E+02 -0.10161602480E+03  0.65016576054E+03  0.25500000920E-02 0. -1.
       -2    1    3    3    0  502  0.63511628588E+03 -0.94957901591E+02  0.57035520323E+02  0.64470361427E+03  0.25500000920E-02 0.  1.
</event>
<event>
 5   0  0.4310889E-03  0.1301267E+04  0.7818609E-02  0.9028561E-01
       -2   -1    0    0    0  501  0.00000000000E+00  0.00000000000E+00  0.40392800352E+03  0.40392800353E+03  0.25500000920E-02 0. -1.
        2   -1    0    0  501    0  0.00000000000E+00  0.00000000000E+00 -0.10480182162E+04  0.10480182162E+04  0.25500000920E-02 0.  1.
    10030    2    1    2    0    0  0.00000000000E+00  0.00000000000E+00 -0.64409021264E+03  0.14519462197E+04  0.13012669299E+04 0.  0.
        4    1    3    3  502    0 -0.23789116215E+03  0.60220578459E+03 -0.25078889953E+03  0.69436351938E+03  0.12699999809E+01 0. -1.
       -4    1    3    3    0  502  0.23789116215E+03 -0.60220578459E+03 -0.39330131311E+03  0.75758270031E+03  0.12699999809E+01 0.  1.
</event>
<event>
 5   0  0.4388937E-03  0.6876278E+03  0.7818609E-02  0.9738627E-01
       -2   -1    0    0    0  501  0.00000000000E+00  0.00000000000E+00  0.13639070859E+03  0.13639070861E+03  0.25500000920E-02 0. -1.
        2   -1    0    0  501    0  0.00000000000E+00  0.00000000000E+00 -0.86668659959E+03  0.86668659959E+03  0.25500000920E-02 0.  1.
    10030    2    1    2    0    0  0.00000000000E+00  0.00000000000E+00 -0.73029589100E+03  0.10030773082E+04  0.68762780472E+03 0.  0.
        5    1    3    3  502    0 -0.22385093040E+03 -0.91969628378E+01 -0.74552136442E+03  0.77847159099E+03  0.46999998093E+01 0.  1.
       -5    1    3    3    0  502  0.22385093040E+03  0.91969628378E+01  0.15225473419E+02  0.22460571722E+03  0.46999998093E+01 0. -1.
</event>
<event>
 5   0  0.2370801E-03  0.1328340E+04  0.7818609E-02  0.9007388E-01
        1   -1    0    0  501    0  0.00000000000E+00  0.00000000000E+00  0.14645588082E+04  0.14645588082E+04  0.50400001928E-02 0.  1.
       -1   -1    0    0    0  501  0.00000000000E+00  0.00000000000E+00 -0.30119782846E+03  0.30119782851E+03  0.50400001928E-02 0. -1.
    10030    2    1    2    0    0  0.00000000000E+00  0.00000000000E+00  0.11633609797E+04  0.17657566367E+04  0.13283402165E+04 0.  0.
        3    1    3    3  502    0  0.23160244772E+03  0.21218017756E+03 -0.19622635686E+03  0.37035782004E+03  0.10100000352E+00 0. -1.
       -3    1    3    3    0  502 -0.23160244772E+03 -0.21218017756E+03  0.13595873366E+04  0.13953988166E+04  0.10100000352E+00 0.  1.
</event>
<event>
 5   0  0.4388937E-03  0.1282481E+04  0.7818609E-02  0.9043574E-01
       -2   -1    0    0    0  501  0.00000000000E+00  0.00000000000E+00  0.10097938763E+04  0.10097938763E+04  0.25500000920E-02 0. -1.
        2   -1    0    0  501    0  0.00000000000E+00  0.00000000000E+00 -0.40720129008E+03  0.40720129009E+03  0.25500000920E-02 0.  1.
    10030    2    1    2    0    0  0.00000000000E+00  0.00000000000E+00  0.60259258618E+03  0.14169951664E+04  0.12824809849E+04 0.  0.
        5    1    3    3  502    0 -0.17611072676E+03 -0.10997060090E+03  0.97160677751E+03  0.99355439772E+03  0.46999998093E+01 0. -1.
       -5    1    3    3    0  502  0.17611072676E+03  0.10997060090E+03 -0.36901419132E+03  0.42344076863E+03  0.46999998093E+01 0.  1.
</event>
<event>
 5   0  0.2458456E-03  0.1363543E+04  0.7818609E-02  0.8980639E-01
        1   -1    0    0  501    0  0.00000000000E+00  0.00000000000E+00  0.71873612376E+03  0.71873612378E+03  0.50400001928E-02 0. -1.
       -1   -1    0    0    0  501  0.00000000000E+00  0.00000000000E+00 -0.64670825154E+03  0.64670825156E+03  0.50400001928E-02 0.  1.
    10030    2    1    2    0    0  0.00000000000E+00  0.00000000000E+00  0.72027872227E+02  0.13654443753E+04  0.13635432988E+04 0.  0.
        5    1    3    3  502    0 -0.20813092321E+02  0.15057372699E+03  0.70153428016E+03  0.71782871795E+03  0.46999998093E+01 0. -1.
       -5    1    3    3    0  502  0.20813092321E+02 -0.15057372699E+03 -0.62950640793E+03  0.64761565739E+03  0.46999998093E+01 0.  1.
</event>
<event>
 5   0  0.4388937E-03  0.1298974E+04  0.7818609E-02  0.9030379E-01
        2   -1    0    0  501    0  0.00000000000E+00  0.00000000000E+00  0.63013344955E+03  0.63013344956E+03  0.25500000920E-02 0. -1.
       -2   -1    0    0    0  501  0.00000000000E+00  0.00000000000E+00 -0.66943468784E+03  0.66943468784E+03  0.25500000920E-02 0.  1.
    10030    2    1    2    0    0  0.00000000000E+00  0.00000000000E+00 -0.39301238289E+02  0.12995681374E+04  0.12989737320E+04 0.  0.
        5    1    3    3  502    0 -0.46563703772E+03  0.44989585075E+03 -0.70536175150E+02  0.65132293789E+03  0.46999998093E+01 0. -1.
       -5    1    3    3    0  502  0.46563703772E+03 -0.44989585075E+03  0.31234936861E+02  0.64824519951E+03  0.46999998093E+01 0.  1.
</event>
<event>
 5   0  0.4263540E-03  0.1220266E+04  0.7818609E-02  0.9095300E-01
       -2   -1    0    0    0  501  0.00000000000E+00  0.00000000000E+00  0.43756444219E+03  0.43756444219E+03  0.25500000920E-02 0.  1.
        2   -1    0    0  501    0  0.00000000000E+00  0.00000000000E+00 -0.85076001615E+03  0.85076001616E+03  0.25500000920E-02 0. -1.
    10030    2    1    2    0    0  0.00000000000E+00  0.00000000000E+00 -0.41319557397E+03  0.12883244583E+04  0.12202660889E+04 0.  0.
        2    1    3    3  502    0  0.42240373725E+02  0.35349397232E+03  0.31653775900E+03  0.47638051023E+03  0.25500000920E-02 0.  1.
       -2    1    3    3    0  502 -0.42240373725E+02 -0.35349397232E+03 -0.72973333297E+03  0.81194394812E+03  0.25500000920E-02 0. -1.
</event>
<event>
 5   0  0.2356769E-03  0.1258239E+04  0.7818609E-02  0.9063354E-01
        1   -1    0    0  501    0  0.00000000000E+00  0.00000000000E+00  0.18321419207E+04  0.18321419207E+04  0.50400001928E-02 0.  1.
       -1   -1    0    0    0  501  0.00000000000E+00  0.00000000000E+00 -0.21602665181E+03  0.21602665186E+03  0.50400001928E-02 0. -1.
    10030    2    1    2    0    0  0.00000000000E+00  0.00000000000E+00  0.16161152689E+04  0.20481685726E+04  0.12582392218E+04 0.  0.
        1    1    3    3  502    0  0.22421656350E+03 -0.38591227901E+03  0.15298018875E+04  0.15935793577E+04  0.50400001928E-02 0.  1.
       -1    1    3    3    0  502 -0.22421656350E+03  0.38591227901E+03  0.86313381459E+02  0.45458921488E+03  0.50400001928E-02 0. -1.
</event>
<event>
 5   0  0.2356769E-03  0.1314578E+04  0.7818609E-02  0.9018084E-01
       -1   -1    0    0    0  501  0.00000000000E+00  0.00000000000E+00  0.64128710717E+03  0.64128710719E+03  0.50400001928E-02 0.  1.
        1   -1    0    0  501    0  0.00000000000E+00  0.00000000000E+00 -0.67368972660E+03  0.67368972662E+03  0.50400001928E-02 0. -1.
    10030    2    1    2    0    0  0.00000000000E+00  0.00000000000E+00 -0.32402619436E+02  0.13149768338E+04  0.13145775533E+04 0.  0.
        1    1    3    3  502    0  0.20065146412E+03  0.13641371436E+03 -0.62725412253E+03  0.67254549718E+03  0.50400001928E-02 0. -1.
       -1    1    3    3    0  502 -0.20065146412E+03 -0.13641371436E+03  0.59485150309E+03  0.64243133663E+03  0.50400001928E-02 0.  1.
</event>
<event>
 5   0  0.4310889E-03  0.1159140E+04  0.7818609E-02  0.9149393E-01
       -2   -1    0    0    0  501  0.00000000000E+00  0.00000000000E+00  0.28933062835E+03  0.28933062836E+03  0.25500000920E-02 0.  1.
        2   -1    0    0  501    0  0.00000000000E+00  0.00000000000E+00 -0.11609595851E+04  0.11609595851E+04  0.25500000920E-02 0. -1.
    10030    2    1    2    0    0  0.00000000000E+00  0.00000000000E+00 -0.87162895677E+03  0.14502902135E+04  0.11591396228E+04 0.  0.
        4    1    3    3  502    0 -0.32968830767E+03 -0.87897028169E+02  0.15034519129E+03  0.37286131097E+03  0.12699999809E+01 0.  1.
       -4    1    3    3    0  502  0.32968830767E+03  0.87897028169E+02 -0.10219741481E+04  0.10774289025E+04  0.12699999809E+01 0. -1.
</event>
<event>
 5   0  0.4310889E-03  0.1345486E+04  0.7818609E-02  0.8994252E-01
        2   -1    0    0  501    0  0.00000000000E+00  0.00000000000E+00  0.52573603564E+03  0.52573603564E+03  0.25500000920E-02 0. -1.
       -2   -1    0    0    0  501  0.00000000000E+00  0.00000000000E+00 -0.86085675507E+03  0.86085675508E+03  0.25500000920E-02 0.  1.
    10030    2    1    2    0    0  0.00000000000E+00  0.00000000000E+00 -0.33512071943E+03  0.13865927907E+04  0.13454864067E+04 0.  0.
        4    1    3    3  502    0  0.63078548890E+03  0.10000384544E+03  0.50299999226E+02  0.64064249386E+03  0.12699999809E+01 0. -1.
       -4    1    3    3    0  502 -0.63078548890E+03 -0.10000384544E+03 -0.38542071866E+03  0.74595029686E+03  0.12699999809E+01 0.  1.
</event>
<event>
 5   0  0.4453011E-03  0.1181503E+04  0.7818609E-02  0.9129203E-01
        2   -1    0    0  501    0  0.00000000000E+00  0.00000000000E+00  0.67924611623E+03  0.67924611624E+03  0.25500000920E-02 0. -1.
       -2   -1    0    0    0  501  0.00000000000E+00  0.00000000000E+00 -0.51378633251E+03  0.51378633252E+03  0.25500000920E-02 0.  1.
    10030    2    1    2    0    0  0.00000000000E+00  0.00000000000E+00  0.16545978372E+03  0.11930324488E+04  0.11815030613E+04 0.  0.
        1    1    3    3  502    0  0.17170297992E+03 -0.35681093966E+03  0.52540427659E+03  0.65791003478E+03  0.50400001928E-02 0. -1.
       -1    1    3    3    0  502 -0.17170297992E+03  0.35681093966E+03 -0.35994449286E+03  0.53512241398E+03  0.50400001928E-02 0.  1.
</event>
<event>
 5   0  0.4388937E-03  0.1275825E+04  0.7818609E-02  0.9048959E-01
       -2   -1    0    0    0  501  0.00000000000E+00  0.00000000000E+00  0.24937807115E+03  0.24937807116E+03  0.25500000920E-02 0. -1.
        2   -1    0    0  501    0  0.00000000000E+00  0.00000000000E+00 -0.16317899848E+04  0.16317899848E+04  0.25500000920E-02 0.  1.
    10030    2    1    2    0    0  0.00000000000E+00  0.00000000000E+00 -0.13824119136E+04  0.18811680559E+04  0.12758254409E+04 0.  0.
        5    1    3    3  502    0 -0.25098738319E+03  0.34642531213E+03 -0.13889057707E+04  0.14533019278E+04  0.46999998093E+01 0.  1.
       -5    1    3    3    0  502  0.25098738319E+03 -0.34642531213E+03  0.64938571289E+01  0.42786612811E+03  0.46999998093E+01 0. -1.
</event>
<event>
 5   0  0.2370801E-03  0.1312596E+04  0.7818609E-02  0.9019636E-01
        1   -1    0    0  501    0  0.00000000000E+00  0.00000000000E+00  0.96488663002E+03  0.96488663004E+03  0.50400001928E-02 0.  1.
       -1   -1    0    0    0  501  0.00000000000E+00  0.00000000000E+00 -0.44640158451E+03  0.44640158454E+03  0.50400001928E-02 0. -1.
    10030    2    1    2    0    0  0.00000000000E+00  0.00000000000E+00  0.51848504551E+03  0.14112882146E+04  0.13125957802E+04 0.  0.
        3    1    3    3  502    0  0.44149746455E+03 -0.36310472116E+03 -0.87431845523E+02  0.57828140861E+03  0.10100000352E+00 0. -1.
       -3    1    3    3    0  502 -0.44149746455E+03  0.36310472116E+03  0.60591689104E+03  0.83300680596E+03  0.10100000352E+00 0.  1.
</event>
<event>
 5   0  0.2356769E-03  0.1295182E+04  0.7818609E-02  0.9033394E-01
       -1   -1    0    0    0  501  0.00000000000E+00  0.00000000000E+00  0.35982967319E+03  0.35982967323E+03  0.50400001928E-02 0. -1.
        1   -1    0    0  501    0  0.00000000000E+00  0.00000000000E+00 -0.11654800658E+04  0.11654800658E+04  0.50400001928E-02 0.  1.
    10030    2    1    2    0    0  0.00000000000E+00  0.00000000000E+00 -0.80565039261E+03  0.15253097390E+04  0.12951823211E+04 0.  0.
        1    1    3    3  502    0 -0.20273564471E+03  0.12800188686E+03  0.30563308066E+03  0.38845566632E+03  0.50400001928E-02 0. -1.
       -1    1    3    3    0  502  0.20273564471E+03 -0.12800188686E+03 -0.11112834733E+04  0.11368540727E+04  0.50400001928E-02 0.  1.
</event>
<event>
 5   0  0.4263540E-03  0.1309875E+04  0.7818609E-02  0.9021770E-01
        2   -1    0    0  501    0  0.00000000000E+00  0.00000000000E+00  0.12283618155E+04  0.12283618155E+04  0.25500000920E-02 0.  1.
       -2   -1    0    0    0  501  0.00000000000E+00  0.00000000000E+00 -0.34919944312E+03  0.34919944312E+03  0.25500000920E-02 0. -1.
    10030    2    1    2    0    0  0.00000000000E+00  0.00000000000E+00  0.87916237243E+03  0.15775612587E+04  0.13098752031E+04 0.  0.
        2    1    3    3  502    0  0.50651567397E+03 -0.32054002351E+03  0.12175967854E+03  0.61166122484E+03  0.25500000920E-02 0. -1.
       -2    1    3    3    0  502 -0.50651567397E+03  0.32054002351E+03  0.75740269389E+03  0.96590003383E+03  0.25500000920E-02 0.  1.
</event>
<event>
 5   0  0.2458456E-03  0.1306658E+04  0.7818609E-02  0.9024302E-01
       -1   -1    0    0    0  501  0.00000000000E+00  0.00000000000E+00  0.49086594024E+03  0.49086594026E+03  0.50400001928E-02 0.  1.
        1   -1    0    0  501    0  0.00000000000E+00  0.00000000000E+00 -0.86956223580E+03  0.86956223582E+03  0.50400001928E-02 0. -1.
    10030    2    1    2    0    0  0.00000000000E+00  0.00000000000E+00 -0.37869629556E+03  0.13604281761E+04  0.13066575443E+04 0.  0.
        5    1    3    3  502    0  0.33941277201E+03  0.23161021537E+03 -0.71815878731E+03  0.82741673627E+03  0.46999998093E+01 0. -1.
       -5    1    3    3    0  502 -0.33941277201E+03 -0.23161021537E+03  0.33946249175E+03  0.53301143981E+03  0.46999998093E+01 0.  1.
</event>
<event>
 5   0  0.2356769E-03  0.1281617E+04  0.7818609E-02  0.9044272E-01
       -1   -1    0    0    0  501  0.00000000000E+00  0.00000000000E+00  0.30095591071E+03  0.30095591075E+03  0.50400001928E-02 0. -1.
        1   -1    0    0  501    0  0.00000000000E+00  0.00000000000E+00 -0.13644371903E+04  0.13644371903E+04  0.50400001928E-02 0.  1.
    10030    2    1    2    0    0  0.00000000000E+00  0.00000000000E+00 -0.10634812795E+04  0.16653931010E+04  0.12816168495E+04 0.  0.
        1    1    3    3  502    0  0.27937698988E+03  0.54716271910E+03 -0.29498121519E+03  0.68150749151E+03  0.50400001928E-02 0. -1.
       -1    1    3    3    0  502 -0.27937698988E+03 -0.54716271910E+03 -0.76850006436E+03  0.98388560951E+03  0.50400001928E-02 0.  1.
</event>
<event>
 5   0  0.2462055E-03  0.1190082E+04  0.7818609E-02  0.9121583E-01
       -1   -1    0    0    0  501  0.00000000000E+00  0.00000000000E+00  0.20611235165E+03  0.20611235171E+03  0.50400001928E-02 0.  1.
        1   -1    0    0  501    0  0.00000000000E+00  0.00000000000E+00 -0.17178671761E+04  0.17178671761E+04  0.50400001928E-02 0. -1.
    10030    2    1    2    0    0  0.00000000000E+00  0.00000000000E+00 -0.15117548244E+04  0.19239795278E+04  0.11900817511E+04 0.  0.
        2    1    3    3  502    0  0.42339787971E+03  0.26268616464E+03 -0.23001224722E+03  0.54879451484E+03  0.25500000920E-02 0.  1.
       -2    1    3    3    0  502 -0.42339787971E+03 -0.26268616464E+03 -0.12817425772E+04  0.13751850129E+04  0.25500000920E-02 0. -1.
</event>
<event>
 5   0  0.4263540E-03  0.1288351E+04  0.7818609E-02  0.9038854E-01
       -2   -1    0    0    0  501  0.00000000000E+00  0.00000000000E+00  0.42967651257E+03  0.42967651258E+03  0.25500000920E-02 0.  1.
        2   -1    0    0  501    0  0.00000000000E+00  0.00000000000E+00 -0.96575451080E+03  0.96575451080E+03  0.25500000920E-02 0. -1.
    10030    2    1    2    0    0  0.00000000000E+00  0.00000000000E+00 -0.53607799823E+03  0.13954310234E+04  0.12883509308E+04 0.  0.
        2    1    3    3  502    0 -0.10901418757E+03 -0.16581560657E+03  0.39574569217E+03  0.44271160065E+03  0.25500000920E-02 0.  1.
       -2    1    3    3    0  502  0.10901418757E+03  0.16581560657E+03 -0.93182369039E+03  0.95271942273E+03  0.25500000920E-02 0. -1.
</event>
<event>
 5   0  0.4306214E-03  0.1087973E+04  0.7818609E-02  0.9216994E-01
       -2   -1    0    0    0  501  0.00000000000E+00  0.00000000000E+00  0.97861753251E+03  0.97861753251E+03  0.25500000920E-02 0.  1.
        2   -1    0    0  501    0  0.00000000000E+00  0.00000000000E+00 -0.30238731019E+03  0.30238731020E+03  0.25500000920E-02 0. -1.
    10030    2    1    2    0    0  0.00000000000E+00  0.00000000000E+00  0.67623022231E+03  0.12810048427E+04  0.10879733882E+04 0.  0.
        3    1    3    3  502    0 -0.27669170558E+03 -0.51512458682E+02  0.88623006922E+03  0.92984707298E+03  0.10100000352E+00 0.  1.
       -3    1    3    3    0  502  0.27669170558E+03  0.51512458682E+02 -0.20999984691E+03  0.35115776973E+03  0.10100000352E+00 0. -1.
</event>
<event>
 5   0  0.2458456E-03  0.1298545E+04  0.7818609E-02  0.9030720E-01
       -1   -1    0    0    0  501  0.00000000000E+00  0.00000000000E+00  0.30360182831E+03  0.30360182835E+03  0.50400001928E-02 0.  1.
        1   -1    0    0  501    0  0.00000000000E+00  0.00000000000E+00 -0.13885119261E+04  0.13885119262E+04  0.50400001928E-02 0. -1.
    10030    2    1    2    0    0  0.00000000000E+00  0.00000000000E+00 -0.10849100978E+04  0.16921137545E+04  0.12985449695E+04 0.  0.
        5    1    3    3  502    0  0.43773294392E+03 -0.32522221897E+03 -0.83308574612E+02  0.55167203166E+03  0.46999998093E+01 0.  1.
       -5    1    3    3    0  502 -0.43773294392E+03  0.32522221897E+03 -0.10016015232E+04  0.11404417229E+04  0.46999998093E+01 0. -1.
</event>
<event>
 5   0  0.2356769E-03  0.1056233E+04  0.7818609E-02  0.9248933E-01
       -1   -1    0    0    0  501  0.00000000000E+00  0.00000000000E+00  0.60416607173E+03  0.60416607175E+03  0.50400001928E-02 0. -1.
        1   -1    0    0  501    0  0.00000000000E+00  0.00000000000E+00 -0.46163946997E+03  0.46163947000E+03  0.50400001928E-02 0.  1.
    10030    2    1    2    0    0  0.00000000000E+00  0.00000000000E+00  0.14252660176E+03  0.10658055418E+04  0.10562327493E+04 0.  0.
        1    1    3    3  502    0  0.41322875191E+03 -0.42100661318E+02 -0.25784669050E+03  0.48889199514E+03  0.50400001928E-02 0. -1.
       -1    1    3    3    0  502 -0.41322875191E+03  0.42100661318E+02  0.40037329225E+03  0.57691354661E+03  0.50400001928E-02 0.  1.
</event>
<event>
 5   0  0.2370801E-03  0.1291973E+04  0.7818609E-02  0.9035955E-01
       -1   -1    0    0    0  501  0.00000000000E+00  0.00000000000E+00  0.17961095401E+03  0.17961095408E+03  0.50400001928E-02 0. -1.
        1   -1    0    0  501    0  0.00000000000E+00  0.00000000000E+00 -0.23233458381E+04  0.23233458381E+04  0.50400001928E-02 0.  1.
    10030    2    1    2    0    0  0.00000000000E+00  0.00000000000E+00 -0.21437348841E+04  0.25029567922E+04  0.12919726972E+04 0.  0.
        3    1    3    3  502    0  0.44948401774E+03  0.22413825710E+03 -0.18588665589E+04  0.19255281703E+04  0.10100000352E+00 0.  1.
       -3    1    3    3    0  502 -0.44948401774E+03 -0.22413825710E+03 -0.28486832515E+03  0.57742862188E+03  0.10100000352E+00 0. -1.
</event>
<event>
 5   0  0.4388937E-03  0.1309691E+04  0.7818609E-02  0.9021915E-01
       -2   -1    0    0    0  501  0.00000000000E+00  0.00000000000E+00  0.95587338333E+03  0.95587338333E+03  0.25500000920E-02 0.  1.
        2   -1    0    0  501    0  0.00000000000E+00  0.00000000000E+00 -0.44861856892E+03  0.44861856892E+03  0.25500000920E-02 0. -1.
    10030    2    1    2    0    0  0.00000000000E+00  0.00000000000E+00  0.50725481441E+03  0.14044919523E+04  0.13096908785E+04 0.  0.
        5    1    3    3  502    0 -0.46398337515E+03 -0.42775890349E+03  0.66213997095E+02  0.63455861458E+03  0.46999998093E+01 0. -1.
       -5    1    3    3    0  502  0.46398337515E+03  0.42775890349E+03  0.44104081732E+03  0.76993333768E+03  0.46999998093E+01 0.  1.
</event>
<event>
 5   0  0.2458456E-03  0.1126478E+04  0.7818609E-02  0.9179762E-01
       -1   -1    0    0    0  501  0.00000000000E+00  0.00000000000E+00  0.32572670897E+03  0.32572670901E+03  0.50400001928E-02 0.  1.
        1   -1    0    0  501    0  0.00000000000E+00  0.00000000000E+00 -0.97393940788E+03  0.97393940789E+03  0.50400001928E-02 0. -1.
    10030    2    1    2    0    0  0.00000000000E+00  0.00000000000E+00 -0.64821269891E+03  0.12996661169E+04  0.11264778348E+04 0.  0.
        5    1    3    3  502    0  0.36174464088E+03 -0.19235806183E+03 -0.76998768087E+03  0.87221782133E+03  0.46999998093E+01 0. -1.
       -5    1    3    3    0  502 -0.36174464088E+03  0.19235806183E+03  0.12177498196E+03  0.42744829557E+03  0.46999998093E+01 0.  1.
</event>
<event>
 5   0  0.4263540E-03  0.1432830E+04  0.7818609E-02  0.8930391E-01
        2   -1    0    0  501    0  0.00000000000E+00  0.00000000000E+00  0.69575560653E+03  0.69575560653E+03  0.25500000920E-02 0. -1.
       -2   -1    0    0    0  501  0.00000000000E+00  0.00000000000E+00 -0.73768823260E+03  0.73768823260E+03  0.25500000920E-02 0.  1.
    10030    2    1    2    0    0  0.00000000000E+00  0.00000000000E+00 -0.41932626069E+02  0.14334438391E+04  0.14328303789E+04 0.  0.
        2    1    3    3  502    0 -0.30563748036E+03 -0.38201336205E+03 -0.54454709560E+03  0.73203826233E+03  0.25500000920E-02 0.  1.
       -2    1    3    3    0  502  0.30563748036E+03  0.38201336205E+03  0.50261446953E+03  0.70140557680E+03  0.25500000920E-02 0. -1.
</event>
<event>
 5   0  0.4263540E-03  0.1279463E+04  0.7818609E-02  0.9046011E-01
        2   -1    0    0  501    0  0.00000000000E+00  0.00000000000E+00  0.68451921175E+03  0.68451921176E+03  0.25500000920E-02 0. -1.
       -2   -1    0    0    0  501  0.00000000000E+00  0.00000000000E+00 -0.59787435352E+03  0.59787435352E+03  0.25500000920E-02 0.  1.
    10030    2    1    2    0    0  0.00000000000E+00  0.00000000000E+00  0.86644858234E+02  0.12823935653E+04  0.12794631393E+04 0.  0.
        2    1    3    3  502    0 -0.27981243099E+03  0.17222817934E+03 -0.50684180369E+03  0.60402496328E+03  0.25500000920E-02 0.  1.
       -2    1    3    3    0  502  0.27981243099E+03 -0.17222817934E+03  0.59348666192E+03  0.67836860200E+03  0.25500000920E-02 0. -1.
</event>
<event>
 5   0  0.4388937E-03  0.1354479E+04  0.7818609E-02  0.8987445E-01
        2   -1    0    0  501    0  0.00000000000E+00  0.00000000000E+00  0.11359910381E+04  0.11359910381E+04  0.25500000920E-02 0. -1.
       -2   -1    0    0    0  501  0.00000000000E+00  0.00000000000E+00 -0.40374720340E+03  0.40374720341E+03  0.25500000920E-02 0.  1.
    10030    2    1    2    0    0  0.00000000000E+00  0.00000000000E+00  0.73224383471E+03  0.15397382415E+04  0.13544787997E+04 0.  0.
        5    1    3    3  502    0 -0.12400372973E+03  0.64084165293E+03  0.57129702336E+03  0.86744298257E+03  0.46999998093E+01 0. -1.
       -5    1    3    3    0  502  0.12400372973E+03 -0.64084165293E+03  0.16094681136E+03  0.67229525895E+03  0.46999998093E+01 0.  1.
</event>
<event>
 5   0  0.4453011E-03  0.1282833E+04  0.7818609E-02  0.9043290E-01
        2   -1    0    0  501    0  0.00000000000E+00  0.00000000000E+00  0.66341046350E+03  0.66341046350E+03  0.25500000920E-02 0.  1.
       -2   -1    0    0    0  501  0.00000000000E+00  0.00000000000E+00 -0.62015193015E+03  0.62015193015E+03  0.25500000920E-02 0. -1.
    10030    2    1    2    0    0  0.00000000000E+00  0.00000000000E+00  0.43258533353E+02  0.12835623937E+04  0.12828332385E+04 0.  0.
        1    1    3    3  502    0 -0.39973140759E+03 -0.49267324163E+03  0.11603944651E+03  0.64496300235E+03  0.50400001928E-02 0.  1.
       -1    1    3    3    0  502  0.39973140759E+03  0.49267324163E+03 -0.72780913154E+02  0.63859939131E+03  0.50400001928E-02 0. -1.
</event>
<event>
 5   0  0.4263540E-03  0.1277085E+04  0.7818609E-02  0.9047937E-01
        2   -1    0    0  501    0  0.00000000000E+00  0.00000000000E+00  0.62078093731E+03  0.62078093732E+03  0.25500000920E-02 0.  1.
       -2   -1    0    0    0  501  0.00000000000E+00  0.00000000000E+00 -0.65681187242E+03  0.65681187242E+03  0.25500000920E-02 0. -1.
    10030    2    1    2    0    0  0.00000000000E+00  0.00000000000E+00 -0.36030935103E+02  0.12775928097E+04  0.12770846328E+04 0.  0.
        2    1    3    3  502    0  0.45875881259E+03 -0.14118671011E+03  0.40327317354E+03  0.62691513600E+03  0.25500000920E-02 0.  1.
       -2    1    3    3    0  502 -0.45875881259E+03  0.14118671011E+03 -0.43930410864E+03  0.65067767375E+03  0.25500000920E-02 0. -1.
</event>
<event>
 5   0  0.4453011E-03  0.1188630E+04  0.7818609E-02  0.9122868E-01
       -2   -1    0    0    0  501  0.00000000000E+00  0.00000000000E+00  0.33216353122E+03  0.33216353123E+03  0.25500000920E-02 0. -1.
        2   -1    0    0  501    0  0.00000000000E+00  0.00000000000E+00 -0.10633618928E+04  0.10633618928E+04  0.25500000920E-02 0.  1.
    10030    2    1    2    0    0  0.00000000000E+00  0.00000000000E+00 -0.73119836155E+03  0.13955254240E+04  0.11886295323E+04 0.  0.
        1    1    3    3  502    0 -0.27730900923E+03  0.68645643219E+02  0.24626375312E+03  0.37717150881E+03  0.50400001928E-02 0. -1.
       -1    1    3    3    0  502  0.27730900923E+03 -0.68645643219E+02 -0.97746211467E+03  0.10183539152E+04  0.50400001928E-02 0.  1.
</event>
<event>
 5   0  0.2511542E-03  0.1292274E+04  0.7818609E-02  0.9035715E-01
       -1   -1    0    0    0  501  0.00000000000E+00  0.00000000000E+00  0.59692827550E+03  0.59692827552E+03  0.50400001928E-02 0.  1.
        1   -1    0    0  501    0  0.00000000000E+00  0.00000000000E+00 -0.69940179523E+03  0.69940179524E+03  0.50400001928E-02 0. -1.
    10030    2    1    2    0    0  0.00000000000E+00  0.00000000000E+00 -0.10247351972E+03  0.12963300708E+04  0.12922735121E+04 0.  0.
        4    1    3    3  502    0 -0.63931349307E+03  0.36625341586E+02 -0.13769278126E+03  0.65499929235E+03  0.12699999809E+01 0. -1.
       -4    1    3    3    0  502  0.63931349307E+03 -0.36625341586E+02  0.35219261535E+02  0.64133077842E+03  0.12699999809E+01 0.  1.
</event>
<event>
 5   0  0.2511542E-03  0.1319774E+04  0.7818609E-02  0.9014029E-01
        1   -1    0    0  501    0  0.00000000000E+00  0.00000000000E+00  0.13093704977E+04  0.13093704977E+04  0.50400001928E-02 0.  1.
       -1   -1    0    0    0  501  0.00000000000E+00  0.00000000000E+00 -0.33256509474E+03  0.33256509478E+03  0.50400001928E-02 0. -1.
    10030    2    1    2    0    0  0.00000000000E+00  0.00000000000E+00  0.97680540295E+03  0.16419355925E+04  0.13197741074E+04 0.  0.
        4    1    3    3  502    0 -0.56934005507E+03 -0.19366084233E+03  0.15043518786E+03  0.61990723404E+03  0.12699999809E+01 0. -1.
       -4    1    3    3    0  502  0.56934005507E+03  0.19366084233E+03  0.82637021509E+03  0.10220283584E+04  0.12699999809E+01 0.  1.
</event>
<event>
 5   0  0.2511542E-03  0.1292364E+04  0.7818609E-02  0.9035643E-01
        1   -1    0    0  501    0  0.00000000000E+00  0.00000000000E+00  0.83970046076E+03  0.83970046078E+03  0.50400001928E-02 0. -1.
       -1   -1    0    0    0  501  0.00000000000E+00  0.00000000000E+00 -0.49726169004E+03  0.49726169006E+03  0.50400001928E-02 0.  1.
    10030    2    1    2    0    0  0.00000000000E+00  0.00000000000E+00  0.34243877073E+03  0.13369621508E+04  0.12923635251E+04 0.  0.
        4    1    3    3  502    0  0.37546037690E+03 -0.49368883827E+03 -0.16281242711E+02  0.62045616720E+03  0.12699999809E+01 0. -1.
       -4    1    3    3    0  502 -0.37546037690E+03  0.49368883827E+03  0.35872001344E+03  0.71650598364E+03  0.12699999809E+01 0.  1.
</event>
<event>
 5   0  0.4310889E-03  0.1329255E+04  0.7818609E-02  0.9006682E-01
        2   -1    0    0  501    0  0.00000000000E+00  0.00000000000E+00  0.22600707077E+04  0.22600707077E+04  0.25500000920E-02 0. -1.
       -2   -1    0    0    0  501  0.00000000000E+00  0.00000000000E+00 -0.19544961342E+03  0.19544961343E+03  0.25500000920E-02 0.  1.
    10030    2    1    2    0    0  0.00000000000E+00  0.00000000000E+00  0.20646210943E+04  0.24555203212E+04  0.13292553497E+04 0.  0.
        4    1    3    3  502    0  0.59050474504E+03  0.18932562898E+03  0.14740728510E+04  0.15991974333E+04  0.12699999809E+01 0. -1.
       -4    1    3    3    0  502 -0.59050474504E+03 -0.18932562898E+03  0.59054824331E+03  0.85632288786E+03  0.12699999809E+01 0.  1.
</event>
<event>
 5   0  0.2458456E-03  0.7518992E+03  0.7818609E-02  0.9632375E-01
       -1   -1    0    0    0  501  0.00000000000E+00  0.00000000000E+00  0.31961182650E+03  0.31961182654E+03  0.50400001928E-02 0.  1.
        1   -1    0    0  501    0  0.00000000000E+00  0.00000000000E+00 -0.44221803361E+03  0.44221803364E+03  0.50400001928E-02 0. -1.
    10030    2    1    2    0    0  0.00000000000E+00  0.00000000000E+00 -0.12260620711E+03  0.76182986018E+03  0.75189923117E+03 0.  0.
        5    1    3    3  502    0  0.12710733354E+03  0.35212698892E+03 -0.95905773712E+02  0.38648376162E+03  0.46999998093E+01 0. -1.
       -5    1    3    3    0  502 -0.12710733354E+03 -0.35212698892E+03 -0.26700433399E+02  0.37534609856E+03  0.46999998093E+01 0.  1.
</event>
<event>
 5   0  0.2462055E-03  0.1226940E+04  0.7818609E-02  0.9089597E-01
        1   -1    0    0  501    0  0.00000000000E+00  0.00000000000E+00  0.13673579055E+04  0.13673579055E+04  0.50400001928E-02 0. -1.
       -1   -1    0    0    0  501  0.00000000000E+00  0.00000000000E+00 -0.27523572601E+03  0.27523572606E+03  0.50400001928E-02 0.  1.
    10030    2    1    2    0    0  0.00000000000E+00  0.00000000000E+00  0.10921221795E+04  0.16425936316E+04  0.12269404971E+04 0.  0.
        2    1    3    3  502    0 -0.38057793953E+02 -0.26858930776E+03  0.12826985938E+04  0.13110699045E+04  0.25500000920E-02 0. -1.
       -2    1    3    3    0  502  0.38057793953E+02  0.26858930776E+03 -0.19057641430E+03  0.33152372708E+03  0.25500000920E-02 0.  1.
</event>
<event>
 5   0  0.2511542E-03  0.1302409E+04  0.7818609E-02  0.9027657E-01
       -1   -1    0    0    0  501  0.00000000000E+00  0.00000000000E+00  0.85082064945E+03  0.85082064947E+03  0.50400001928E-02 0.  1.
        1   -1    0    0  501    0  0.00000000000E+00  0.00000000000E+00 -0.49842138820E+03  0.49842138823E+03  0.50400001928E-02 0. -1.
    10030    2    1    2    0    0  0.00000000000E+00  0.00000000000E+00  0.35239926125E+03  0.13492420377E+04  0.13024088594E+04 0.  0.
        4    1    3    3  502    0 -0.37268018681E+03 -0.21199300897E+03  0.68396116008E+03  0.80723976543E+03  0.12699999809E+01 0.  1.
       -4    1    3    3    0  502  0.37268018681E+03  0.21199300897E+03 -0.33156189883E+03  0.54200227227E+03  0.12699999809E+01 0. -1.
</event>
<event>
 5   0  0.2511542E-03  0.1311008E+04  0.7818609E-02  0.9020881E-01
        1   -1    0    0  501    0  0.00000000000E+00  0.00000000000E+00  0.14668615900E+04  0.14668615900E+04  0.50400001928E-02 0.  1.
       -1   -1    0    0    0  501  0.00000000000E+00  0.00000000000E+00 -0.29292848324E+03  0.29292848329E+03  0.50400001928E-02 0. -1.
    10030    2    1    2    0    0  0.00000000000E+00  0.00000000000E+00  0.11739331068E+04  0.17597900733E+04  0.13110080713E+04 0.  0.
        4    1    3    3  502    0 -0.17563534595E+03 -0.59848580859E+03  0.85760564514E+03  0.10604348605E+04  0.12699999809E+01 0. -1.
       -4    1    3    3    0  502  0.17563534595E+03  0.59848580859E+03  0.31632746161E+03  0.69935521282E+03  0.12699999809E+01 0.  1.
</event>
<event>
 5   0  0.4306214E-03  0.1220057E+04  0.7818609E-02  0.9095479E-01
        2   -1    0    0  501    0  0.00000000000E+00  0.00000000000E+00  0.78097769184E+03  0.78097769185E+03  0.25500000920E-02 0.  1.
       -2   -1    0    0    0  501  0.00000000000E+00  0.00000000000E+00 -0.47649892410E+03  0.47649892411E+03  0.25500000920E-02 0. -1.
    10030    2    1    2    0    0  0.00000000000E+00  0.00000000000E+00  0.30447876774E+03  0.12574766160E+04  0.12200574247E+04 0.  0.
        3    1    3    3  502    0 -0.18481411823E+03  0.57825451681E+03  0.90395100944E+02  0.61376365889E+03  0.10100000352E+00 0.  1.
       -3    1    3    3    0  502  0.18481411823E+03 -0.57825451681E+03  0.21408366679E+03  0.64371295706E+03  0.10100000352E+00 0. -1.
</event>
<event>
 5   0  0.2462055E-03  0.1300433E+04  0.7818609E-02  0.9029222E-01
       -1   -1    0    0    0  501  0.00000000000E+00  0.00000000000E+00  0.23699503567E+03  0.23699503572E+03  0.50400001928E-02 0. -1.
        1   -1    0    0  501    0  0.00000000000E+00  0.00000000000E+00 -0.17839255888E+04  0.17839255888E+04  0.50400001928E-02 0.  1.
    10030    2    1    2    0    0  0.00000000000E+00  0.00000000000E+00 -0.15469305531E+04  0.20209206245E+04  0.13004330180E+04 0.  0.
        2    1    3    3  502    0  0.43926257409E+03  0.47661763771E+03 -0.69323231675E+03  0.94904532376E+03  0.25500000920E-02 0. -1.
       -2    1    3    3    0  502 -0.43926257409E+03 -0.47661763771E+03 -0.85369823639E+03  0.10718753008E+04  0.25500000920E-02 0.  1.
</event>
<event>
 5   0  0.4306214E-03  0.1283798E+04  0.7818609E-02  0.9042513E-01
       -2   -1    0    0    0  501  0.00000000000E+00  0.00000000000E+00  0.31547089344E+03  0.31547089345E+03  0.25500000920E-02 0. -1.
        2   -1    0    0  501    0  0.00000000000E+00  0.00000000000E+00 -0.13060919953E+04  0.13060919953E+04  0.25500000920E-02 0.  1.
    10030    2    1    2    0    0  0.00000000000E+00  0.00000000000E+00 -0.99062110181E+03  0.16215628887E+04  0.12837975053E+04 0.  0.
        3    1    3    3  502    0  0.38124530138E+03 -0.50987736853E+03 -0.39183595800E+03  0.74756828380E+03  0.10100000352E+00 0. -1.
       -3    1    3    3    0  502 -0.38124530138E+03  0.50987736853E+03 -0.59878514381E+03  0.87399460491E+03  0.10100000352E+00 0.  1.
</event>
<event>
 5   0  0.2458456E-03  0.1311454E+04  0.7818609E-02  0.9020531E-01
        1   -1    0    0  501    0  0.00000000000E+00  0.00000000000E+00  0.62153710040E+03  0.62153710042E+03  0.50400001928E-02 0. -1.
       -1   -1    0    0    0  501  0.00000000000E+00  0.00000000000E+00 -0.69179746279E+03  0.69179746281E+03  0.50400001928E-02 0.  1.
    10030    2    1    2    0    0  0.00000000000E+00  0.00000000000E+00 -0.70260362390E+02  0.13133345632E+04  0.13114538331E+04 0.  0.
        5    1    3    3  502    0 -0.29865816564E+02 -0.57892141951E+03 -0.34202311842E+03  0.67308534415E+03  0.46999998093E+01 0. -1.
       -5    1    3    3    0  502  0.29865816564E+02  0.57892141951E+03  0.27176275603E+03  0.64024921908E+03  0.46999998093E+01 0.  1.
</event>
<event>
 5   0  0.4306214E-03  0.1286745E+04  0.7818609E-02  0.9040143E-01
       -2   -1    0    0    0  501  0.00000000000E+00  0.00000000000E+00  0.58829744758E+03  0.58829744759E+03  0.25500000920E-02 0.  1.
        2   -1    0    0  501    0  0.00000000000E+00  0.00000000000E+00 -0.70360358835E+03  0.70360358836E+03  0.25500000920E-02 0. -1.
    10030    2    1    2    0    0  0.00000000000E+00  0.00000000000E+00 -0.11530614077E+03  0.12919010359E+04  0.12867450332E+04 0.  0.
        3    1    3    3  502    0  0.25467704574E+03 -0.57468897881E+03  0.80010771600E+02  0.63366359668E+03  0.10100000352E+00 0.  1.
       -3    1    3    3    0  502 -0.25467704574E+03  0.57468897881E+03 -0.19531691237E+03  0.65823743926E+03  0.10100000352E+00 0. -1.
</event>
<event>
 5   0  0.2356769E-03  0.1269847E+04  0.7818609E-02  0.9053824E-01
        1   -1    0    0  501    0  0.00000000000E+00  0.00000000000E+00  0.39311483929E+03  0.39311483932E+03  0.50400001928E-02 0.  1.
       -1   -1    0    0    0  501  0.00000000000E+00  0.00000000000E+00 -0.10254712440E+04  0.10254712440E+04  0.50400001928E-02 0. -1.
    10030    2    1    2    0    0  0.00000000000E+00  0.00000000000E+00 -0.63235640468E+03  0.14185860833E+04  0.12698471771E+04 0.  0.
        1    1    3    3  502    0  0.51920278840E+03 -0.15523242598E+03  0.53420649536E+02  0.54453871063E+03  0.50400001928E-02 0.  1.
       -1    1    3    3    0  502 -0.51920278840E+03  0.15523242598E+03 -0.68577705422E+03  0.87404737267E+03  0.50400001928E-02 0. -1.
</event>
<event>
 5   0  0.2458456E-03  0.1304204E+04  0.7818609E-02  0.9026238E-01
       -1   -1    0    0    0  501  0.00000000000E+00  0.00000000000E+00  0.20229732227E+03  0.20229732233E+03  0.50400001928E-02 0.  1.
        1   -1    0    0  501    0  0.00000000000E+00  0.00000000000E+00 -0.21020401389E+04  0.21020401389E+04  0.50400001928E-02 0. -1.
    10030    2    1    2    0    0  0.00000000000E+00  0.00000000000E+00 -0.18997428166E+04  0.23043374612E+04  0.13042041121E+04 0.  0.
        5    1    3    3  502    0 -0.16622026996E+03 -0.49825474905E+03 -0.16326362987E+04  0.17150540362E+04  0.46999998093E+01 0. -1.
       -5    1    3    3    0  502  0.16622026996E+03  0.49825474905E+03 -0.26710651783E+03  0.58928342499E+03  0.46999998093E+01 0.  1.
</event>
<event>
 5   0  0.4388937E-03  0.8156561E+03  0.7818609E-02  0.9537628E-01
       -2   -1    0    0    0  501  0.00000000000E+00  0.00000000000E+00  0.42057214776E+03  0.42057214777E+03  0.25500000920E-02 0.  1.
        2   -1    0    0  501    0  0.00000000000E+00  0.00000000000E+00 -0.39547012570E+03  0.39547012571E+03  0.25500000920E-02 0. -1.
    10030    2    1    2    0    0  0.00000000000E+00  0.00000000000E+00  0.25102022058E+02  0.81604227348E+03  0.81565610437E+03 0.  0.
        5    1    3    3  502    0 -0.30157888894E+03  0.13193332589E+03  0.25338348899E+03  0.41542930954E+03  0.46999998093E+01 0.  1.
       -5    1    3    3    0  502  0.30157888894E+03 -0.13193332589E+03 -0.22828146693E+03  0.40061296394E+03  0.46999998093E+01 0. -1.
</event>
<event>
 5   0  0.2356769E-03  0.1299153E+04  0.7818609E-02  0.9030237E-01
       -1   -1    0    0    0  501  0.00000000000E+00  0.00000000000E+00  0.61214786754E+03  0.61214786757E+03  0.50400001928E-02 0. -1.
        1   -1    0    0  501    0  0.00000000000E+00  0.00000000000E+00 -0.68929331627E+03  0.68929331629E+03  0.50400001928E-02 0.  1.
    10030    2    1    2    0    0  0.00000000000E+00  0.00000000000E+00 -0.77145448730E+02  0.13014411839E+04  0.12991526988E+04 0.  0.
        1    1    3    3  502    0  0.15583104601E+03 -0.44737831171E+03 -0.48378643133E+03  0.67711149736E+03  0.50400001928E-02 0.  1.
       -1    1    3    3    0  502 -0.15583104601E+03  0.44737831171E+03  0.40664098260E+03  0.62432968650E+03  0.50400001928E-02 0. -1.
</event>
<event>
 5   0  0.2462055E-03  0.1288465E+04  0.7818609E-02  0.9038763E-01
        1   -1    0    0  501    0  0.00000000000E+00  0.00000000000E+00  0.36703787043E+03  0.36703787046E+03  0.50400001928E-02 0. -1.
       -1   -1    0    0    0  501  0.00000000000E+00  0.00000000000E+00 -0.11307709932E+04  0.11307709932E+04  0.50400001928E-02 0.  1.
    10030    2    1    2    0    0  0.00000000000E+00  0.00000000000E+00 -0.76373312279E+03  0.14978088637E+04  0.12884654087E+04 0.  0.
        2    1    3    3  502    0  0.12088034617E+03  0.74465088650E+02  0.34862544896E+03  0.37642636888E+03  0.25500000920E-02 0. -1.
       -2    1    3    3    0  502 -0.12088034617E+03 -0.74465088650E+02 -0.11123585717E+04  0.11213824948E+04  0.25500000920E-02 0.  1.
</event>
<event>
 5   0  0.4263540E-03  0.1210809E+04  0.7818609E-02  0.9103448E-01
       -2   -1    0    0    0  501  0.00000000000E+00  0.00000000000E+00  0.10628409468E+04  0.10628409468E+04  0.25500000920E-02 0.  1.
        2   -1    0    0  501    0  0.00000000000E+00  0.00000000000E+00 -0.34484418887E+03  0.34484418888E+03  0.25500000920E-02 0. -1.
    10030    2    1    2    0    0  0.00000000000E+00  0.00000000000E+00  0.71799675793E+03  0.14076851357E+04  0.12108088606E+04 0.  0.
        2    1    3    3  502    0  0.20879999940E+03 -0.39707995290E+03 -0.11360145687E+03  0.46279068676E+03  0.25500000920E-02 0. -1.
       -2    1    3    3    0  502 -0.20879999940E+03  0.39707995290E+03  0.83159821479E+03  0.94489444892E+03  0.25500000920E-02 0.  1.
</event>
<event>
 5   0  0.4263540E-03  0.1352822E+04  0.7818609E-02  0.8988694E-01
        2   -1    0    0  501    0  0.00000000000E+00  0.00000000000E+00  0.14206181765E+04  0.14206181765E+04  0.25500000920E-02 0.  1.
       -2   -1    0    0    0  501  0.00000000000E+00  0.00000000000E+00 -0.32206554855E+03  0.32206554856E+03  0.25500000920E-02 0. -1.
    10030    2    1    2    0    0  0.00000000000E+00  0.00000000000E+00  0.10985526280E+04  0.17426837251E+04  0.13528224899E+04 0.  0.
        2    1    3    3  502    0  0.30712104651E+03 -0.19022636992E+03  0.12859357442E+04  0.13357170910E+04  0.25500000920E-02 0.  1.
       -2    1    3    3    0  502 -0.30712104651E+03  0.19022636992E+03 -0.18738311620E+03  0.40696663409E+03  0.25500000920E-02 0. -1.
</event>
<event>
 5   0  0.4310889E-03  0.1315215E+04  0.7818609E-02  0.9017586E-01
       -2   -1    0    0    0  501  0.00000000000E+00  0.00000000000E+00  0.51041421725E+03  0.51041421725E+03  0.25500000920E-02 0.  1.
        2   -1    0    0  501    0  0.00000000000E+00  0.00000000000E+00 -0.84724873025E+03  0.84724873025E+03  0.25500000920E-02 0. -1.
    10030    2    1    2    0    0  0.00000000000E+00  0.00000000000E+00 -0.33683451300E+03  0.13576629475E+04  0.13152152637E+04 0.  0.
        4    1    3    3  502    0  0.48320420271E+03  0.32182910974E+03 -0.48723114511E+03  0.75792880870E+03  0.12699999809E+01 0. -1.
       -4    1    3    3    0  502 -0.48320420271E+03 -0.32182910974E+03  0.15039663211E+03  0.59973413880E+03  0.12699999809E+01 0.  1.
</event>
<event>
 5   0  0.4453011E-03  0.1189260E+04  0.7818609E-02  0.9122309E-01
        2   -1    0    0  501    0  0.00000000000E+00  0.00000000000E+00  0.66776548983E+03  0.66776548984E+03  0.25500000920E-02 0. -1.
       -2   -1    0    0    0  501  0.00000000000E+00  0.00000000000E+00 -0.52950483474E+03  0.52950483475E+03  0.25500000920E-02 0.  1.
    10030    2    1    2    0    0  0.00000000000E+00  0.00000000000E+00  0.13826065509E+03  0.11972703246E+04  0.11892603674E+04 0.  0.
        1    1    3    3  502    0  0.42071098570E+03 -0.34899990655E+03 -0.16651107710E+03  0.57142331689E+03  0.50400001928E-02 0.  1.
       -1    1    3    3    0  502 -0.42071098570E+03  0.34899990655E+03  0.30477173219E+03  0.62584700769E+03  0.50400001928E-02 0. -1.
</event>
<event>
 5   0  0.1661750E-03  0.1253151E+04  0.7818609E-02  0.9067565E-01
        4   -1    0    0  501    0  0.00000000000E+00  0.00000000000E+00  0.33505353864E+03  0.33505594556E+03  0.12699999809E+01 0.  1.
       -4   -1    0    0    0  501  0.00000000000E+00  0.00000000000E+00 -0.11717370879E+04  0.11717377762E+04  0.12699999809E+01 0. -1.
    10030    2    1    2    0    0  0.00000000000E+00  0.00000000000E+00 -0.83668354931E+03  0.15067937218E+04  0.12531512112E+04 0.  0.
        2    1    3    3  502    0  0.21893281458E+03  0.57150445857E+03 -0.25680713764E+03  0.66370085838E+03  0.25500000920E-02 0.  1.
       -2    1    3    3    0  502 -0.21893281458E+03 -0.57150445857E+03 -0.57987641167E+03  0.84309286338E+03  0.25500000920E-02 0. -1.
</event>
<event>
 5   0  0.4263540E-03  0.1366359E+04  0.7818609E-02  0.8978536E-01
        2   -1    0    0  501    0  0.00000000000E+00  0.00000000000E+00  0.69351793583E+03  0.69351793583E+03  0.25500000920E-02 0.  1.
       -2   -1    0    0    0  501  0.00000000000E+00  0.00000000000E+00 -0.67299479034E+03  0.67299479034E+03  0.25500000920E-02 0. -1.
    10030    2    1    2    0    0  0.00000000000E+00  0.00000000000E+00  0.20523145491E+02  0.13665127262E+04  0.13663586027E+04 0.  0.
        2    1    3    3  502    0 -0.59060880962E+03  0.27298480689E+03  0.21859850481E+03  0.68638529785E+03  0.25500000920E-02 0.  1.
       -2    1    3    3    0  502  0.59060880962E+03 -0.27298480689E+03 -0.19807535932E+03  0.68012742833E+03  0.25500000920E-02 0. -1.
</event>
<event>
 5   0  0.4306214E-03  0.1288190E+04  0.7818609E-02  0.9038984E-01
       -2   -1    0    0    0  501  0.00000000000E+00  0.00000000000E+00  0.46903068803E+03  0.46903068804E+03  0.25500000920E-02 0.  1.
        2   -1    0    0  501    0  0.00000000000E+00  0.00000000000E+00 -0.88450130371E+03  0.88450130371E+03  0.25500000920E-02 0. -1.
    10030    2    1    2    0    0  0.00000000000E+00  0.00000000000E+00 -0.41547061568E+03  0.13535319918E+04  0.12881898231E+04 0.  0.
        3    1    3    3  502    0 -0.57261086283E+02  0.63057022570E+03 -0.83587014238E+02  0.63865831295E+03  0.10100000352E+00 0.  1.
       -3    1    3    3    0  502  0.57261086283E+02 -0.63057022570E+03 -0.33188360144E+03  0.71487367881E+03  0.10100000352E+00 0. -1.
</event>
<event>
 5   0  0.1661750E-03  0.1289738E+04  0.7818609E-02  0.9037743E-01
        3   -1    0    0  501    0  0.00000000000E+00  0.00000000000E+00  0.19752813010E+04  0.19752813036E+04  0.10100000352E+00 0. -1.
       -3   -1    0    0    0  501  0.00000000000E+00  0.00000000000E+00 -0.21053010380E+03  0.21053012803E+03  0.10100000352E+00 0.  1.
    10030    2    1    2    0    0  0.00000000000E+00  0.00000000000E+00  0.17647511972E+04  0.21858114316E+04  0.12897382783E+04 0.  0.
        2    1    3    3  502    0 -0.59225759033E+03  0.24918414138E+03  0.78963556606E+03  0.10180305088E+04  0.25500000920E-02 0.  1.
       -2    1    3    3    0  502  0.59225759033E+03 -0.24918414138E+03  0.97511563113E+03  0.11677809228E+04  0.25500000920E-02 0. -1.
</event>
<event>
 5   0  0.1661750E-03  0.7594398E+03  0.7818609E-02  0.9620656E-01
       -3   -1    0    0    0  501  0.00000000000E+00  0.00000000000E+00  0.51241694955E+03  0.51241695950E+03  0.10100000352E+00 0.  1.
        3   -1    0    0  501    0  0.00000000000E+00  0.00000000000E+00 -0.28138647013E+03  0.28138648826E+03  0.10100000352E+00 0. -1.
    10030    2    1    2    0    0  0.00000000000E+00  0.00000000000E+00  0.23103047941E+03  0.79380344776E+03  0.75943981411E+03 0.  0.
        2    1    3    3  502    0  0.32519778961E+03  0.81030565532E+02  0.30210794373E+03  0.45120811671E+03  0.25500000920E-02 0.  1.
       -2    1    3    3    0  502 -0.32519778961E+03 -0.81030565532E+02 -0.71077464315E+02  0.34259533105E+03  0.25500000920E-02 0. -1.
</event>
<event>
 5   0  0.2370801E-03  0.1278544E+04  0.7818609E-02  0.9046755E-01
       -1   -1    0    0    0  501  0.00000000000E+00  0.00000000000E+00  0.34007450851E+03  0.34007450855E+03  0.50400001928E-02 0. -1.
        1   -1    0    0  501    0  0.00000000000E+00  0.00000000000E+00 -0.12017041614E+04  0.12017041614E+04  0.50400001928E-02 0.  1.
    10030    2    1    2    0    0  0.00000000000E+00  0.00000000000E+00 -0.86162965292E+03  0.15417786700E+04  0.12785444100E+04 0.  0.
        3    1    3    3  502    0  0.63411848971E+03 -0.79746679470E+02 -0.44800240382E+03  0.78049468666E+03  0.10100000352E+00 0. -1.
       -3    1    3    3    0  502 -0.63411848971E+03  0.79746679470E+02 -0.41362724910E+03  0.76128398333E+03  0.10100000352E+00 0.  1.
</event>
<event>
 5   0  0.4388937E-03  0.1298063E+04  0.7818609E-02  0.9031102E-01
       -2   -1    0    0    0  501  0.00000000000E+00  0.00000000000E+00  0.51569251254E+03  0.51569251255E+03  0.25500000920E-02 0. -1.
        2   -1    0    0  501    0  0.00000000000E+00  0.00000000000E+00 -0.81684723761E+03  0.81684723761E+03  0.25500000920E-02 0.  1.
    10030    2    1    2    0    0  0.00000000000E+00  0.00000000000E+00 -0.30115472507E+03  0.13325397502E+04  0.12980631792E+04 0.  0.
        5    1    3    3  502    0 -0.22783872612E+03  0.54940312525E+03  0.11606285128E+03  0.60600903838E+03  0.46999998093E+01 0. -1.
       -5    1    3    3    0  502  0.22783872612E+03 -0.54940312525E+03 -0.41721757635E+03  0.72653071178E+03  0.46999998093E+01 0.  1.
</event>
<event>
 5   0  0.2511542E-03  0.1223225E+04  0.7818609E-02  0.9092767E-01
       -1   -1    0    0    0  501  0.00000000000E+00  0.00000000000E+00  0.38735596298E+03  0.38735596302E+03  0.50400001928E-02 0.  1.
        1   -1    0    0  501    0  0.00000000000E+00  0.00000000000E+00 -0.96570051124E+03  0.96570051126E+03  0.50400001928E-02 0. -1.
    10030    2    1    2    0    0  0.00000000000E+00  0.00000000000E+00 -0.57834454826E+03  0.13530564743E+04  0.12232250022E+04 0.  0.
        4    1    3    3  502    0  0.36758181775E+03 -0.20724477881E+03  0.20053799792E+03  0.46720861785E+03  0.12699999809E+01 0.  1.
       -4    1    3    3    0  502 -0.36758181775E+03  0.20724477881E+03 -0.77888254618E+03  0.88584785642E+03  0.12699999809E+01 0. -1.
</event>
<event>
 5   0  0.4453011E-03  0.1389355E+04  0.7818609E-02  0.8961560E-01
        2   -1    0    0  501    0  0.00000000000E+00  0.00000000000E+00  0.11218144517E+04  0.11218144517E+04  0.25500000920E-02 0.  1.
       -2   -1    0    0    0  501  0.00000000000E+00  0.00000000000E+00 -0.43017551034E+03  0.43017551035E+03  0.25500000920E-02 0. -1.
    10030    2    1    2    0    0  0.00000000000E+00  0.00000000000E+00  0.69163894135E+03  0.15519899620E+04  0.13893553962E+04 0.  0.
        1    1    3    3  502    0  0.14262592018E+03  0.40009718774E+03  0.95985291080E+03  0.10496368530E+04  0.50400001928E-02 0.  1.
       -1    1    3    3    0  502 -0.14262592018E+03 -0.40009718774E+03 -0.26821396945E+03  0.50235310905E+03  0.50400001928E-02 0. -1.
</event>
<event>
 5   0  0.1661750E-03  0.1293165E+04  0.7818609E-02  0.9035003E-01
       -3   -1    0    0    0  501  0.00000000000E+00  0.00000000000E+00  0.82058555856E+03  0.82058556477E+03  0.10100000352E+00 0. -1.
        3   -1    0    0  501    0  0.00000000000E+00  0.00000000000E+00 -0.50947636220E+03  0.50947637221E+03  0.10100000352E+00 0.  1.
    10030    2    1    2    0    0  0.00000000000E+00  0.00000000000E+00  0.31110919635E+03  0.13300619370E+04  0.12931650413E+04 0.  0.
        3    1    3    3  502    0 -0.45675370657E+03  0.45695670444E+03  0.18148437616E+03  0.67109609386E+03  0.10100000352E+00 0.  1.
       -3    1    3    3    0  502  0.45675370657E+03 -0.45695670444E+03  0.12962482019E+03  0.65896584313E+03  0.10100000352E+00 0. -1.
</event>
<event>
 5   0  0.4263540E-03  0.1305953E+04  0.7818609E-02  0.9024858E-01
       -2   -1    0    0    0  501  0.00000000000E+00  0.00000000000E+00  0.26631632991E+03  0.26631632992E+03  0.25500000920E-02 0.  1.
        2   -1    0    0  501    0  0.00000000000E+00  0.00000000000E+00 -0.16010216910E+04  0.16010216910E+04  0.25500000920E-02 0. -1.
    10030    2    1    2    0    0  0.00000000000E+00  0.00000000000E+00 -0.13347053611E+04  0.18673380210E+04  0.13059528642E+04 0.  0.
        2    1    3    3  502    0  0.28335113906E+02  0.31856156249E+03 -0.14813647574E+04  0.15154952630E+04  0.25500000920E-02 0. -1.
       -2    1    3    3    0  502 -0.28335113906E+02 -0.31856156249E+03  0.14665939629E+03  0.35184275792E+03  0.25500000920E-02 0.  1.
</event>
<event>
 5   0  0.2458456E-03  0.1276871E+04  0.7818609E-02  0.9048110E-01
       -1   -1    0    0    0  501  0.00000000000E+00  0.00000000000E+00  0.37002008567E+03  0.37002008571E+03  0.50400001928E-02 0. -1.
        1   -1    0    0  501    0  0.00000000000E+00  0.00000000000E+00 -0.11015622404E+04  0.11015622405E+04  0.50400001928E-02 0.  1.
    10030    2    1    2    0    0  0.00000000000E+00  0.00000000000E+00 -0.73154215478E+03  0.14715823262E+04  0.12768714181E+04 0.  0.
        5    1    3    3  502    0  0.37418082540E+03  0.26588935746E+03  0.14558892299E+03  0.48158765038E+03  0.46999998093E+01 0.  1.
       -5    1    3    3    0  502 -0.37418082540E+03 -0.26588935746E+03 -0.87713107776E+03  0.98999467578E+03  0.46999998093E+01 0. -1.
</event>
<event>
 5   0  0.4310889E-03  0.1310162E+04  0.7818609E-02  0.9021545E-01
        2   -1    0    0  501    0  0.00000000000E+00  0.00000000000E+00  0.10017229490E+04  0.10017229490E+04  0.25500000920E-02 0. -1.
       -2   -1    0    0    0  501  0.00000000000E+00  0.00000000000E+00 -0.42839288392E+03  0.42839288392E+03  0.25500000920E-02 0.  1.
    10030    2    1    2    0    0  0.00000000000E+00  0.00000000000E+00  0.57333006510E+03  0.14301158329E+04  0.13101617961E+04 0.  0.
        4    1    3    3  502    0  0.29237767011E+03  0.54538965704E+03  0.52057051251E+02  0.62100412999E+03  0.12699999809E+01 0.  1.
       -4    1    3    3    0  502 -0.29237767011E+03 -0.54538965704E+03  0.52127301384E+03  0.80911170295E+03  0.12699999809E+01 0. -1.
</event>
<event>
 5   0  0.4388937E-03  0.1264857E+04  0.7818609E-02  0.9057908E-01
        2   -1    0    0  501    0  0.00000000000E+00  0.00000000000E+00  0.71030601247E+03  0.71030601248E+03  0.25500000920E-02 0.  1.
       -2   -1    0    0    0  501  0.00000000000E+00  0.00000000000E+00 -0.56308938335E+03  0.56308938336E+03  0.25500000920E-02 0. -1.
    10030    2    1    2    0    0  0.00000000000E+00  0.00000000000E+00  0.14721662912E+03  0.12733953958E+04  0.12648569477E+04 0.  0.
        5    1    3    3  502    0 -0.49917092691E+03  0.11636431106E+02 -0.31713108869E+03  0.59152450348E+03  0.46999998093E+01 0. -1.
       -5    1    3    3    0  502  0.49917092691E+03 -0.11636431106E+02  0.46434771781E+03  0.68187089236E+03  0.46999998093E+01 0.  1.
</event>
<event>
 5   0  0.2511542E-03  0.1323750E+04  0.7818609E-02  0.9010941E-01
       -1   -1    0    0    0  501  0.00000000000E+00  0.00000000000E+00  0.31358379080E+03  0.31358379084E+03  0.50400001928E-02 0. -1.
        1   -1    0    0  501    0  0.00000000000E+00  0.00000000000E+00 -0.13970058779E+04  0.13970058779E+04  0.50400001928E-02 0.  1.
    10030    2    1    2    0    0  0.00000000000E+00  0.00000000000E+00 -0.10834220871E+04  0.17105896687E+04  0.13237498238E+04 0.  0.
        4    1    3    3  502    0 -0.36623864662E+03  0.51560102088E+03 -0.79394972673E+03  0.10150531713E+04  0.12699999809E+01 0.  1.
       -4    1    3    3    0  502  0.36623864662E+03 -0.51560102088E+03 -0.28947236037E+03  0.69553649748E+03  0.12699999809E+01 0. -1.
</event>
<event>
 5   0  0.4306214E-03  0.7387453E+03  0.7818609E-02  0.9653174E-01
       -2   -1    0    0    0  501  0.00000000000E+00  0.00000000000E+00  0.42200165848E+03  0.42200165848E+03  0.25500000920E-02 0.  1.
        2   -1    0    0  501    0  0.00000000000E+00  0.00000000000E+00 -0.32330718973E+03  0.32330718974E+03  0.25500000920E-02 0. -1.
    10030    2    1    2    0    0  0.00000000000E+00  0.00000000000E+00  0.98694468746E+02  0.74530884822E+03  0.73874534251E+03 0.  0.
        3    1    3    3  502    0 -0.19536509299E+02 -0.34970065663E+02  0.41980383068E+03  0.42171062015E+03  0.10100000352E+00 0.  1.
       -3    1    3    3    0  502  0.19536509299E+02  0.34970065663E+02 -0.32110936194E+03  0.32359822808E+03  0.10100000352E+00 0. -1.
</event>
<event>
 5   0  0.2458456E-03  0.1301198E+04  0.7818609E-02  0.9028616E-01
        1   -1    0    0  501    0  0.00000000000E+00  0.00000000000E+00  0.67214033552E+03  0.67214033554E+03  0.50400001928E-02 0.  1.
       -1   -1    0    0    0  501  0.00000000000E+00  0.00000000000E+00 -0.62974803220E+03  0.62974803222E+03  0.50400001928E-02 0. -1.
    10030    2    1    2    0    0  0.00000000000E+00  0.00000000000E+00  0.42392303323E+02  0.13018883678E+04  0.13011979921E+04 0.  0.
        5    1    3    3  502    0  0.52850017957E+03 -0.37832214672E+03  0.49792379214E+02  0.65187533895E+03  0.46999998093E+01 0. -1.
       -5    1    3    3    0  502 -0.52850017957E+03  0.37832214672E+03 -0.74000758912E+01  0.65001302881E+03  0.46999998093E+01 0.  1.
</event>
<event>
 5   0  0.2370801E-03  0.1292538E+04  0.7818609E-02  0.9035503E-01
        1   -1    0    0  501    0  0.00000000000E+00  0.00000000000E+00  0.30625665452E+04  0.30625665452E+04  0.50400001928E-02 0.  1.
       -1   -1    0    0    0  501  0.00000000000E+00  0.00000000000E+00 -0.13637708360E+03  0.13637708369E+03  0.50400001928E-02 0. -1.
    10030    2    1    2    0    0  0.00000000000E+00  0.00000000000E+00  0.29261894616E+04  0.31989436289E+04  0.12925384233E+04 0.  0.
        3    1    3    3  502    0 -0.32211911792E+03 -0.48244086296E+03  0.75804782093E+03  0.95453990037E+03  0.10100000352E+00 0. -1.
       -3    1    3    3    0  502  0.32211911792E+03  0.48244086296E+03  0.21681416407E+04  0.22444037285E+04  0.10100000352E+00 0.  1.
</event>
<event>
 5   0  0.2370801E-03  0.1271706E+04  0.7818609E-02  0.9052309E-01
        1   -1    0    0  501    0  0.00000000000E+00  0.00000000000E+00  0.99833464152E+03  0.99833464153E+03  0.50400001928E-02 0.  1.
       -1   -1    0    0    0  501  0.00000000000E+00  0.00000000000E+00 -0.40498336028E+03  0.40498336031E+03  0.50400001928E-02 0. -1.
    10030    2    1    2    0    0  0.00000000000E+00  0.00000000000E+00  0.59335128124E+03  0.14033180018E+04  0.12717058116E+04 0.  0.
        3    1    3    3  502    0  0.31637947204E+03  0.33724181835E+03  0.77828525694E+03  0.90529330371E+03  0.10100000352E+00 0.  1.
       -3    1    3    3    0  502 -0.31637947204E+03 -0.33724181835E+03 -0.18493397571E+03  0.49802469813E+03  0.10100000352E+00 0. -1.
</event>
<event>
 5   0  0.2511542E-03  0.1255612E+04  0.7818609E-02  0.9065525E-01
        1   -1    0    0  501    0  0.00000000000E+00  0.00000000000E+00  0.86977903874E+03  0.86977903875E+03  0.50400001928E-02 0. -1.
       -1   -1    0    0    0  501  0.00000000000E+00  0.00000000000E+00 -0.45315016951E+03  0.45315016954E+03  0.50400001928E-02 0.  1.
    10030    2    1    2    0    0  0.00000000000E+00  0.00000000000E+00  0.41662886923E+03  0.13229292083E+04  0.12556122313E+04 0.  0.
        4    1    3    3  502    0 -0.16393571196E+03  0.56645721731E+03 -0.18616777729E+02  0.58999736780E+03  0.12699999809E+01 0.  1.
       -4    1    3    3    0  502  0.16393571196E+03 -0.56645721731E+03  0.43524564696E+03  0.73293184048E+03  0.12699999809E+01 0. -1.
</event>
<event>
 5   0  0.4306214E-03  0.1295295E+04  0.7818609E-02  0.9033304E-01
        2   -1    0    0  501    0  0.00000000000E+00  0.00000000000E+00  0.16305054982E+04  0.16305054982E+04  0.25500000920E-02 0. -1.
       -2   -1    0    0    0  501  0.00000000000E+00  0.00000000000E+00 -0.25725001818E+03  0.25725001820E+03  0.25500000920E-02 0.  1.
    10030    2    1    2    0    0  0.00000000000E+00  0.00000000000E+00  0.13732554800E+04  0.18877555164E+04  0.12952954398E+04 0.  0.
        3    1    3    3  502    0  0.25868849927E+03  0.56260532408E+03  0.41009492787E+03  0.74271283172E+03  0.10100000352E+00 0. -1.
       -3    1    3    3    0  502 -0.25868849927E+03 -0.56260532408E+03  0.96316055213E+03  0.11450426847E+04  0.10100000352E+00 0.  1.
</event>
<event>
 5   0  0.2458456E-03  0.1333093E+04  0.7818609E-02  0.9003726E-01
        1   -1    0    0  501    0  0.00000000000E+00  0.00000000000E+00  0.14467703664E+04  0.14467703664E+04  0.50400001928E-02 0. -1.
       -1   -1    0    0    0  501  0.00000000000E+00  0.00000000000E+00 -0.30708707014E+03  0.30708707018E+03  0.50400001928E-02 0.  1.
    10030    2    1    2    0    0  0.00000000000E+00  0.00000000000E+00  0.11396832962E+04  0.17538574366E+04  0.13330933546E+04 0.  0.
        5    1    3    3  502    0 -0.39352274892E+03  0.11541992368E+03  0.12611177898E+04  0.13261304922E+04  0.46999998093E+01 0. -1.
       -5    1    3    3    0  502  0.39352274892E+03 -0.11541992368E+03 -0.12143449354E+03  0.42772694434E+03  0.46999998093E+01 0.  1.
</event>
<event>
 5   0  0.4306214E-03  0.1283418E+04  0.7818609E-02  0.9042819E-01
       -2   -1    0    0    0  501  0.00000000000E+00  0.00000000000E+00  0.34072666725E+03  0.34072666726E+03  0.25500000920E-02 0. -1.
        2   -1    0    0  501    0  0.00000000000E+00  0.00000000000E+00 -0.12085654209E+04  0.12085654209E+04  0.25500000920E-02 0.  1.
    10030    2    1    2    0    0  0.00000000000E+00  0.00000000000E+00 -0.86783875368E+03  0.15492920882E+04  0.12834180426E+04 0.  0.
        3    1    3    3  502    0 -0.51059804000E+03  0.36113513412E+03 -0.60743805735E+03  0.87184284551E+03  0.10100000352E+00 0.  1.
       -3    1    3    3    0  502  0.51059804000E+03 -0.36113513412E+03 -0.26040069632E+03  0.67744924267E+03  0.10100000352E+00 0. -1.
</event>
<event>
 5   0  0.4388937E-03  0.1262175E+04  0.7818609E-02  0.9060110E-01
        2   -1    0    0  501    0  0.00000000000E+00  0.00000000000E+00  0.39490808014E+03  0.39490808015E+03  0.25500000920E-02 0.  1.
       -2   -1    0    0    0  501  0.00000000000E+00  0.00000000000E+00 -0.10085168421E+04  0.10085168421E+04  0.25500000920E-02 0. -1.
    10030    2    1    2    0    0  0.00000000000E+00  0.00000000000E+00 -0.61360876195E+03  0.14034249222E+04  0.12621750273E+04 0.  0.
        5    1    3    3  502    0 -0.15750315505E+03  0.52423384296E+03  0.42379581476E+02  0.54904142365E+03  0.46999998093E+01 0.  1.
       -5    1    3    3    0  502  0.15750315505E+03 -0.52423384296E+03 -0.65598834343E+03  0.85438349860E+03  0.46999998093E+01 0. -1.
</event>
<event>
 5   0  0.2462055E-03  0.1242719E+04  0.7818609E-02  0.9076265E-01
       -1   -1    0    0    0  501  0.00000000000E+00  0.00000000000E+00  0.41208906097E+03  0.41208906100E+03  0.50400001928E-02 0. -1.
        1   -1    0    0  501    0  0.00000000000E+00  0.00000000000E+00 -0.93690291666E+03  0.93690291668E+03  0.50400001928E-02 0.  1.
    10030    2    1    2    0    0  0.00000000000E+00  0.00000000000E+00 -0.52481385569E+03  0.13489919777E+04  0.12427187022E+04 0.  0.
        2    1    3    3  502    0  0.12577541909E+03  0.59198381656E+03 -0.10957191951E+03  0.61503682871E+03  0.25500000920E-02 0.  1.
       -2    1    3    3    0  502 -0.12577541909E+03 -0.59198381656E+03 -0.41524193618E+03  0.73395514897E+03  0.25500000920E-02 0. -1.
</event>
<event>
 5   0  0.2511542E-03  0.1309415E+04  0.7818609E-02  0.9022132E-01
       -1   -1    0    0    0  501  0.00000000000E+00  0.00000000000E+00  0.23407113748E+03  0.23407113753E+03  0.50400001928E-02 0. -1.
        1   -1    0    0  501    0  0.00000000000E+00  0.00000000000E+00 -0.18312456022E+04  0.18312456022E+04  0.50400001928E-02 0.  1.
    10030    2    1    2    0    0  0.00000000000E+00  0.00000000000E+00 -0.15971744647E+04  0.20653167397E+04  0.13094147413E+04 0.  0.
        4    1    3    3  502    0 -0.10700539656E+03 -0.25702678153E+03 -0.17332214572E+04  0.17554404444E+04  0.12699999809E+01 0.  1.
       -4    1    3    3    0  502  0.10700539656E+03  0.25702678153E+03  0.13604699250E+03  0.30987629529E+03  0.12699999809E+01 0. -1.
</event>
<event>
 5   0  0.4263540E-03  0.1290579E+04  0.7818609E-02  0.9037069E-01
        2   -1    0    0  501    0  0.00000000000E+00  0.00000000000E+00  0.10355826751E+04  0.10355826751E+04  0.25500000920E-02 0.  1.
       -2   -1    0    0    0  501  0.00000000000E+00  0.00000000000E+00 -0.40209136245E+03  0.40209136246E+03  0.25500000920E-02 0. -1.
    10030    2    1    2    0    0  0.00000000000E+00  0.00000000000E+00  0.63349131261E+03  0.14376740375E+04  0.12905794803E+04 0.  0.
        2    1    3    3  502    0 -0.38136610294E+02 -0.40121810962E+03 -0.24464551823E+03  0.47146771059E+03  0.25500000920E-02 0. -1.
       -2    1    3    3    0  502  0.38136610294E+02  0.40121810962E+03  0.87813683084E+03  0.96620632694E+03  0.25500000920E-02 0.  1.
</event>
<event>
 5   0  0.4306214E-03  0.1364762E+04  0.7818609E-02  0.8979728E-01
        2   -1    0    0  501    0  0.00000000000E+00  0.00000000000E+00  0.12238164422E+04  0.12238164422E+04  0.25500000920E-02 0.  1.
       -2   -1    0    0    0  501  0.00000000000E+00  0.00000000000E+00 -0.38048482964E+03  0.38048482965E+03  0.25500000920E-02 0. -1.
    10030    2    1    2    0    0  0.00000000000E+00  0.00000000000E+00  0.84333161258E+03  0.16043012719E+04  0.13647616503E+04 0.  0.
        3    1    3    3  502    0 -0.20694787495E+03 -0.14173298435E+03 -0.32432759547E+03  0.41000495263E+03  0.10100000352E+00 0. -1.
       -3    1    3    3    0  502  0.20694787495E+03  0.14173298435E+03  0.11676592081E+04  0.11942963192E+04  0.10100000352E+00 0.  1.
</event>
<event>
 5   0  0.2356769E-03  0.1304020E+04  0.7818609E-02  0.9026384E-01
       -1   -1    0    0    0  501  0.00000000000E+00  0.00000000000E+00  0.81114638518E+03  0.81114638519E+03  0.50400001928E-02 0.  1.
        1   -1    0    0  501    0  0.00000000000E+00  0.00000000000E+00 -0.52409379255E+03  0.52409379258E+03  0.50400001928E-02 0. -1.
    10030    2    1    2    0    0  0.00000000000E+00  0.00000000000E+00  0.28705259262E+03  0.13352401778E+04  0.13040196093E+04 0.  0.
        1    1    3    3  502    0  0.23950641088E+03  0.56036352539E+03  0.38090900798E+03  0.71865309700E+03  0.50400001928E-02 0. -1.
       -1    1    3    3    0  502 -0.23950641088E+03 -0.56036352539E+03 -0.93856415354E+02  0.61658708077E+03  0.50400001928E-02 0.  1.
</event>
<event>
 5   0  0.4388937E-03  0.1305533E+04  0.7818609E-02  0.9025189E-01
       -2   -1    0    0    0  501  0.00000000000E+00  0.00000000000E+00  0.35801682497E+03  0.35801682498E+03  0.25500000920E-02 0.  1.
        2   -1    0    0  501    0  0.00000000000E+00  0.00000000000E+00 -0.11901782258E+04  0.11901782258E+04  0.25500000920E-02 0. -1.
    10030    2    1    2    0    0  0.00000000000E+00  0.00000000000E+00 -0.83216140084E+03  0.15481950508E+04  0.13055325803E+04 0.  0.
        5    1    3    3  502    0  0.29224565724E+03  0.54526736092E+03 -0.16915222151E+03  0.64137242153E+03  0.46999998093E+01 0. -1.
       -5    1    3    3    0  502 -0.29224565724E+03 -0.54526736092E+03 -0.66300917933E+03  0.90682262926E+03  0.46999998093E+01 0.  1.
</event>
<event>
 5   0  0.2511542E-03  0.1281765E+04  0.7818609E-02  0.9044152E-01
       -1   -1    0    0    0  501  0.00000000000E+00  0.00000000000E+00  0.32880100495E+03  0.32880100499E+03  0.50400001928E-02 0.  1.
        1   -1    0    0  501    0  0.00000000000E+00  0.00000000000E+00 -0.12491758042E+04  0.12491758042E+04  0.50400001928E-02 0. -1.
    10030    2    1    2    0    0  0.00000000000E+00  0.00000000000E+00 -0.92037479928E+03  0.15779768092E+04  0.12817648144E+04 0.  0.
        4    1    3    3  502    0  0.16997758243E+03 -0.59636156315E+03 -0.26095819154E+03  0.67278546592E+03  0.12699999809E+01 0.  1.
       -4    1    3    3    0  502 -0.16997758243E+03  0.59636156315E+03 -0.65941660774E+03  0.90519134331E+03  0.12699999809E+01 0. -1.
</event>
<event>
 5   0  0.2458456E-03  0.1297994E+04  0.7818609E-02  0.9031157E-01
       -1   -1    0    0    0  501  0.00000000000E+00  0.00000000000E+00  0.87959543370E+03  0.87959543372E+03  0.50400001928E-02 0. -1.
        1   -1    0    0  501    0  0.00000000000E+00  0.00000000000E+00 -0.47885350802E+03  0.47885350804E+03  0.50400001928E-02 0.  1.
    10030    2    1    2    0    0  0.00000000000E+00  0.00000000000E+00  0.40074192568E+03  0.13584489418E+04  0.12979943900E+04 0.  0.
        5    1    3    3  502    0  0.39530683913E+03  0.41231410359E+03  0.52278557225E+03  0.77433665910E+03  0.46999998093E+01 0. -1.
       -5    1    3    3    0  502 -0.39530683913E+03 -0.41231410359E+03 -0.12204364656E+03  0.58411228266E+03  0.46999998093E+01 0.  1.
</event>
<event>
 5   0  0.4263540E-03  0.1283081E+04  0.7818609E-02  0.9043091E-01
       -2   -1    0    0    0  501  0.00000000000E+00  0.00000000000E+00  0.56037966660E+03  0.56037966661E+03  0.25500000920E-02 0. -1.
        2   -1    0    0  501    0  0.00000000000E+00  0.00000000000E+00 -0.73445570526E+03  0.73445570526E+03  0.25500000920E-02 0.  1.
    10030    2    1    2    0    0  0.00000000000E+00  0.00000000000E+00 -0.17407603865E+03  0.12948353719E+04  0.12830807352E+04 0.  0.
        2    1    3    3  502    0 -0.25780406250E+03  0.29259420281E+03  0.42703999999E+03  0.57830568366E+03  0.25500000920E-02 0. -1.
       -2    1    3    3    0  502  0.25780406250E+03 -0.29259420281E+03 -0.60111603865E+03  0.71652968821E+03  0.25500000920E-02 0.  1.
</event>
<event>
 5   0  0.2356769E-03  0.1133438E+04  0.7818609E-02  0.9173200E-01
       -1   -1    0    0    0  501  0.00000000000E+00  0.00000000000E+00  0.10875458615E+04  0.10875458615E+04  0.50400001928E-02 0.  1.
        1   -1    0    0  501    0  0.00000000000E+00  0.00000000000E+00 -0.29531675863E+03  0.29531675868E+03  0.50400001928E-02 0. -1.
    10030    2    1    2    0    0  0.00000000000E+00  0.00000000000E+00  0.79222910288E+03  0.13828626202E+04  0.11334381654E+04 0.  0.
        1    1    3    3  502    0 -0.10103700595E+03  0.37941673969E+02  0.10748918319E+04  0.10802964859E+04  0.50400001928E-02 0.  1.
       -1    1    3    3    0  502  0.10103700595E+03 -0.37941673969E+02 -0.28266272903E+03  0.30256613426E+03  0.50400001928E-02 0. -1.
</event>
<event>
 5   0  0.2462055E-03  0.8851857E+03  0.7818609E-02  0.9444292E-01
       -1   -1    0    0    0  501  0.00000000000E+00  0.00000000000E+00  0.18628472776E+03  0.18628472782E+03  0.50400001928E-02 0.  1.
        1   -1    0    0  501    0  0.00000000000E+00  0.00000000000E+00 -0.10515539133E+04  0.10515539133E+04  0.50400001928E-02 0. -1.
    10030    2    1    2    0    0  0.00000000000E+00  0.00000000000E+00 -0.86526918551E+03  0.12378386411E+04  0.88518570820E+03 0.  0.
        2    1    3    3  502    0 -0.36617986480E+03  0.17837006289E+03 -0.67478247097E+03  0.78818459504E+03  0.25500000920E-02 0. -1.
       -2    1    3    3    0  502  0.36617986480E+03 -0.17837006289E+03 -0.19048671455E+03  0.44965404607E+03  0.25500000920E-02 0.  1.
</event>
<event>
 5   0  0.4388937E-03  0.1297099E+04  0.7818609E-02  0.9031868E-01
       -2   -1    0    0    0  501  0.00000000000E+00  0.00000000000E+00  0.29816558342E+03  0.29816558343E+03  0.25500000920E-02 0. -1.
        2   -1    0    0  501    0  0.00000000000E+00  0.00000000000E+00 -0.14106817819E+04  0.14106817819E+04  0.25500000920E-02 0.  1.
    10030    2    1    2    0    0  0.00000000000E+00  0.00000000000E+00 -0.11125161985E+04  0.17088473654E+04  0.12970994666E+04 0.  0.
        5    1    3    3  502    0 -0.21441555657E+03  0.84875778829E+02  0.24230540975E+03  0.33453240549E+03  0.46999998093E+01 0. -1.
       -5    1    3    3    0  502  0.21441555657E+03 -0.84875778829E+02 -0.13548216082E+04  0.13743149599E+04  0.46999998093E+01 0.  1.
</event>
<event>
 5   0  0.4310889E-03  0.1293541E+04  0.7818609E-02  0.9034703E-01
       -2   -1    0    0    0  501  0.00000000000E+00  0.00000000000E+00  0.44003480058E+03  0.44003480059E+03  0.25500000920E-02 0. -1.
        2   -1    0    0  501    0  0.00000000000E+00  0.00000000000E+00 -0.95063467355E+03  0.95063467355E+03  0.25500000920E-02 0.  1.
    10030    2    1    2    0    0  0.00000000000E+00  0.00000000000E+00 -0.51059987297E+03  0.13906694741E+04  0.12935414010E+04 0.  0.
        4    1    3    3  502    0 -0.48087474291E+03  0.16351138841E+03 -0.68578364323E+03  0.85339165143E+03  0.12699999809E+01 0.  1.
       -4    1    3    3    0  502  0.48087474291E+03 -0.16351138841E+03  0.17518377026E+03  0.53727782271E+03  0.12699999809E+01 0. -1.
</event>
<event>
 5   0  0.2462055E-03  0.1295150E+04  0.7818609E-02  0.9033420E-01
        1   -1    0    0  501    0  0.00000000000E+00  0.00000000000E+00  0.60163625371E+03  0.60163625373E+03  0.50400001928E-02 0. -1.
       -1   -1    0    0    0  501  0.00000000000E+00  0.00000000000E+00 -0.69702181551E+03  0.69702181553E+03  0.50400001928E-02 0.  1.
    10030    2    1    2    0    0  0.00000000000E+00  0.00000000000E+00 -0.95385561803E+02  0.12986580693E+04  0.12951503293E+04 0.  0.
        2    1    3    3  502    0  0.19089106867E+03  0.61808812809E+03 -0.17926362210E+02  0.64714271120E+03  0.25500000920E-02 0.  1.
       -2    1    3    3    0  502 -0.19089106867E+03 -0.61808812809E+03 -0.77459199593E+02  0.65151535807E+03  0.25500000920E-02 0. -1.
</event>
<event>
 5   0  0.2370801E-03  0.1293870E+04  0.7818609E-02  0.9034440E-01
       -1   -1    0    0    0  501  0.00000000000E+00  0.00000000000E+00  0.61740678937E+03  0.61740678939E+03  0.50400001928E-02 0.  1.
        1   -1    0    0  501    0  0.00000000000E+00  0.00000000000E+00 -0.67787581089E+03  0.67787581090E+03  0.50400001928E-02 0. -1.
    10030    2    1    2    0    0  0.00000000000E+00  0.00000000000E+00 -0.60469021518E+02  0.12952826003E+04  0.12938703614E+04 0.  0.
        3    1    3    3  502    0  0.23951732313E+03 -0.47449334685E+03  0.33896693401E+03  0.63040548604E+03  0.10100000352E+00 0.  1.
       -3    1    3    3    0  502 -0.23951732313E+03  0.47449334685E+03 -0.39943595553E+03  0.66487711425E+03  0.10100000352E+00 0. -1.
</event>
<event>
 5   0  0.2462055E-03  0.1284556E+04  0.7818609E-02  0.9041903E-01
        1   -1    0    0  501    0  0.00000000000E+00  0.00000000000E+00  0.49657778312E+03  0.49657778315E+03  0.50400001928E-02 0. -1.
       -1   -1    0    0    0  501  0.00000000000E+00  0.00000000000E+00 -0.83072731085E+03  0.83072731086E+03  0.50400001928E-02 0.  1.
    10030    2    1    2    0    0  0.00000000000E+00  0.00000000000E+00 -0.33414952773E+03  0.13273050940E+04  0.12845555285E+04 0.  0.
        2    1    3    3  502    0  0.40278677626E+03 -0.34740179014E+03  0.20489950503E+03  0.57000789301E+03  0.25500000920E-02 0. -1.
       -2    1    3    3    0  502 -0.40278677626E+03  0.34740179014E+03 -0.53904903275E+03  0.75729720100E+03  0.25500000920E-02 0.  1.
</event>
<event>
 5   0  0.4306214E-03  0.1339670E+04  0.7818609E-02  0.8998685E-01
       -2   -1    0    0    0  501  0.00000000000E+00  0.00000000000E+00  0.58313530045E+03  0.58313530046E+03  0.25500000920E-02 0. -1.
        2   -1    0    0  501    0  0.00000000000E+00  0.00000000000E+00 -0.76942528748E+03  0.76942528749E+03  0.25500000920E-02 0.  1.
    10030    2    1    2    0    0  0.00000000000E+00  0.00000000000E+00 -0.18628998703E+03  0.13525605879E+04  0.13396701776E+04 0.  0.
        3    1    3    3  502    0 -0.53831001307E+03 -0.19910058567E+03 -0.44180876908E+03  0.72430222423E+03  0.10100000352E+00 0.  1.
       -3    1    3    3    0  502  0.53831001307E+03  0.19910058567E+03  0.25551878205E+03  0.62825836371E+03  0.10100000352E+00 0. -1.
</event>
<event>
 5   0  0.2458456E-03  0.1294883E+04  0.7818609E-02  0.9033633E-01
       -1   -1    0    0    0  501  0.00000000000E+00  0.00000000000E+00  0.29472216638E+03  0.29472216642E+03  0.50400001928E-02 0. -1.
        1   -1    0    0  501    0  0.00000000000E+00  0.00000000000E+00 -0.14222907818E+04  0.14222907818E+04  0.50400001928E-02 0.  1.
    10030    2    1    2    0    0  0.00000000000E+00  0.00000000000E+00 -0.11275686154E+04  0.17170129482E+04  0.12948831924E+04 0.  0.
        5    1    3    3  502    0  0.43838622574E+03 -0.28020556187E+03 -0.52868891293E+02  0.52298647161E+03  0.46999998093E+01 0. -1.
       -5    1    3    3    0  502 -0.43838622574E+03  0.28020556187E+03 -0.10746997241E+04  0.11940264766E+04  0.46999998093E+01 0.  1.
</event>
<event>
 5   0  0.2511542E-03  0.1276627E+04  0.7818609E-02  0.9048308E-01
       -1   -1    0    0    0  501  0.00000000000E+00  0.00000000000E+00  0.80565144892E+03  0.80565144893E+03  0.50400001928E-02 0. -1.
        1   -1    0    0  501    0  0.00000000000E+00  0.00000000000E+00 -0.50573274641E+03  0.50573274644E+03  0.50400001928E-02 0.  1.
    10030    2    1    2    0    0  0.00000000000E+00  0.00000000000E+00  0.29991870250E+03  0.13113841954E+04  0.12766273065E+04 0.  0.
        4    1    3    3  502    0 -0.24187321522E+03  0.40869898505E+03  0.58807459689E+03  0.75589077057E+03  0.12699999809E+01 0. -1.
       -4    1    3    3    0  502  0.24187321522E+03 -0.40869898505E+03 -0.28815589438E+03  0.55549342480E+03  0.12699999809E+01 0.  1.
</event>
<event>
 5   0  0.2370801E-03  0.1318010E+04  0.7818609E-02  0.9015404E-01
        1   -1    0    0  501    0  0.00000000000E+00  0.00000000000E+00  0.14136402279E+04  0.14136402279E+04  0.50400001928E-02 0.  1.
       -1   -1    0    0    0  501  0.00000000000E+00  0.00000000000E+00 -0.30721205376E+03  0.30721205380E+03  0.50400001928E-02 0. -1.
    10030    2    1    2    0    0  0.00000000000E+00  0.00000000000E+00  0.11064281742E+04  0.17208522817E+04  0.13180095868E+04 0.  0.
        3    1    3    3  502    0  0.36417792607E+03  0.53640085151E+03  0.39908234029E+03  0.76132657899E+03  0.10100000352E+00 0. -1.
       -3    1    3    3    0  502 -0.36417792607E+03 -0.53640085151E+03  0.70734583388E+03  0.95952570276E+03  0.10100000352E+00 0.  1.
</event>
<event>
 5   0  0.4453011E-03  0.1399268E+04  0.7818609E-02  0.8954348E-01
       -2   -1    0    0    0  501  0.00000000000E+00  0.00000000000E+00  0.48517440120E+03  0.48517440121E+03  0.25500000920E-02 0. -1.
        2   -1    0    0  501    0  0.00000000000E+00  0.00000000000E+00 -0.10088907897E+04  0.10088907897E+04  0.25500000920E-02 0.  1.
    10030    2    1    2    0    0  0.00000000000E+00  0.00000000000E+00 -0.52371638852E+03  0.14940651909E+04  0.13992683585E+04 0.  0.
        1    1    3    3  502    0  0.53456496311E+02  0.66035952755E+03 -0.50193683373E+03  0.83118763688E+03  0.50400001928E-02 0.  1.
       -1    1    3    3    0  502 -0.53456496311E+02 -0.66035952755E+03 -0.21779554787E+02  0.66287755405E+03  0.50400001928E-02 0. -1.
</event>
<event>
 5   0  0.2356769E-03  0.1306450E+04  0.7818609E-02  0.9024466E-01
        1   -1    0    0  501    0  0.00000000000E+00  0.00000000000E+00  0.53989676732E+03  0.53989676735E+03  0.50400001928E-02 0.  1.
       -1   -1    0    0    0  501  0.00000000000E+00  0.00000000000E+00 -0.79034192061E+03  0.79034192063E+03  0.50400001928E-02 0. -1.
    10030    2    1    2    0    0  0.00000000000E+00  0.00000000000E+00 -0.25044515329E+03  0.13302386880E+04  0.13064502257E+04 0.  0.
        1    1    3    3  502    0 -0.22519050093E+03  0.51823776278E+03  0.20849811598E+03  0.60228946934E+03  0.50400001928E-02 0.  1.
       -1    1    3    3    0  502  0.22519050093E+03 -0.51823776278E+03 -0.45894326927E+03  0.72794921864E+03  0.50400001928E-02 0. -1.
</event>
<event>
 5   0  0.4306214E-03  0.1413169E+04  0.7818609E-02  0.8944341E-01
        2   -1    0    0  501    0  0.00000000000E+00  0.00000000000E+00  0.11541648252E+04  0.11541648252E+04  0.25500000920E-02 0.  1.
       -2   -1    0    0    0  501  0.00000000000E+00  0.00000000000E+00 -0.43257395627E+03  0.43257395628E+03  0.25500000920E-02 0. -1.
    10030    2    1    2    0    0  0.00000000000E+00  0.00000000000E+00  0.72159086896E+03  0.15867387815E+04  0.14131689844E+04 0.  0.
        3    1    3    3  502    0  0.36048040480E+03 -0.53992488750E+03  0.67397378051E+03  0.93579146898E+03  0.10100000352E+00 0.  1.
       -3    1    3    3    0  502 -0.36048040480E+03  0.53992488750E+03  0.47617088444E+02  0.65094731254E+03  0.10100000352E+00 0. -1.
</event>
<event>
 5   0  0.4306214E-03  0.1256115E+04  0.7818609E-02  0.9065109E-01
       -2   -1    0    0    0  501  0.00000000000E+00  0.00000000000E+00  0.22732591061E+03  0.22732591063E+03  0.25500000920E-02 0. -1.
        2   -1    0    0  501    0  0.00000000000E+00  0.00000000000E+00 -0.17352011033E+04  0.17352011033E+04  0.25500000920E-02 0.  1.
    10030    2    1    2    0    0  0.00000000000E+00  0.00000000000E+00 -0.15078751927E+04  0.19625270139E+04  0.12561149166E+04 0.  0.
        3    1    3    3  502    0  0.41518593175E+02  0.58388655514E+03 -0.39831587510E+03  0.70802743549E+03  0.10100000352E+00 0. -1.
       -3    1    3    3    0  502 -0.41518593175E+02 -0.58388655514E+03 -0.11095593176E+04  0.12544995784E+04  0.10100000352E+00 0.  1.
</event>
<event>
 5   0  0.4310889E-03  0.1456032E+04  0.7818609E-02  0.8914230E-01
        2   -1    0    0  501    0  0.00000000000E+00  0.00000000000E+00  0.58871170018E+03  0.58871170018E+03  0.25500000920E-02 0.  1.
       -2   -1    0    0    0  501  0.00000000000E+00  0.00000000000E+00 -0.90028273621E+03  0.90028273622E+03  0.25500000920E-02 0. -1.
    10030    2    1    2    0    0  0.00000000000E+00  0.00000000000E+00 -0.31157103603E+03  0.14889944364E+04  0.14560315660E+04 0.  0.
        4    1    3    3  502    0  0.12122410946E+03  0.18590037748E+03  0.55327359421E+03  0.59612709887E+03  0.12699999809E+01 0.  1.
       -4    1    3    3    0  502 -0.12122410946E+03 -0.18590037748E+03 -0.86484463024E+03  0.89286733753E+03  0.12699999809E+01 0. -1.
</event>
<event>
 5   0  0.2370801E-03  0.1233448E+04  0.7818609E-02  0.9084073E-01
       -1   -1    0    0    0  501  0.00000000000E+00  0.00000000000E+00  0.89260882282E+03  0.89260882283E+03  0.50400001928E-02 0. -1.
        1   -1    0    0  501    0  0.00000000000E+00  0.00000000000E+00 -0.42610857827E+03  0.42610857830E+03  0.50400001928E-02 0.  1.
    10030    2    1    2    0    0  0.00000000000E+00  0.00000000000E+00  0.46650024455E+03  0.13187174011E+04  0.12334476502E+04 0.  0.
        3    1    3    3  502    0 -0.29909762020E+03  0.83832007778E+02  0.80286842583E+03  0.86086288765E+03  0.10100000352E+00 0. -1.
       -3    1    3    3    0  502  0.29909762020E+03 -0.83832007778E+02 -0.33636818128E+03  0.45785451348E+03  0.10100000352E+00 0.  1.
</event>
<event>
 5   0  0.4310889E-03  0.1335131E+04  0.7818609E-02  0.9002161E-01
        2   -1    0    0  501    0  0.00000000000E+00  0.00000000000E+00  0.34576770467E+03  0.34576770468E+03  0.25500000920E-02 0.  1.
       -2   -1    0    0    0  501  0.00000000000E+00  0.00000000000E+00 -0.12888532631E+04  0.12888532631E+04  0.25500000920E-02 0. -1.
    10030    2    1    2    0    0  0.00000000000E+00  0.00000000000E+00 -0.94308555841E+03  0.16346209678E+04  0.13351312062E+04 0.  0.
        4    1    3    3  502    0  0.42844141934E+03 -0.26523846779E+03  0.64545994724E+02  0.50801702032E+03  0.12699999809E+01 0.  1.
       -4    1    3    3    0  502 -0.42844141934E+03  0.26523846779E+03 -0.10076315531E+04  0.11266039474E+04  0.12699999809E+01 0. -1.
</event>
<event>
 5   0  0.2458456E-03  0.1367691E+04  0.7818609E-02  0.8977543E-01
        1   -1    0    0  501    0  0.00000000000E+00  0.00000000000E+00  0.41703885540E+03  0.41703885543E+03  0.50400001928E-02 0.  1.
       -1   -1    0    0    0  501  0.00000000000E+00  0.00000000000E+00 -0.11213459669E+04  0.11213459669E+04  0.50400001928E-02 0. -1.
    10030    2    1    2    0    0  0.00000000000E+00  0.00000000000E+00 -0.70430711153E+03  0.15383848224E+04  0.13676912496E+04 0.  0.
        5    1    3    3  502    0 -0.36629487243E+03 -0.30543441199E+03  0.19907007806E+03  0.51682985553E+03  0.46999998093E+01 0.  1.
       -5    1    3    3    0  502  0.36629487243E+03  0.30543441199E+03 -0.90337718959E+03  0.10215549668E+04  0.46999998093E+01 0. -1.
</event>
<event>
 5   0  0.4453011E-03  0.1281290E+04  0.7818609E-02  0.9044535E-01
        2   -1    0    0  501    0  0.00000000000E+00  0.00000000000E+00  0.69505826011E+03  0.69505826012E+03  0.25500000920E-02 0. -1.
       -2   -1    0    0    0  501  0.00000000000E+00  0.00000000000E+00 -0.59049148883E+03  0.59049148883E+03  0.25500000920E-02 0.  1.
    10030    2    1    2    0    0  0.00000000000E+00  0.00000000000E+00  0.10456677129E+03  0.12855497489E+04  0.12812899544E+04 0.  0.
        1    1    3    3  502    0 -0.47982780395E+03  0.38089609754E+03  0.24028143594E+03  0.65806665851E+03  0.50400001928E-02 0. -1.
       -1    1    3    3    0  502  0.47982780395E+03 -0.38089609754E+03 -0.13571466465E+03  0.62748309044E+03  0.50400001928E-02 0.  1.
</event>
<event>
 5   0  0.2462055E-03  0.1277160E+04  0.7818609E-02  0.9047876E-01
       -1   -1    0    0    0  501  0.00000000000E+00  0.00000000000E+00  0.11002434946E+04  0.11002434946E+04  0.50400001928E-02 0.  1.
        1   -1    0    0  501    0  0.00000000000E+00  0.00000000000E+00 -0.37063122416E+03  0.37063122420E+03  0.50400001928E-02 0. -1.
    10030    2    1    2    0    0  0.00000000000E+00  0.00000000000E+00  0.72961227047E+03  0.14708747188E+04  0.12771602771E+04 0.  0.
        2    1    3    3  502    0  0.87450173997E+02  0.32395907118E+03 -0.26091283482E+03  0.42505590234E+03  0.25500000920E-02 0. -1.
       -2    1    3    3    0  502 -0.87450173997E+02 -0.32395907118E+03  0.99052510529E+03  0.10458188165E+04  0.25500000920E-02 0.  1.
</event>
<event>
 5   0  0.4388937E-03  0.1299857E+04  0.7818609E-02  0.9029678E-01
       -2   -1    0    0    0  501  0.00000000000E+00  0.00000000000E+00  0.16458563858E+04  0.16458563858E+04  0.25500000920E-02 0.  1.
        2   -1    0    0  501    0  0.00000000000E+00  0.00000000000E+00 -0.25664892541E+03  0.25664892542E+03  0.25500000920E-02 0. -1.
    10030    2    1    2    0    0  0.00000000000E+00  0.00000000000E+00  0.13892074604E+04  0.19025053112E+04  0.12998573350E+04 0.  0.
        5    1    3    3  502    0  0.25780342860E+03 -0.43131946539E+03  0.91337376289E+02  0.51074817213E+03  0.46999998093E+01 0. -1.
       -5    1    3    3    0  502 -0.25780342860E+03  0.43131946539E+03  0.12978700841E+04  0.13917571391E+04  0.46999998093E+01 0.  1.
</event>
<event>
 5   0  0.2370801E-03  0.1305517E+04  0.7818609E-02  0.9025202E-01
        1   -1    0    0  501    0  0.00000000000E+00  0.00000000000E+00  0.60606925478E+03  0.60606925480E+03  0.50400001928E-02 0.  1.
       -1   -1    0    0    0  501  0.00000000000E+00  0.00000000000E+00 -0.70304416623E+03  0.70304416625E+03  0.50400001928E-02 0. -1.
    10030    2    1    2    0    0  0.00000000000E+00  0.00000000000E+00 -0.96974911452E+02  0.13091134210E+04  0.13055166853E+04 0.  0.
        3    1    3    3  502    0 -0.35292032190E+03 -0.46181529772E+03  0.24942922532E+03  0.63248800104E+03  0.10100000352E+00 0.  1.
       -3    1    3    3    0  502  0.35292032190E+03  0.46181529772E+03 -0.34640413677E+03  0.67662542000E+03  0.10100000352E+00 0. -1.
</event>
<event>
 5   0  0.2370801E-03  0.7292563E+03  0.7818609E-02  0.9668468E-01
       -1   -1    0    0    0  501  0.00000000000E+00  0.00000000000E+00  0.87368226689E+02  0.87368226835E+02  0.50400001928E-02 0.  1.
        1   -1    0    0  501    0  0.00000000000E+00  0.00000000000E+00 -0.15217622723E+04  0.15217622723E+04  0.50400001928E-02 0. -1.
    10030    2    1    2    0    0  0.00000000000E+00  0.00000000000E+00 -0.14343940456E+04  0.16091304992E+04  0.72925625482E+03 0.  0.
        3    1    3    3  502    0 -0.29449522881E+03 -0.21739096439E+02 -0.24521669691E+03  0.38383755255E+03  0.10100000352E+00 0.  1.
       -3    1    3    3    0  502  0.29449522881E+03  0.21739096439E+02 -0.11891773487E+04  0.12252929466E+04  0.10100000352E+00 0. -1.
</event>
<event>
 5   0  0.1661750E-03  0.1274653E+04  0.7818609E-02  0.9049911E-01
        3   -1    0    0  501    0  0.00000000000E+00  0.00000000000E+00  0.63590675929E+03  0.63590676731E+03  0.10100000352E+00 0. -1.
       -3   -1    0    0    0  501  0.00000000000E+00  0.00000000000E+00 -0.63874903910E+03  0.63874904709E+03  0.10100000352E+00 0.  1.
    10030    2    1    2    0    0  0.00000000000E+00  0.00000000000E+00 -0.28422798170E+01  0.12746558144E+04  0.12746526455E+04 0.  0.
        2    1    3    3  502    0 -0.51480343533E+03  0.35553348030E+03  0.12006253139E+03  0.63705701792E+03  0.25500000920E-02 0. -1.
       -2    1    3    3    0  502  0.51480343533E+03 -0.35553348030E+03 -0.12290481121E+03  0.63759879647E+03  0.25500000920E-02 0.  1.
</event>
<event>
 5   0  0.2356769E-03  0.1152387E+04  0.7818609E-02  0.9155584E-01
       -1   -1    0    0    0  501  0.00000000000E+00  0.00000000000E+00  0.17011852929E+03  0.17011852937E+03  0.50400001928E-02 0.  1.
        1   -1    0    0  501    0  0.00000000000E+00  0.00000000000E+00 -0.19515756736E+04  0.19515756736E+04  0.50400001928E-02 0. -1.
    10030    2    1    2    0    0  0.00000000000E+00  0.00000000000E+00 -0.17814571443E+04  0.21216942030E+04  0.11523874062E+04 0.  0.
        1    1    3    3  502    0  0.29816894590E+03 -0.77817725869E+02 -0.17871125093E+04  0.18134859910E+04  0.50400001928E-02 0. -1.
       -1    1    3    3    0  502 -0.29816894590E+03  0.77817725869E+02  0.56553649436E+01  0.30820821199E+03  0.50400001928E-02 0.  1.
</event>
<event>
 5   0  0.2462055E-03  0.1293055E+04  0.7818609E-02  0.9035091E-01
        1   -1    0    0  501    0  0.00000000000E+00  0.00000000000E+00  0.14434383223E+04  0.14434383223E+04  0.50400001928E-02 0.  1.
       -1   -1    0    0    0  501  0.00000000000E+00  0.00000000000E+00 -0.28958484603E+03  0.28958484607E+03  0.50400001928E-02 0. -1.
    10030    2    1    2    0    0  0.00000000000E+00  0.00000000000E+00  0.11538534763E+04  0.17330231684E+04  0.12930550868E+04 0.  0.
        2    1    3    3  502    0 -0.46858496612E+03 -0.36988416803E+03  0.90960078714E+03  0.10880072427E+04  0.25500000920E-02 0.  1.
       -2    1    3    3    0  502  0.46858496612E+03  0.36988416803E+03  0.24425268915E+03  0.64501592569E+03  0.25500000920E-02 0. -1.
</event>
<event>
 5   0  0.2458456E-03  0.1305420E+04  0.7818609E-02  0.9025278E-01
       -1   -1    0    0    0  501  0.00000000000E+00  0.00000000000E+00  0.62234757143E+03  0.62234757145E+03  0.50400001928E-02 0. -1.
        1   -1    0    0  501    0  0.00000000000E+00  0.00000000000E+00 -0.68455388697E+03  0.68455388699E+03  0.50400001928E-02 0.  1.
    10030    2    1    2    0    0  0.00000000000E+00  0.00000000000E+00 -0.62206315542E+02  0.13069014584E+04  0.13054201609E+04 0.  0.
        5    1    3    3  502    0 -0.34780462264E+03  0.39657902474E+03  0.35373566326E+03  0.63513304736E+03  0.46999998093E+01 0. -1.
       -5    1    3    3    0  502  0.34780462264E+03 -0.39657902474E+03 -0.41594197880E+03  0.67176841107E+03  0.46999998093E+01 0.  1.
</event>
<event>
 5   0  0.4388937E-03  0.1284978E+04  0.7818609E-02  0.9041563E-01
        2   -1    0    0  501    0  0.00000000000E+00  0.00000000000E+00  0.99071051629E+03  0.99071051629E+03  0.25500000920E-02 0.  1.
       -2   -1    0    0    0  501  0.00000000000E+00  0.00000000000E+00 -0.41666285588E+03  0.41666285589E+03  0.25500000920E-02 0. -1.
    10030    2    1    2    0    0  0.00000000000E+00  0.00000000000E+00  0.57404766040E+03  0.14073733722E+04  0.12849782458E+04 0.  0.
        5    1    3    3  502    0 -0.47943018702E+03 -0.26208317451E+03 -0.83147083016E+02  0.55269921476E+03  0.46999998093E+01 0. -1.
       -5    1    3    3    0  502  0.47943018702E+03  0.26208317451E+03  0.65719474342E+03  0.85467415742E+03  0.46999998093E+01 0.  1.
</event>
<event>
 5   0  0.2458456E-03  0.1300725E+04  0.7818609E-02  0.9028990E-01
       -1   -1    0    0    0  501  0.00000000000E+00  0.00000000000E+00  0.25254919186E+04  0.25254919187E+04  0.50400001928E-02 0. -1.
        1   -1    0    0  501    0  0.00000000000E+00  0.00000000000E+00 -0.16748087334E+03  0.16748087341E+03  0.50400001928E-02 0.  1.
    10030    2    1    2    0    0  0.00000000000E+00  0.00000000000E+00  0.23580110453E+04  0.26929727921E+04  0.13007253242E+04 0.  0.
        5    1    3    3  502    0  0.45939815750E+03 -0.15739005960E+03  0.28339440482E+03  0.56227464522E+03  0.46999998093E+01 0.  1.
       -5    1    3    3    0  502 -0.45939815750E+03  0.15739005960E+03  0.20746166405E+04  0.21306981468E+04  0.46999998093E+01 0. -1.
</event>
<event>
 5   0  0.4453011E-03  0.1425928E+04  0.7818609E-02  0.8935262E-01
        2   -1    0    0  501    0  0.00000000000E+00  0.00000000000E+00  0.68982473218E+03  0.68982473218E+03  0.25500000920E-02 0. -1.
       -2   -1    0    0    0  501  0.00000000000E+00  0.00000000000E+00 -0.73687926389E+03  0.73687926389E+03  0.25500000920E-02 0.  1.
    10030    2    1    2    0    0  0.00000000000E+00  0.00000000000E+00 -0.47054531713E+02  0.14267039961E+04  0.14259278255E+04 0.  0.
        1    1    3    3  502    0 -0.13809938462E+03 -0.24023002438E+03  0.63374403033E+03  0.69167434581E+03  0.50400001928E-02 0. -1.
       -1    1    3    3    0  502  0.13809938462E+03  0.24023002438E+03 -0.68079856205E+03  0.73502965026E+03  0.50400001928E-02 0.  1.
</event>
<event>
 5   0  0.2356769E-03  0.1296319E+04  0.7818609E-02  0.9032489E-01
       -1   -1    0    0    0  501  0.00000000000E+00  0.00000000000E+00  0.23251992727E+03  0.23251992732E+03  0.50400001928E-02 0.  1.
        1   -1    0    0  501    0  0.00000000000E+00  0.00000000000E+00 -0.18067736892E+04  0.18067736892E+04  0.50400001928E-02 0. -1.
    10030    2    1    2    0    0  0.00000000000E+00  0.00000000000E+00 -0.15742537619E+04  0.20392936165E+04  0.12963192305E+04 0.  0.
        1    1    3    3  502    0  0.54771421803E+03  0.11037357320E+02 -0.13320750026E+04  0.14403251371E+04  0.50400001928E-02 0. -1.
       -1    1    3    3    0  502 -0.54771421803E+03 -0.11037357320E+02 -0.24217875931E+03  0.59896847945E+03  0.50400001928E-02 0.  1.
</event>
<event>
 5   0  0.4310889E-03  0.1302726E+04  0.7818609E-02  0.9027406E-01
        2   -1    0    0  501    0  0.00000000000E+00  0.00000000000E+00  0.10400135403E+04  0.10400135403E+04  0.25500000920E-02 0.  1.
       -2   -1    0    0    0  501  0.00000000000E+00  0.00000000000E+00 -0.40795028662E+03  0.40795028663E+03  0.25500000920E-02 0. -1.
    10030    2    1    2    0    0  0.00000000000E+00  0.00000000000E+00  0.63206325371E+03  0.14479638270E+04  0.13027260984E+04 0.  0.
        4    1    3    3  502    0 -0.14315514095E+03 -0.63503516643E+03  0.34111167233E+03  0.73492982174E+03  0.12699999809E+01 0.  1.
       -4    1    3    3    0  502  0.14315514095E+03  0.63503516643E+03  0.29095158138E+03  0.71303400522E+03  0.12699999809E+01 0. -1.
</event>
<event>
 5   0  0.4306214E-03  0.1191439E+04  0.7818609E-02  0.9120383E-01
        2   -1    0    0  501    0  0.00000000000E+00  0.00000000000E+00  0.59518135755E+03  0.59518135756E+03  0.25500000920E-02 0. -1.
       -2   -1    0    0    0  501  0.00000000000E+00  0.00000000000E+00 -0.59625831584E+03  0.59625831585E+03  0.25500000920E-02 0.  1.
    10030    2    1    2    0    0  0.00000000000E+00  0.00000000000E+00 -0.10769582901E+01  0.11914396734E+04  0.11914391867E+04 0.  0.
        3    1    3    3  502    0 -0.17484421455E+03 -0.49612429378E+02 -0.56785690308E+03  0.59623264343E+03  0.10100000352E+00 0.  1.
       -3    1    3    3    0  502  0.17484421455E+03  0.49612429378E+02  0.56677994479E+03  0.59520702997E+03  0.10100000352E+00 0. -1.
</event>
<event>
 5   0  0.2370801E-03  0.1313458E+04  0.7818609E-02  0.9018961E-01
        1   -1    0    0  501    0  0.00000000000E+00  0.00000000000E+00  0.80059165191E+03  0.80059165193E+03  0.50400001928E-02 0. -1.
       -1   -1    0    0    0  501  0.00000000000E+00  0.00000000000E+00 -0.53871757566E+03  0.53871757569E+03  0.50400001928E-02 0.  1.
    10030    2    1    2    0    0  0.00000000000E+00  0.00000000000E+00  0.26187407625E+03  0.13393092276E+04  0.13134577174E+04 0.  0.
        3    1    3    3  502    0  0.48046718562E+03 -0.44736115915E+03  0.14894995913E+03  0.67317666604E+03  0.10100000352E+00 0. -1.
       -3    1    3    3    0  502 -0.48046718562E+03  0.44736115915E+03  0.11292411712E+03  0.66613256158E+03  0.10100000352E+00 0.  1.
</event>
<event>
 5   0  0.2458456E-03  0.1304847E+04  0.7818609E-02  0.9025730E-01
       -1   -1    0    0    0  501  0.00000000000E+00  0.00000000000E+00  0.58230228892E+03  0.58230228894E+03  0.50400001928E-02 0.  1.
        1   -1    0    0  501    0  0.00000000000E+00  0.00000000000E+00 -0.73098892918E+03  0.73098892920E+03  0.50400001928E-02 0. -1.
    10030    2    1    2    0    0  0.00000000000E+00  0.00000000000E+00 -0.14868664026E+03  0.13132912181E+04  0.13048471583E+04 0.  0.
        5    1    3    3  502    0 -0.54859666868E+02  0.61101847017E+03 -0.29777378944E+03  0.68194169371E+03  0.46999998093E+01 0. -1.
       -5    1    3    3    0  502  0.54859666868E+02 -0.61101847017E+03  0.14908714918E+03  0.63134952443E+03  0.46999998093E+01 0.  1.
</event>
<event>
 5   0  0.1661750E-03  0.1280871E+04  0.7818609E-02  0.9044874E-01
       -3   -1    0    0    0  501  0.00000000000E+00  0.00000000000E+00  0.55406398716E+03  0.55406399637E+03  0.10100000352E+00 0.  1.
        3   -1    0    0  501    0  0.00000000000E+00  0.00000000000E+00 -0.74027093263E+03  0.74027093952E+03  0.10100000352E+00 0. -1.
    10030    2    1    2    0    0  0.00000000000E+00  0.00000000000E+00 -0.18620694547E+03  0.12943349359E+04  0.12808707584E+04 0.  0.
        4    1    3    3  502    0 -0.20089107496E+03  0.57272160541E+03  0.11346796732E+03  0.61744947470E+03  0.12699999809E+01 0.  1.
       -4    1    3    3    0  502  0.20089107496E+03 -0.57272160541E+03 -0.29967491279E+03  0.67688546118E+03  0.12699999809E+01 0. -1.
</event>
<event>
 5   0  0.2462055E-03  0.1283994E+04  0.7818609E-02  0.9042356E-01
        1   -1    0    0  501    0  0.00000000000E+00  0.00000000000E+00  0.60538255265E+03  0.60538255267E+03  0.50400001928E-02 0.  1.
       -1   -1    0    0    0  501  0.00000000000E+00  0.00000000000E+00 -0.68082542547E+03  0.68082542549E+03  0.50400001928E-02 0. -1.
    10030    2    1    2    0    0  0.00000000000E+00  0.00000000000E+00 -0.75442872823E+02  0.12862079782E+04  0.12839935109E+04 0.  0.
        2    1    3    3  502    0  0.10052589161E+03  0.63336490575E+03 -0.76150637675E+01  0.64133809174E+03  0.25500000920E-02 0. -1.
       -2    1    3    3    0  502 -0.10052589161E+03 -0.63336490575E+03 -0.67827809056E+02  0.64486988642E+03  0.25500000920E-02 0.  1.
</event>
<event>
 5   0  0.4306214E-03  0.1312503E+04  0.7818609E-02  0.9019708E-01
        2   -1    0    0  501    0  0.00000000000E+00  0.00000000000E+00  0.13257045877E+04  0.13257045877E+04  0.25500000920E-02 0. -1.
       -2   -1    0    0    0  501  0.00000000000E+00  0.00000000000E+00 -0.32485823813E+03  0.32485823814E+03  0.25500000920E-02 0.  1.
    10030    2    1    2    0    0  0.00000000000E+00  0.00000000000E+00  0.10008463495E+04  0.16505628258E+04  0.13125030387E+04 0.  0.
        3    1    3    3  502    0 -0.46845700772E+03  0.75221192575E+02  0.10705830663E+04  0.11710073902E+04  0.10100000352E+00 0. -1.
       -3    1    3    3    0  502  0.46845700772E+03 -0.75221192575E+02 -0.69736716798E+02  0.47955543555E+03  0.10100000352E+00 0.  1.
</event>
<event>
 5   0  0.4263540E-03  0.1296482E+04  0.7818609E-02  0.9032359E-01
        2   -1    0    0  501    0  0.00000000000E+00  0.00000000000E+00  0.10059920053E+04  0.10059920053E+04  0.25500000920E-02 0.  1.
       -2   -1    0    0    0  501  0.00000000000E+00  0.00000000000E+00 -0.41771361264E+03  0.41771361265E+03  0.25500000920E-02 0. -1.
    10030    2    1    2    0    0  0.00000000000E+00  0.00000000000E+00  0.58827839270E+03  0.14237056180E+04  0.12964822480E+04 0.  0.
        2    1    3    3  502    0  0.15284038835E+03 -0.56246362408E+03  0.60568894076E+03  0.84058587050E+03  0.25500000920E-02 0.  1.
       -2    1    3    3    0  502 -0.15284038835E+03  0.56246362408E+03 -0.17410548055E+02  0.58311974749E+03  0.25500000920E-02 0. -1.
</event>
<event>
 5   0  0.4306214E-03  0.1210605E+04  0.7818609E-02  0.9103625E-01
        2   -1    0    0  501    0  0.00000000000E+00  0.00000000000E+00  0.74925854456E+03  0.74925854456E+03  0.25500000920E-02 0.  1.
       -2   -1    0    0    0  501  0.00000000000E+00  0.00000000000E+00 -0.48900465737E+03  0.48900465738E+03  0.25500000920E-02 0. -1.
    10030    2    1    2    0    0  0.00000000000E+00  0.00000000000E+00  0.26025388719E+03  0.12382632019E+04  0.12106046718E+04 0.  0.
        3    1    3    3  502    0  0.43536305171E+03  0.40396401702E+03  0.24968629695E+03  0.64426017332E+03  0.10100000352E+00 0.  1.
       -3    1    3    3    0  502 -0.43536305171E+03 -0.40396401702E+03  0.10567590238E+02  0.59400302862E+03  0.10100000352E+00 0. -1.
</event>
<event>
 5   0  0.4263540E-03  0.1296399E+04  0.7818609E-02  0.9032425E-01
        2   -1    0    0  501    0  0.00000000000E+00  0.00000000000E+00  0.69701333249E+03  0.69701333250E+03  0.25500000920E-02 0. -1.
       -2   -1    0    0    0  501  0.00000000000E+00  0.00000000000E+00 -0.60280463914E+03  0.60280463914E+03  0.25500000920E-02 0.  1.
    10030    2    1    2    0    0  0.00000000000E+00  0.00000000000E+00  0.94208693356E+02  0.12998179716E+04  0.12963994298E+04 0.  0.
        2    1    3    3  502    0  0.45033406562E+03 -0.34975820641E+03  0.35618870947E+03  0.67231091793E+03  0.25500000920E-02 0. -1.
       -2    1    3    3    0  502 -0.45033406562E+03  0.34975820641E+03 -0.26198001611E+03  0.62750705371E+03  0.25500000920E-02 0.  1.
</event>
<event>
 5   0  0.4306214E-03  0.1312183E+04  0.7818609E-02  0.9019959E-01
       -2   -1    0    0    0  501  0.00000000000E+00  0.00000000000E+00  0.17090999794E+03  0.17090999796E+03  0.25500000920E-02 0.  1.
        2   -1    0    0  501    0  0.00000000000E+00  0.00000000000E+00 -0.25186125908E+04  0.25186125908E+04  0.25500000920E-02 0. -1.
    10030    2    1    2    0    0  0.00000000000E+00  0.00000000000E+00 -0.23477025929E+04  0.26895225888E+04  0.13121830249E+04 0.  0.
        3    1    3    3  502    0 -0.10076390430E+03 -0.30832200074E+03 -0.49363313685E+01  0.32440745694E+03  0.10100000352E+00 0.  1.
       -3    1    3    3    0  502  0.10076390430E+03  0.30832200074E+03 -0.23427662615E+04  0.23651151318E+04  0.10100000352E+00 0. -1.
</event>
<event>
 5   0  0.4388937E-03  0.1285500E+04  0.7818609E-02  0.9041144E-01
       -2   -1    0    0    0  501  0.00000000000E+00  0.00000000000E+00  0.32743606012E+03  0.32743606013E+03  0.25500000920E-02 0. -1.
        2   -1    0    0  501    0  0.00000000000E+00  0.00000000000E+00 -0.12617039379E+04  0.12617039379E+04  0.25500000920E-02 0.  1.
    10030    2    1    2    0    0  0.00000000000E+00  0.00000000000E+00 -0.93426787781E+03  0.15891399981E+04  0.12854996950E+04 0.  0.
        5    1    3    3  502    0 -0.36597726827E+03 -0.48646753049E+03 -0.21223819316E+03  0.64471478946E+03  0.46999998093E+01 0. -1.
       -5    1    3    3    0  502  0.36597726827E+03  0.48646753049E+03 -0.72202968465E+03  0.94442520859E+03  0.46999998093E+01 0.  1.
</event>
<event>
 5   0  0.4310889E-03  0.7993532E+03  0.7818609E-02  0.9560954E-01
        2   -1    0    0  501    0  0.00000000000E+00  0.00000000000E+00  0.97256234102E+03  0.97256234102E+03  0.25500000920E-02 0. -1.
       -2   -1    0    0    0  501  0.00000000000E+00  0.00000000000E+00 -0.16424797081E+03  0.16424797083E+03  0.25500000920E-02 0.  1.
    10030    2    1    2    0    0  0.00000000000E+00  0.00000000000E+00  0.80831437021E+03  0.11368103118E+04  0.79935321607E+03 0.  0.
        4    1    3    3  502    0  0.21725401010E+03 -0.47779002667E+02 -0.68072869852E+02  0.23263204102E+03  0.12699999809E+01 0.  1.
       -4    1    3    3    0  502 -0.21725401010E+03  0.47779002667E+02  0.87638724006E+03  0.90417827083E+03  0.12699999809E+01 0. -1.
</event>
<event>
 5   0  0.4310889E-03  0.1326628E+04  0.7818609E-02  0.9008711E-01
       -2   -1    0    0    0  501  0.00000000000E+00  0.00000000000E+00  0.44760637207E+03  0.44760637208E+03  0.25500000920E-02 0. -1.
        2   -1    0    0  501    0  0.00000000000E+00  0.00000000000E+00 -0.98297415446E+03  0.98297415446E+03  0.25500000920E-02 0.  1.
    10030    2    1    2    0    0  0.00000000000E+00  0.00000000000E+00 -0.53536778239E+03  0.14305805265E+04  0.13266280490E+04 0.  0.
        4    1    3    3  502    0 -0.19185994042E+03  0.32593001217E+03  0.31994058753E+03  0.49538288426E+03  0.12699999809E+01 0. -1.
       -4    1    3    3    0  502  0.19185994042E+03 -0.32593001217E+03 -0.85530836992E+03  0.93519764228E+03  0.12699999809E+01 0.  1.
</event>
<event>
 5   0  0.2356769E-03  0.1352355E+04  0.7818609E-02  0.8989047E-01
       -1   -1    0    0    0  501  0.00000000000E+00  0.00000000000E+00  0.48685244957E+03  0.48685244959E+03  0.50400001928E-02 0. -1.
        1   -1    0    0  501    0  0.00000000000E+00  0.00000000000E+00 -0.93912615324E+03  0.93912615325E+03  0.50400001928E-02 0.  1.
    10030    2    1    2    0    0  0.00000000000E+00  0.00000000000E+00 -0.45227370367E+03  0.14259786028E+04  0.13523547880E+04 0.  0.
        1    1    3    3  502    0 -0.22942370581E+03  0.11783574955E+03 -0.88522195664E+03  0.92202950777E+03  0.50400001928E-02 0.  1.
       -1    1    3    3    0  502  0.22942370581E+03 -0.11783574955E+03  0.43294825296E+03  0.50394909508E+03  0.50400001928E-02 0. -1.
</event>
<event>
 5   0  0.4263540E-03  0.1307505E+04  0.7818609E-02  0.9023635E-01
       -2   -1    0    0    0  501  0.00000000000E+00  0.00000000000E+00  0.45662073940E+03  0.45662073941E+03  0.25500000920E-02 0. -1.
        2   -1    0    0  501    0  0.00000000000E+00  0.00000000000E+00 -0.93598956716E+03  0.93598956717E+03  0.25500000920E-02 0.  1.
    10030    2    1    2    0    0  0.00000000000E+00  0.00000000000E+00 -0.47936882776E+03  0.13926103066E+04  0.13075048730E+04 0.  0.
        2    1    3    3  502    0 -0.52454854482E+03 -0.32647624334E+03 -0.12107974110E+02  0.61796805450E+03  0.25500000920E-02 0. -1.
       -2    1    3    3    0  502  0.52454854482E+03  0.32647624334E+03 -0.46726085365E+03  0.77464225208E+03  0.25500000920E-02 0.  1.
</event>
<event>
 5   0  0.2458456E-03  0.1310622E+04  0.7818609E-02  0.9021184E-01
       -1   -1    0    0    0  501  0.00000000000E+00  0.00000000000E+00  0.84415231331E+03  0.84415231333E+03  0.50400001928E-02 0.  1.
        1   -1    0    0  501    0  0.00000000000E+00  0.00000000000E+00 -0.50871475823E+03  0.50871475825E+03  0.50400001928E-02 0. -1.
    10030    2    1    2    0    0  0.00000000000E+00  0.00000000000E+00  0.33543755509E+03  0.13528670716E+04  0.13106223560E+04 0.  0.
        5    1    3    3  502    0  0.79908828005E+02  0.58083091575E+03  0.46983100617E+03  0.75134095978E+03  0.46999998093E+01 0.  1.
       -5    1    3    3    0  502 -0.79908828005E+02 -0.58083091575E+03 -0.13439345108E+03  0.60152611180E+03  0.46999998093E+01 0. -1.
</event>
<event>
 5   0  0.2511542E-03  0.1293369E+04  0.7818609E-02  0.9034840E-01
       -1   -1    0    0    0  501  0.00000000000E+00  0.00000000000E+00  0.63693136642E+03  0.63693136644E+03  0.50400001928E-02 0.  1.
        1   -1    0    0  501    0  0.00000000000E+00  0.00000000000E+00 -0.65658714395E+03  0.65658714397E+03  0.50400001928E-02 0. -1.
    10030    2    1    2    0    0  0.00000000000E+00  0.00000000000E+00 -0.19655777525E+02  0.12935185104E+04  0.12933691612E+04 0.  0.
        4    1    3    3  502    0  0.30300629884E+03 -0.44759927212E+03  0.34523621642E+03  0.64136384648E+03  0.12699999809E+01 0.  1.
       -4    1    3    3    0  502 -0.30300629884E+03  0.44759927212E+03 -0.36489199395E+03  0.65215466393E+03  0.12699999809E+01 0. -1.
</event>
<event>
 5   0  0.2458456E-03  0.1267220E+04  0.7818609E-02  0.9055971E-01
       -1   -1    0    0    0  501  0.00000000000E+00  0.00000000000E+00  0.77783505959E+03  0.77783505961E+03  0.50400001928E-02 0. -1.
        1   -1    0    0  501    0  0.00000000000E+00  0.00000000000E+00 -0.51612711533E+03  0.51612711536E+03  0.50400001928E-02 0.  1.
    10030    2    1    2    0    0  0.00000000000E+00  0.00000000000E+00  0.26170794426E+03  0.12939621750E+04  0.12672202106E+04 0.  0.
        5    1    3    3  502    0 -0.48214275493E+03  0.95580581607E+02 -0.27738595261E+03  0.56441327095E+03  0.46999998093E+01 0.  1.
       -5    1    3    3    0  502  0.48214275493E+03 -0.95580581607E+02  0.53909389687E+03  0.72954890402E+03  0.46999998093E+01 0. -1.
</event>
<event>
 5   0  0.4453011E-03  0.1295391E+04  0.7818609E-02  0.9033228E-01
        2   -1    0    0  501    0  0.00000000000E+00  0.00000000000E+00  0.16571140576E+04  0.16571140576E+04  0.25500000920E-02 0. -1.
       -2   -1    0    0    0  501  0.00000000000E+00  0.00000000000E+00 -0.25315670037E+03  0.25315670039E+03  0.25500000920E-02 0.  1.
    10030    2    1    2    0    0  0.00000000000E+00  0.00000000000E+00  0.14039573572E+04  0.19102707580E+04  0.12953911023E+04 0.  0.
        1    1    3    3  502    0  0.39989018176E+02 -0.54926336698E+03  0.19924873814E+03  0.58565299244E+03  0.50400001928E-02 0.  1.
       -1    1    3    3    0  502 -0.39989018176E+02  0.54926336698E+03  0.12047086191E+04  0.13246177655E+04  0.50400001928E-02 0. -1.
</event>
<event>
 5   0  0.4306214E-03  0.1299369E+04  0.7818609E-02  0.9030065E-01
       -2   -1    0    0    0  501  0.00000000000E+00  0.00000000000E+00  0.30131381884E+03  0.30131381885E+03  0.25500000920E-02 0.  1.
        2   -1    0    0  501    0  0.00000000000E+00  0.00000000000E+00 -0.14008323239E+04  0.14008323239E+04  0.25500000920E-02 0. -1.
    10030    2    1    2    0    0  0.00000000000E+00  0.00000000000E+00 -0.10995185051E+04  0.17021461428E+04  0.12993692887E+04 0.  0.
        3    1    3    3  502    0  0.47347627315E+03 -0.42403829888E+03 -0.72600795519E+03  0.96492270227E+03  0.10100000352E+00 0. -1.
       -3    1    3    3    0  502 -0.47347627315E+03  0.42403829888E+03 -0.37351054991E+03  0.73722344052E+03  0.10100000352E+00 0.  1.
</event>
<event>
 5   0  0.4388937E-03  0.1379738E+04  0.7818609E-02  0.8968617E-01
        2   -1    0    0  501    0  0.00000000000E+00  0.00000000000E+00  0.84614921827E+03  0.84614921827E+03  0.25500000920E-02 0. -1.
       -2   -1    0    0    0  501  0.00000000000E+00  0.00000000000E+00 -0.56245296630E+03  0.56245296630E+03  0.25500000920E-02 0.  1.
    10030    2    1    2    0    0  0.00000000000E+00  0.00000000000E+00  0.28369625197E+03  0.14086021846E+04  0.13797378559E+04 0.  0.
        5    1    3    3  502    0  0.56787276481E+03 -0.38370134480E+03  0.61520140866E+02  0.68812282098E+03  0.46999998093E+01 0. -1.
       -5    1    3    3    0  502 -0.56787276481E+03  0.38370134480E+03  0.22217611111E+03  0.72047936359E+03  0.46999998093E+01 0.  1.
</event>
<event>
 5   0  0.2458456E-03  0.1116687E+04  0.7818609E-02  0.9189078E-01
        1   -1    0    0  501    0  0.00000000000E+00  0.00000000000E+00  0.17181656553E+04  0.17181656553E+04  0.50400001928E-02 0. -1.
       -1   -1    0    0    0  501  0.00000000000E+00  0.00000000000E+00 -0.18144212743E+03  0.18144212750E+03  0.50400001928E-02 0.  1.
    10030    2    1    2    0    0  0.00000000000E+00  0.00000000000E+00  0.15367235279E+04  0.18996077828E+04  0.11166873006E+04 0.  0.
        5    1    3    3  502    0 -0.17070744922E+02 -0.55794262498E+03  0.74865833248E+03  0.93386442908E+03  0.46999998093E+01 0. -1.
       -5    1    3    3    0  502  0.17070744922E+02  0.55794262498E+03  0.78806519541E+03  0.96574335376E+03  0.46999998093E+01 0.  1.
</event>
<event>
 5   0  0.4306214E-03  0.1285933E+04  0.7818609E-02  0.9040795E-01
        2   -1    0    0  501    0  0.00000000000E+00  0.00000000000E+00  0.77516336442E+03  0.77516336442E+03  0.25500000920E-02 0.  1.
       -2   -1    0    0    0  501  0.00000000000E+00  0.00000000000E+00 -0.53331452243E+03  0.53331452243E+03  0.25500000920E-02 0. -1.
    10030    2    1    2    0    0  0.00000000000E+00  0.00000000000E+00  0.24184884199E+03  0.13084778869E+04  0.12859329368E+04 0.  0.
        3    1    3    3  502    0  0.16575707365E+02 -0.60891108008E+02 -0.53015563382E+03  0.53389838675E+03  0.10100000352E+00 0. -1.
       -3    1    3    3    0  502 -0.16575707365E+02  0.60891108008E+02  0.77200447581E+03  0.77457950010E+03  0.10100000352E+00 0.  1.
</event>
<event>
 5   0  0.4310889E-03  0.1313697E+04  0.7818609E-02  0.9018773E-01
        2   -1    0    0  501    0  0.00000000000E+00  0.00000000000E+00  0.83667341613E+03  0.83667341614E+03  0.25500000920E-02 0.  1.
       -2   -1    0    0    0  501  0.00000000000E+00  0.00000000000E+00 -0.51567323359E+03  0.51567323360E+03  0.25500000920E-02 0. -1.
    10030    2    1    2    0    0  0.00000000000E+00  0.00000000000E+00  0.32100018254E+03  0.13523466497E+04  0.13136972040E+04 0.  0.
        4    1    3    3  502    0 -0.23486163654E+03 -0.52816991313E+03 -0.16064776078E+03  0.59994396522E+03  0.12699999809E+01 0. -1.
       -4    1    3    3    0  502  0.23486163654E+03  0.52816991313E+03  0.48164794332E+03  0.75240268452E+03  0.12699999809E+01 0.  1.
</event>
<event>
 5   0  0.4388937E-03  0.1307332E+04  0.7818609E-02  0.9023771E-01
       -2   -1    0    0    0  501  0.00000000000E+00  0.00000000000E+00  0.56161783733E+03  0.56161783734E+03  0.25500000920E-02 0. -1.
        2   -1    0    0  501    0  0.00000000000E+00  0.00000000000E+00 -0.76080055477E+03  0.76080055477E+03  0.25500000920E-02 0.  1.
    10030    2    1    2    0    0  0.00000000000E+00  0.00000000000E+00 -0.19918271744E+03  0.13224183921E+04  0.13073318817E+04 0.  0.
        5    1    3    3  502    0 -0.42174736067E+03 -0.40942278115E+03 -0.38882673092E+03  0.70477384077E+03  0.46999998093E+01 0. -1.
       -5    1    3    3    0  502  0.42174736067E+03  0.40942278115E+03  0.18964401349E+03  0.61764455134E+03  0.46999998093E+01 0.  1.
</event>
<event>
 5   0  0.2458456E-03  0.1311743E+04  0.7818609E-02  0.9020304E-01
        1   -1    0    0  501    0  0.00000000000E+00  0.00000000000E+00  0.72471888904E+03  0.72471888905E+03  0.50400001928E-02 0. -1.
       -1   -1    0    0    0  501  0.00000000000E+00  0.00000000000E+00 -0.59356460917E+03  0.59356460919E+03  0.50400001928E-02 0.  1.
    10030    2    1    2    0    0  0.00000000000E+00  0.00000000000E+00  0.13115427987E+03  0.13182834982E+04  0.13117430909E+04 0.  0.
        5    1    3    3  502    0  0.40915525936E+02 -0.43958877192E+03 -0.42184940575E+03  0.61064832743E+03  0.46999998093E+01 0.  1.
       -5    1    3    3    0  502 -0.40915525936E+02  0.43958877192E+03  0.55300368562E+03  0.70763517081E+03  0.46999998093E+01 0. -1.
</event>
<event>
 5   0  0.4306214E-03  0.1319810E+04  0.7818609E-02  0.9014001E-01
       -2   -1    0    0    0  501  0.00000000000E+00  0.00000000000E+00  0.76279903371E+03  0.76279903371E+03  0.25500000920E-02 0. -1.
        2   -1    0    0  501    0  0.00000000000E+00  0.00000000000E+00 -0.57089061219E+03  0.57089061219E+03  0.25500000920E-02 0.  1.
    10030    2    1    2    0    0  0.00000000000E+00  0.00000000000E+00  0.19190842152E+03  0.13336896459E+04  0.13198103005E+04 0.  0.
        3    1    3    3  502    0 -0.97783073264E+02  0.18186546033E+03 -0.53740506371E+03  0.57570894363E+03  0.10100000352E+00 0.  1.
       -3    1    3    3    0  502  0.97783073264E+02 -0.18186546033E+03  0.72931348523E+03  0.75798070227E+03  0.10100000352E+00 0. -1.
</event>
<event>
 5   0  0.4453011E-03  0.1308954E+04  0.7818609E-02  0.9022494E-01
        2   -1    0    0  501    0  0.00000000000E+00  0.00000000000E+00  0.21712080725E+04  0.21712080725E+04  0.25500000920E-02 0.  1.
       -2   -1    0    0    0  501  0.00000000000E+00  0.00000000000E+00 -0.19728198441E+03  0.19728198442E+03  0.25500000920E-02 0. -1.
    10030    2    1    2    0    0  0.00000000000E+00  0.00000000000E+00  0.19739260881E+04  0.23684900569E+04  0.13089541430E+04 0.  0.
        1    1    3    3  502    0  0.20412549460E+03  0.11703678241E+03 -0.11810045594E+03  0.26327275533E+03  0.50400001928E-02 0. -1.
       -1    1    3    3    0  502 -0.20412549460E+03 -0.11703678241E+03  0.20920265440E+04  0.21052173016E+04  0.50400001928E-02 0.  1.
</event>
<event>
 5   0  0.4310889E-03  0.1285799E+04  0.7818609E-02  0.9040903E-01
        2   -1    0    0  501    0  0.00000000000E+00  0.00000000000E+00  0.13656813505E+04  0.13656813505E+04  0.25500000920E-02 0. -1.
       -2   -1    0    0    0  501  0.00000000000E+00  0.00000000000E+00 -0.30264750867E+03  0.30264750868E+03  0.25500000920E-02 0.  1.
    10030    2    1    2    0    0  0.00000000000E+00  0.00000000000E+00  0.10630338418E+04  0.16683288592E+04  0.12857994531E+04 0.  0.
        4    1    3    3  502    0 -0.76936703863E+02 -0.45154227459E+03  0.11168458422E+04  0.12071271393E+04  0.12699999809E+01 0. -1.
       -4    1    3    3    0  502  0.76936703863E+02  0.45154227459E+03 -0.53812000431E+02  0.46120171989E+03  0.12699999809E+01 0.  1.
</event>
<event>
 5   0  0.4453011E-03  0.1307665E+04  0.7818609E-02  0.9023509E-01
       -2   -1    0    0    0  501  0.00000000000E+00  0.00000000000E+00  0.10918483180E+04  0.10918483180E+04  0.25500000920E-02 0. -1.
        2   -1    0    0  501    0  0.00000000000E+00  0.00000000000E+00 -0.39153495786E+03  0.39153495787E+03  0.25500000920E-02 0.  1.
    10030    2    1    2    0    0  0.00000000000E+00  0.00000000000E+00  0.70031336009E+03  0.14833832758E+04  0.13076647662E+04 0.  0.
        1    1    3    3  502    0 -0.33292671917E+03  0.27678030996E+03  0.90594207245E+03  0.10040809624E+04  0.50400001928E-02 0. -1.
       -1    1    3    3    0  502  0.33292671917E+03 -0.27678030996E+03 -0.20562871236E+03  0.47930231346E+03  0.50400001928E-02 0.  1.
</event>
<event>
 5   0  0.4306214E-03  0.1236086E+04  0.7818609E-02  0.9081844E-01
       -2   -1    0    0    0  501  0.00000000000E+00  0.00000000000E+00  0.64479360929E+03  0.64479360930E+03  0.25500000920E-02 0.  1.
        2   -1    0    0  501    0  0.00000000000E+00  0.00000000000E+00 -0.59240195062E+03  0.59240195062E+03  0.25500000920E-02 0. -1.
    10030    2    1    2    0    0  0.00000000000E+00  0.00000000000E+00  0.52391658677E+02  0.12371955599E+04  0.12360857444E+04 0.  0.
        3    1    3    3  502    0 -0.18883261961E+03 -0.14178945556E+02  0.61504214385E+03  0.64353372067E+03  0.10100000352E+00 0.  1.
       -3    1    3    3    0  502  0.18883261961E+03  0.14178945556E+02 -0.56265048517E+03  0.59366183926E+03  0.10100000352E+00 0. -1.
</event>
<event>
 5   0  0.4263540E-03  0.1215315E+04  0.7818609E-02  0.9099556E-01
       -2   -1    0    0    0  501  0.00000000000E+00  0.00000000000E+00  0.69840931293E+03  0.69840931294E+03  0.25500000920E-02 0. -1.
        2   -1    0    0  501    0  0.00000000000E+00  0.00000000000E+00 -0.52869771804E+03  0.52869771805E+03  0.25500000920E-02 0.  1.
    10030    2    1    2    0    0  0.00000000000E+00  0.00000000000E+00  0.16971159489E+03  0.12271070310E+04  0.12153146260E+04 0.  0.
        2    1    3    3  502    0 -0.21683136642E+03  0.15349993771E+03 -0.46695353272E+03  0.53723707436E+03  0.25500000920E-02 0.  1.
       -2    1    3    3    0  502  0.21683136642E+03 -0.15349993771E+03  0.63666512761E+03  0.68986995663E+03  0.25500000920E-02 0. -1.
</event>
<event>
 5   0  0.4453011E-03  0.1295447E+04  0.7818609E-02  0.9033183E-01
        2   -1    0    0  501    0  0.00000000000E+00  0.00000000000E+00  0.16057967604E+04  0.16057967604E+04  0.25500000920E-02 0. -1.
       -2   -1    0    0    0  501  0.00000000000E+00  0.00000000000E+00 -0.26126964108E+03  0.26126964110E+03  0.25500000920E-02 0.  1.
    10030    2    1    2    0    0  0.00000000000E+00  0.00000000000E+00  0.13445271193E+04  0.18670664015E+04  0.12954473255E+04 0.  0.
        1    1    3    3  502    0 -0.65401508421E+02  0.45620154130E+03  0.16297826956E+02  0.46115379515E+03  0.50400001928E-02 0.  1.
       -1    1    3    3    0  502  0.65401508421E+02 -0.45620154130E+03  0.13282292924E+04  0.14059126064E+04  0.50400001928E-02 0. -1.
</event>
<event>
 5   0  0.4263540E-03  0.1020119E+04  0.7818609E-02  0.9286750E-01
        2   -1    0    0  501    0  0.00000000000E+00  0.00000000000E+00  0.49840226024E+03  0.49840226024E+03  0.25500000920E-02 0.  1.
       -2   -1    0    0    0  501  0.00000000000E+00  0.00000000000E+00 -0.52198929030E+03  0.52198929031E+03  0.25500000920E-02 0. -1.
    10030    2    1    2    0    0  0.00000000000E+00  0.00000000000E+00 -0.23587030070E+02  0.10203915506E+04  0.10201188992E+04 0.  0.
        2    1    3    3  502    0  0.51394044190E+01 -0.23207738322E+03 -0.46608922835E+03  0.52069712316E+03  0.25500000920E-02 0. -1.
       -2    1    3    3    0  502 -0.51394044190E+01  0.23207738322E+03  0.44250219828E+03  0.49969442739E+03  0.25500000920E-02 0.  1.
</event>
<event>
 5   0  0.2356769E-03  0.1285044E+04  0.7818609E-02  0.9041510E-01
        1   -1    0    0  501    0  0.00000000000E+00  0.00000000000E+00  0.76260102629E+03  0.76260102631E+03  0.50400001928E-02 0. -1.
       -1   -1    0    0    0  501  0.00000000000E+00  0.00000000000E+00 -0.54135094452E+03  0.54135094454E+03  0.50400001928E-02 0.  1.
    10030    2    1    2    0    0  0.00000000000E+00  0.00000000000E+00  0.22125008178E+03  0.13039519708E+04  0.12850444131E+04 0.  0.
        1    1    3    3  502    0  0.38296436995E+03  0.30765924137E+03 -0.30961691461E+03  0.58067077703E+03  0.50400001928E-02 0.  1.
       -1    1    3    3    0  502 -0.38296436995E+03 -0.30765924137E+03  0.53086699639E+03  0.72328119382E+03  0.50400001928E-02 0. -1.
</event>
<event>
 5   0  0.2462055E-03  0.1315806E+04  0.7818609E-02  0.9017124E-01
       -1   -1    0    0    0  501  0.00000000000E+00  0.00000000000E+00  0.17582228557E+03  0.17582228564E+03  0.50400001928E-02 0.  1.
        1   -1    0    0  501    0  0.00000000000E+00  0.00000000000E+00 -0.24617820547E+04  0.24617820547E+04  0.50400001928E-02 0. -1.
    10030    2    1    2    0    0  0.00000000000E+00  0.00000000000E+00 -0.22859597691E+04  0.26376043403E+04  0.13158056810E+04 0.  0.
        2    1    3    3  502    0  0.62490271636E+03  0.60624092505E+02 -0.74885436112E+03  0.97722133608E+03  0.25500000920E-02 0.  1.
       -2    1    3    3    0  502 -0.62490271636E+03 -0.60624092505E+02 -0.15371054080E+04  0.16603830043E+04  0.25500000920E-02 0. -1.
</event>
<event>
 5   0  0.2511542E-03  0.1056290E+04  0.7818609E-02  0.9248874E-01
       -1   -1    0    0    0  501  0.00000000000E+00  0.00000000000E+00  0.86629038202E+03  0.86629038204E+03  0.50400001928E-02 0. -1.
        1   -1    0    0  501    0  0.00000000000E+00  0.00000000000E+00 -0.32199008525E+03  0.32199008529E+03  0.50400001928E-02 0.  1.
    10030    2    1    2    0    0  0.00000000000E+00  0.00000000000E+00  0.54430029678E+03  0.11882804673E+04  0.10562895701E+04 0.  0.
        4    1    3    3  502    0 -0.32065350423E+03  0.41952157183E+03  0.28438490808E+03  0.59974445212E+03  0.12699999809E+01 0.  1.
       -4    1    3    3    0  502  0.32065350423E+03 -0.41952157183E+03  0.25991538869E+03  0.58853601520E+03  0.12699999809E+01 0. -1.
</event>
<event>
 5   0  0.2458456E-03  0.1242491E+04  0.7818609E-02  0.9076456E-01
        1   -1    0    0  501    0  0.00000000000E+00  0.00000000000E+00  0.14864507690E+04  0.14864507690E+04  0.50400001928E-02 0.  1.
       -1   -1    0    0    0  501  0.00000000000E+00  0.00000000000E+00 -0.25964282350E+03  0.25964282355E+03  0.50400001928E-02 0. -1.
    10030    2    1    2    0    0  0.00000000000E+00  0.00000000000E+00  0.12268079455E+04  0.17460935925E+04  0.12424914884E+04 0.  0.
        5    1    3    3  502    0  0.21216054858E+03 -0.33136924973E+03 -0.62181314175E+02  0.39837957260E+03  0.46999998093E+01 0. -1.
       -5    1    3    3    0  502 -0.21216054858E+03  0.33136924973E+03  0.12889892596E+04  0.13477140199E+04  0.46999998093E+01 0.  1.
</event>
<event>
 5   0  0.4306214E-03  0.1300599E+04  0.7818609E-02  0.9029090E-01
        2   -1    0    0  501    0  0.00000000000E+00  0.00000000000E+00  0.19309723972E+04  0.19309723972E+04  0.25500000920E-02 0. -1.
       -2   -1    0    0    0  501  0.00000000000E+00  0.00000000000E+00 -0.21900337816E+03  0.21900337817E+03  0.25500000920E-02 0.  1.
    10030    2    1    2    0    0  0.00000000000E+00  0.00000000000E+00  0.17119690190E+04  0.21499757754E+04  0.13005990591E+04 0.  0.
        3    1    3    3  502    0 -0.59509971268E+03 -0.14934474737E+03  0.12122266874E+04  0.13586541405E+04  0.10100000352E+00 0. -1.
       -3    1    3    3    0  502  0.59509971268E+03  0.14934474737E+03  0.49974233160E+03  0.79132163486E+03  0.10100000352E+00 0.  1.
</event>
<event>
 5   0  0.1661750E-03  0.1270525E+04  0.7818609E-02  0.9053271E-01
        3   -1    0    0  501    0  0.00000000000E+00  0.00000000000E+00  0.60112528231E+03  0.60112529080E+03  0.10100000352E+00 0.  1.
       -3   -1    0    0    0  501  0.00000000000E+00  0.00000000000E+00 -0.67133872526E+03  0.67133873285E+03  0.10100000352E+00 0. -1.
    10030    2    1    2    0    0  0.00000000000E+00  0.00000000000E+00 -0.70213442941E+02  0.12724640237E+04  0.12705253889E+04 0.  0.
        4    1    3    3  502    0  0.41458213601E+03  0.12165011930E+03  0.43130761991E+03  0.61049567969E+03  0.12699999809E+01 0.  1.
       -4    1    3    3    0  502 -0.41458213601E+03 -0.12165011930E+03 -0.50152106285E+03  0.66196834396E+03  0.12699999809E+01 0. -1.
</event>
<event>
 5   0  0.4306214E-03  0.1393605E+04  0.7818609E-02  0.8958461E-01
       -2   -1    0    0    0  501  0.00000000000E+00  0.00000000000E+00  0.47059316355E+03  0.47059316356E+03  0.25500000920E-02 0. -1.
        2   -1    0    0  501    0  0.00000000000E+00  0.00000000000E+00 -0.10317479403E+04  0.10317479403E+04  0.25500000920E-02 0.  1.
    10030    2    1    2    0    0  0.00000000000E+00  0.00000000000E+00 -0.56115477676E+03  0.15023411039E+04  0.13936047176E+04 0.  0.
        3    1    3    3  502    0  0.35676538326E+03 -0.36885432316E+03 -0.78873621151E+03  0.94097814637E+03  0.10100000352E+00 0.  1.
       -3    1    3    3    0  502 -0.35676538326E+03  0.36885432316E+03  0.22758143475E+03  0.56136295750E+03  0.10100000352E+00 0. -1.
</event>
<event>
 5   0  0.2370801E-03  0.1014376E+04  0.7818609E-02  0.9292916E-01
       -1   -1    0    0    0  501  0.00000000000E+00  0.00000000000E+00  0.16784149906E+03  0.16784149913E+03  0.50400001928E-02 0. -1.
        1   -1    0    0  501    0  0.00000000000E+00  0.00000000000E+00 -0.15326354941E+04  0.15326354941E+04  0.50400001928E-02 0.  1.
    10030    2    1    2    0    0  0.00000000000E+00  0.00000000000E+00 -0.13647939951E+04  0.17004769933E+04  0.10143763383E+04 0.  0.
        3    1    3    3  502    0 -0.28920842257E+03 -0.26386675737E+03 -0.14185279995E+03  0.41640053360E+03  0.10100000352E+00 0. -1.
       -3    1    3    3    0  502  0.28920842257E+03  0.26386675737E+03 -0.12229411951E+04  0.12840764597E+04  0.10100000352E+00 0.  1.
</event>
<event>
 5   0  0.2511542E-03  0.1308876E+04  0.7818609E-02  0.9022556E-01
        1   -1    0    0  501    0  0.00000000000E+00  0.00000000000E+00  0.51960674619E+03  0.51960674621E+03  0.50400001928E-02 0. -1.
       -1   -1    0    0    0  501  0.00000000000E+00  0.00000000000E+00 -0.82425662517E+03  0.82425662518E+03  0.50400001928E-02 0.  1.
    10030    2    1    2    0    0  0.00000000000E+00  0.00000000000E+00 -0.30464987898E+03  0.13438633714E+04  0.13088763166E+04 0.  0.
        4    1    3    3  502    0  0.43068639078E+02  0.52598456615E+03  0.24502513515E+03  0.58185359091E+03  0.12699999809E+01 0.  1.
       -4    1    3    3    0  502 -0.43068639078E+02 -0.52598456615E+03 -0.54967501412E+03  0.76200978048E+03  0.12699999809E+01 0. -1.
</event>
<event>
 5   0  0.2458456E-03  0.1275628E+04  0.7818609E-02  0.9049119E-01
       -1   -1    0    0    0  501  0.00000000000E+00  0.00000000000E+00  0.41983023412E+03  0.41983023415E+03  0.50400001928E-02 0. -1.
        1   -1    0    0  501    0  0.00000000000E+00  0.00000000000E+00 -0.96897829515E+03  0.96897829516E+03  0.50400001928E-02 0.  1.
    10030    2    1    2    0    0  0.00000000000E+00  0.00000000000E+00 -0.54914806103E+03  0.13888085293E+04  0.12756275076E+04 0.  0.
        5    1    3    3  502    0 -0.26505784145E+03  0.38433669003E+03 -0.74765505776E+03  0.88146498854E+03  0.46999998093E+01 0.  1.
       -5    1    3    3    0  502  0.26505784145E+03 -0.38433669003E+03  0.19850699674E+03  0.50734354078E+03  0.46999998093E+01 0. -1.
</event>
<event>
 5   0  0.4310889E-03  0.1287914E+04  0.7818609E-02  0.9039205E-01
        2   -1    0    0  501    0  0.00000000000E+00  0.00000000000E+00  0.71065957438E+03  0.71065957438E+03  0.25500000920E-02 0. -1.
       -2   -1    0    0    0  501  0.00000000000E+00  0.00000000000E+00 -0.58351524118E+03  0.58351524119E+03  0.25500000920E-02 0.  1.
    10030    2    1    2    0    0  0.00000000000E+00  0.00000000000E+00  0.12714433319E+03  0.12941748156E+04  0.12879141166E+04 0.  0.
        4    1    3    3  502    0  0.14884797863E+03  0.27789011595E+03  0.62781796147E+03  0.70252091992E+03  0.12699999809E+01 0. -1.
       -4    1    3    3    0  502 -0.14884797863E+03 -0.27789011595E+03 -0.50067362828E+03  0.59165389565E+03  0.12699999809E+01 0.  1.
</event>
<event>
 5   0  0.4310889E-03  0.1283601E+04  0.7818609E-02  0.9042672E-01
       -2   -1    0    0    0  501  0.00000000000E+00  0.00000000000E+00  0.19615547006E+03  0.19615547008E+03  0.25500000920E-02 0. -1.
        2   -1    0    0  501    0  0.00000000000E+00  0.00000000000E+00 -0.20999041583E+04  0.20999041583E+04  0.25500000920E-02 0.  1.
    10030    2    1    2    0    0  0.00000000000E+00  0.00000000000E+00 -0.19037486882E+04  0.22960596283E+04  0.12836006969E+04 0.  0.
        4    1    3    3  502    0 -0.38491609593E+03  0.81600804684E+02 -0.44903635540E+02  0.39602656681E+03  0.12699999809E+01 0. -1.
       -4    1    3    3    0  502  0.38491609593E+03 -0.81600804684E+02 -0.18588450527E+04  0.19000330615E+04  0.12699999809E+01 0.  1.
</event>
<event>
 5   0  0.4306214E-03  0.1382424E+04  0.7818609E-02  0.8966640E-01
        2   -1    0    0  501    0  0.00000000000E+00  0.00000000000E+00  0.25991165574E+04  0.25991165574E+04  0.25500000920E-02 0.  1.
       -2   -1    0    0    0  501  0.00000000000E+00  0.00000000000E+00 -0.18382160287E+03  0.18382160289E+03  0.25500000920E-02 0. -1.
    10030    2    1    2    0    0  0.00000000000E+00  0.00000000000E+00  0.24152949545E+04  0.27829381603E+04  0.13824236278E+04 0.  0.
        3    1    3    3  502    0  0.46709132066E+03  0.50676818289E+03  0.11014017367E+04  0.12992590538E+04  0.10100000352E+00 0. -1.
       -3    1    3    3    0  502 -0.46709132066E+03 -0.50676818289E+03  0.13138932178E+04  0.14836791065E+04  0.10100000352E+00 0.  1.
</event>
<event>
 5   0  0.2356769E-03  0.1309823E+04  0.7818609E-02  0.9021811E-01
        1   -1    0    0  501    0  0.00000000000E+00  0.00000000000E+00  0.97235039181E+03  0.97235039183E+03  0.50400001928E-02 0.  1.
       -1   -1    0    0    0  501  0.00000000000E+00  0.00000000000E+00 -0.44110572696E+03  0.44110572699E+03  0.50400001928E-02 0. -1.
    10030    2    1    2    0    0  0.00000000000E+00  0.00000000000E+00  0.53124466485E+03  0.14134561188E+04  0.13098233873E+04 0.  0.
        1    1    3    3  502    0 -0.59837548290E+03 -0.22814865651E+03  0.11764399036E+03  0.65111069450E+03  0.50400001928E-02 0.  1.
       -1    1    3    3    0  502  0.59837548290E+03  0.22814865651E+03  0.41360067450E+03  0.76234542431E+03  0.50400001928E-02 0. -1.
</event>
<event>
 5   0  0.4310889E-03  0.1273929E+04  0.7818609E-02  0.9050499E-01
        2   -1    0    0  501    0  0.00000000000E+00  0.00000000000E+00  0.11331125571E+04  0.11331125571E+04  0.25500000920E-02 0.  1.
       -2   -1    0    0    0  501  0.00000000000E+00  0.00000000000E+00 -0.35806153427E+03  0.35806153428E+03  0.25500000920E-02 0. -1.
    10030    2    1    2    0    0  0.00000000000E+00  0.00000000000E+00  0.77505102281E+03  0.14911740914E+04  0.12739293869E+04 0.  0.
        4    1    3    3  502    0  0.18790502545E+03 -0.60848587866E+03  0.40228742141E+03  0.75325967995E+03  0.12699999809E+01 0.  1.
       -4    1    3    3    0  502 -0.18790502545E+03  0.60848587866E+03  0.37276360140E+03  0.73791441140E+03  0.12699999809E+01 0. -1.
</event>
<event>
 5   0  0.2511542E-03  0.1278569E+04  0.7818609E-02  0.9046735E-01
        1   -1    0    0  501    0  0.00000000000E+00  0.00000000000E+00  0.13743159703E+04  0.13743159703E+04  0.50400001928E-02 0. -1.
       -1   -1    0    0    0  501  0.00000000000E+00  0.00000000000E+00 -0.29737304430E+03  0.29737304435E+03  0.50400001928E-02 0.  1.
    10030    2    1    2    0    0  0.00000000000E+00  0.00000000000E+00  0.10769429260E+04  0.16716890147E+04  0.12785687685E+04 0.  0.
        4    1    3    3  502    0  0.24459778582E+03 -0.28482548665E+03  0.12149894203E+04  0.12716739122E+04  0.12699999809E+01 0. -1.
       -4    1    3    3    0  502 -0.24459778582E+03  0.28482548665E+03 -0.13804649432E+03  0.40001510243E+03  0.12699999809E+01 0.  1.
</event>
<event>
 5   0  0.4453011E-03  0.1357900E+04  0.7818609E-02  0.8984870E-01
       -2   -1    0    0    0  501  0.00000000000E+00  0.00000000000E+00  0.63499909464E+03  0.63499909465E+03  0.25500000920E-02 0.  1.
        2   -1    0    0  501    0  0.00000000000E+00  0.00000000000E+00 -0.72594268669E+03  0.72594268670E+03  0.25500000920E-02 0. -1.
    10030    2    1    2    0    0  0.00000000000E+00  0.00000000000E+00 -0.90943592051E+02  0.13609417813E+04  0.13578997737E+04 0.  0.
        1    1    3    3  502    0 -0.50663741931E+03  0.32922872798E+03 -0.35584266426E+03  0.70121111778E+03  0.50400001928E-02 0. -1.
       -1    1    3    3    0  502  0.50663741931E+03 -0.32922872798E+03  0.26489907221E+03  0.65973066357E+03  0.50400001928E-02 0.  1.
</event>
<event>
 5   0  0.4388937E-03  0.1305162E+04  0.7818609E-02  0.9025482E-01
       -2   -1    0    0    0  501  0.00000000000E+00  0.00000000000E+00  0.29398741341E+03  0.29398741342E+03  0.25500000920E-02 0. -1.
        2   -1    0    0  501    0  0.00000000000E+00  0.00000000000E+00 -0.14485717033E+04  0.14485717033E+04  0.25500000920E-02 0.  1.
    10030    2    1    2    0    0  0.00000000000E+00  0.00000000000E+00 -0.11545842899E+04  0.17425591168E+04  0.13051618263E+04 0.  0.
        5    1    3    3  502    0 -0.54307751481E+02 -0.57198854137E+03 -0.99036194789E+03  0.11449712229E+04  0.46999998093E+01 0.  1.
       -5    1    3    3    0  502  0.54307751481E+02  0.57198854137E+03 -0.16422234203E+03  0.59758789391E+03  0.46999998093E+01 0. -1.
</event>
<event>
 5   0  0.2511542E-03  0.1290596E+04  0.7818609E-02  0.9037056E-01
       -1   -1    0    0    0  501  0.00000000000E+00  0.00000000000E+00  0.28108020040E+03  0.28108020044E+03  0.50400001928E-02 0. -1.
        1   -1    0    0  501    0  0.00000000000E+00  0.00000000000E+00 -0.14814618517E+04  0.14814618517E+04  0.50400001928E-02 0.  1.
    10030    2    1    2    0    0  0.00000000000E+00  0.00000000000E+00 -0.12003816513E+04  0.17625420521E+04  0.12905961323E+04 0.  0.
        4    1    3    3  502    0 -0.57286483848E+03  0.15996330989E+03 -0.94200841465E+03  0.11140663579E+04  0.12699999809E+01 0. -1.
       -4    1    3    3    0  502  0.57286483848E+03 -0.15996330989E+03 -0.25837323663E+03  0.64847569421E+03  0.12699999809E+01 0.  1.
</event>
<event>
 5   0  0.2356769E-03  0.1294336E+04  0.7818609E-02  0.9034069E-01
        1   -1    0    0  501    0  0.00000000000E+00  0.00000000000E+00  0.12316408400E+04  0.12316408400E+04  0.50400001928E-02 0. -1.
       -1   -1    0    0    0  501  0.00000000000E+00  0.00000000000E+00 -0.34005578802E+03  0.34005578806E+03  0.50400001928E-02 0.  1.
    10030    2    1    2    0    0  0.00000000000E+00  0.00000000000E+00  0.89158505199E+03  0.15716966281E+04  0.12943362723E+04 0.  0.
        1    1    3    3  502    0 -0.48914397641E+03 -0.86896612493E+01  0.96023975090E+03  0.10776816409E+04  0.50400001928E-02 0.  1.
       -1    1    3    3    0  502  0.48914397641E+03  0.86896612493E+01 -0.68654698906E+02  0.49401498720E+03  0.50400001928E-02 0. -1.
</event>
<event>
 5   0  0.2511542E-03  0.1317505E+04  0.7818609E-02  0.9015797E-01
        1   -1    0    0  501    0  0.00000000000E+00  0.00000000000E+00  0.31574102082E+03  0.31574102086E+03  0.50400001928E-02 0. -1.
       -1   -1    0    0    0  501  0.00000000000E+00  0.00000000000E+00 -0.13744015496E+04  0.13744015496E+04  0.50400001928E-02 0.  1.
    10030    2    1    2    0    0  0.00000000000E+00  0.00000000000E+00 -0.10586605287E+04  0.16901425704E+04  0.13175051397E+04 0.  0.
        4    1    3    3  502    0  0.66708266901E+02 -0.36088866276E+03 -0.12311043530E+04  0.12846439820E+04  0.12699999809E+01 0.  1.
       -4    1    3    3    0  502 -0.66708266901E+02  0.36088866276E+03  0.17244382422E+03  0.40549858840E+03  0.12699999809E+01 0. -1.
</event>
<event>
 5   0  0.4310889E-03  0.1269073E+04  0.7818609E-02  0.9054457E-01
       -2   -1    0    0    0  501  0.00000000000E+00  0.00000000000E+00  0.59826348734E+03  0.59826348734E+03  0.25500000920E-02 0.  1.
        2   -1    0    0  501    0  0.00000000000E+00  0.00000000000E+00 -0.67300876813E+03  0.67300876814E+03  0.25500000920E-02 0. -1.
    10030    2    1    2    0    0  0.00000000000E+00  0.00000000000E+00 -0.74745280794E+02  0.12712722555E+04  0.12690730044E+04 0.  0.
        4    1    3    3  502    0  0.74776323565E+02  0.55905875675E+02 -0.66608916192E+03  0.67260192538E+03  0.12699999809E+01 0. -1.
       -4    1    3    3    0  502 -0.74776323565E+02 -0.55905875675E+02  0.59134388112E+03  0.59867033010E+03  0.12699999809E+01 0.  1.
</event>
<event>
 5   0  0.2356769E-03  0.1283156E+04  0.7818609E-02  0.9043030E-01
        1   -1    0    0  501    0  0.00000000000E+00  0.00000000000E+00  0.84270208926E+03  0.84270208928E+03  0.50400001928E-02 0. -1.
       -1   -1    0    0    0  501  0.00000000000E+00  0.00000000000E+00 -0.48845519390E+03  0.48845519393E+03  0.50400001928E-02 0.  1.
    10030    2    1    2    0    0  0.00000000000E+00  0.00000000000E+00  0.35424689536E+03  0.13311572832E+04  0.12831558166E+04 0.  0.
        1    1    3    3  502    0 -0.50386195746E+03  0.19858108132E+03  0.53395425654E+03  0.76053827395E+03  0.50400001928E-02 0. -1.
       -1    1    3    3    0  502  0.50386195746E+03 -0.19858108132E+03 -0.17970736117E+03  0.57061900926E+03  0.50400001928E-02 0.  1.
</event>
<event>
 5   0  0.4453011E-03  0.1311204E+04  0.7818609E-02  0.9020727E-01
        2   -1    0    0  501    0  0.00000000000E+00  0.00000000000E+00  0.17122850288E+04  0.17122850288E+04  0.25500000920E-02 0. -1.
       -2   -1    0    0    0  501  0.00000000000E+00  0.00000000000E+00 -0.25101767233E+03  0.25101767235E+03  0.25500000920E-02 0.  1.
    10030    2    1    2    0    0  0.00000000000E+00  0.00000000000E+00  0.14612673564E+04  0.19633027011E+04  0.13112037253E+04 0.  0.
        1    1    3    3  502    0  0.14350505564E+03  0.63518467656E+03  0.61698922753E+03  0.89706687668E+03  0.50400001928E-02 0. -1.
       -1    1    3    3    0  502 -0.14350505564E+03 -0.63518467656E+03  0.84427812889E+03  0.10662358244E+04  0.50400001928E-02 0.  1.
</event>
<event>
 5   0  0.1661750E-03  0.1331727E+04  0.7818609E-02  0.9004777E-01
        3   -1    0    0  501    0  0.00000000000E+00  0.00000000000E+00  0.12706041553E+04  0.12706041593E+04  0.10100000352E+00 0. -1.
       -3   -1    0    0    0  501  0.00000000000E+00  0.00000000000E+00 -0.34894746390E+03  0.34894747852E+03  0.10100000352E+00 0.  1.
    10030    2    1    2    0    0  0.00000000000E+00  0.00000000000E+00  0.92165669143E+03  0.16195516379E+04  0.13317268680E+04 0.  0.
        2    1    3    3  502    0 -0.35916735703E+03 -0.27988800487E+03 -0.13000965217E+03  0.47354091195E+03  0.25500000920E-02 0.  1.
       -2    1    3    3    0  502  0.35916735703E+03  0.27988800487E+03  0.10516663436E+04  0.11460107259E+04  0.25500000920E-02 0. -1.
</event>
<event>
 5   0  0.2458456E-03  0.1289967E+04  0.7818609E-02  0.9037559E-01
       -1   -1    0    0    0  501  0.00000000000E+00  0.00000000000E+00  0.58126170066E+03  0.58126170068E+03  0.50400001928E-02 0. -1.
        1   -1    0    0  501    0  0.00000000000E+00  0.00000000000E+00 -0.71569094876E+03  0.71569094878E+03  0.50400001928E-02 0.  1.
    10030    2    1    2    0    0  0.00000000000E+00  0.00000000000E+00 -0.13442924810E+03  0.12969526495E+04  0.12899670353E+04 0.  0.
        5    1    3    3  502    0  0.32190721083E+03 -0.22277430199E+03 -0.58256134836E+03  0.70189205482E+03  0.46999998093E+01 0.  1.
       -5    1    3    3    0  502 -0.32190721083E+03  0.22277430199E+03  0.44813210026E+03  0.59506059464E+03  0.46999998093E+01 0. -1.
</event>
<event>
 5   0  0.4306214E-03  0.1297515E+04  0.7818609E-02  0.9031538E-01
       -2   -1    0    0    0  501  0.00000000000E+00  0.00000000000E+00  0.54083582610E+03  0.54083582610E+03  0.25500000920E-02 0. -1.
        2   -1    0    0  501    0  0.00000000000E+00  0.00000000000E+00 -0.77821423488E+03  0.77821423488E+03  0.25500000920E-02 0.  1.
    10030    2    1    2    0    0  0.00000000000E+00  0.00000000000E+00 -0.23737840878E+03  0.13190500610E+04  0.12975147608E+04 0.  0.
        3    1    3    3  502    0  0.28216153995E+03  0.51301970890E+03  0.16537976895E+03  0.60840351292E+03  0.10100000352E+00 0.  1.
       -3    1    3    3    0  502 -0.28216153995E+03 -0.51301970890E+03 -0.40275817773E+03  0.71064654807E+03  0.10100000352E+00 0. -1.
</event>
<event>
 5   0  0.2356769E-03  0.1274997E+04  0.7818609E-02  0.9049631E-01
        1   -1    0    0  501    0  0.00000000000E+00  0.00000000000E+00  0.61451842120E+03  0.61451842122E+03  0.50400001928E-02 0.  1.
       -1   -1    0    0    0  501  0.00000000000E+00  0.00000000000E+00 -0.66133822271E+03  0.66133822272E+03  0.50400001928E-02 0. -1.
    10030    2    1    2    0    0  0.00000000000E+00  0.00000000000E+00 -0.46819801505E+02  0.12758566439E+04  0.12749972871E+04 0.  0.
        1    1    3    3  502    0  0.44887217458E+03 -0.18864074035E+03 -0.43518812083E+03  0.65303924734E+03  0.50400001928E-02 0. -1.
       -1    1    3    3    0  502 -0.44887217458E+03  0.18864074035E+03  0.38836831932E+03  0.62281739660E+03  0.50400001928E-02 0.  1.
</event>
<event>
 5   0  0.2458456E-03  0.1360751E+04  0.7818609E-02  0.8982730E-01
        1   -1    0    0  501    0  0.00000000000E+00  0.00000000000E+00  0.13547606349E+04  0.13547606349E+04  0.50400001928E-02 0.  1.
       -1   -1    0    0    0  501  0.00000000000E+00  0.00000000000E+00 -0.34169176957E+03  0.34169176961E+03  0.50400001928E-02 0. -1.
    10030    2    1    2    0    0  0.00000000000E+00  0.00000000000E+00  0.10130688653E+04  0.16964524045E+04  0.13607506145E+04 0.  0.
        5    1    3    3  502    0 -0.33040685953E+03 -0.55906470423E+03  0.25358439048E+03  0.69717226669E+03  0.46999998093E+01 0. -1.
       -5    1    3    3    0  502  0.33040685953E+03  0.55906470423E+03  0.75948447485E+03  0.99928013784E+03  0.46999998093E+01 0.  1.
</event>
<event>
 5   0  0.1661750E-03  0.1255514E+04  0.7818609E-02  0.9065607E-01
       -3   -1    0    0    0  501  0.00000000000E+00  0.00000000000E+00  0.11557095695E+04  0.11557095739E+04  0.10100000352E+00 0.  1.
        3   -1    0    0  501    0  0.00000000000E+00  0.00000000000E+00 -0.34098424816E+03  0.34098426312E+03  0.10100000352E+00 0. -1.
    10030    2    1    2    0    0  0.00000000000E+00  0.00000000000E+00  0.81472532132E+03  0.14966938370E+04  0.12555138759E+04 0.  0.
        1    1    3    3  502    0 -0.26199626004E+02  0.42576600820E+03 -0.14166954283E+03  0.44948122711E+03  0.50400001928E-02 0. -1.
       -1    1    3    3    0  502  0.26199626004E+02 -0.42576600820E+03  0.95639486415E+03  0.10472126099E+04  0.50400001928E-02 0.  1.
</event>
<event>
 5   0  0.4388937E-03  0.1049831E+04  0.7818609E-02  0.9255518E-01
        2   -1    0    0  501    0  0.00000000000E+00  0.00000000000E+00  0.81711347894E+03  0.81711347894E+03  0.25500000920E-02 0.  1.
       -2   -1    0    0    0  501  0.00000000000E+00  0.00000000000E+00 -0.33720709354E+03  0.33720709355E+03  0.25500000920E-02 0. -1.
    10030    2    1    2    0    0  0.00000000000E+00  0.00000000000E+00  0.47990638540E+03  0.11543205725E+04  0.10498313414E+04 0.  0.
        5    1    3    3  502    0  0.26044936432E+03  0.34704991026E+03 -0.84802605581E+02  0.44214373625E+03  0.46999998093E+01 0. -1.
       -5    1    3    3    0  502 -0.26044936432E+03 -0.34704991026E+03  0.56470899098E+03  0.71217683624E+03  0.46999998093E+01 0.  1.
</event>
<event>
 5   0  0.2356769E-03  0.6931163E+03  0.7818609E-02  0.9729077E-01
       -1   -1    0    0    0  501  0.00000000000E+00  0.00000000000E+00  0.11445316310E+03  0.11445316321E+03  0.50400001928E-02 0. -1.
        1   -1    0    0  501    0  0.00000000000E+00  0.00000000000E+00 -0.10493598352E+04  0.10493598353E+04  0.50400001928E-02 0.  1.
    10030    2    1    2    0    0  0.00000000000E+00  0.00000000000E+00 -0.93490667214E+03  0.11638129985E+04  0.69311630321E+03 0.  0.
        1    1    3    3  502    0 -0.10032433065E+03  0.32742759474E+03 -0.55675806828E+03  0.65364619462E+03  0.50400001928E-02 0.  1.
       -1    1    3    3    0  502  0.10032433065E+03 -0.32742759474E+03 -0.37814860386E+03  0.51016680385E+03  0.50400001928E-02 0. -1.
</event>
<event>
 5   0  0.2458456E-03  0.1120515E+04  0.7818609E-02  0.9185424E-01
       -1   -1    0    0    0  501  0.00000000000E+00  0.00000000000E+00  0.19104685672E+03  0.19104685678E+03  0.50400001928E-02 0. -1.
        1   -1    0    0  501    0  0.00000000000E+00  0.00000000000E+00 -0.16429928825E+04  0.16429928825E+04  0.50400001928E-02 0.  1.
    10030    2    1    2    0    0  0.00000000000E+00  0.00000000000E+00 -0.14519460257E+04  0.18340397392E+04  0.11205152848E+04 0.  0.
        5    1    3    3  502    0 -0.25956203549E+03 -0.38301817332E+03 -0.20891770377E+03  0.50768500895E+03  0.46999998093E+01 0. -1.
       -5    1    3    3    0  502  0.25956203549E+03  0.38301817332E+03 -0.12430283220E+04  0.13263547303E+04  0.46999998093E+01 0.  1.
</event>
<event>
 5   0  0.2370801E-03  0.6749076E+03  0.7818609E-02  0.9761133E-01
       -1   -1    0    0    0  501  0.00000000000E+00  0.00000000000E+00  0.43596562522E+03  0.43596562525E+03  0.50400001928E-02 0.  1.
        1   -1    0    0  501    0  0.00000000000E+00  0.00000000000E+00 -0.26120195717E+03  0.26120195721E+03  0.50400001928E-02 0. -1.
    10030    2    1    2    0    0  0.00000000000E+00  0.00000000000E+00  0.17476366805E+03  0.69716758246E+03  0.67490762210E+03 0.  0.
        3    1    3    3  502    0  0.57423047717E+02 -0.31644167659E+03 -0.18176230684E+02  0.32212284404E+03  0.10100000352E+00 0.  1.
       -3    1    3    3    0  502 -0.57423047717E+02  0.31644167659E+03  0.19293989874E+03  0.37504473842E+03  0.10100000352E+00 0. -1.
</event>
<event>
 5   0  0.4310889E-03  0.1323101E+04  0.7818609E-02  0.9011444E-01
        2   -1    0    0  501    0  0.00000000000E+00  0.00000000000E+00  0.15107195171E+04  0.15107195171E+04  0.25500000920E-02 0. -1.
       -2   -1    0    0    0  501  0.00000000000E+00  0.00000000000E+00 -0.28969575953E+03  0.28969575954E+03  0.25500000920E-02 0.  1.
    10030    2    1    2    0    0  0.00000000000E+00  0.00000000000E+00  0.12210237575E+04  0.18004152766E+04  0.13231009605E+04 0.  0.
        4    1    3    3  502    0 -0.12220143898E+03  0.21776607346E+03  0.14441248364E+04  0.14655556661E+04  0.12699999809E+01 0. -1.
       -4    1    3    3    0  502  0.12220143898E+03 -0.21776607346E+03 -0.22310107888E+03  0.33485961049E+03  0.12699999809E+01 0.  1.
</event>
<event>
 5   0  0.2462055E-03  0.1339358E+04  0.7818609E-02  0.8998923E-01
       -1   -1    0    0    0  501  0.00000000000E+00  0.00000000000E+00  0.59264293189E+03  0.59264293191E+03  0.50400001928E-02 0. -1.
        1   -1    0    0  501    0  0.00000000000E+00  0.00000000000E+00 -0.75672916701E+03  0.75672916702E+03  0.50400001928E-02 0.  1.
    10030    2    1    2    0    0  0.00000000000E+00  0.00000000000E+00 -0.16408623512E+03  0.13493720989E+04  0.13393583422E+04 0.  0.
        2    1    3    3  502    0 -0.17404623377E+03 -0.61474559899E+03  0.12012092335E+03  0.65010251437E+03  0.25500000920E-02 0.  1.
       -2    1    3    3    0  502  0.17404623377E+03  0.61474559899E+03 -0.28420715846E+03  0.69926958456E+03  0.25500000920E-02 0. -1.
</event>
<event>
 5   0  0.2458456E-03  0.1288720E+04  0.7818609E-02  0.9038558E-01
       -1   -1    0    0    0  501  0.00000000000E+00  0.00000000000E+00  0.74389504763E+03  0.74389504764E+03  0.50400001928E-02 0.  1.
        1   -1    0    0  501    0  0.00000000000E+00  0.00000000000E+00 -0.55814328516E+03  0.55814328519E+03  0.50400001928E-02 0. -1.
    10030    2    1    2    0    0  0.00000000000E+00  0.00000000000E+00  0.18575176246E+03  0.13020383328E+04  0.12887203354E+04 0.  0.
        5    1    3    3  502    0 -0.95109594549E+02  0.50376353267E+02  0.73473189350E+03  0.74258781115E+03  0.46999998093E+01 0.  1.
       -5    1    3    3    0  502  0.95109594549E+02 -0.50376353267E+02 -0.54898013103E+03  0.55945052168E+03  0.46999998093E+01 0. -1.
</event>
<event>
 5   0  0.4453011E-03  0.1354100E+04  0.7818609E-02  0.8987730E-01
       -2   -1    0    0    0  501  0.00000000000E+00  0.00000000000E+00  0.32286961336E+03  0.32286961337E+03  0.25500000920E-02 0.  1.
        2   -1    0    0  501    0  0.00000000000E+00  0.00000000000E+00 -0.14197588782E+04  0.14197588782E+04  0.25500000920E-02 0. -1.
    10030    2    1    2    0    0  0.00000000000E+00  0.00000000000E+00 -0.10968892649E+04  0.17426284916E+04  0.13541004395E+04 0.  0.
        1    1    3    3  502    0 -0.24914052074E+03  0.16933754202E+03 -0.13287627449E+04  0.13624817923E+04  0.50400001928E-02 0. -1.
       -1    1    3    3    0  502  0.24914052074E+03 -0.16933754202E+03  0.23187348001E+03  0.38014669928E+03  0.50400001928E-02 0.  1.
</event>
<event>
 5   0  0.4310889E-03  0.8750014E+03  0.7818609E-02  0.9457382E-01
        2   -1    0    0  501    0  0.00000000000E+00  0.00000000000E+00  0.14609638094E+04  0.14609638094E+04  0.25500000920E-02 0.  1.
       -2   -1    0    0    0  501  0.00000000000E+00  0.00000000000E+00 -0.13101411196E+03  0.13101411199E+03  0.25500000920E-02 0. -1.
    10030    2    1    2    0    0  0.00000000000E+00  0.00000000000E+00  0.13299496974E+04  0.15919779214E+04  0.87500143113E+03 0.  0.
        4    1    3    3  502    0 -0.14482531741E+03 -0.37825300667E+03  0.96589483340E+03  0.10473796598E+04  0.12699999809E+01 0.  1.
       -4    1    3    3    0  502  0.14482531741E+03  0.37825300667E+03  0.36405486403E+03  0.54459826161E+03  0.12699999809E+01 0. -1.
</event>
<event>
 5   0  0.4310889E-03  0.1324546E+04  0.7818609E-02  0.9010323E-01
        2   -1    0    0  501    0  0.00000000000E+00  0.00000000000E+00  0.58268878738E+03  0.58268878738E+03  0.25500000920E-02 0. -1.
       -2   -1    0    0    0  501  0.00000000000E+00  0.00000000000E+00 -0.75272662433E+03  0.75272662434E+03  0.25500000920E-02 0.  1.
    10030    2    1    2    0    0  0.00000000000E+00  0.00000000000E+00 -0.17003783695E+03  0.13354154117E+04  0.13245457545E+04 0.  0.
        4    1    3    3  502    0 -0.45588261537E+03 -0.44910777604E+03 -0.25693804626E+03  0.68959809020E+03  0.12699999809E+01 0.  1.
       -4    1    3    3    0  502  0.45588261537E+03  0.44910777604E+03  0.86900209308E+02  0.64581732152E+03  0.12699999809E+01 0. -1.
</event>
<event>
 5   0  0.4263540E-03  0.1174327E+04  0.7818609E-02  0.9135630E-01
       -2   -1    0    0    0  501  0.00000000000E+00  0.00000000000E+00  0.31471473413E+03  0.31471473414E+03  0.25500000920E-02 0. -1.
        2   -1    0    0  501    0  0.00000000000E+00  0.00000000000E+00 -0.10954705706E+04  0.10954705706E+04  0.25500000920E-02 0.  1.
    10030    2    1    2    0    0  0.00000000000E+00  0.00000000000E+00 -0.78075583648E+03  0.14101853048E+04  0.11743265805E+04 0.  0.
        2    1    3    3  502    0 -0.33561135295E+03  0.19921632481E+03  0.13640707398E+03  0.41343562273E+03  0.25500000920E-02 0. -1.
       -2    1    3    3    0  502  0.33561135295E+03 -0.19921632481E+03 -0.91716291046E+03  0.99674968203E+03  0.25500000920E-02 0.  1.
</event>
<event>
 5   0  0.4306214E-03  0.1239288E+04  0.7818609E-02  0.9079146E-01
        2   -1    0    0  501    0  0.00000000000E+00  0.00000000000E+00  0.99341487549E+03  0.99341487549E+03  0.25500000920E-02 0.  1.
       -2   -1    0    0    0  501  0.00000000000E+00  0.00000000000E+00 -0.38650402110E+03  0.38650402111E+03  0.25500000920E-02 0. -1.
    10030    2    1    2    0    0  0.00000000000E+00  0.00000000000E+00  0.60691085438E+03  0.13799188966E+04  0.12392882538E+04 0.  0.
        3    1    3    3  502    0  0.40126628311E+02  0.29607630774E+03 -0.30099695186E+03  0.42411142585E+03  0.10100000352E+00 0. -1.
       -3    1    3    3    0  502 -0.40126628311E+02 -0.29607630774E+03  0.90790780625E+03  0.95580747075E+03  0.10100000352E+00 0.  1.
</event>
<event>
 5   0  0.2370801E-03  0.1306034E+04  0.7818609E-02  0.9024794E-01
        1   -1    0    0  501    0  0.00000000000E+00  0.00000000000E+00  0.81565553077E+03  0.81565553078E+03  0.50400001928E-02 0.  1.
       -1   -1    0    0    0  501  0.00000000000E+00  0.00000000000E+00 -0.52280815372E+03  0.52280815374E+03  0.50400001928E-02 0. -1.
    10030    2    1    2    0    0  0.00000000000E+00  0.00000000000E+00  0.29284737705E+03  0.13384636845E+04  0.13060342448E+04 0.  0.
        3    1    3    3  502    0  0.19519678330E+03 -0.14634067861E+03 -0.47435121870E+03  0.53341022423E+03  0.10100000352E+00 0. -1.
       -3    1    3    3    0  502 -0.19519678330E+03  0.14634067861E+03  0.76719859575E+03  0.80505346030E+03  0.10100000352E+00 0.  1.
</event>
<event>
 5   0  0.2511542E-03  0.1289462E+04  0.7818609E-02  0.9037964E-01
       -1   -1    0    0    0  501  0.00000000000E+00  0.00000000000E+00  0.33510157798E+03  0.33510157802E+03  0.50400001928E-02 0.  1.
        1   -1    0    0  501    0  0.00000000000E+00  0.00000000000E+00 -0.12404544611E+04  0.12404544611E+04  0.50400001928E-02 0. -1.
    10030    2    1    2    0    0  0.00000000000E+00  0.00000000000E+00 -0.90535288315E+03  0.15755560392E+04  0.12894622870E+04 0.  0.
        4    1    3    3  502    0 -0.26741013255E+03 -0.54737270870E+03 -0.19477324064E+03  0.63958055739E+03  0.12699999809E+01 0.  1.
       -4    1    3    3    0  502  0.26741013255E+03  0.54737270870E+03 -0.71057964251E+03  0.93597548177E+03  0.12699999809E+01 0. -1.
</event>
<event>
 5   0  0.4306214E-03  0.1312239E+04  0.7818609E-02  0.9019916E-01
       -2   -1    0    0    0  501  0.00000000000E+00  0.00000000000E+00  0.84223621437E+03  0.84223621437E+03  0.25500000920E-02 0.  1.
        2   -1    0    0  501    0  0.00000000000E+00  0.00000000000E+00 -0.51113053150E+03  0.51113053151E+03  0.25500000920E-02 0. -1.
    10030    2    1    2    0    0  0.00000000000E+00  0.00000000000E+00  0.33110568287E+03  0.13533667459E+04  0.13122387647E+04 0.  0.
        3    1    3    3  502    0 -0.50521607201E+03 -0.23029898981E+03  0.52609751436E+03  0.76489182826E+03  0.10100000352E+00 0.  1.
       -3    1    3    3    0  502  0.50521607201E+03  0.23029898981E+03 -0.19499183150E+03  0.58847491762E+03  0.10100000352E+00 0. -1.
</event>
<event>
 5   0  0.4263540E-03  0.1270980E+04  0.7818609E-02  0.9052900E-01
        2   -1    0    0  501    0  0.00000000000E+00  0.00000000000E+00  0.12686128950E+04  0.12686128950E+04  0.25500000920E-02 0.  1.
       -2   -1    0    0    0  501  0.00000000000E+00  0.00000000000E+00 -0.31833770031E+03  0.31833770032E+03  0.25500000920E-02 0. -1.
    10030    2    1    2    0    0  0.00000000000E+00  0.00000000000E+00  0.95027519468E+03  0.15869505953E+04  0.12709796404E+04 0.  0.
        2    1    3    3  502    0 -0.50826570362E+03  0.24418639710E+03  0.84105809112E+03  0.10125906057E+04  0.25500000920E-02 0. -1.
       -2    1    3    3    0  502  0.50826570362E+03 -0.24418639710E+03  0.10921710356E+03  0.57435998966E+03  0.25500000920E-02 0.  1.
</event>
<event>
 5   0  0.2356769E-03  0.1264958E+04  0.7818609E-02  0.9057825E-01
       -1   -1    0    0    0  501  0.00000000000E+00  0.00000000000E+00  0.49140140756E+03  0.49140140759E+03  0.50400001928E-02 0.  1.
        1   -1    0    0  501    0  0.00000000000E+00  0.00000000000E+00 -0.81405851862E+03  0.81405851863E+03  0.50400001928E-02 0. -1.
    10030    2    1    2    0    0  0.00000000000E+00  0.00000000000E+00 -0.32265711105E+03  0.13054599262E+04  0.12649577098E+04 0.  0.
        1    1    3    3  502    0 -0.27478101954E+03  0.35128742138E+03 -0.62415415463E+03  0.76712180903E+03  0.50400001928E-02 0. -1.
       -1    1    3    3    0  502  0.27478101954E+03 -0.35128742138E+03  0.30149704357E+03  0.53833811720E+03  0.50400001928E-02 0.  1.
</event>
<event>
 5   0  0.4453011E-03  0.1354027E+04  0.7818609E-02  0.8987785E-01
        2   -1    0    0  501    0  0.00000000000E+00  0.00000000000E+00  0.51041841010E+03  0.51041841011E+03  0.25500000920E-02 0. -1.
       -2   -1    0    0    0  501  0.00000000000E+00  0.00000000000E+00 -0.89798314611E+03  0.89798314612E+03  0.25500000920E-02 0.  1.
    10030    2    1    2    0    0  0.00000000000E+00  0.00000000000E+00 -0.38756473601E+03  0.14084015562E+04  0.13540267793E+04 0.  0.
        1    1    3    3  502    0  0.41471609226E+03 -0.26949945398E+03 -0.67465458525E+03  0.83652746655E+03  0.50400001928E-02 0.  1.
       -1    1    3    3    0  502 -0.41471609226E+03  0.26949945398E+03  0.28708984924E+03  0.57187408967E+03  0.50400001928E-02 0. -1.
</event>
<event>
 5   0  0.2462055E-03  0.1286125E+04  0.7818609E-02  0.9040641E-01
        1   -1    0    0  501    0  0.00000000000E+00  0.00000000000E+00  0.97093067933E+03  0.97093067934E+03  0.50400001928E-02 0. -1.
       -1   -1    0    0    0  501  0.00000000000E+00  0.00000000000E+00 -0.42591058082E+03  0.42591058085E+03  0.50400001928E-02 0.  1.
    10030    2    1    2    0    0  0.00000000000E+00  0.00000000000E+00  0.54502009851E+03  0.13968412602E+04  0.12861254209E+04 0.  0.
        2    1    3    3  502    0  0.89768923235E+00 -0.38140972247E+03  0.83482038631E+03  0.91782310912E+03  0.25500000920E-02 0. -1.
       -2    1    3    3    0  502 -0.89768923235E+00  0.38140972247E+03 -0.28980028780E+03  0.47901815107E+03  0.25500000920E-02 0.  1.
</event>
<event>
 5   0  0.4388937E-03  0.1056195E+04  0.7818609E-02  0.9248971E-01
        2   -1    0    0  501    0  0.00000000000E+00  0.00000000000E+00  0.10139521061E+04  0.10139521061E+04  0.25500000920E-02 0.  1.
       -2   -1    0    0    0  501  0.00000000000E+00  0.00000000000E+00 -0.27504965168E+03  0.27504965169E+03  0.25500000920E-02 0. -1.
    10030    2    1    2    0    0  0.00000000000E+00  0.00000000000E+00  0.73890245437E+03  0.12890017577E+04  0.10561953865E+04 0.  0.
        5    1    3    3  502    0  0.19016439818E+03  0.39010770439E+01 -0.23176795467E+03  0.29986028671E+03  0.46999998093E+01 0. -1.
       -5    1    3    3    0  502 -0.19016439818E+03 -0.39010770439E+01  0.97067040904E+03  0.98914147103E+03  0.46999998093E+01 0.  1.
</event>
<event>
 5   0  0.2462055E-03  0.7161525E+03  0.7818609E-02  0.9690001E-01
        1   -1    0    0  501    0  0.00000000000E+00  0.00000000000E+00  0.33318359484E+03  0.33318359488E+03  0.50400001928E-02 0.  1.
       -1   -1    0    0    0  501  0.00000000000E+00  0.00000000000E+00 -0.38482864529E+03  0.38482864533E+03  0.50400001928E-02 0. -1.
    10030    2    1    2    0    0  0.00000000000E+00  0.00000000000E+00 -0.51645050450E+02  0.71801224021E+03  0.71615247389E+03 0.  0.
        2    1    3    3  502    0  0.10948805954E+02 -0.35787728725E+03 -0.30584847547E+02  0.35934866354E+03  0.25500000920E-02 0.  1.
       -2    1    3    3    0  502 -0.10948805954E+02  0.35787728725E+03 -0.21060202903E+02  0.35866357667E+03  0.25500000920E-02 0. -1.
</event>
<event>
 5   0  0.2370801E-03  0.1383890E+04  0.7818609E-02  0.8965563E-01
       -1   -1    0    0    0  501  0.00000000000E+00  0.00000000000E+00  0.77247260310E+03  0.77247260311E+03  0.50400001928E-02 0.  1.
        1   -1    0    0  501    0  0.00000000000E+00  0.00000000000E+00 -0.61981226689E+03  0.61981226691E+03  0.50400001928E-02 0. -1.
    10030    2    1    2    0    0  0.00000000000E+00  0.00000000000E+00  0.15266033621E+03  0.13922848700E+04  0.13838901622E+04 0.  0.
        3    1    3    3  502    0  0.35789110366E+03  0.25180388714E+03 -0.46292191910E+03  0.63701487663E+03  0.10100000352E+00 0. -1.
       -3    1    3    3    0  502 -0.35789110366E+03 -0.25180388714E+03  0.61558225531E+03  0.75526999339E+03  0.10100000352E+00 0.  1.
</event>
<event>
 5   0  0.2458456E-03  0.1317672E+04  0.7818609E-02  0.9015668E-01
        1   -1    0    0  501    0  0.00000000000E+00  0.00000000000E+00  0.47796786722E+03  0.47796786724E+03  0.50400001928E-02 0.  1.
       -1   -1    0    0    0  501  0.00000000000E+00  0.00000000000E+00 -0.90814613619E+03  0.90814613620E+03  0.50400001928E-02 0. -1.
    10030    2    1    2    0    0  0.00000000000E+00  0.00000000000E+00 -0.43017826897E+03  0.13861140034E+04  0.13176716918E+04 0.  0.
        5    1    3    3  502    0  0.46427094952E+03 -0.69645029222E+02 -0.70131463620E+03  0.84395631025E+03  0.46999998093E+01 0. -1.
       -5    1    3    3    0  502 -0.46427094952E+03  0.69645029222E+02  0.27113636723E+03  0.54215769320E+03  0.46999998093E+01 0.  1.
</event>
<event>
 5   0  0.4453011E-03  0.1120932E+04  0.7818609E-02  0.9185027E-01
        2   -1    0    0  501    0  0.00000000000E+00  0.00000000000E+00  0.10713293573E+04  0.10713293573E+04  0.25500000920E-02 0.  1.
       -2   -1    0    0    0  501  0.00000000000E+00  0.00000000000E+00 -0.29320772851E+03  0.29320772852E+03  0.25500000920E-02 0. -1.
    10030    2    1    2    0    0  0.00000000000E+00  0.00000000000E+00  0.77812162883E+03  0.13645370859E+04  0.11209318398E+04 0.  0.
        1    1    3    3  502    0  0.25816042735E+03 -0.35076744897E+03  0.81848022195E+03  0.92714318379E+03  0.50400001928E-02 0.  1.
       -1    1    3    3    0  502 -0.25816042735E+03  0.35076744897E+03 -0.40358593117E+02  0.43739390207E+03  0.50400001928E-02 0. -1.
</event>
<event>
 5   0  0.2370801E-03  0.9227224E+03  0.7818609E-02  0.9397615E-01
        1   -1    0    0  501    0  0.00000000000E+00  0.00000000000E+00  0.98760127672E+03  0.98760127673E+03  0.50400001928E-02 0. -1.
       -1   -1    0    0    0  501  0.00000000000E+00  0.00000000000E+00 -0.21552639794E+03  0.21552639800E+03  0.50400001928E-02 0.  1.
    10030    2    1    2    0    0  0.00000000000E+00  0.00000000000E+00  0.77207487878E+03  0.12031276747E+04  0.92272237605E+03 0.  0.
        3    1    3    3  502    0 -0.37147118459E+03 -0.15923695429E+03  0.95920241783E+02  0.41538891605E+03  0.10100000352E+00 0.  1.
       -3    1    3    3    0  502  0.37147118459E+03  0.15923695429E+03  0.67615463699E+03  0.78773875868E+03  0.10100000352E+00 0. -1.
</event>
<event>
 5   0  0.4263540E-03  0.1287249E+04  0.7818609E-02  0.9039738E-01
        2   -1    0    0  501    0  0.00000000000E+00  0.00000000000E+00  0.16027445790E+04  0.16027445790E+04  0.25500000920E-02 0. -1.
       -2   -1    0    0    0  501  0.00000000000E+00  0.00000000000E+00 -0.25846462314E+03  0.25846462315E+03  0.25500000920E-02 0.  1.
    10030    2    1    2    0    0  0.00000000000E+00  0.00000000000E+00  0.13442799558E+04  0.18612092021E+04  0.12872494298E+04 0.  0.
        2    1    3    3  502    0 -0.16575989316E+03 -0.48502227845E+03  0.12349755501E+04  0.13371191279E+04  0.25500000920E-02 0. -1.
       -2    1    3    3    0  502  0.16575989316E+03  0.48502227845E+03  0.10930440569E+03  0.52409007421E+03  0.25500000920E-02 0.  1.
</event>
<event>
 5   0  0.2511542E-03  0.1367904E+04  0.7818609E-02  0.8977385E-01
        1   -1    0    0  501    0  0.00000000000E+00  0.00000000000E+00  0.42124251503E+03  0.42124251506E+03  0.50400001928E-02 0.  1.
       -1   -1    0    0    0  501  0.00000000000E+00  0.00000000000E+00 -0.11105014463E+04  0.11105014463E+04  0.50400001928E-02 0. -1.
    10030    2    1    2    0    0  0.00000000000E+00  0.00000000000E+00 -0.68925893128E+03  0.15317439614E+04  0.13679041227E+04 0.  0.
        4    1    3    3  502    0 -0.60888099730E+03 -0.21626267410E+03 -0.93532215713E+02  0.65288245601E+03  0.12699999809E+01 0. -1.
       -4    1    3    3    0  502  0.60888099730E+03  0.21626267410E+03 -0.59572671556E+03  0.87886150537E+03  0.12699999809E+01 0.  1.
</event>
<event>
 5   0  0.2458456E-03  0.1319204E+04  0.7818609E-02  0.9014473E-01
       -1   -1    0    0    0  501  0.00000000000E+00  0.00000000000E+00  0.73672211689E+03  0.73672211690E+03  0.50400001928E-02 0.  1.
        1   -1    0    0  501    0  0.00000000000E+00  0.00000000000E+00 -0.59055502724E+03  0.59055502726E+03  0.50400001928E-02 0. -1.
    10030    2    1    2    0    0  0.00000000000E+00  0.00000000000E+00  0.14616708965E+03  0.13272771442E+04  0.13192042296E+04 0.  0.
        5    1    3    3  502    0 -0.43076358220E+03  0.41520104077E+03 -0.20629121517E+03  0.63287228053E+03  0.46999998093E+01 0. -1.
       -5    1    3    3    0  502  0.43076358220E+03 -0.41520104077E+03  0.35245830482E+03  0.69440486364E+03  0.46999998093E+01 0.  1.
</event>
<event>
 5   0  0.4388937E-03  0.1314253E+04  0.7818609E-02  0.9018338E-01
       -2   -1    0    0    0  501  0.00000000000E+00  0.00000000000E+00  0.21017162841E+03  0.21017162842E+03  0.25500000920E-02 0. -1.
        2   -1    0    0  501    0  0.00000000000E+00  0.00000000000E+00 -0.20545848404E+04  0.20545848404E+04  0.25500000920E-02 0.  1.
    10030    2    1    2    0    0  0.00000000000E+00  0.00000000000E+00 -0.18444132120E+04  0.22647564688E+04  0.13142533114E+04 0.  0.
        5    1    3    3  502    0 -0.39367782660E+03 -0.51091219745E+03 -0.70573854732E+03  0.95608707336E+03  0.46999998093E+01 0.  1.
       -5    1    3    3    0  502  0.39367782660E+03  0.51091219745E+03 -0.11386746646E+04  0.13086693954E+04  0.46999998093E+01 0. -1.
</event>
<event>
 5   0  0.2458456E-03  0.1302773E+04  0.7818609E-02  0.9027369E-01
       -1   -1    0    0    0  501  0.00000000000E+00  0.00000000000E+00  0.49041181432E+03  0.49041181434E+03  0.50400001928E-02 0.  1.
        1   -1    0    0  501    0  0.00000000000E+00  0.00000000000E+00 -0.86520032949E+03  0.86520032950E+03  0.50400001928E-02 0. -1.
    10030    2    1    2    0    0  0.00000000000E+00  0.00000000000E+00 -0.37478851517E+03  0.13556121438E+04  0.13027731397E+04 0.  0.
        5    1    3    3  502    0 -0.15298968594E+03 -0.39791000454E+03  0.32506821046E+03  0.53612465637E+03  0.46999998093E+01 0.  1.
       -5    1    3    3    0  502  0.15298968594E+03  0.39791000454E+03 -0.69985672563E+03  0.81948748748E+03  0.46999998093E+01 0. -1.
</event>
<event>
 5   0  0.2462055E-03  0.1252833E+04  0.7818609E-02  0.9067828E-01
       -1   -1    0    0    0  501  0.00000000000E+00  0.00000000000E+00  0.96791479303E+03  0.96791479305E+03  0.50400001928E-02 0.  1.
        1   -1    0    0  501    0  0.00000000000E+00  0.00000000000E+00 -0.40540527142E+03  0.40540527145E+03  0.50400001928E-02 0. -1.
    10030    2    1    2    0    0  0.00000000000E+00  0.00000000000E+00  0.56250952162E+03  0.13733200645E+04  0.12528332042E+04 0.  0.
        2    1    3    3  502    0 -0.47147486600E+02 -0.17016131284E+03 -0.37756164466E+03  0.41680997278E+03  0.25500000920E-02 0. -1.
       -2    1    3    3    0  502  0.47147486600E+02  0.17016131284E+03  0.94007116628E+03  0.95651009172E+03  0.25500000920E-02 0.  1.
</event>
<event>
 5   0  0.4453011E-03  0.1306265E+04  0.7818609E-02  0.9024612E-01
        2   -1    0    0  501    0  0.00000000000E+00  0.00000000000E+00  0.10717919207E+04  0.10717919207E+04  0.25500000920E-02 0.  1.
       -2   -1    0    0    0  501  0.00000000000E+00  0.00000000000E+00 -0.39800807820E+03  0.39800807821E+03  0.25500000920E-02 0. -1.
    10030    2    1    2    0    0  0.00000000000E+00  0.00000000000E+00  0.67378384247E+03  0.14697999989E+04  0.13062646632E+04 0.  0.
        1    1    3    3  502    0  0.16430711365E+03 -0.97960207584E+02 -0.36578087231E+03  0.41278163287E+03  0.50400001928E-02 0. -1.
       -1    1    3    3    0  502 -0.16430711365E+03  0.97960207584E+02  0.10395647148E+04  0.10570183660E+04  0.50400001928E-02 0.  1.
</event>
<event>
 5   0  0.2511542E-03  0.1218134E+04  0.7818609E-02  0.9097131E-01
       -1   -1    0    0    0  501  0.00000000000E+00  0.00000000000E+00  0.74860643255E+03  0.74860643256E+03  0.50400001928E-02 0. -1.
        1   -1    0    0  501    0  0.00000000000E+00  0.00000000000E+00 -0.49553727236E+03  0.49553727239E+03  0.50400001928E-02 0.  1.
    10030    2    1    2    0    0  0.00000000000E+00  0.00000000000E+00  0.25306916018E+03  0.12441437050E+04  0.12181336375E+04 0.  0.
        4    1    3    3  502    0 -0.42166888411E+03  0.31555424780E+03  0.43897768832E+03  0.68562537502E+03  0.12699999809E+01 0. -1.
       -4    1    3    3    0  502  0.42166888411E+03 -0.31555424780E+03 -0.18590852814E+03  0.55851832993E+03  0.12699999809E+01 0.  1.
</event>
<event>
 5   0  0.4453011E-03  0.1107450E+04  0.7818609E-02  0.9197961E-01
        2   -1    0    0  501    0  0.00000000000E+00  0.00000000000E+00  0.52850410076E+03  0.52850410077E+03  0.25500000920E-02 0.  1.
       -2   -1    0    0    0  501  0.00000000000E+00  0.00000000000E+00 -0.58014981361E+03  0.58014981362E+03  0.25500000920E-02 0. -1.
    10030    2    1    2    0    0  0.00000000000E+00  0.00000000000E+00 -0.51645712854E+02  0.11086539144E+04  0.11074503249E+04 0.  0.
        1    1    3    3  502    0  0.27645806968E+03  0.44985662127E+03  0.14112622598E+03  0.54654977420E+03  0.50400001928E-02 0.  1.
       -1    1    3    3    0  502 -0.27645806968E+03 -0.44985662127E+03 -0.19277193883E+03  0.56210414019E+03  0.50400001928E-02 0. -1.
</event>
<event>
 5   0  0.4453011E-03  0.1289630E+04  0.7818609E-02  0.9037829E-01
       -2   -1    0    0    0  501  0.00000000000E+00  0.00000000000E+00  0.23064076811E+03  0.23064076812E+03  0.25500000920E-02 0.  1.
        2   -1    0    0  501    0  0.00000000000E+00  0.00000000000E+00 -0.18027439163E+04  0.18027439163E+04  0.25500000920E-02 0. -1.
    10030    2    1    2    0    0  0.00000000000E+00  0.00000000000E+00 -0.15721031482E+04  0.20333846844E+04  0.12896297788E+04 0.  0.
        1    1    3    3  502    0  0.34701801255E+03 -0.61857412171E+01 -0.16429033233E+04  0.16791638081E+04  0.50400001928E-02 0. -1.
       -1    1    3    3    0  502 -0.34701801255E+03  0.61857412171E+01  0.70800175141E+02  0.35422087637E+03  0.50400001928E-02 0.  1.
</event>
<event>
 5   0  0.2511542E-03  0.1297011E+04  0.7818609E-02  0.9031939E-01
        1   -1    0    0  501    0  0.00000000000E+00  0.00000000000E+00  0.11675233702E+04  0.11675233702E+04  0.50400001928E-02 0.  1.
       -1   -1    0    0    0  501  0.00000000000E+00  0.00000000000E+00 -0.36021478200E+03  0.36021478203E+03  0.50400001928E-02 0. -1.
    10030    2    1    2    0    0  0.00000000000E+00  0.00000000000E+00  0.80730858819E+03  0.15277381522E+04  0.12970106805E+04 0.  0.
        4    1    3    3  502    0  0.60489717834E+03  0.91631851093E+01  0.12848859321E+03  0.61846219918E+03  0.12699999809E+01 0.  1.
       -4    1    3    3    0  502 -0.60489717834E+03 -0.91631851093E+01  0.67881999498E+03  0.90927595306E+03  0.12699999809E+01 0. -1.
</event>
<event>
 5   0  0.2370801E-03  0.9506921E+03  0.7818609E-02  0.9364342E-01
       -1   -1    0    0    0  501  0.00000000000E+00  0.00000000000E+00  0.24502907286E+03  0.24502907291E+03  0.50400001928E-02 0.  1.
        1   -1    0    0  501    0  0.00000000000E+00  0.00000000000E+00 -0.92215131637E+03  0.92215131639E+03  0.50400001928E-02 0. -1.
    10030    2    1    2    0    0  0.00000000000E+00  0.00000000000E+00 -0.67712224352E+03  0.11671803893E+04  0.95069213129E+03 0.  0.
        3    1    3    3  502    0 -0.14186275426E+03 -0.11755307745E+03  0.19941143900E+03  0.27149346082E+03  0.10100000352E+00 0.  1.
       -3    1    3    3    0  502  0.14186275426E+03  0.11755307745E+03 -0.87653368251E+03  0.89568692848E+03  0.10100000352E+00 0. -1.
</event>
<event>
 5   0  0.4310889E-03  0.1280184E+04  0.7818609E-02  0.9045428E-01
        2   -1    0    0  501    0  0.00000000000E+00  0.00000000000E+00  0.10872671065E+04  0.10872671065E+04  0.25500000920E-02 0. -1.
       -2   -1    0    0    0  501  0.00000000000E+00  0.00000000000E+00 -0.37683293849E+03  0.37683293850E+03  0.25500000920E-02 0.  1.
    10030    2    1    2    0    0  0.00000000000E+00  0.00000000000E+00  0.71043416800E+03  0.14641000450E+04  0.12801844534E+04 0.  0.
        4    1    3    3  502    0 -0.47705235758E+03  0.26652556682E+03 -0.25987744874E+02  0.54707568528E+03  0.12699999809E+01 0. -1.
       -4    1    3    3    0  502  0.47705235758E+03 -0.26652556682E+03  0.73642191288E+03  0.91702435972E+03  0.12699999809E+01 0.  1.
</event>
<event>
 5   0  0.2511542E-03  0.1292022E+04  0.7818609E-02  0.9035916E-01
        1   -1    0    0  501    0  0.00000000000E+00  0.00000000000E+00  0.12721559520E+04  0.12721559520E+04  0.50400001928E-02 0.  1.
       -1   -1    0    0    0  501  0.00000000000E+00  0.00000000000E+00 -0.32804942516E+03  0.32804942520E+03  0.50400001928E-02 0. -1.
    10030    2    1    2    0    0  0.00000000000E+00  0.00000000000E+00  0.94410652686E+03  0.16002053772E+04  0.12920217162E+04 0.  0.
        4    1    3    3  502    0 -0.22904881324E+03 -0.28274184432E+03 -0.18904951962E+03  0.41005809728E+03  0.12699999809E+01 0. -1.
       -4    1    3    3    0  502  0.22904881324E+03  0.28274184432E+03  0.11331560465E+04  0.11901472799E+04  0.12699999809E+01 0.  1.
</event>
<event>
 5   0  0.2356769E-03  0.1240479E+04  0.7818609E-02  0.9078145E-01
       -1   -1    0    0    0  501  0.00000000000E+00  0.00000000000E+00  0.55789460312E+03  0.55789460314E+03  0.50400001928E-02 0. -1.
        1   -1    0    0  501    0  0.00000000000E+00  0.00000000000E+00 -0.68955117207E+03  0.68955117209E+03  0.50400001928E-02 0.  1.
    10030    2    1    2    0    0  0.00000000000E+00  0.00000000000E+00 -0.13165656895E+03  0.12474457752E+04  0.12404787423E+04 0.  0.
        1    1    3    3  502    0 -0.18052988280E+03  0.10195225245E+03 -0.65367242910E+03  0.68576449671E+03  0.50400001928E-02 0.  1.
       -1    1    3    3    0  502  0.18052988280E+03 -0.10195225245E+03  0.52201586014E+03  0.56168127851E+03  0.50400001928E-02 0. -1.
</event>
<event>
 5   0  0.2458456E-03  0.1314207E+04  0.7818609E-02  0.9018374E-01
        1   -1    0    0  501    0  0.00000000000E+00  0.00000000000E+00  0.47199775939E+03  0.47199775942E+03  0.50400001928E-02 0.  1.
       -1   -1    0    0    0  501  0.00000000000E+00  0.00000000000E+00 -0.91480319169E+03  0.91480319170E+03  0.50400001928E-02 0. -1.
    10030    2    1    2    0    0  0.00000000000E+00  0.00000000000E+00 -0.44280543229E+03  0.13868009511E+04  0.13142070716E+04 0.  0.
        5    1    3    3  502    0 -0.30224115706E+03 -0.49887211081E+03  0.97865340845E+02  0.59145821061E+03  0.46999998093E+01 0.  1.
       -5    1    3    3    0  502  0.30224115706E+03  0.49887211081E+03 -0.54067077314E+03  0.79534274051E+03  0.46999998093E+01 0. -1.
</event>
<event>
 5   0  0.4310889E-03  0.1279028E+04  0.7818609E-02  0.9046364E-01
        2   -1    0    0  501    0  0.00000000000E+00  0.00000000000E+00  0.11915020339E+04  0.11915020339E+04  0.25500000920E-02 0.  1.
       -2   -1    0    0    0  501  0.00000000000E+00  0.00000000000E+00 -0.34324567207E+03  0.34324567208E+03  0.25500000920E-02 0. -1.
    10030    2    1    2    0    0  0.00000000000E+00  0.00000000000E+00  0.84825636187E+03  0.15347477060E+04  0.12790276251E+04 0.  0.
        4    1    3    3  502    0 -0.57408617026E+03  0.23855310204E+03  0.24416304127E+03  0.66790696733E+03  0.12699999809E+01 0.  1.
       -4    1    3    3    0  502  0.57408617026E+03 -0.23855310204E+03  0.60409332060E+03  0.86684073870E+03  0.12699999809E+01 0. -1.
</event>
<event>
 5   0  0.4263540E-03  0.1314520E+04  0.7818609E-02  0.9018129E-01
        2   -1    0    0  501    0  0.00000000000E+00  0.00000000000E+00  0.26787384172E+03  0.26787384173E+03  0.25500000920E-02 0.  1.
       -2   -1    0    0    0  501  0.00000000000E+00  0.00000000000E+00 -0.16126657401E+04  0.16126657401E+04  0.25500000920E-02 0. -1.
    10030    2    1    2    0    0  0.00000000000E+00  0.00000000000E+00 -0.13447918984E+04  0.18805395818E+04  0.13145203950E+04 0.  0.
        2    1    3    3  502    0 -0.44080062867E+03 -0.27732900023E+03 -0.98776857903E+02  0.53006927497E+03  0.25500000920E-02 0.  1.
       -2    1    3    3    0  502  0.44080062867E+03  0.27732900023E+03 -0.12460150404E+04  0.13504703068E+04  0.25500000920E-02 0. -1.
</event>
<event>
 5   0  0.2458456E-03  0.1306634E+04  0.7818609E-02  0.9024321E-01
        1   -1    0    0  501    0  0.00000000000E+00  0.00000000000E+00  0.61121843090E+03  0.61121843092E+03  0.50400001928E-02 0. -1.
       -1   -1    0    0    0  501  0.00000000000E+00  0.00000000000E+00 -0.69831504686E+03  0.69831504687E+03  0.50400001928E-02 0.  1.
    10030    2    1    2    0    0  0.00000000000E+00  0.00000000000E+00 -0.87096615955E+02  0.13095334778E+04  0.13066338848E+04 0.  0.
        5    1    3    3  502    0 -0.41718471770E+03  0.40406646931E+02  0.45868764036E+03  0.62136320073E+03  0.46999998093E+01 0. -1.
       -5    1    3    3    0  502  0.41718471770E+03 -0.40406646931E+02 -0.54578425632E+03  0.68817027707E+03  0.46999998093E+01 0.  1.
</event>
<event>
 5   0  0.2356769E-03  0.1319280E+04  0.7818609E-02  0.9014414E-01
        1   -1    0    0  501    0  0.00000000000E+00  0.00000000000E+00  0.87489856384E+03  0.87489856386E+03  0.50400001928E-02 0. -1.
       -1   -1    0    0    0  501  0.00000000000E+00  0.00000000000E+00 -0.49734318532E+03  0.49734318535E+03  0.50400001928E-02 0.  1.
    10030    2    1    2    0    0  0.00000000000E+00  0.00000000000E+00  0.37755537852E+03  0.13722417492E+04  0.13192798621E+04 0.  0.
        1    1    3    3  502    0 -0.62584684854E+03 -0.35651620575E+02  0.40237365101E+03  0.74488916688E+03  0.50400001928E-02 0. -1.
       -1    1    3    3    0  502  0.62584684854E+03  0.35651620575E+02 -0.24818272487E+02  0.62735258233E+03  0.50400001928E-02 0.  1.
</event>
<event>
 5   0  0.4306214E-03  0.1244302E+04  0.7818609E-02  0.9074939E-01
        2   -1    0    0  501    0  0.00000000000E+00  0.00000000000E+00  0.75025409180E+03  0.75025409180E+03  0.25500000920E-02 0. -1.
       -2   -1    0    0    0  501  0.00000000000E+00  0.00000000000E+00 -0.51592113485E+03  0.51592113485E+03  0.25500000920E-02 0.  1.
    10030    2    1    2    0    0  0.00000000000E+00  0.00000000000E+00  0.23433295695E+03  0.12661752267E+04  0.12443021216E+04 0.  0.
        3    1    3    3  502    0  0.59843483369E+03  0.16706356814E+03  0.84390868497E+02  0.62702178180E+03  0.10100000352E+00 0.  1.
       -3    1    3    3    0  502 -0.59843483369E+03 -0.16706356814E+03  0.14994208845E+03  0.63915344485E+03  0.10100000352E+00 0. -1.
</event>
<event>
 5   0  0.4310889E-03  0.1289228E+04  0.7818609E-02  0.9038152E-01
        2   -1    0    0  501    0  0.00000000000E+00  0.00000000000E+00  0.18152491624E+04  0.18152491624E+04  0.25500000920E-02 0.  1.
       -2   -1    0    0    0  501  0.00000000000E+00  0.00000000000E+00 -0.22890901893E+03  0.22890901894E+03  0.25500000920E-02 0. -1.
    10030    2    1    2    0    0  0.00000000000E+00  0.00000000000E+00  0.15863401434E+04  0.20441581813E+04  0.12892275282E+04 0.  0.
        4    1    3    3  502    0  0.18734366554E+03  0.89816926065E+02  0.17607052585E+04  0.17729211346E+04  0.12699999809E+01 0.  1.
       -4    1    3    3    0  502 -0.18734366554E+03 -0.89816926065E+02 -0.17436511511E+03  0.27123704668E+03  0.12699999809E+01 0. -1.
</event>
<event>
 5   0  0.4310889E-03  0.1313816E+04  0.7818609E-02  0.9018680E-01
        2   -1    0    0  501    0  0.00000000000E+00  0.00000000000E+00  0.23245609291E+03  0.23245609293E+03  0.25500000920E-02 0.  1.
       -2   -1    0    0    0  501  0.00000000000E+00  0.00000000000E+00 -0.18563850031E+04  0.18563850031E+04  0.25500000920E-02 0. -1.
    10030    2    1    2    0    0  0.00000000000E+00  0.00000000000E+00 -0.16239289102E+04  0.20888410960E+04  0.13138158239E+04 0.  0.
        4    1    3    3  502    0  0.12249884876E+03  0.60517270926E+03 -0.45543430962E+03  0.76724311614E+03  0.12699999809E+01 0.  1.
       -4    1    3    3    0  502 -0.12249884876E+03 -0.60517270926E+03 -0.11684946006E+04  0.13215979799E+04  0.12699999809E+01 0. -1.
</event>
<event>
 5   0  0.2370801E-03  0.1314232E+04  0.7818609E-02  0.9018355E-01
       -1   -1    0    0    0  501  0.00000000000E+00  0.00000000000E+00  0.91817938607E+03  0.91817938608E+03  0.50400001928E-02 0.  1.
        1   -1    0    0  501    0  0.00000000000E+00  0.00000000000E+00 -0.47028005022E+03  0.47028005025E+03  0.50400001928E-02 0. -1.
    10030    2    1    2    0    0  0.00000000000E+00  0.00000000000E+00  0.44789933585E+03  0.13884594363E+04  0.13142320158E+04 0.  0.
        3    1    3    3  502    0 -0.62541483708E+03  0.13744177133E+03  0.37982063050E+03  0.74451170609E+03  0.10100000352E+00 0. -1.
       -3    1    3    3    0  502  0.62541483708E+03 -0.13744177133E+03  0.68078705346E+02  0.64394773023E+03  0.10100000352E+00 0.  1.
</event>
<event>
 5   0  0.2370801E-03  0.1222516E+04  0.7818609E-02  0.9093373E-01
        1   -1    0    0  501    0  0.00000000000E+00  0.00000000000E+00  0.13279173639E+04  0.13279173639E+04  0.50400001928E-02 0. -1.
       -1   -1    0    0    0  501  0.00000000000E+00  0.00000000000E+00 -0.28137032124E+03  0.28137032129E+03  0.50400001928E-02 0.  1.
    10030    2    1    2    0    0  0.00000000000E+00  0.00000000000E+00  0.10465470427E+04  0.16092876852E+04  0.12225163153E+04 0.  0.
        3    1    3    3  502    0  0.19684568874E+03 -0.46346680788E+03  0.97944349207E+03  0.11012989020E+04  0.10100000352E+00 0. -1.
       -3    1    3    3    0  502 -0.19684568874E+03  0.46346680788E+03  0.67103550619E+02  0.50798878323E+03  0.10100000352E+00 0.  1.
</event>
<event>
 5   0  0.2356769E-03  0.1281813E+04  0.7818609E-02  0.9044114E-01
       -1   -1    0    0    0  501  0.00000000000E+00  0.00000000000E+00  0.39567812493E+03  0.39567812496E+03  0.50400001928E-02 0. -1.
        1   -1    0    0  501    0  0.00000000000E+00  0.00000000000E+00 -0.10381186666E+04  0.10381186667E+04  0.50400001928E-02 0.  1.
    10030    2    1    2    0    0  0.00000000000E+00  0.00000000000E+00 -0.64244054172E+03  0.14337967916E+04  0.12818125409E+04 0.  0.
        1    1    3    3  502    0 -0.50541423600E+03  0.26772302731E+03 -0.64472039888E+03  0.86184892067E+03  0.50400001928E-02 0.  1.
       -1    1    3    3    0  502  0.50541423600E+03 -0.26772302731E+03  0.22798571627E+01  0.57194787095E+03  0.50400001928E-02 0. -1.
</event>
<event>
 5   0  0.2462055E-03  0.1502881E+04  0.7818609E-02  0.8882539E-01
       -1   -1    0    0    0  501  0.00000000000E+00  0.00000000000E+00  0.36396150906E+03  0.36396150910E+03  0.50400001928E-02 0. -1.
        1   -1    0    0  501    0  0.00000000000E+00  0.00000000000E+00 -0.15514364063E+04  0.15514364063E+04  0.50400001928E-02 0.  1.
    10030    2    1    2    0    0  0.00000000000E+00  0.00000000000E+00 -0.11874748973E+04  0.19153979154E+04  0.15028814134E+04 0.  0.
        2    1    3    3  502    0  0.38010875998E+03 -0.56403037788E+03 -0.10008750608E+04  0.12101090132E+04  0.25500000920E-02 0.  1.
       -2    1    3    3    0  502 -0.38010875998E+03  0.56403037788E+03 -0.18659983647E+03  0.70528890220E+03  0.25500000920E-02 0. -1.
</event>
<event>
 5   0  0.4306214E-03  0.1258786E+04  0.7818609E-02  0.9062902E-01
        2   -1    0    0  501    0  0.00000000000E+00  0.00000000000E+00  0.18955514718E+04  0.18955514718E+04  0.25500000920E-02 0. -1.
       -2   -1    0    0    0  501  0.00000000000E+00  0.00000000000E+00 -0.20898168411E+03  0.20898168412E+03  0.25500000920E-02 0.  1.
    10030    2    1    2    0    0  0.00000000000E+00  0.00000000000E+00  0.16865697877E+04  0.21045331559E+04  0.12587859848E+04 0.  0.
        3    1    3    3  502    0 -0.53149511056E+03  0.28625665275E+03  0.11409801369E+04  0.12908391096E+04  0.10100000352E+00 0. -1.
       -3    1    3    3    0  502  0.53149511056E+03 -0.28625665275E+03  0.54558965074E+03  0.81369404631E+03  0.10100000352E+00 0.  1.
</event>
<event>
 5   0  0.4306214E-03  0.1219782E+04  0.7818609E-02  0.9095715E-01
        2   -1    0    0  501    0  0.00000000000E+00  0.00000000000E+00  0.25884076118E+04  0.25884076118E+04  0.25500000920E-02 0.  1.
       -2   -1    0    0    0  501  0.00000000000E+00  0.00000000000E+00 -0.14370505903E+03  0.14370505905E+03  0.25500000920E-02 0. -1.
    10030    2    1    2    0    0  0.00000000000E+00  0.00000000000E+00  0.24447025528E+04  0.27321126709E+04  0.12197823883E+04 0.  0.
        3    1    3    3  502    0  0.14672144688E+03 -0.59137114891E+03  0.11622401611E+04  0.13122687305E+04  0.10100000352E+00 0. -1.
       -3    1    3    3    0  502 -0.14672144688E+03  0.59137114891E+03  0.12824623917E+04  0.14198439404E+04  0.10100000352E+00 0.  1.
</event>
<event>
 5   0  0.2370801E-03  0.1291303E+04  0.7818609E-02  0.9036491E-01
        1   -1    0    0  501    0  0.00000000000E+00  0.00000000000E+00  0.73690546668E+03  0.73690546670E+03  0.50400001928E-02 0.  1.
       -1   -1    0    0    0  501  0.00000000000E+00  0.00000000000E+00 -0.56569768285E+03  0.56569768288E+03  0.50400001928E-02 0. -1.
    10030    2    1    2    0    0  0.00000000000E+00  0.00000000000E+00  0.17120778382E+03  0.13026031496E+04  0.12913027763E+04 0.  0.
        3    1    3    3  502    0 -0.40089380368E+03 -0.27945318668E+03 -0.34005535915E+03  0.59535500575E+03  0.10100000352E+00 0. -1.
       -3    1    3    3    0  502  0.40089380368E+03  0.27945318668E+03  0.51126314298E+03  0.70724814383E+03  0.10100000352E+00 0.  1.
</event>
<event>
 5   0  0.4263540E-03  0.1282973E+04  0.7818609E-02  0.9043178E-01
        2   -1    0    0  501    0  0.00000000000E+00  0.00000000000E+00  0.13597470631E+04  0.13597470631E+04  0.25500000920E-02 0. -1.
       -2   -1    0    0    0  501  0.00000000000E+00  0.00000000000E+00 -0.30263346027E+03  0.30263346028E+03  0.25500000920E-02 0.  1.
    10030    2    1    2    0    0  0.00000000000E+00  0.00000000000E+00  0.10571136028E+04  0.16623805233E+04  0.12829730454E+04 0.  0.
        2    1    3    3  502    0 -0.19761790764E+03 -0.60828158369E+03  0.46447881629E+03  0.79044284629E+03  0.25500000920E-02 0.  1.
       -2    1    3    3    0  502  0.19761790764E+03  0.60828158369E+03  0.59263478650E+03  0.87193767704E+03  0.25500000920E-02 0. -1.
</event>
<event>
 5   0  0.4453011E-03  0.1323414E+04  0.7818609E-02  0.9011201E-01
        2   -1    0    0  501    0  0.00000000000E+00  0.00000000000E+00  0.82063978129E+03  0.82063978130E+03  0.25500000920E-02 0.  1.
       -2   -1    0    0    0  501  0.00000000000E+00  0.00000000000E+00 -0.53355460261E+03  0.53355460262E+03  0.25500000920E-02 0. -1.
    10030    2    1    2    0    0  0.00000000000E+00  0.00000000000E+00  0.28708517868E+03  0.13541943839E+04  0.13234139676E+04 0.  0.
        1    1    3    3  502    0  0.42241406150E+03 -0.77402048366E+02 -0.37158584078E+03  0.56789149803E+03  0.50400001928E-02 0. -1.
       -1    1    3    3    0  502 -0.42241406150E+03  0.77402048366E+02  0.65867101946E+03  0.78630288588E+03  0.50400001928E-02 0.  1.
</event>
<event>
 5   0  0.4310889E-03  0.1209805E+04  0.7818609E-02  0.9104317E-01
        2   -1    0    0  501    0  0.00000000000E+00  0.00000000000E+00  0.11267215658E+04  0.11267215658E+04  0.25500000920E-02 0. -1.
       -2   -1    0    0    0  501  0.00000000000E+00  0.00000000000E+00 -0.32475382452E+03  0.32475382453E+03  0.25500000920E-02 0.  1.
    10030    2    1    2    0    0  0.00000000000E+00  0.00000000000E+00  0.80196774130E+03  0.14514753904E+04  0.12098051706E+04 0.  0.
        4    1    3    3  502    0 -0.38993553215E+03  0.13498074298E+03 -0.12967891551E+03  0.43253641955E+03  0.12699999809E+01 0.  1.
       -4    1    3    3    0  502  0.38993553215E+03 -0.13498074298E+03  0.93164665681E+03  0.10189389708E+04  0.12699999809E+01 0. -1.
</event>
<event>
 5   0  0.2458456E-03  0.1321762E+04  0.7818609E-02  0.9012483E-01
       -1   -1    0    0    0  501  0.00000000000E+00  0.00000000000E+00  0.82007946638E+03  0.82007946639E+03  0.50400001928E-02 0. -1.
        1   -1    0    0  501    0  0.00000000000E+00  0.00000000000E+00 -0.53258706748E+03  0.53258706750E+03  0.50400001928E-02 0.  1.
    10030    2    1    2    0    0  0.00000000000E+00  0.00000000000E+00  0.28749239890E+03  0.13526665339E+04  0.13217620332E+04 0.  0.
        5    1    3    3  502    0  0.34935212226E+03  0.19791516514E+03  0.68092323025E+03  0.79050354421E+03  0.46999998093E+01 0. -1.
       -5    1    3    3    0  502 -0.34935212226E+03 -0.19791516514E+03 -0.39343083135E+03  0.56216298969E+03  0.46999998093E+01 0.  1.
</event>
<event>
 5   0  0.4453011E-03  0.1281206E+04  0.7818609E-02  0.9044603E-01
        2   -1    0    0  501    0  0.00000000000E+00  0.00000000000E+00  0.15581082202E+04  0.15581082202E+04  0.25500000920E-02 0. -1.
       -2   -1    0    0    0  501  0.00000000000E+00  0.00000000000E+00 -0.26337865725E+03  0.26337865727E+03  0.25500000920E-02 0.  1.
    10030    2    1    2    0    0  0.00000000000E+00  0.00000000000E+00  0.12947295629E+04  0.18214868774E+04  0.12812063860E+04 0.  0.
        1    1    3    3  502    0 -0.43983319737E+03  0.33760963759E+03  0.19122620570E+03  0.58651595943E+03  0.50400001928E-02 0.  1.
       -1    1    3    3    0  502  0.43983319737E+03 -0.33760963759E+03  0.11035033572E+04  0.12349709180E+04  0.50400001928E-02 0. -1.
</event>
<event>
 5   0  0.4306214E-03  0.1328616E+04  0.7818609E-02  0.9007175E-01
       -2   -1    0    0    0  501  0.00000000000E+00  0.00000000000E+00  0.28184596009E+03  0.28184596010E+03  0.25500000920E-02 0.  1.
        2   -1    0    0  501    0  0.00000000000E+00  0.00000000000E+00 -0.15657666250E+04  0.15657666250E+04  0.25500000920E-02 0. -1.
    10030    2    1    2    0    0  0.00000000000E+00  0.00000000000E+00 -0.12839206649E+04  0.18476125851E+04  0.13286158176E+04 0.  0.
        3    1    3    3  502    0 -0.65715971505E+03 -0.80708971211E+02 -0.71726210610E+03  0.97613409333E+03  0.10100000352E+00 0. -1.
       -3    1    3    3    0  502  0.65715971505E+03  0.80708971211E+02 -0.56665855877E+03  0.87147849173E+03  0.10100000352E+00 0.  1.
</event>
<event>
 5   0  0.2511542E-03  0.1276692E+04  0.7818609E-02  0.9048255E-01
        1   -1    0    0  501    0  0.00000000000E+00  0.00000000000E+00  0.97601982659E+03  0.97601982660E+03  0.50400001928E-02 0. -1.
       -1   -1    0    0    0  501  0.00000000000E+00  0.00000000000E+00 -0.41749751320E+03  0.41749751323E+03  0.50400001928E-02 0.  1.
    10030    2    1    2    0    0  0.00000000000E+00  0.00000000000E+00  0.55852231339E+03  0.13935173398E+04  0.12766923677E+04 0.  0.
        4    1    3    3  502    0  0.26242161162E+03 -0.10108327370E+03  0.90476294186E+03  0.94746003838E+03  0.12699999809E+01 0. -1.
       -4    1    3    3    0  502 -0.26242161162E+03  0.10108327370E+03 -0.34624062847E+03  0.44605730144E+03  0.12699999809E+01 0.  1.
</event>
<event>
 5   0  0.4388937E-03  0.1290741E+04  0.7818609E-02  0.9036940E-01
        2   -1    0    0  501    0  0.00000000000E+00  0.00000000000E+00  0.92768213842E+03  0.92768213842E+03  0.25500000920E-02 0. -1.
       -2   -1    0    0    0  501  0.00000000000E+00  0.00000000000E+00 -0.44897158252E+03  0.44897158253E+03  0.25500000920E-02 0.  1.
    10030    2    1    2    0    0  0.00000000000E+00  0.00000000000E+00  0.47871055590E+03  0.13766537210E+04  0.12907407451E+04 0.  0.
        5    1    3    3  502    0 -0.90857817918E+02  0.11530837674E+03 -0.43090822281E+03  0.45525284327E+03  0.46999998093E+01 0.  1.
       -5    1    3    3    0  502  0.90857817918E+02 -0.11530837674E+03  0.90961877870E+03  0.92140087768E+03  0.46999998093E+01 0. -1.
</event>
<event>
 5   0  0.4263540E-03  0.1282318E+04  0.7818609E-02  0.9043706E-01
       -2   -1    0    0    0  501  0.00000000000E+00  0.00000000000E+00  0.21342383584E+03  0.21342383586E+03  0.25500000920E-02 0.  1.
        2   -1    0    0  501    0  0.00000000000E+00  0.00000000000E+00 -0.19261423031E+04  0.19261423031E+04  0.25500000920E-02 0. -1.
    10030    2    1    2    0    0  0.00000000000E+00  0.00000000000E+00 -0.17127184673E+04  0.21395661390E+04  0.12823177122E+04 0.  0.
        2    1    3    3  502    0 -0.33457310825E+03  0.44921412292E+03 -0.13769577527E+04  0.14865211555E+04  0.25500000920E-02 0. -1.
       -2    1    3    3    0  502  0.33457310825E+03 -0.44921412292E+03 -0.33576071457E+03  0.65304498348E+03  0.25500000920E-02 0.  1.
</event>
<event>
 5   0  0.4263540E-03  0.1008922E+04  0.7818609E-02  0.9298813E-01
       -2   -1    0    0    0  501  0.00000000000E+00  0.00000000000E+00  0.11148779887E+03  0.11148779890E+03  0.25500000920E-02 0. -1.
        2   -1    0    0  501    0  0.00000000000E+00  0.00000000000E+00 -0.22825909582E+04  0.22825909582E+04  0.25500000920E-02 0.  1.
    10030    2    1    2    0    0  0.00000000000E+00  0.00000000000E+00 -0.21711031593E+04  0.23940787571E+04  0.10089222798E+04 0.  0.
        2    1    3    3  502    0 -0.34888179127E+03  0.36369569415E+03 -0.10331334541E+04  0.11495032824E+04  0.25500000920E-02 0. -1.
       -2    1    3    3    0  502  0.34888179127E+03 -0.36369569415E+03 -0.11379697052E+04  0.12445754747E+04  0.25500000920E-02 0.  1.
</event>
<event>
 5   0  0.2370801E-03  0.1323145E+04  0.7818609E-02  0.9011410E-01
        1   -1    0    0  501    0  0.00000000000E+00  0.00000000000E+00  0.53644673556E+03  0.53644673559E+03  0.50400001928E-02 0.  1.
       -1   -1    0    0    0  501  0.00000000000E+00  0.00000000000E+00 -0.81588344034E+03  0.81588344036E+03  0.50400001928E-02 0. -1.
    10030    2    1    2    0    0  0.00000000000E+00  0.00000000000E+00 -0.27943670478E+03  0.13523301759E+04  0.13231447513E+04 0.  0.
        3    1    3    3  502    0 -0.62407681505E+02 -0.41570144823E+03 -0.66184435320E+03  0.78405380608E+03  0.10100000352E+00 0. -1.
       -3    1    3    3    0  502  0.62407681505E+02  0.41570144823E+03  0.38240764842E+03  0.56827636986E+03  0.10100000352E+00 0.  1.
</event>
<event>
 5   0  0.2462055E-03  0.1338348E+04  0.7818609E-02  0.8999695E-01
        1   -1    0    0  501    0  0.00000000000E+00  0.00000000000E+00  0.61659309610E+03  0.61659309612E+03  0.50400001928E-02 0.  1.
       -1   -1    0    0    0  501  0.00000000000E+00  0.00000000000E+00 -0.72623913149E+03  0.72623913151E+03  0.50400001928E-02 0. -1.
    10030    2    1    2    0    0  0.00000000000E+00  0.00000000000E+00 -0.10964603539E+03  0.13428322276E+04  0.13383482874E+04 0.  0.
        2    1    3    3  502    0  0.49364064281E+03 -0.29352884381E+03 -0.39941765772E+03  0.69955323721E+03  0.25500000920E-02 0. -1.
       -2    1    3    3    0  502 -0.49364064281E+03  0.29352884381E+03  0.28977162233E+03  0.64327899041E+03  0.25500000920E-02 0.  1.
</event>
<event>
 5   0  0.4453011E-03  0.1266013E+04  0.7818609E-02  0.9056960E-01
        2   -1    0    0  501    0  0.00000000000E+00  0.00000000000E+00  0.10359375301E+04  0.10359375301E+04  0.25500000920E-02 0. -1.
       -2   -1    0    0    0  501  0.00000000000E+00  0.00000000000E+00 -0.38679698347E+03  0.38679698348E+03  0.25500000920E-02 0.  1.
    10030    2    1    2    0    0  0.00000000000E+00  0.00000000000E+00  0.64914054665E+03  0.14227345136E+04  0.12660134466E+04 0.  0.
        1    1    3    3  502    0 -0.93705782290E+02  0.25965733805E+03  0.96473158322E+03  0.10034489197E+04  0.50400001928E-02 0. -1.
       -1    1    3    3    0  502  0.93705782290E+02 -0.25965733805E+03 -0.31559103657E+03  0.41928559387E+03  0.50400001928E-02 0.  1.
</event>
<event>
 5   0  0.1661750E-03  0.1273915E+04  0.7818609E-02  0.9050510E-01
       -4   -1    0    0    0  501  0.00000000000E+00  0.00000000000E+00  0.55183233287E+03  0.55183379428E+03  0.12699999809E+01 0.  1.
        4   -1    0    0  501    0  0.00000000000E+00  0.00000000000E+00 -0.73521155330E+03  0.73521265020E+03  0.12699999809E+01 0. -1.
    10030    2    1    2    0    0  0.00000000000E+00  0.00000000000E+00 -0.18337922043E+03  0.12870464445E+04  0.12739154649E+04 0.  0.
        3    1    3    3  502    0  0.81486679788E+02 -0.31650312939E+03 -0.64404318861E+03  0.72222292188E+03  0.10100000352E+00 0. -1.
       -3    1    3    3    0  502 -0.81486679788E+02  0.31650312939E+03  0.46066396818E+03  0.56482352259E+03  0.10100000352E+00 0.  1.
</event>
<event>
 5   0  0.2458456E-03  0.1281577E+04  0.7818609E-02  0.9044304E-01
       -1   -1    0    0    0  501  0.00000000000E+00  0.00000000000E+00  0.84602831042E+03  0.84602831044E+03  0.50400001928E-02 0.  1.
        1   -1    0    0  501    0  0.00000000000E+00  0.00000000000E+00 -0.48533787606E+03  0.48533787609E+03  0.50400001928E-02 0. -1.
    10030    2    1    2    0    0  0.00000000000E+00  0.00000000000E+00  0.36069043436E+03  0.13313661865E+04  0.12815765031E+04 0.  0.
        5    1    3    3  502    0 -0.51349922266E+03  0.59722697681E+02  0.57365571357E+03  0.77223780016E+03  0.46999998093E+01 0.  1.
       -5    1    3    3    0  502  0.51349922266E+03 -0.59722697681E+02 -0.21296527920E+03  0.55912838636E+03  0.46999998093E+01 0. -1.
</event>
<event>
 5   0  0.4388937E-03  0.1280789E+04  0.7818609E-02  0.9044940E-01
       -2   -1    0    0    0  501  0.00000000000E+00  0.00000000000E+00  0.33145494780E+03  0.33145494781E+03  0.25500000920E-02 0. -1.
        2   -1    0    0  501    0  0.00000000000E+00  0.00000000000E+00 -0.12372884568E+04  0.12372884568E+04  0.25500000920E-02 0.  1.
    10030    2    1    2    0    0  0.00000000000E+00  0.00000000000E+00 -0.90583350904E+03  0.15687434047E+04  0.12807894142E+04 0.  0.
        5    1    3    3  502    0  0.13009956007E+03 -0.25164298433E+02 -0.12202912773E+04  0.12274738404E+04  0.46999998093E+01 0.  1.
       -5    1    3    3    0  502 -0.13009956007E+03  0.25164298433E+02  0.31445776827E+03  0.34126956423E+03  0.46999998093E+01 0. -1.
</event>
<event>
 5   0  0.1661750E-03  0.1192446E+04  0.7818609E-02  0.9119494E-01
       -4   -1    0    0    0  501  0.00000000000E+00  0.00000000000E+00  0.10201694800E+04  0.10201702705E+04  0.12699999809E+01 0. -1.
        4   -1    0    0  501    0  0.00000000000E+00  0.00000000000E+00 -0.34845192546E+03  0.34845423984E+03  0.12699999809E+01 0.  1.
    10030    2    1    2    0    0  0.00000000000E+00  0.00000000000E+00  0.67171755451E+03  0.13686245103E+04  0.11924464672E+04 0.  0.
        5    1    3    3  502    0 -0.16246301542E+03 -0.22443711242E+03 -0.27005256185E+03  0.38693245531E+03  0.46999998093E+01 0.  1.
       -5    1    3    3    0  502  0.16246301542E+03  0.22443711242E+03  0.94177011635E+03  0.98169205501E+03  0.46999998093E+01 0. -1.
</event>
<event>
 5   0  0.2370801E-03  0.1289155E+04  0.7818609E-02  0.9038210E-01
        1   -1    0    0  501    0  0.00000000000E+00  0.00000000000E+00  0.95191607118E+03  0.95191607119E+03  0.50400001928E-02 0.  1.
       -1   -1    0    0    0  501  0.00000000000E+00  0.00000000000E+00 -0.43646712655E+03  0.43646712658E+03  0.50400001928E-02 0. -1.
    10030    2    1    2    0    0  0.00000000000E+00  0.00000000000E+00  0.51544894462E+03  0.13883831978E+04  0.12891548741E+04 0.  0.
        3    1    3    3  502    0  0.68849835071E+02  0.29075916138E+03  0.87282412526E+03  0.92255252075E+03  0.10100000352E+00 0.  1.
       -3    1    3    3    0  502 -0.68849835071E+02 -0.29075916138E+03 -0.35737518063E+03  0.46583067702E+03  0.10100000352E+00 0. -1.
</event>
<event>
 5   0  0.2370801E-03  0.1312552E+04  0.7818609E-02  0.9019670E-01
        1   -1    0    0  501    0  0.00000000000E+00  0.00000000000E+00  0.38697077983E+03  0.38697077986E+03  0.50400001928E-02 0. -1.
       -1   -1    0    0    0  501  0.00000000000E+00  0.00000000000E+00 -0.11129999298E+04  0.11129999298E+04  0.50400001928E-02 0.  1.
    10030    2    1    2    0    0  0.00000000000E+00  0.00000000000E+00 -0.72602914992E+03  0.14999707096E+04  0.13125524002E+04 0.  0.
        3    1    3    3  502    0  0.40667155970E+03  0.41032075660E+03 -0.71884903808E+03  0.92221951319E+03  0.10100000352E+00 0.  1.
       -3    1    3    3    0  502 -0.40667155970E+03 -0.41032075660E+03 -0.71801118441E+01  0.57775119643E+03  0.10100000352E+00 0. -1.
</event>
<event>
 5   0  0.4263540E-03  0.1211954E+04  0.7818609E-02  0.9102457E-01
       -2   -1    0    0    0  501  0.00000000000E+00  0.00000000000E+00  0.28664515265E+03  0.28664515266E+03  0.25500000920E-02 0. -1.
        2   -1    0    0  501    0  0.00000000000E+00  0.00000000000E+00 -0.12810554733E+04  0.12810554733E+04  0.25500000920E-02 0.  1.
    10030    2    1    2    0    0  0.00000000000E+00  0.00000000000E+00 -0.99441032062E+03  0.15677006259E+04  0.12119543584E+04 0.  0.
        2    1    3    3  502    0  0.39471850661E+03  0.20732738013E+03  0.33648709159E+02  0.44712367154E+03  0.25500000920E-02 0. -1.
       -2    1    3    3    0  502 -0.39471850661E+03 -0.20732738013E+03 -0.10280590298E+04  0.11205769544E+04  0.25500000920E-02 0.  1.
</event>
<event>
 5   0  0.4453011E-03  0.1415896E+04  0.7818609E-02  0.8942392E-01
        2   -1    0    0  501    0  0.00000000000E+00  0.00000000000E+00  0.20099530518E+04  0.20099530518E+04  0.25500000920E-02 0. -1.
       -2   -1    0    0    0  501  0.00000000000E+00  0.00000000000E+00 -0.24935425377E+03  0.24935425378E+03  0.25500000920E-02 0.  1.
    10030    2    1    2    0    0  0.00000000000E+00  0.00000000000E+00  0.17605987980E+04  0.22593073056E+04  0.14158959614E+04 0.  0.
        1    1    3    3  502    0  0.64010108427E+03  0.13530522800E+01  0.13628662213E+04  0.15057010215E+04  0.50400001928E-02 0. -1.
       -1    1    3    3    0  502 -0.64010108427E+03 -0.13530522800E+01  0.39773257670E+03  0.75360628410E+03  0.50400001928E-02 0.  1.
</event>
<event>
 5   0  0.2356769E-03  0.1281109E+04  0.7818609E-02  0.9044682E-01
       -1   -1    0    0    0  501  0.00000000000E+00  0.00000000000E+00  0.17331067606E+03  0.17331067613E+03  0.50400001928E-02 0.  1.
        1   -1    0    0  501    0  0.00000000000E+00  0.00000000000E+00 -0.23674823372E+04  0.23674823372E+04  0.50400001928E-02 0. -1.
    10030    2    1    2    0    0  0.00000000000E+00  0.00000000000E+00 -0.21941716612E+04  0.25407930134E+04  0.12811088393E+04 0.  0.
        1    1    3    3  502    0  0.44321740081E+03 -0.88862345445E+02 -0.19971782908E+04  0.20476960971E+04  0.50400001928E-02 0. -1.
       -1    1    3    3    0  502 -0.44321740081E+03  0.88862345445E+02 -0.19699337035E+03  0.49309691624E+03  0.50400001928E-02 0.  1.
</event>
<event>
 5   0  0.4453011E-03  0.1389461E+04  0.7818609E-02  0.8961483E-01
        2   -1    0    0  501    0  0.00000000000E+00  0.00000000000E+00  0.13752541497E+04  0.13752541497E+04  0.25500000920E-02 0. -1.
       -2   -1    0    0    0  501  0.00000000000E+00  0.00000000000E+00 -0.35095374710E+03  0.35095374711E+03  0.25500000920E-02 0.  1.
    10030    2    1    2    0    0  0.00000000000E+00  0.00000000000E+00  0.10243004026E+04  0.17262078968E+04  0.13894611863E+04 0.  0.
        1    1    3    3  502    0 -0.54069424330E+03 -0.34835884270E+03  0.83836422803E+03  0.10566734249E+04  0.50400001928E-02 0. -1.
       -1    1    3    3    0  502  0.54069424330E+03  0.34835884270E+03  0.18593617454E+03  0.66953447189E+03  0.50400001928E-02 0.  1.
</event>
<event>
 5   0  0.4453011E-03  0.1390772E+04  0.7818609E-02  0.8960526E-01
       -2   -1    0    0    0  501  0.00000000000E+00  0.00000000000E+00  0.53172890282E+03  0.53172890283E+03  0.25500000920E-02 0.  1.
        2   -1    0    0  501    0  0.00000000000E+00  0.00000000000E+00 -0.90941348636E+03  0.90941348636E+03  0.25500000920E-02 0. -1.
    10030    2    1    2    0    0  0.00000000000E+00  0.00000000000E+00 -0.37768458354E+03  0.14411423892E+04  0.13907716352E+04 0.  0.
        1    1    3    3  502    0  0.28023025828E+03 -0.33059359319E+03 -0.75235839684E+03  0.86825357980E+03  0.50400001928E-02 0. -1.
       -1    1    3    3    0  502 -0.28023025828E+03  0.33059359319E+03  0.37467381331E+03  0.57288880938E+03  0.50400001928E-02 0.  1.
</event>
<event>
 5   0  0.4388937E-03  0.1292631E+04  0.7818609E-02  0.9035430E-01
        2   -1    0    0  501    0  0.00000000000E+00  0.00000000000E+00  0.11210724376E+04  0.11210724376E+04  0.25500000920E-02 0. -1.
       -2   -1    0    0    0  501  0.00000000000E+00  0.00000000000E+00 -0.37261070054E+03  0.37261070055E+03  0.25500000920E-02 0.  1.
    10030    2    1    2    0    0  0.00000000000E+00  0.00000000000E+00  0.74846173703E+03  0.14936831381E+04  0.12926307846E+04 0.  0.
        5    1    3    3  502    0 -0.34098383924E+03  0.27804286123E+03  0.92128192486E+03  0.10209604725E+04  0.46999998093E+01 0. -1.
       -5    1    3    3    0  502  0.34098383924E+03 -0.27804286123E+03 -0.17282018782E+03  0.47272266565E+03  0.46999998093E+01 0.  1.
</event>
<event>
 5   0  0.4306214E-03  0.1310642E+04  0.7818609E-02  0.9021168E-01
       -2   -1    0    0    0  501  0.00000000000E+00  0.00000000000E+00  0.22415351616E+03  0.22415351617E+03  0.25500000920E-02 0.  1.
        2   -1    0    0  501    0  0.00000000000E+00  0.00000000000E+00 -0.19158548828E+04  0.19158548828E+04  0.25500000920E-02 0. -1.
    10030    2    1    2    0    0  0.00000000000E+00  0.00000000000E+00 -0.16917013666E+04  0.21400083989E+04  0.13106419930E+04 0.  0.
        3    1    3    3  502    0 -0.69659806547E+02  0.46877296770E+03 -0.10685126196E+03  0.48581661795E+03  0.10100000352E+00 0.  1.
       -3    1    3    3    0  502  0.69659806547E+02 -0.46877296770E+03 -0.15848501047E+04  0.16541917810E+04  0.10100000352E+00 0. -1.
</event>
<event>
 5   0  0.2356769E-03  0.1299167E+04  0.7818609E-02  0.9030226E-01
        1   -1    0    0  501    0  0.00000000000E+00  0.00000000000E+00  0.62343779975E+03  0.62343779977E+03  0.50400001928E-02 0.  1.
       -1   -1    0    0    0  501  0.00000000000E+00  0.00000000000E+00 -0.67682553869E+03  0.67682553871E+03  0.50400001928E-02 0. -1.
    10030    2    1    2    0    0  0.00000000000E+00  0.00000000000E+00 -0.53387738936E+02  0.13002633385E+04  0.12991668479E+04 0.  0.
        1    1    3    3  502    0 -0.51338218324E+01  0.64687232227E+03 -0.85806966086E+02  0.65255880417E+03  0.50400001928E-02 0. -1.
       -1    1    3    3    0  502  0.51338218324E+01 -0.64687232227E+03  0.32419227150E+02  0.64770453431E+03  0.50400001928E-02 0.  1.
</event>
<event>
 5   0  0.2356769E-03  0.1316353E+04  0.7818609E-02  0.9016697E-01
       -1   -1    0    0    0  501  0.00000000000E+00  0.00000000000E+00  0.83716719011E+03  0.83716719013E+03  0.50400001928E-02 0. -1.
        1   -1    0    0  501    0  0.00000000000E+00  0.00000000000E+00 -0.51745470938E+03  0.51745470941E+03  0.50400001928E-02 0.  1.
    10030    2    1    2    0    0  0.00000000000E+00  0.00000000000E+00  0.31971248073E+03  0.13546218995E+04  0.13163526960E+04 0.  0.
        1    1    3    3  502    0  0.43814767273E+03  0.21159341530E+02 -0.34509741995E+03  0.55813379233E+03  0.50400001928E-02 0.  1.
       -1    1    3    3    0  502 -0.43814767273E+03 -0.21159341530E+02  0.66480990068E+03  0.79648810721E+03  0.50400001928E-02 0. -1.
</event>
<event>
 5   0  0.2356769E-03  0.1272780E+04  0.7818609E-02  0.9051434E-01
        1   -1    0    0  501    0  0.00000000000E+00  0.00000000000E+00  0.70318964406E+03  0.70318964407E+03  0.50400001928E-02 0. -1.
       -1   -1    0    0    0  501  0.00000000000E+00  0.00000000000E+00 -0.57593593773E+03  0.57593593776E+03  0.50400001928E-02 0.  1.
    10030    2    1    2    0    0  0.00000000000E+00  0.00000000000E+00  0.12725370632E+03  0.12791255818E+04  0.12727799293E+04 0.  0.
        1    1    3    3  502    0  0.51128959829E+03 -0.21057988826E+03  0.38020729820E+03  0.67105777120E+03  0.50400001928E-02 0. -1.
       -1    1    3    3    0  502 -0.51128959829E+03  0.21057988826E+03 -0.25295359188E+03  0.60806781063E+03  0.50400001928E-02 0.  1.
</event>
<event>
 5   0  0.4388937E-03  0.1285738E+04  0.7818609E-02  0.9040952E-01
        2   -1    0    0  501    0  0.00000000000E+00  0.00000000000E+00  0.17136877099E+04  0.17136877099E+04  0.25500000920E-02 0.  1.
       -2   -1    0    0    0  501  0.00000000000E+00  0.00000000000E+00 -0.24116446112E+03  0.24116446114E+03  0.25500000920E-02 0. -1.
    10030    2    1    2    0    0  0.00000000000E+00  0.00000000000E+00  0.14725232488E+04  0.19548521711E+04  0.12857380342E+04 0.  0.
        5    1    3    3  502    0  0.42853588579E+03 -0.12386039392E+03  0.14400567422E+04  0.15075708651E+04  0.46999998093E+01 0.  1.
       -5    1    3    3    0  502 -0.42853588579E+03  0.12386039392E+03  0.32466506591E+02  0.44728130594E+03  0.46999998093E+01 0. -1.
</event>
<event>
 5   0  0.4453011E-03  0.1299520E+04  0.7818609E-02  0.9029946E-01
        2   -1    0    0  501    0  0.00000000000E+00  0.00000000000E+00  0.80676730609E+03  0.80676730609E+03  0.25500000920E-02 0.  1.
       -2   -1    0    0    0  501  0.00000000000E+00  0.00000000000E+00 -0.52330865908E+03  0.52330865908E+03  0.25500000920E-02 0. -1.
    10030    2    1    2    0    0  0.00000000000E+00  0.00000000000E+00  0.28345864701E+03  0.13300759652E+04  0.12995203994E+04 0.  0.
        1    1    3    3  502    0  0.52118022190E+03  0.10809706801E+03 -0.23969169863E+03  0.58375158263E+03  0.50400001928E-02 0. -1.
       -1    1    3    3    0  502 -0.52118022190E+03 -0.10809706801E+03  0.52315034564E+03  0.74632438255E+03  0.50400001928E-02 0.  1.
</event>
<event>
 5   0  0.2370801E-03  0.1320870E+04  0.7818609E-02  0.9013177E-01
       -1   -1    0    0    0  501  0.00000000000E+00  0.00000000000E+00  0.25247642048E+03  0.25247642053E+03  0.50400001928E-02 0. -1.
        1   -1    0    0  501    0  0.00000000000E+00  0.00000000000E+00 -0.17275833822E+04  0.17275833822E+04  0.50400001928E-02 0.  1.
    10030    2    1    2    0    0  0.00000000000E+00  0.00000000000E+00 -0.14751069617E+04  0.19800598027E+04  0.13208695143E+04 0.  0.
        3    1    3    3  502    0 -0.17501349976E+03  0.46755379491E+02  0.21450553922E+03  0.28076400619E+03  0.10100000352E+00 0. -1.
       -3    1    3    3    0  502  0.17501349976E+03 -0.46755379491E+02 -0.16896125009E+04  0.16992957965E+04  0.10100000352E+00 0.  1.
</event>
<event>
 5   0  0.2370801E-03  0.1275036E+04  0.7818609E-02  0.9049599E-01
        1   -1    0    0  501    0  0.00000000000E+00  0.00000000000E+00  0.71873813262E+03  0.71873813264E+03  0.50400001928E-02 0.  1.
       -1   -1    0    0    0  501  0.00000000000E+00  0.00000000000E+00 -0.56547636986E+03  0.56547636988E+03  0.50400001928E-02 0. -1.
    10030    2    1    2    0    0  0.00000000000E+00  0.00000000000E+00  0.15326176276E+03  0.12842145025E+04  0.12750363605E+04 0.  0.
        3    1    3    3  502    0  0.44002503158E+03 -0.15616645731E+03 -0.36056679195E+03  0.58993085397E+03  0.10100000352E+00 0. -1.
       -3    1    3    3    0  502 -0.44002503158E+03  0.15616645731E+03  0.51382855471E+03  0.69428364855E+03  0.10100000352E+00 0.  1.
</event>
<event>
 5   0  0.4453011E-03  0.1352369E+04  0.7818609E-02  0.8989037E-01
        2   -1    0    0  501    0  0.00000000000E+00  0.00000000000E+00  0.93784965621E+03  0.93784965621E+03  0.25500000920E-02 0.  1.
       -2   -1    0    0    0  501  0.00000000000E+00  0.00000000000E+00 -0.48752509431E+03  0.48752509432E+03  0.25500000920E-02 0. -1.
    10030    2    1    2    0    0  0.00000000000E+00  0.00000000000E+00  0.45032456189E+03  0.14253747505E+04  0.13523686511E+04 0.  0.
        1    1    3    3  502    0  0.23412137529E+03  0.22319143275E+03  0.85101752224E+03  0.91041641967E+03  0.50400001928E-02 0.  1.
       -1    1    3    3    0  502 -0.23412137529E+03 -0.22319143275E+03 -0.40069296035E+03  0.51495833086E+03  0.50400001928E-02 0. -1.
</event>
<event>
 5   0  0.2356769E-03  0.1315894E+04  0.7818609E-02  0.9017055E-01
       -1   -1    0    0    0  501  0.00000000000E+00  0.00000000000E+00  0.44407299029E+03  0.44407299032E+03  0.50400001928E-02 0.  1.
        1   -1    0    0  501    0  0.00000000000E+00  0.00000000000E+00 -0.97482728558E+03  0.97482728559E+03  0.50400001928E-02 0. -1.
    10030    2    1    2    0    0  0.00000000000E+00  0.00000000000E+00 -0.53075429529E+03  0.14189002759E+04  0.13158943237E+04 0.  0.
        1    1    3    3  502    0  0.36079727792E+03 -0.14210706709E+03 -0.83851565522E+03  0.92383851313E+03  0.50400001928E-02 0. -1.
       -1    1    3    3    0  502 -0.36079727792E+03  0.14210706709E+03  0.30776135994E+03  0.49506176278E+03  0.50400001928E-02 0.  1.
</event>
<event>
 5   0  0.2462055E-03  0.1185400E+04  0.7818609E-02  0.9125732E-01
        1   -1    0    0  501    0  0.00000000000E+00  0.00000000000E+00  0.47750660617E+03  0.47750660620E+03  0.50400001928E-02 0. -1.
       -1   -1    0    0    0  501  0.00000000000E+00  0.00000000000E+00 -0.73568319298E+03  0.73568319299E+03  0.50400001928E-02 0.  1.
    10030    2    1    2    0    0  0.00000000000E+00  0.00000000000E+00 -0.25817658680E+03  0.12131897992E+04  0.11854004973E+04 0.  0.
        2    1    3    3  502    0  0.12477747034E+03 -0.47547850798E+03  0.20980017072E+03  0.53447669762E+03  0.25500000920E-02 0. -1.
       -2    1    3    3    0  502 -0.12477747034E+03  0.47547850798E+03 -0.46797675752E+03  0.67871310157E+03  0.25500000920E-02 0.  1.
</event>
<event>
 5   0  0.2511542E-03  0.7826498E+03  0.7818609E-02  0.9585476E-01
       -1   -1    0    0    0  501  0.00000000000E+00  0.00000000000E+00  0.28003583167E+03  0.28003583172E+03  0.50400001928E-02 0. -1.
        1   -1    0    0  501    0  0.00000000000E+00  0.00000000000E+00 -0.54684141594E+03  0.54684141596E+03  0.50400001928E-02 0.  1.
    10030    2    1    2    0    0  0.00000000000E+00  0.00000000000E+00 -0.26680558427E+03  0.82687724767E+03  0.78264983417E+03 0.  0.
        4    1    3    3  502    0  0.21401362153E+03 -0.18898635627E+03  0.14933136970E+03  0.32220978249E+03  0.12699999809E+01 0. -1.
       -4    1    3    3    0  502 -0.21401362153E+03  0.18898635627E+03 -0.41613695397E+03  0.50466746518E+03  0.12699999809E+01 0.  1.
</event>
<event>
 5   0  0.2462055E-03  0.1322143E+04  0.7818609E-02  0.9012187E-01
       -1   -1    0    0    0  501  0.00000000000E+00  0.00000000000E+00  0.88130264644E+03  0.88130264646E+03  0.50400001928E-02 0.  1.
        1   -1    0    0  501    0  0.00000000000E+00  0.00000000000E+00 -0.49587462470E+03  0.49587462473E+03  0.50400001928E-02 0. -1.
    10030    2    1    2    0    0  0.00000000000E+00  0.00000000000E+00  0.38542802174E+03  0.13771772712E+04  0.13221431376E+04 0.  0.
        2    1    3    3  502    0  0.16341501637E+02  0.46956031463E+03 -0.29168267472E+03  0.55302144307E+03  0.25500000920E-02 0. -1.
       -2    1    3    3    0  502 -0.16341501637E+02 -0.46956031463E+03  0.67711069646E+03  0.82415582812E+03  0.25500000920E-02 0.  1.
</event>
<event>
 5   0  0.2356769E-03  0.1301684E+04  0.7818609E-02  0.9028231E-01
        1   -1    0    0  501    0  0.00000000000E+00  0.00000000000E+00  0.18469746820E+04  0.18469746820E+04  0.50400001928E-02 0. -1.
       -1   -1    0    0    0  501  0.00000000000E+00  0.00000000000E+00 -0.22934553664E+03  0.22934553670E+03  0.50400001928E-02 0.  1.
    10030    2    1    2    0    0  0.00000000000E+00  0.00000000000E+00  0.16176291453E+04  0.20763202187E+04  0.13016841394E+04 0.  0.
        1    1    3    3  502    0 -0.54023249870E+03 -0.41605390201E+02  0.13839664054E+04  0.14862520555E+04  0.50400001928E-02 0. -1.
       -1    1    3    3    0  502  0.54023249870E+03  0.41605390201E+02  0.23366273992E+03  0.59006816318E+03  0.50400001928E-02 0.  1.
</event>
<event>
 5   0  0.2370801E-03  0.1285947E+04  0.7818609E-02  0.9040784E-01
        1   -1    0    0  501    0  0.00000000000E+00  0.00000000000E+00  0.10353910521E+04  0.10353910521E+04  0.50400001928E-02 0. -1.
       -1   -1    0    0    0  501  0.00000000000E+00  0.00000000000E+00 -0.39928384580E+03  0.39928384583E+03  0.50400001928E-02 0.  1.
    10030    2    1    2    0    0  0.00000000000E+00  0.00000000000E+00  0.63610720631E+03  0.14346748979E+04  0.12859469993E+04 0.  0.
        3    1    3    3  502    0  0.15694850713E+03 -0.55780411274E+03  0.71943344163E+01  0.57950843888E+03  0.10100000352E+00 0. -1.
       -3    1    3    3    0  502 -0.15694850713E+03  0.55780411274E+03  0.62891287189E+03  0.85516645907E+03  0.10100000352E+00 0.  1.
</event>
<event>
 5   0  0.2511542E-03  0.1266172E+04  0.7818609E-02  0.9056830E-01
        1   -1    0    0  501    0  0.00000000000E+00  0.00000000000E+00  0.90125781564E+03  0.90125781565E+03  0.50400001928E-02 0. -1.
       -1   -1    0    0    0  501  0.00000000000E+00  0.00000000000E+00 -0.44470911646E+03  0.44470911649E+03  0.50400001928E-02 0.  1.
    10030    2    1    2    0    0  0.00000000000E+00  0.00000000000E+00  0.45654869918E+03  0.13459669321E+04  0.12661715001E+04 0.  0.
        4    1    3    3  502    0  0.12445511567E+03  0.54818474548E+03 -0.81282709514E+02  0.56798246695E+03  0.12699999809E+01 0. -1.
       -4    1    3    3    0  502 -0.12445511567E+03 -0.54818474548E+03  0.53783140869E+03  0.77798446519E+03  0.12699999809E+01 0.  1.
</event>
<event>
 5   0  0.4306214E-03  0.1290512E+04  0.7818609E-02  0.9037123E-01
       -2   -1    0    0    0  501  0.00000000000E+00  0.00000000000E+00  0.48970587587E+03  0.48970587588E+03  0.25500000920E-02 0. -1.
        2   -1    0    0  501    0  0.00000000000E+00  0.00000000000E+00 -0.85021546425E+03  0.85021546426E+03  0.25500000920E-02 0.  1.
    10030    2    1    2    0    0  0.00000000000E+00  0.00000000000E+00 -0.36050958838E+03  0.13399213401E+04  0.12905123147E+04 0.  0.
        3    1    3    3  502    0 -0.20530514540E+03  0.54378754462E+03 -0.47116107043E+03  0.74822981823E+03  0.10100000352E+00 0.  1.
       -3    1    3    3    0  502  0.20530514540E+03 -0.54378754462E+03  0.11065148205E+03  0.59169152190E+03  0.10100000352E+00 0. -1.
</event>
<event>
 5   0  0.2462055E-03  0.1307421E+04  0.7818609E-02  0.9023701E-01
       -1   -1    0    0    0  501  0.00000000000E+00  0.00000000000E+00  0.16801177864E+04  0.16801177864E+04  0.50400001928E-02 0. -1.
        1   -1    0    0  501    0  0.00000000000E+00  0.00000000000E+00 -0.25434970101E+03  0.25434970106E+03  0.50400001928E-02 0.  1.
    10030    2    1    2    0    0  0.00000000000E+00  0.00000000000E+00  0.14257680854E+04  0.19344674875E+04  0.13074210595E+04 0.  0.
        2    1    3    3  502    0  0.64059777697E+03 -0.12506967491E+03  0.65893377554E+03  0.92747056881E+03  0.25500000920E-02 0.  1.
       -2    1    3    3    0  502 -0.64059777697E+03  0.12506967491E+03  0.76683430984E+03  0.10069969187E+04  0.25500000920E-02 0. -1.
</event>
<event>
 5   0  0.2370801E-03  0.1295948E+04  0.7818609E-02  0.9032785E-01
        1   -1    0    0  501    0  0.00000000000E+00  0.00000000000E+00  0.16392809517E+04  0.16392809517E+04  0.50400001928E-02 0. -1.
       -1   -1    0    0    0  501  0.00000000000E+00  0.00000000000E+00 -0.25613082915E+03  0.25613082920E+03  0.50400001928E-02 0.  1.
    10030    2    1    2    0    0  0.00000000000E+00  0.00000000000E+00  0.13831501225E+04  0.18954117809E+04  0.12959481308E+04 0.  0.
        3    1    3    3  502    0  0.17002370637E+03  0.58483647726E+03  0.36805783532E+03  0.71162373921E+03  0.10100000352E+00 0. -1.
       -3    1    3    3    0  502 -0.17002370637E+03 -0.58483647726E+03  0.10150922872E+04  0.11837880417E+04  0.10100000352E+00 0.  1.
</event>
<event>
 5   0  0.2462055E-03  0.1319173E+04  0.7818609E-02  0.9014498E-01
       -1   -1    0    0    0  501  0.00000000000E+00  0.00000000000E+00  0.71458168492E+03  0.71458168494E+03  0.50400001928E-02 0. -1.
        1   -1    0    0  501    0  0.00000000000E+00  0.00000000000E+00 -0.60882345752E+03  0.60882345754E+03  0.50400001928E-02 0.  1.
    10030    2    1    2    0    0  0.00000000000E+00  0.00000000000E+00  0.10575822740E+03  0.13234051425E+04  0.13191726075E+04 0.  0.
        2    1    3    3  502    0  0.29368762520E+03 -0.51283801183E+03 -0.24097509338E+03  0.63821958855E+03  0.25500000920E-02 0.  1.
       -2    1    3    3    0  502 -0.29368762520E+03  0.51283801183E+03  0.34673332079E+03  0.68518555393E+03  0.25500000920E-02 0. -1.
</event>
<event>
 5   0  0.4453011E-03  0.1354905E+04  0.7818609E-02  0.8987123E-01
        2   -1    0    0  501    0  0.00000000000E+00  0.00000000000E+00  0.11263617225E+04  0.11263617225E+04  0.25500000920E-02 0.  1.
       -2   -1    0    0    0  501  0.00000000000E+00  0.00000000000E+00 -0.40745514391E+03  0.40745514392E+03  0.25500000920E-02 0. -1.
    10030    2    1    2    0    0  0.00000000000E+00  0.00000000000E+00  0.71890657854E+03  0.15338168664E+04  0.13549049822E+04 0.  0.
        1    1    3    3  502    0 -0.20870723065E+03  0.52795624540E+03 -0.59014595566E+02  0.57077073128E+03  0.50400001928E-02 0. -1.
       -1    1    3    3    0  502  0.20870723065E+03 -0.52795624540E+03  0.77792117411E+03  0.96304613510E+03  0.50400001928E-02 0.  1.
</event>
<event>
 5   0  0.2356769E-03  0.1317972E+04  0.7818609E-02  0.9015433E-01
       -1   -1    0    0    0  501  0.00000000000E+00  0.00000000000E+00  0.27034716686E+03  0.27034716690E+03  0.50400001928E-02 0.  1.
        1   -1    0    0  501    0  0.00000000000E+00  0.00000000000E+00 -0.16063155682E+04  0.16063155682E+04  0.50400001928E-02 0. -1.
    10030    2    1    2    0    0  0.00000000000E+00  0.00000000000E+00 -0.13359684013E+04  0.18766627351E+04  0.13179724777E+04 0.  0.
        1    1    3    3  502    0 -0.35584114758E+03 -0.51769120400E+03 -0.95146488522E+03  0.11401370676E+04  0.50400001928E-02 0. -1.
       -1    1    3    3    0  502  0.35584114758E+03  0.51769120400E+03 -0.38450351611E+03  0.73652566753E+03  0.50400001928E-02 0.  1.
</event>
<event>
 5   0  0.4263540E-03  0.1303611E+04  0.7818609E-02  0.9026707E-01
        2   -1    0    0  501    0  0.00000000000E+00  0.00000000000E+00  0.16581305540E+04  0.16581305540E+04  0.25500000920E-02 0.  1.
       -2   -1    0    0    0  501  0.00000000000E+00  0.00000000000E+00 -0.25622237079E+03  0.25622237080E+03  0.25500000920E-02 0. -1.
    10030    2    1    2    0    0  0.00000000000E+00  0.00000000000E+00  0.14019081833E+04  0.19143529248E+04  0.13036105886E+04 0.  0.
        2    1    3    3  502    0 -0.57128359281E+03  0.27708872250E+03  0.91731281540E+03  0.11156190680E+04  0.25500000920E-02 0.  1.
       -2    1    3    3    0  502  0.57128359281E+03 -0.27708872250E+03  0.48459536785E+03  0.79873385686E+03  0.25500000920E-02 0. -1.
</event>
<event>
 5   0  0.2458456E-03  0.1296077E+04  0.7818609E-02  0.9032682E-01
        1   -1    0    0  501    0  0.00000000000E+00  0.00000000000E+00  0.79622526611E+03  0.79622526613E+03  0.50400001928E-02 0.  1.
       -1   -1    0    0    0  501  0.00000000000E+00  0.00000000000E+00 -0.52743125238E+03  0.52743125240E+03  0.50400001928E-02 0. -1.
    10030    2    1    2    0    0  0.00000000000E+00  0.00000000000E+00  0.26879401374E+03  0.13236565185E+04  0.12960772960E+04 0.  0.
        5    1    3    3  502    0  0.44201642362E+03 -0.44751059174E+03  0.29355851630E+03  0.69414907690E+03  0.46999998093E+01 0. -1.
       -5    1    3    3    0  502 -0.44201642362E+03  0.44751059174E+03 -0.24764502565E+02  0.62950744163E+03  0.46999998093E+01 0.  1.
</event>
<event>
 5   0  0.2511542E-03  0.1301064E+04  0.7818609E-02  0.9028722E-01
        1   -1    0    0  501    0  0.00000000000E+00  0.00000000000E+00  0.11076281942E+04  0.11076281942E+04  0.50400001928E-02 0.  1.
       -1   -1    0    0    0  501  0.00000000000E+00  0.00000000000E+00 -0.38207009828E+03  0.38207009831E+03  0.50400001928E-02 0. -1.
    10030    2    1    2    0    0  0.00000000000E+00  0.00000000000E+00  0.72555809593E+03  0.14896982925E+04  0.13010635850E+04 0.  0.
        4    1    3    3  502    0  0.54052827370E+03 -0.23659165603E+03  0.67643718044E+03  0.89761645392E+03  0.12699999809E+01 0.  1.
       -4    1    3    3    0  502 -0.54052827370E+03  0.23659165603E+03  0.49120915486E+02  0.59208183861E+03  0.12699999809E+01 0. -1.
</event>
<event>
 5   0  0.2370801E-03  0.9767886E+03  0.7818609E-02  0.9334375E-01
        1   -1    0    0  501    0  0.00000000000E+00  0.00000000000E+00  0.12130941777E+04  0.12130941777E+04  0.50400001928E-02 0.  1.
       -1   -1    0    0    0  501  0.00000000000E+00  0.00000000000E+00 -0.19662859688E+03  0.19662859694E+03  0.50400001928E-02 0. -1.
    10030    2    1    2    0    0  0.00000000000E+00  0.00000000000E+00  0.10164655808E+04  0.14097227747E+04  0.97678862830E+03 0.  0.
        3    1    3    3  502    0  0.42488514226E+03  0.98003472815E+02  0.82573154988E+03  0.93379048371E+03  0.10100000352E+00 0.  1.
       -3    1    3    3    0  502 -0.42488514226E+03 -0.98003472815E+02  0.19073403094E+03  0.47593229094E+03  0.10100000352E+00 0. -1.
</event>
<event>
 5   0  0.1661750E-03  0.1306504E+04  0.7818609E-02  0.9024423E-01
        3   -1    0    0  501    0  0.00000000000E+00  0.00000000000E+00  0.26597017686E+03  0.26597019603E+03  0.10100000352E+00 0. -1.
       -3   -1    0    0    0  501  0.00000000000E+00  0.00000000000E+00 -0.16044595203E+04  0.16044595235E+04  0.10100000352E+00 0.  1.
    10030    2    1    2    0    0  0.00000000000E+00  0.00000000000E+00 -0.13384893435E+04  0.18704297196E+04  0.13065043487E+04 0.  0.
        1    1    3    3  502    0 -0.21847547552E+02 -0.68796209285E+02  0.26024343285E+03  0.27006828416E+03  0.50400001928E-02 0. -1.
       -1    1    3    3    0  502  0.21847547552E+02  0.68796209285E+02 -0.15987327763E+04  0.16003614354E+04  0.50400001928E-02 0.  1.
</event>
<event>
 5   0  0.4306214E-03  0.1231722E+04  0.7818609E-02  0.9085535E-01
       -2   -1    0    0    0  501  0.00000000000E+00  0.00000000000E+00  0.16090414136E+03  0.16090414138E+03  0.25500000920E-02 0. -1.
        2   -1    0    0  501    0  0.00000000000E+00  0.00000000000E+00 -0.23572085716E+04  0.23572085716E+04  0.25500000920E-02 0.  1.
    10030    2    1    2    0    0  0.00000000000E+00  0.00000000000E+00 -0.21963044302E+04  0.25181127130E+04  0.12317217563E+04 0.  0.
        3    1    3    3  502    0  0.75905384649E+02 -0.26105322669E+03  0.31588346298E+02  0.27369371276E+03  0.10100000352E+00 0. -1.
       -3    1    3    3    0  502 -0.75905384649E+02  0.26105322669E+03 -0.22278927765E+04  0.22444190002E+04  0.10100000352E+00 0.  1.
</event>
<event>
 5   0  0.4310889E-03  0.1292432E+04  0.7818609E-02  0.9035588E-01
       -2   -1    0    0    0  501  0.00000000000E+00  0.00000000000E+00  0.29169309498E+03  0.29169309500E+03  0.25500000920E-02 0. -1.
        2   -1    0    0  501    0  0.00000000000E+00  0.00000000000E+00 -0.14316253076E+04  0.14316253076E+04  0.25500000920E-02 0.  1.
    10030    2    1    2    0    0  0.00000000000E+00  0.00000000000E+00 -0.11399322126E+04  0.17233184026E+04  0.12924321519E+04 0.  0.
        4    1    3    3  502    0 -0.50725813487E+03  0.76797264421E+02 -0.10938804386E+04  0.12082154866E+04  0.12699999809E+01 0.  1.
       -4    1    3    3    0  502  0.50725813487E+03 -0.76797264421E+02 -0.46051773946E+02  0.51510291593E+03  0.12699999809E+01 0. -1.
</event>
<event>
 5   0  0.2511542E-03  0.1311084E+04  0.7818609E-02  0.9020821E-01
       -1   -1    0    0    0  501  0.00000000000E+00  0.00000000000E+00  0.71088065496E+03  0.71088065498E+03  0.50400001928E-02 0. -1.
        1   -1    0    0  501    0  0.00000000000E+00  0.00000000000E+00 -0.60451117504E+03  0.60451117506E+03  0.50400001928E-02 0.  1.
    10030    2    1    2    0    0  0.00000000000E+00  0.00000000000E+00  0.10636947992E+03  0.13153918300E+04  0.13110839791E+04 0.  0.
        4    1    3    3  502    0  0.50228162462E+03  0.37878308118E+02  0.47410117177E+03  0.69173342454E+03  0.12699999809E+01 0. -1.
       -4    1    3    3    0  502 -0.50228162462E+03 -0.37878308118E+02 -0.36773169185E+03  0.62365840549E+03  0.12699999809E+01 0.  1.
</event>
<event>
 5   0  0.2458456E-03  0.1297913E+04  0.7818609E-02  0.9031222E-01
       -1   -1    0    0    0  501  0.00000000000E+00  0.00000000000E+00  0.48917763500E+03  0.48917763502E+03  0.50400001928E-02 0. -1.
        1   -1    0    0  501    0  0.00000000000E+00  0.00000000000E+00 -0.86092368695E+03  0.86092368697E+03  0.50400001928E-02 0.  1.
    10030    2    1    2    0    0  0.00000000000E+00  0.00000000000E+00 -0.37174605195E+03  0.13501013220E+04  0.12979131144E+04 0.  0.
        5    1    3    3  502    0 -0.62412907587E+03 -0.15000342686E+02 -0.16637038809E+01  0.62432921727E+03  0.46999998093E+01 0. -1.
       -5    1    3    3    0  502  0.62412907587E+03  0.15000342686E+02 -0.37008234807E+03  0.72577210472E+03  0.46999998093E+01 0.  1.
</event>
<event>
 5   0  0.4306214E-03  0.1321044E+04  0.7818609E-02  0.9013042E-01
        2   -1    0    0  501    0  0.00000000000E+00  0.00000000000E+00  0.12695147500E+04  0.12695147500E+04  0.25500000920E-02 0. -1.
       -2   -1    0    0    0  501  0.00000000000E+00  0.00000000000E+00 -0.34366613386E+03  0.34366613387E+03  0.25500000920E-02 0.  1.
    10030    2    1    2    0    0  0.00000000000E+00  0.00000000000E+00  0.92584861616E+03  0.16131808839E+04  0.13210438691E+04 0.  0.
        3    1    3    3  502    0  0.48386507718E+03  0.44513579953E+03  0.54032888238E+03  0.85101504350E+03  0.10100000352E+00 0. -1.
       -3    1    3    3    0  502 -0.48386507718E+03 -0.44513579953E+03  0.38551973378E+03  0.76216584040E+03  0.10100000352E+00 0.  1.
</event>
<event>
 5   0  0.2511542E-03  0.1315980E+04  0.7818609E-02  0.9016988E-01
       -1   -1    0    0    0  501  0.00000000000E+00  0.00000000000E+00  0.23053619844E+03  0.23053619849E+03  0.50400001928E-02 0.  1.
        1   -1    0    0  501    0  0.00000000000E+00  0.00000000000E+00 -0.18780166615E+04  0.18780166615E+04  0.50400001928E-02 0. -1.
    10030    2    1    2    0    0  0.00000000000E+00  0.00000000000E+00 -0.16474804631E+04  0.21085528600E+04  0.13159799722E+04 0.  0.
        4    1    3    3  502    0  0.39232253738E+03  0.46159131917E+03 -0.12352633773E+04  0.13758127574E+04  0.12699999809E+01 0.  1.
       -4    1    3    3    0  502 -0.39232253738E+03 -0.46159131917E+03 -0.41221708582E+03  0.73274010263E+03  0.12699999809E+01 0. -1.
</event>
<event>
 5   0  0.4306214E-03  0.1041347E+04  0.7818609E-02  0.9264323E-01
       -2   -1    0    0    0  501  0.00000000000E+00  0.00000000000E+00  0.50096023301E+03  0.50096023302E+03  0.25500000920E-02 0.  1.
        2   -1    0    0  501    0  0.00000000000E+00  0.00000000000E+00 -0.54116272710E+03  0.54116272711E+03  0.25500000920E-02 0. -1.
    10030    2    1    2    0    0  0.00000000000E+00  0.00000000000E+00 -0.40202494090E+02  0.10421229601E+04  0.10413472156E+04 0.  0.
        3    1    3    3  502    0  0.76269352023E+02  0.34032808478E+02  0.49421326129E+03  0.50122051429E+03  0.10100000352E+00 0.  1.
       -3    1    3    3    0  502 -0.76269352023E+02 -0.34032808478E+02 -0.53441575538E+03  0.54090244583E+03  0.10100000352E+00 0. -1.
</event>
<event>
 5   0  0.2458456E-03  0.1351985E+04  0.7818609E-02  0.8989327E-01
       -1   -1    0    0    0  501  0.00000000000E+00  0.00000000000E+00  0.54030651847E+03  0.54030651849E+03  0.50400001928E-02 0.  1.
        1   -1    0    0  501    0  0.00000000000E+00  0.00000000000E+00 -0.84575311159E+03  0.84575311161E+03  0.50400001928E-02 0. -1.
    10030    2    1    2    0    0  0.00000000000E+00  0.00000000000E+00 -0.30544659312E+03  0.13860596301E+04  0.13519850875E+04 0.  0.
        5    1    3    3  502    0 -0.44333746217E+03 -0.99970537105E+02 -0.66573653998E+03  0.80608277758E+03  0.46999998093E+01 0. -1.
       -5    1    3    3    0  502  0.44333746217E+03  0.99970537105E+02  0.36028994686E+03  0.57997685252E+03  0.46999998093E+01 0.  1.
</event>
<event>
 5   0  0.2462055E-03  0.1298285E+04  0.7818609E-02  0.9030926E-01
       -1   -1    0    0    0  501  0.00000000000E+00  0.00000000000E+00  0.18027190507E+03  0.18027190514E+03  0.50400001928E-02 0. -1.
        1   -1    0    0  501    0  0.00000000000E+00  0.00000000000E+00 -0.23375040422E+04  0.23375040422E+04  0.50400001928E-02 0.  1.
    10030    2    1    2    0    0  0.00000000000E+00  0.00000000000E+00 -0.21572321372E+04  0.25177759474E+04  0.12982854954E+04 0.  0.
        2    1    3    3  502    0  0.33563367805E+03  0.47882576850E+03 -0.16252885773E+04  0.17272773494E+04  0.25500000920E-02 0.  1.
       -2    1    3    3    0  502 -0.33563367805E+03 -0.47882576850E+03 -0.53194355987E+03  0.79049859792E+03  0.25500000920E-02 0. -1.
</event>
<event>
 5   0  0.4388937E-03  0.1460188E+04  0.7818609E-02  0.8911368E-01
       -2   -1    0    0    0  501  0.00000000000E+00  0.00000000000E+00  0.26511105249E+03  0.26511105250E+03  0.25500000920E-02 0.  1.
        2   -1    0    0  501    0  0.00000000000E+00  0.00000000000E+00 -0.20106176269E+04  0.20106176270E+04  0.25500000920E-02 0. -1.
    10030    2    1    2    0    0  0.00000000000E+00  0.00000000000E+00 -0.17455065745E+04  0.22757286795E+04  0.14601875979E+04 0.  0.
        5    1    3    3  502    0  0.49469554359E+03 -0.44251994549E+03 -0.39883237385E+03  0.77436227661E+03  0.46999998093E+01 0.  1.
       -5    1    3    3    0  502 -0.49469554359E+03  0.44251994549E+03 -0.13466742006E+04  0.15013664028E+04  0.46999998093E+01 0. -1.
</event>
<event>
 5   0  0.2356769E-03  0.1242510E+04  0.7818609E-02  0.9076440E-01
        1   -1    0    0  501    0  0.00000000000E+00  0.00000000000E+00  0.88957333925E+03  0.88957333926E+03  0.50400001928E-02 0.  1.
       -1   -1    0    0    0  501  0.00000000000E+00  0.00000000000E+00 -0.43386840293E+03  0.43386840296E+03  0.50400001928E-02 0. -1.
    10030    2    1    2    0    0  0.00000000000E+00  0.00000000000E+00  0.45570493632E+03  0.13234417422E+04  0.12425099823E+04 0.  0.
        1    1    3    3  502    0 -0.17693223864E+02  0.31577295647E+03  0.79740847921E+03  0.85783791765E+03  0.50400001928E-02 0.  1.
       -1    1    3    3    0  502  0.17693223864E+02 -0.31577295647E+03 -0.34170354289E+03  0.46560382457E+03  0.50400001928E-02 0. -1.
</event>
<event>
 5   0  0.2356769E-03  0.1320300E+04  0.7818609E-02  0.9013620E-01
       -1   -1    0    0    0  501  0.00000000000E+00  0.00000000000E+00  0.55063074837E+03  0.55063074840E+03  0.50400001928E-02 0. -1.
        1   -1    0    0  501    0  0.00000000000E+00  0.00000000000E+00 -0.79145234311E+03  0.79145234312E+03  0.50400001928E-02 0.  1.
    10030    2    1    2    0    0  0.00000000000E+00  0.00000000000E+00 -0.24082159473E+03  0.13420830915E+04  0.13202999599E+04 0.  0.
        1    1    3    3  502    0  0.64187218184E+03  0.54351530814E+02 -0.26716732367E+03  0.69737534053E+03  0.50400001928E-02 0.  1.
       -1    1    3    3    0  502 -0.64187218184E+03 -0.54351530814E+02  0.26345728935E+02  0.64470775099E+03  0.50400001928E-02 0. -1.
</event>
<event>
 5   0  0.4306214E-03  0.6620185E+03  0.7818609E-02  0.9784485E-01
       -2   -1    0    0    0  501  0.00000000000E+00  0.00000000000E+00  0.24117750840E+03  0.24117750842E+03  0.25500000920E-02 0. -1.
        2   -1    0    0  501    0  0.00000000000E+00  0.00000000000E+00 -0.45430080601E+03  0.45430080602E+03  0.25500000920E-02 0.  1.
    10030    2    1    2    0    0  0.00000000000E+00  0.00000000000E+00 -0.21312329760E+03  0.69547831443E+03  0.66201853891E+03 0.  0.
        3    1    3    3  502    0  0.29853478606E+03  0.13325575114E+03 -0.52105328736E+02  0.33105149023E+03  0.10100000352E+00 0. -1.
       -3    1    3    3    0  502 -0.29853478606E+03 -0.13325575114E+03 -0.16101796887E+03  0.36442682420E+03  0.10100000352E+00 0.  1.
</event>
<event>
 5   0  0.2511542E-03  0.1290961E+04  0.7818609E-02  0.9036764E-01
        1   -1    0    0  501    0  0.00000000000E+00  0.00000000000E+00  0.25462399007E+04  0.25462399007E+04  0.50400001928E-02 0. -1.
       -1   -1    0    0    0  501  0.00000000000E+00  0.00000000000E+00 -0.16363163439E+03  0.16363163447E+03  0.50400001928E-02 0.  1.
    10030    2    1    2    0    0  0.00000000000E+00  0.00000000000E+00  0.23826082663E+04  0.27098715352E+04  0.12909614969E+04 0.  0.
        4    1    3    3  502    0 -0.12046645918E+03 -0.19212826728E+03  0.24598661554E+04  0.24702972603E+04  0.12699999809E+01 0. -1.
       -4    1    3    3    0  502  0.12046645918E+03  0.19212826728E+03 -0.77257889054E+02  0.23957427491E+03  0.12699999809E+01 0.  1.
</event>
<event>
 5   0  0.2356769E-03  0.1389569E+04  0.7818609E-02  0.8961404E-01
       -1   -1    0    0    0  501  0.00000000000E+00  0.00000000000E+00  0.76212454335E+03  0.76212454337E+03  0.50400001928E-02 0. -1.
        1   -1    0    0  501    0  0.00000000000E+00  0.00000000000E+00 -0.63339446019E+03  0.63339446021E+03  0.50400001928E-02 0.  1.
    10030    2    1    2    0    0  0.00000000000E+00  0.00000000000E+00  0.12873008316E+03  0.13955190036E+04  0.13895689458E+04 0.  0.
        1    1    3    3  502    0  0.19264901615E+02 -0.25064453254E+03 -0.58612105405E+03  0.63775521022E+03  0.50400001928E-02 0.  1.
       -1    1    3    3    0  502 -0.19264901615E+02  0.25064453254E+03  0.71485113722E+03  0.75776379336E+03  0.50400001928E-02 0. -1.
</event>
<event>
 5   0  0.4388937E-03  0.1290400E+04  0.7818609E-02  0.9037213E-01
       -2   -1    0    0    0  501  0.00000000000E+00  0.00000000000E+00  0.78254008044E+03  0.78254008045E+03  0.25500000920E-02 0. -1.
        2   -1    0    0  501    0  0.00000000000E+00  0.00000000000E+00 -0.53196422933E+03  0.53196422933E+03  0.25500000920E-02 0.  1.
    10030    2    1    2    0    0  0.00000000000E+00  0.00000000000E+00  0.25057585111E+03  0.13145043098E+04  0.12904004507E+04 0.  0.
        5    1    3    3  502    0  0.26803059513E+03  0.30977973566E+03  0.63305371624E+03  0.75404441660E+03  0.46999998093E+01 0. -1.
       -5    1    3    3    0  502 -0.26803059513E+03 -0.30977973566E+03 -0.38247786513E+03  0.56045989318E+03  0.46999998093E+01 0.  1.
</event>
<event>
 5   0  0.2458456E-03  0.8084038E+03  0.7818609E-02  0.9547932E-01
        1   -1    0    0  501    0  0.00000000000E+00  0.00000000000E+00  0.62435993817E+03  0.62435993819E+03  0.50400001928E-02 0.  1.
       -1   -1    0    0    0  501  0.00000000000E+00  0.00000000000E+00 -0.26167467776E+03  0.26167467781E+03  0.50400001928E-02 0. -1.
    10030    2    1    2    0    0  0.00000000000E+00  0.00000000000E+00  0.36268526041E+03  0.88603461600E+03  0.80840382399E+03 0.  0.
        5    1    3    3  502    0  0.29004313736E+03 -0.82668316370E+02 -0.11356478014E+03  0.32230128971E+03  0.46999998093E+01 0. -1.
       -5    1    3    3    0  502 -0.29004313736E+03  0.82668316370E+02  0.47625004055E+03  0.56373332630E+03  0.46999998093E+01 0.  1.
</event>
<event>
 5   0  0.4306214E-03  0.1320959E+04  0.7818609E-02  0.9013108E-01
       -2   -1    0    0    0  501  0.00000000000E+00  0.00000000000E+00  0.35750152626E+03  0.35750152627E+03  0.25500000920E-02 0.  1.
        2   -1    0    0  501    0  0.00000000000E+00  0.00000000000E+00 -0.12202269274E+04  0.12202269274E+04  0.25500000920E-02 0. -1.
    10030    2    1    2    0    0  0.00000000000E+00  0.00000000000E+00 -0.86272540112E+03  0.15777284537E+04  0.13209587260E+04 0.  0.
        3    1    3    3  502    0  0.11449969192E+03 -0.28805801801E+03  0.26522418932E+03  0.40796014755E+03  0.10100000352E+00 0.  1.
       -3    1    3    3    0  502 -0.11449969192E+03  0.28805801801E+03 -0.11279495904E+04  0.11697683061E+04  0.10100000352E+00 0. -1.
</event>
<event>
 5   0  0.2462055E-03  0.1314722E+04  0.7818609E-02  0.9017971E-01
       -1   -1    0    0    0  501  0.00000000000E+00  0.00000000000E+00  0.10223939600E+04  0.10223939601E+04  0.50400001928E-02 0. -1.
        1   -1    0    0  501    0  0.00000000000E+00  0.00000000000E+00 -0.42265839054E+03  0.42265839057E+03  0.50400001928E-02 0.  1.
    10030    2    1    2    0    0  0.00000000000E+00  0.00000000000E+00  0.59973556951E+03  0.14450523506E+04  0.13147218499E+04 0.  0.
        2    1    3    3  502    0  0.51340282327E+03 -0.31793828624E+03  0.58533783336E+03  0.84100391911E+03  0.25500000920E-02 0.  1.
       -2    1    3    3    0  502 -0.51340282327E+03  0.31793828624E+03  0.14397736143E+02  0.60404843151E+03  0.25500000920E-02 0. -1.
</event>
<event>
 5   0  0.2511542E-03  0.1305791E+04  0.7818609E-02  0.9024986E-01
       -1   -1    0    0    0  501  0.00000000000E+00  0.00000000000E+00  0.20919142334E+03  0.20919142340E+03  0.50400001928E-02 0. -1.
        1   -1    0    0  501    0  0.00000000000E+00  0.00000000000E+00 -0.20377140717E+04  0.20377140717E+04  0.50400001928E-02 0.  1.
    10030    2    1    2    0    0  0.00000000000E+00  0.00000000000E+00 -0.18285226484E+04  0.22469054951E+04  0.13057906526E+04 0.  0.
        4    1    3    3  502    0 -0.39099624610E+03 -0.26947895273E+03 -0.16852796275E+04  0.17509043395E+04  0.12699999809E+01 0.  1.
       -4    1    3    3    0  502  0.39099624610E+03  0.26947895273E+03 -0.14324302090E+03  0.49600115561E+03  0.12699999809E+01 0. -1.
</event>
<event>
 5   0  0.2356769E-03  0.1199280E+04  0.7818609E-02  0.9113487E-01
       -1   -1    0    0    0  501  0.00000000000E+00  0.00000000000E+00  0.50711950271E+03  0.50711950273E+03  0.50400001928E-02 0. -1.
        1   -1    0    0  501    0  0.00000000000E+00  0.00000000000E+00 -0.70904070763E+03  0.70904070765E+03  0.50400001928E-02 0.  1.
    10030    2    1    2    0    0  0.00000000000E+00  0.00000000000E+00 -0.20192120492E+03  0.12161602104E+04  0.11992804027E+04 0.  0.
        1    1    3    3  502    0 -0.41043931374E+03  0.36981800725E+03 -0.33735663815E+03  0.64732935209E+03  0.50400001928E-02 0.  1.
       -1    1    3    3    0  502  0.41043931374E+03 -0.36981800725E+03  0.13543543323E+03  0.56883085829E+03  0.50400001928E-02 0. -1.
</event>
<event>
 5   0  0.2511542E-03  0.1280738E+04  0.7818609E-02  0.9044981E-01
        1   -1    0    0  501    0  0.00000000000E+00  0.00000000000E+00  0.19301908633E+04  0.19301908633E+04  0.50400001928E-02 0.  1.
       -1   -1    0    0    0  501  0.00000000000E+00  0.00000000000E+00 -0.21245183187E+03  0.21245183193E+03  0.50400001928E-02 0. -1.
    10030    2    1    2    0    0  0.00000000000E+00  0.00000000000E+00  0.17177390314E+04  0.21426426952E+04  0.12807382009E+04 0.  0.
        4    1    3    3  502    0 -0.40617930247E+03 -0.42395529783E+03  0.12865469598E+04  0.14141868380E+04  0.12699999809E+01 0.  1.
       -4    1    3    3    0  502  0.40617930247E+03  0.42395529783E+03  0.43119207167E+03  0.72845585720E+03  0.12699999809E+01 0. -1.
</event>
<event>
 5   0  0.4263540E-03  0.1314346E+04  0.7818609E-02  0.9018266E-01
       -2   -1    0    0    0  501  0.00000000000E+00  0.00000000000E+00  0.23423940722E+03  0.23423940724E+03  0.25500000920E-02 0.  1.
        2   -1    0    0  501    0  0.00000000000E+00  0.00000000000E+00 -0.18437386308E+04  0.18437386308E+04  0.25500000920E-02 0. -1.
    10030    2    1    2    0    0  0.00000000000E+00  0.00000000000E+00 -0.16094992236E+04  0.20779780380E+04  0.13143458357E+04 0.  0.
        2    1    3    3  502    0 -0.47141981512E+03  0.17538875490E+03 -0.14734171410E+04  0.15569058831E+04  0.25500000920E-02 0. -1.
       -2    1    3    3    0  502  0.47141981512E+03 -0.17538875490E+03 -0.13608208255E+03  0.52107215491E+03  0.25500000920E-02 0.  1.
</event>
<event>
 5   0  0.4453011E-03  0.1302942E+04  0.7818609E-02  0.9027235E-01
       -2   -1    0    0    0  501  0.00000000000E+00  0.00000000000E+00  0.39641916634E+03  0.39641916634E+03  0.25500000920E-02 0. -1.
        2   -1    0    0  501    0  0.00000000000E+00  0.00000000000E+00 -0.10706202567E+04  0.10706202567E+04  0.25500000920E-02 0.  1.
    10030    2    1    2    0    0  0.00000000000E+00  0.00000000000E+00 -0.67420109037E+03  0.14670394231E+04  0.13029418861E+04 0.  0.
        1    1    3    3  502    0 -0.29257244998E+03 -0.42814046132E+03 -0.78111590017E+03  0.93757396649E+03  0.50400001928E-02 0.  1.
       -1    1    3    3    0  502  0.29257244998E+03  0.42814046132E+03  0.10691480981E+03  0.52946545656E+03  0.50400001928E-02 0. -1.
</event>
<event>
 5   0  0.4306214E-03  0.1259091E+04  0.7818609E-02  0.9062651E-01
        2   -1    0    0  501    0  0.00000000000E+00  0.00000000000E+00  0.10434247097E+04  0.10434247097E+04  0.25500000920E-02 0. -1.
       -2   -1    0    0    0  501  0.00000000000E+00  0.00000000000E+00 -0.37983337931E+03  0.37983337931E+03  0.25500000920E-02 0.  1.
    10030    2    1    2    0    0  0.00000000000E+00  0.00000000000E+00  0.66359133040E+03  0.14232580890E+04  0.12590909952E+04 0.  0.
        3    1    3    3  502    0 -0.67205118513E+02  0.53431404653E+03 -0.36785378560E+02  0.53977884596E+03  0.10100000352E+00 0.  1.
       -3    1    3    3    0  502  0.67205118513E+02 -0.53431404653E+03  0.70037670896E+03  0.88347924306E+03  0.10100000352E+00 0. -1.
</event>
<event>
 5   0  0.4453011E-03  0.1308304E+04  0.7818609E-02  0.9023006E-01
        2   -1    0    0  501    0  0.00000000000E+00  0.00000000000E+00  0.16619635053E+04  0.16619635053E+04  0.25500000920E-02 0.  1.
       -2   -1    0    0    0  501  0.00000000000E+00  0.00000000000E+00 -0.25747541324E+03  0.25747541325E+03  0.25500000920E-02 0. -1.
    10030    2    1    2    0    0  0.00000000000E+00  0.00000000000E+00  0.14044880921E+04  0.19194389186E+04  0.13083038490E+04 0.  0.
        1    1    3    3  502    0  0.10978391512E+03 -0.63249523987E+03  0.51775986497E+03  0.82472905507E+03  0.50400001928E-02 0. -1.
       -1    1    3    3    0  502 -0.10978391512E+03  0.63249523987E+03  0.88672822709E+03  0.10947098635E+04  0.50400001928E-02 0.  1.
</event>
<event>
 5   0  0.4310889E-03  0.1295968E+04  0.7818609E-02  0.9032769E-01
       -2   -1    0    0    0  501  0.00000000000E+00  0.00000000000E+00  0.20106633901E+03  0.20106633903E+03  0.25500000920E-02 0.  1.
        2   -1    0    0  501    0  0.00000000000E+00  0.00000000000E+00 -0.20882811308E+04  0.20882811308E+04  0.25500000920E-02 0. -1.
    10030    2    1    2    0    0  0.00000000000E+00  0.00000000000E+00 -0.18872147918E+04  0.22893474698E+04  0.12959676567E+04 0.  0.
        4    1    3    3  502    0  0.19777283041E+03  0.38242515637E+02  0.14434964308E+03  0.24782052943E+03  0.12699999809E+01 0.  1.
       -4    1    3    3    0  502 -0.19777283041E+03 -0.38242515637E+02 -0.20315644348E+04  0.20415269404E+04  0.12699999809E+01 0. -1.
</event>
<event>
 5   0  0.2370801E-03  0.1332184E+04  0.7818609E-02  0.9004425E-01
        1   -1    0    0  501    0  0.00000000000E+00  0.00000000000E+00  0.18321990125E+04  0.18321990125E+04  0.50400001928E-02 0. -1.
       -1   -1    0    0    0  501  0.00000000000E+00  0.00000000000E+00 -0.24215618684E+03  0.24215618690E+03  0.50400001928E-02 0.  1.
    10030    2    1    2    0    0  0.00000000000E+00  0.00000000000E+00  0.15900428257E+04  0.20743551994E+04  0.13321836607E+04 0.  0.
        3    1    3    3  502    0  0.61449146692E+03  0.52313063927E+02  0.40313107733E+03  0.73678429359E+03  0.10100000352E+00 0.  1.
       -3    1    3    3    0  502 -0.61449146692E+03 -0.52313063927E+02  0.11869117483E+04  0.13375709058E+04  0.10100000352E+00 0. -1.
</event>
<event>
 5   0  0.2356769E-03  0.1300389E+04  0.7818609E-02  0.9029256E-01
       -1   -1    0    0    0  501  0.00000000000E+00  0.00000000000E+00  0.24999179640E+03  0.24999179645E+03  0.50400001928E-02 0.  1.
        1   -1    0    0  501    0  0.00000000000E+00  0.00000000000E+00 -0.16910683060E+04  0.16910683060E+04  0.50400001928E-02 0. -1.
    10030    2    1    2    0    0  0.00000000000E+00  0.00000000000E+00 -0.14410765096E+04  0.19410601024E+04  0.13003894858E+04 0.  0.
        1    1    3    3  502    0 -0.24519034931E+03 -0.34336193260E+03 -0.14589792095E+04  0.15187613564E+04  0.50400001928E-02 0. -1.
       -1    1    3    3    0  502  0.24519034931E+03  0.34336193260E+03  0.17902699910E+02  0.42229874596E+03  0.50400001928E-02 0.  1.
</event>
<event>
 5   0  0.2458456E-03  0.1287404E+04  0.7818609E-02  0.9039614E-01
       -1   -1    0    0    0  501  0.00000000000E+00  0.00000000000E+00  0.36392456024E+03  0.36392456027E+03  0.50400001928E-02 0.  1.
        1   -1    0    0  501    0  0.00000000000E+00  0.00000000000E+00 -0.11385655928E+04  0.11385655928E+04  0.50400001928E-02 0. -1.
    10030    2    1    2    0    0  0.00000000000E+00  0.00000000000E+00 -0.77464103260E+03  0.15024901531E+04  0.12874035618E+04 0.  0.
        5    1    3    3  502    0  0.27792408391E+03 -0.44805950687E+03 -0.81823776594E+03  0.97341370943E+03  0.46999998093E+01 0. -1.
       -5    1    3    3    0  502 -0.27792408391E+03  0.44805950687E+03  0.43596733336E+02  0.52907644369E+03  0.46999998093E+01 0.  1.
</event>
<event>
 5   0  0.2356769E-03  0.1297190E+04  0.7818609E-02  0.9031797E-01
        1   -1    0    0  501    0  0.00000000000E+00  0.00000000000E+00  0.11542490686E+04  0.11542490686E+04  0.50400001928E-02 0.  1.
       -1   -1    0    0    0  501  0.00000000000E+00  0.00000000000E+00 -0.36445812238E+03  0.36445812242E+03  0.50400001928E-02 0. -1.
    10030    2    1    2    0    0  0.00000000000E+00  0.00000000000E+00  0.78979094623E+03  0.15187071910E+04  0.12971899604E+04 0.  0.
        1    1    3    3  502    0  0.11429153852E+03 -0.90574724612E+02  0.11348064234E+04  0.11441380839E+04  0.50400001928E-02 0.  1.
       -1    1    3    3    0  502 -0.11429153852E+03  0.90574724612E+02 -0.34501547714E+03  0.37456910712E+03  0.50400001928E-02 0. -1.
</event>
<event>
 5   0  0.2511542E-03  0.1275817E+04  0.7818609E-02  0.9048965E-01
        1   -1    0    0  501    0  0.00000000000E+00  0.00000000000E+00  0.14511972017E+04  0.14511972017E+04  0.50400001928E-02 0.  1.
       -1   -1    0    0    0  501  0.00000000000E+00  0.00000000000E+00 -0.28040805168E+03  0.28040805173E+03  0.50400001928E-02 0. -1.
    10030    2    1    2    0    0  0.00000000000E+00  0.00000000000E+00  0.11707891500E+04  0.17316052534E+04  0.12758171969E+04 0.  0.
        4    1    3    3  502    0  0.63369285291E+03  0.70607628490E+02  0.55915717146E+03  0.84806274787E+03  0.12699999809E+01 0.  1.
       -4    1    3    3    0  502 -0.63369285291E+03 -0.70607628490E+02  0.61163197852E+03  0.88354250553E+03  0.12699999809E+01 0. -1.
</event>
<event>
 5   0  0.2370801E-03  0.1321770E+04  0.7818609E-02  0.9012477E-01
        1   -1    0    0  501    0  0.00000000000E+00  0.00000000000E+00  0.78995505760E+03  0.78995505762E+03  0.50400001928E-02 0.  1.
       -1   -1    0    0    0  501  0.00000000000E+00  0.00000000000E+00 -0.55290386962E+03  0.55290386964E+03  0.50400001928E-02 0. -1.
    10030    2    1    2    0    0  0.00000000000E+00  0.00000000000E+00  0.23705118798E+03  0.13428589273E+04  0.13217703404E+04 0.  0.
        3    1    3    3  502    0 -0.13855006126E+03 -0.62057179687E+03  0.30157720415E+03  0.70374306022E+03  0.10100000352E+00 0.  1.
       -3    1    3    3    0  502  0.13855006126E+03  0.62057179687E+03 -0.64526016164E+02  0.63911586704E+03  0.10100000352E+00 0. -1.
</event>
<event>
 5   0  0.4310889E-03  0.1275984E+04  0.7818609E-02  0.9048830E-01
        2   -1    0    0  501    0  0.00000000000E+00  0.00000000000E+00  0.12442403474E+04  0.12442403474E+04  0.25500000920E-02 0. -1.
       -2   -1    0    0    0  501  0.00000000000E+00  0.00000000000E+00 -0.32713439772E+03  0.32713439773E+03  0.25500000920E-02 0.  1.
    10030    2    1    2    0    0  0.00000000000E+00  0.00000000000E+00  0.91710594968E+03  0.15713747451E+04  0.12759840386E+04 0.  0.
        4    1    3    3  502    0 -0.38986521494E+03  0.29895076985E+03 -0.42693001510E+02  0.49314374567E+03  0.12699999809E+01 0.  1.
       -4    1    3    3    0  502  0.38986521494E+03 -0.29895076985E+03  0.95979895119E+03  0.10782309995E+04  0.12699999809E+01 0. -1.
</event>
<event>
 5   0  0.2462055E-03  0.1302839E+04  0.7818609E-02  0.9027317E-01
       -1   -1    0    0    0  501  0.00000000000E+00  0.00000000000E+00  0.61215187317E+03  0.61215187319E+03  0.50400001928E-02 0.  1.
        1   -1    0    0  501    0  0.00000000000E+00  0.00000000000E+00 -0.69320597887E+03  0.69320597889E+03  0.50400001928E-02 0. -1.
    10030    2    1    2    0    0  0.00000000000E+00  0.00000000000E+00 -0.81054105698E+02  0.13053578521E+04  0.13028389593E+04 0.  0.
        2    1    3    3  502    0 -0.11237814058E+03 -0.56419991834E+01 -0.68339570081E+03  0.69259682538E+03  0.25500000920E-02 0. -1.
       -2    1    3    3    0  502  0.11237814058E+03  0.56419991834E+01  0.60234159511E+03  0.61276102670E+03  0.25500000920E-02 0.  1.
</event>
<event>
 5   0  0.2370801E-03  0.1307168E+04  0.7818609E-02  0.9023900E-01
        1   -1    0    0  501    0  0.00000000000E+00  0.00000000000E+00  0.65590618338E+03  0.65590618340E+03  0.50400001928E-02 0.  1.
       -1   -1    0    0    0  501  0.00000000000E+00  0.00000000000E+00 -0.65126972855E+03  0.65126972857E+03  0.50400001928E-02 0. -1.
    10030    2    1    2    0    0  0.00000000000E+00  0.00000000000E+00  0.46364548283E+01  0.13071759120E+04  0.13071676894E+04 0.  0.
        3    1    3    3  502    0 -0.50951005713E+03 -0.40911380201E+03 -0.11725739477E+02  0.65353814309E+03  0.10100000352E+00 0.  1.
       -3    1    3    3    0  502  0.50951005713E+03  0.40911380201E+03  0.16362194305E+02  0.65363776888E+03  0.10100000352E+00 0. -1.
</event>
<event>
 5   0  0.4388937E-03  0.1289299E+04  0.7818609E-02  0.9038094E-01
       -2   -1    0    0    0  501  0.00000000000E+00  0.00000000000E+00  0.32599270983E+03  0.32599270984E+03  0.25500000920E-02 0.  1.
        2   -1    0    0  501    0  0.00000000000E+00  0.00000000000E+00 -0.12747922531E+04  0.12747922531E+04  0.25500000920E-02 0. -1.
    10030    2    1    2    0    0  0.00000000000E+00  0.00000000000E+00 -0.94879954325E+03  0.16007849629E+04  0.12892990050E+04 0.  0.
        5    1    3    3  502    0 -0.10212194174E+03 -0.30093804615E+03 -0.11707535203E+04  0.12131275671E+04  0.46999998093E+01 0. -1.
       -5    1    3    3    0  502  0.10212194174E+03  0.30093804615E+03  0.22195397710E+03  0.38765739584E+03  0.46999998093E+01 0.  1.
</event>
<event>
 5   0  0.2462055E-03  0.1307190E+04  0.7818609E-02  0.9023883E-01
        1   -1    0    0  501    0  0.00000000000E+00  0.00000000000E+00  0.15630105544E+04  0.15630105544E+04  0.50400001928E-02 0.  1.
       -1   -1    0    0    0  501  0.00000000000E+00  0.00000000000E+00 -0.27331002958E+03  0.27331002962E+03  0.50400001928E-02 0. -1.
    10030    2    1    2    0    0  0.00000000000E+00  0.00000000000E+00  0.12897005249E+04  0.18363205841E+04  0.13071900564E+04 0.  0.
        2    1    3    3  502    0  0.57572981339E+03  0.22291631561E+01  0.21023640868E+03  0.61291853841E+03  0.25500000920E-02 0. -1.
       -2    1    3    3    0  502 -0.57572981339E+03 -0.22291631561E+01  0.10794641162E+04  0.12234020457E+04  0.25500000920E-02 0.  1.
</event>
<event>
 5   0  0.2370801E-03  0.8439031E+03  0.7818609E-02  0.9498557E-01
        1   -1    0    0  501    0  0.00000000000E+00  0.00000000000E+00  0.34093003789E+03  0.34093003793E+03  0.50400001928E-02 0. -1.
       -1   -1    0    0    0  501  0.00000000000E+00  0.00000000000E+00 -0.52222772312E+03  0.52222772314E+03  0.50400001928E-02 0.  1.
    10030    2    1    2    0    0  0.00000000000E+00  0.00000000000E+00 -0.18129768523E+03  0.86315776107E+03  0.84390311638E+03 0.  0.
        3    1    3    3  502    0 -0.26689999919E+03 -0.29999252497E+03  0.41970556484E+02  0.40372349748E+03  0.10100000352E+00 0. -1.
       -3    1    3    3    0  502  0.26689999919E+03  0.29999252497E+03 -0.22326824171E+03  0.45943426359E+03  0.10100000352E+00 0.  1.
</event>
<event>
 5   0  0.2458456E-03  0.1361629E+04  0.7818609E-02  0.8982071E-01
        1   -1    0    0  501    0  0.00000000000E+00  0.00000000000E+00  0.61892501872E+03  0.61892501874E+03  0.50400001928E-02 0. -1.
       -1   -1    0    0    0  501  0.00000000000E+00  0.00000000000E+00 -0.74889265710E+03  0.74889265712E+03  0.50400001928E-02 0.  1.
    10030    2    1    2    0    0  0.00000000000E+00  0.00000000000E+00 -0.12996763839E+03  0.13678176759E+04  0.13616290271E+04 0.  0.
        5    1    3    3  502    0 -0.53334683054E+02 -0.62658240555E+03  0.19703921716E+03  0.65901186822E+03  0.46999998093E+01 0. -1.
       -5    1    3    3    0  502  0.53334683054E+02  0.62658240555E+03 -0.32700685554E+03  0.70880580763E+03  0.46999998093E+01 0.  1.
</event>
<event>
 5   0  0.4263540E-03  0.1300435E+04  0.7818609E-02  0.9029221E-01
        2   -1    0    0  501    0  0.00000000000E+00  0.00000000000E+00  0.58557845105E+03  0.58557845106E+03  0.25500000920E-02 0. -1.
       -2   -1    0    0    0  501  0.00000000000E+00  0.00000000000E+00 -0.72199118236E+03  0.72199118237E+03  0.25500000920E-02 0.  1.
    10030    2    1    2    0    0  0.00000000000E+00  0.00000000000E+00 -0.13641273131E+03  0.13075696334E+04  0.13004345093E+04 0.  0.
        2    1    3    3  502    0 -0.22574963320E+03 -0.51328958605E+03  0.26277045243E+03  0.61925552618E+03  0.25500000920E-02 0. -1.
       -2    1    3    3    0  502  0.22574963320E+03  0.51328958605E+03 -0.39918318375E+03  0.68831410724E+03  0.25500000920E-02 0.  1.
</event>
<event>
 5   0  0.4263540E-03  0.1288660E+04  0.7818609E-02  0.9038606E-01
        2   -1    0    0  501    0  0.00000000000E+00  0.00000000000E+00  0.12803161101E+04  0.12803161101E+04  0.25500000920E-02 0.  1.
       -2   -1    0    0    0  501  0.00000000000E+00  0.00000000000E+00 -0.32426471684E+03  0.32426471685E+03  0.25500000920E-02 0. -1.
    10030    2    1    2    0    0  0.00000000000E+00  0.00000000000E+00  0.95605139326E+03  0.16045808270E+04  0.12886602980E+04 0.  0.
        2    1    3    3  502    0  0.26773424494E+03 -0.57573639797E+03  0.61446707647E+03  0.88358577056E+03  0.25500000920E-02 0.  1.
       -2    1    3    3    0  502 -0.26773424494E+03  0.57573639797E+03  0.34158431679E+03  0.72099505640E+03  0.25500000920E-02 0. -1.
</event>
<event>
 5   0  0.4306214E-03  0.1293192E+04  0.7818609E-02  0.9034981E-01
        2   -1    0    0  501    0  0.00000000000E+00  0.00000000000E+00  0.18534334432E+04  0.18534334432E+04  0.25500000920E-02 0.  1.
       -2   -1    0    0    0  501  0.00000000000E+00  0.00000000000E+00 -0.22557400357E+03  0.22557400358E+03  0.25500000920E-02 0. -1.
    10030    2    1    2    0    0  0.00000000000E+00  0.00000000000E+00  0.16278594396E+04  0.20790074467E+04  0.12931920231E+04 0.  0.
        3    1    3    3  502    0 -0.50084786440E+03  0.12665227990E+03  0.14390514953E+04  0.15289730539E+04  0.10100000352E+00 0.  1.
       -3    1    3    3    0  502  0.50084786440E+03 -0.12665227990E+03  0.18880794431E+03  0.55003439284E+03  0.10100000352E+00 0. -1.
</event>
<event>
 5   0  0.4310889E-03  0.1285032E+04  0.7818609E-02  0.9041520E-01
       -2   -1    0    0    0  501  0.00000000000E+00  0.00000000000E+00  0.29787380492E+03  0.29787380493E+03  0.25500000920E-02 0.  1.
        2   -1    0    0  501    0  0.00000000000E+00  0.00000000000E+00 -0.13859110968E+04  0.13859110968E+04  0.25500000920E-02 0. -1.
    10030    2    1    2    0    0  0.00000000000E+00  0.00000000000E+00 -0.10880372919E+04  0.16837849018E+04  0.12850316910E+04 0.  0.
        4    1    3    3  502    0 -0.29424140632E+03  0.10195649102E+03  0.19238257059E+03  0.36604070487E+03  0.12699999809E+01 0.  1.
       -4    1    3    3    0  502  0.29424140632E+03 -0.10195649102E+03 -0.12804198625E+04  0.13177441969E+04  0.12699999809E+01 0. -1.
</event>
<event>
 5   0  0.2356769E-03  0.1284892E+04  0.7818609E-02  0.9041633E-01
       -1   -1    0    0    0  501  0.00000000000E+00  0.00000000000E+00  0.37471279953E+03  0.37471279956E+03  0.50400001928E-02 0. -1.
        1   -1    0    0  501    0  0.00000000000E+00  0.00000000000E+00 -0.11014749238E+04  0.11014749238E+04  0.50400001928E-02 0.  1.
    10030    2    1    2    0    0  0.00000000000E+00  0.00000000000E+00 -0.72676212423E+03  0.14761877233E+04  0.12848918279E+04 0.  0.
        1    1    3    3  502    0 -0.62440261575E+01  0.33333069536E+03  0.26755063677E+03  0.42747126639E+03  0.50400001928E-02 0. -1.
       -1    1    3    3    0  502  0.62440261575E+01 -0.33333069536E+03 -0.99431276100E+03  0.10487164569E+04  0.50400001928E-02 0.  1.
</event>
<event>
 5   0  0.4310889E-03  0.1310626E+04  0.7818609E-02  0.9021181E-01
        2   -1    0    0  501    0  0.00000000000E+00  0.00000000000E+00  0.35461099468E+03  0.35461099469E+03  0.25500000920E-02 0.  1.
       -2   -1    0    0    0  501  0.00000000000E+00  0.00000000000E+00 -0.12110030921E+04  0.12110030922E+04  0.25500000920E-02 0. -1.
    10030    2    1    2    0    0  0.00000000000E+00  0.00000000000E+00 -0.85639209747E+03  0.15656140868E+04  0.13106258216E+04 0.  0.
        4    1    3    3  502    0 -0.18308423377E+03  0.51185291183E+03  0.89524356655E+01  0.54368648963E+03  0.12699999809E+01 0.  1.
       -4    1    3    3    0  502  0.18308423377E+03 -0.51185291183E+03 -0.86534453314E+03  0.10219275972E+04  0.12699999809E+01 0. -1.
</event>
<event>
 5   0  0.2511542E-03  0.1297787E+04  0.7818609E-02  0.9031322E-01
       -1   -1    0    0    0  501  0.00000000000E+00  0.00000000000E+00  0.33045402103E+03  0.33045402107E+03  0.50400001928E-02 0. -1.
        1   -1    0    0  501    0  0.00000000000E+00  0.00000000000E+00 -0.12741942868E+04  0.12741942868E+04  0.50400001928E-02 0.  1.
    10030    2    1    2    0    0  0.00000000000E+00  0.00000000000E+00 -0.94374026576E+03  0.16046483079E+04  0.12977867709E+04 0.  0.
        4    1    3    3  502    0 -0.24001162100E+03  0.37262370967E+03 -0.10578573855E+04  0.11469602731E+04  0.12699999809E+01 0. -1.
       -4    1    3    3    0  502  0.24001162100E+03 -0.37262370967E+03  0.11411711973E+03  0.45768803473E+03  0.12699999809E+01 0.  1.
</event>
<event>
 5   0  0.4453011E-03  0.1308752E+04  0.7818609E-02  0.9022654E-01
        2   -1    0    0  501    0  0.00000000000E+00  0.00000000000E+00  0.58854938159E+03  0.58854938160E+03  0.25500000920E-02 0. -1.
       -2   -1    0    0    0  501  0.00000000000E+00  0.00000000000E+00 -0.72756460426E+03  0.72756460427E+03  0.25500000920E-02 0.  1.
    10030    2    1    2    0    0  0.00000000000E+00  0.00000000000E+00 -0.13901522267E+03  0.13161139859E+04  0.13087516157E+04 0.  0.
        1    1    3    3  502    0  0.64102719420E+03  0.64381542726E+02 -0.18481234743E+03  0.67023611551E+03  0.50400001928E-02 0.  1.
       -1    1    3    3    0  502 -0.64102719420E+03 -0.64381542726E+02  0.45797124757E+02  0.64587787035E+03  0.50400001928E-02 0. -1.
</event>
<event>
 5   0  0.2370801E-03  0.1299597E+04  0.7818609E-02  0.9029885E-01
        1   -1    0    0  501    0  0.00000000000E+00  0.00000000000E+00  0.18179497855E+04  0.18179497855E+04  0.50400001928E-02 0. -1.
       -1   -1    0    0    0  501  0.00000000000E+00  0.00000000000E+00 -0.23226051263E+03  0.23226051269E+03  0.50400001928E-02 0.  1.
    10030    2    1    2    0    0  0.00000000000E+00  0.00000000000E+00  0.15856892729E+04  0.20502102982E+04  0.12995967824E+04 0.  0.
        3    1    3    3  502    0 -0.64609785334E+03 -0.67472977834E+02  0.76825774175E+03  0.10060889656E+04  0.10100000352E+00 0.  1.
       -3    1    3    3    0  502  0.64609785334E+03  0.67472977834E+02  0.81743153113E+03  0.10441213326E+04  0.10100000352E+00 0. -1.
</event>
<event>
 5   0  0.4306214E-03  0.1318920E+04  0.7818609E-02  0.9014695E-01
       -2   -1    0    0    0  501  0.00000000000E+00  0.00000000000E+00  0.22413392036E+03  0.22413392037E+03  0.25500000920E-02 0.  1.
        2   -1    0    0  501    0  0.00000000000E+00  0.00000000000E+00 -0.19403014249E+04  0.19403014249E+04  0.25500000920E-02 0. -1.
    10030    2    1    2    0    0  0.00000000000E+00  0.00000000000E+00 -0.17161675046E+04  0.21644353453E+04  0.13189198081E+04 0.  0.
        3    1    3    3  502    0 -0.12634153372E+03  0.61866877358E+03 -0.11702063523E+04  0.13296977671E+04  0.10100000352E+00 0.  1.
       -3    1    3    3    0  502  0.12634153372E+03 -0.61866877358E+03 -0.54596115223E+03  0.83473757821E+03  0.10100000352E+00 0. -1.
</event>
<event>
 5   0  0.2458456E-03  0.1254847E+04  0.7818609E-02  0.9066159E-01
        1   -1    0    0  501    0  0.00000000000E+00  0.00000000000E+00  0.17510203160E+04  0.17510203160E+04  0.50400001928E-02 0. -1.
       -1   -1    0    0    0  501  0.00000000000E+00  0.00000000000E+00 -0.22481767051E+03  0.22481767057E+03  0.50400001928E-02 0.  1.
    10030    2    1    2    0    0  0.00000000000E+00  0.00000000000E+00  0.15262026455E+04  0.19758379866E+04  0.12548470959E+04 0.  0.
        5    1    3    3  502    0  0.13846230524E+03 -0.35363170419E+03  0.15494557669E+04  0.15953251881E+04  0.46999998093E+01 0. -1.
       -5    1    3    3    0  502 -0.13846230524E+03  0.35363170419E+03 -0.23253121386E+02  0.38051279851E+03  0.46999998093E+01 0.  1.
</event>
<event>
 5   0  0.4453011E-03  0.1303450E+04  0.7818609E-02  0.9026834E-01
       -2   -1    0    0    0  501  0.00000000000E+00  0.00000000000E+00  0.26857895392E+03  0.26857895393E+03  0.25500000920E-02 0. -1.
        2   -1    0    0  501    0  0.00000000000E+00  0.00000000000E+00 -0.15814555054E+04  0.15814555054E+04  0.25500000920E-02 0.  1.
    10030    2    1    2    0    0  0.00000000000E+00  0.00000000000E+00 -0.13128765515E+04  0.18500344594E+04  0.13034502911E+04 0.  0.
        1    1    3    3  502    0 -0.37317919077E+03 -0.45309406883E+03 -0.10583604708E+04  0.12102412279E+04  0.50400001928E-02 0.  1.
       -1    1    3    3    0  502  0.37317919077E+03  0.45309406883E+03 -0.25451608074E+03  0.63979323146E+03  0.50400001928E-02 0. -1.
</event>
<event>
 5   0  0.4306214E-03  0.1296630E+04  0.7818609E-02  0.9032242E-01
       -2   -1    0    0    0  501  0.00000000000E+00  0.00000000000E+00  0.29841854572E+03  0.29841854573E+03  0.25500000920E-02 0.  1.
        2   -1    0    0  501    0  0.00000000000E+00  0.00000000000E+00 -0.14084668397E+04  0.14084668397E+04  0.25500000920E-02 0. -1.
    10030    2    1    2    0    0  0.00000000000E+00  0.00000000000E+00 -0.11100482940E+04  0.17068853854E+04  0.12966304423E+04 0.  0.
        3    1    3    3  502    0 -0.30012109237E+03  0.46792150992E+03 -0.11587195090E+03  0.56784639537E+03  0.10100000352E+00 0.  1.
       -3    1    3    3    0  502  0.30012109237E+03 -0.46792150992E+03 -0.99417634307E+03  0.11390389901E+04  0.10100000352E+00 0. -1.
</event>
<event>
 5   0  0.2458456E-03  0.1258197E+04  0.7818609E-02  0.9063389E-01
        1   -1    0    0  501    0  0.00000000000E+00  0.00000000000E+00  0.10792106796E+04  0.10792106796E+04  0.50400001928E-02 0. -1.
       -1   -1    0    0    0  501  0.00000000000E+00  0.00000000000E+00 -0.36671687801E+03  0.36671687805E+03  0.50400001928E-02 0.  1.
    10030    2    1    2    0    0  0.00000000000E+00  0.00000000000E+00  0.71249380155E+03  0.14459275576E+04  0.12581967591E+04 0.  0.
        5    1    3    3  502    0  0.26035610675E+03 -0.39763503145E+01  0.10143534410E+04  0.10472516923E+04  0.46999998093E+01 0. -1.
       -5    1    3    3    0  502 -0.26035610675E+03  0.39763503145E+01 -0.30185963946E+03  0.39867586535E+03  0.46999998093E+01 0.  1.
</event>
<event>
 5   0  0.2511542E-03  0.7591721E+03  0.7818609E-02  0.9621070E-01
       -1   -1    0    0    0  501  0.00000000000E+00  0.00000000000E+00  0.79898950612E+02  0.79898950771E+02  0.50400001928E-02 0. -1.
        1   -1    0    0  501    0  0.00000000000E+00  0.00000000000E+00 -0.18033474322E+04  0.18033474322E+04  0.50400001928E-02 0.  1.
    10030    2    1    2    0    0  0.00000000000E+00  0.00000000000E+00 -0.17234484815E+04  0.18832463829E+04  0.75917209531E+03 0.  0.
        4    1    3    3  502    0  0.24866814357E+03 -0.20597601033E+03 -0.13567506822E+04  0.13946454708E+04  0.12699999809E+01 0.  1.
       -4    1    3    3    0  502 -0.24866814357E+03  0.20597601033E+03 -0.36669779931E+03  0.48860091218E+03  0.12699999809E+01 0. -1.
</event>
<event>
 5   0  0.2462055E-03  0.1290341E+04  0.7818609E-02  0.9037260E-01
       -1   -1    0    0    0  501  0.00000000000E+00  0.00000000000E+00  0.64687548865E+03  0.64687548867E+03  0.50400001928E-02 0. -1.
        1   -1    0    0  501    0  0.00000000000E+00  0.00000000000E+00 -0.64347003638E+03  0.64347003640E+03  0.50400001928E-02 0.  1.
    10030    2    1    2    0    0  0.00000000000E+00  0.00000000000E+00  0.34054522668E+01  0.12903455251E+04  0.12903410313E+04 0.  0.
        2    1    3    3  502    0 -0.13689692079E+03  0.33962382776E+03  0.53289181513E+03  0.64657466540E+03  0.25500000920E-02 0. -1.
       -2    1    3    3    0  502  0.13689692079E+03 -0.33962382776E+03 -0.52948636286E+03  0.64377085967E+03  0.25500000920E-02 0.  1.
</event>
<event>
 5   0  0.4310889E-03  0.1252064E+04  0.7818609E-02  0.9068467E-01
        2   -1    0    0  501    0  0.00000000000E+00  0.00000000000E+00  0.93072234129E+03  0.93072234129E+03  0.25500000920E-02 0.  1.
       -2   -1    0    0    0  501  0.00000000000E+00  0.00000000000E+00 -0.42108790941E+03  0.42108790942E+03  0.25500000920E-02 0. -1.
    10030    2    1    2    0    0  0.00000000000E+00  0.00000000000E+00  0.50963443188E+03  0.13518102507E+04  0.12520637762E+04 0.  0.
        4    1    3    3  502    0 -0.24385660115E+02  0.26720499989E+03 -0.35585864508E+03  0.44567943700E+03  0.12699999809E+01 0. -1.
       -4    1    3    3    0  502  0.24385660115E+02 -0.26720499989E+03  0.86549307696E+03  0.90613081371E+03  0.12699999809E+01 0.  1.
</event>
<event>
 5   0  0.4453011E-03  0.1307692E+04  0.7818609E-02  0.9023488E-01
        2   -1    0    0  501    0  0.00000000000E+00  0.00000000000E+00  0.60590774619E+03  0.60590774619E+03  0.25500000920E-02 0.  1.
       -2   -1    0    0    0  501  0.00000000000E+00  0.00000000000E+00 -0.70557670039E+03  0.70557670039E+03  0.25500000920E-02 0. -1.
    10030    2    1    2    0    0  0.00000000000E+00  0.00000000000E+00 -0.99668954200E+02  0.13114844466E+04  0.13076916889E+04 0.  0.
        1    1    3    3  502    0  0.23806011441E+03 -0.40711108629E+03 -0.50403024349E+03  0.69025976344E+03  0.50400001928E-02 0. -1.
       -1    1    3    3    0  502 -0.23806011441E+03  0.40711108629E+03  0.40436128929E+03  0.62122468315E+03  0.50400001928E-02 0.  1.
</event>
<event>
 5   0  0.2356769E-03  0.1392477E+04  0.7818609E-02  0.8959282E-01
       -1   -1    0    0    0  501  0.00000000000E+00  0.00000000000E+00  0.53964292070E+03  0.53964292073E+03  0.50400001928E-02 0. -1.
        1   -1    0    0  501    0  0.00000000000E+00  0.00000000000E+00 -0.89827502037E+03  0.89827502038E+03  0.50400001928E-02 0.  1.
    10030    2    1    2    0    0  0.00000000000E+00  0.00000000000E+00 -0.35863209967E+03  0.14379179411E+04  0.13924765788E+04 0.  0.
        1    1    3    3  502    0 -0.35238258976E+02 -0.43299504251E+02  0.53732799745E+03  0.54022028732E+03  0.50400001928E-02 0. -1.
       -1    1    3    3    0  502  0.35238258976E+02  0.43299504251E+02 -0.89596009712E+03  0.89769765379E+03  0.50400001928E-02 0.  1.
</event>
<event>
 5   0  0.4388937E-03  0.1323180E+04  0.7818609E-02  0.9011382E-01
       -2   -1    0    0    0  501  0.00000000000E+00  0.00000000000E+00  0.33181266575E+03  0.33181266576E+03  0.25500000920E-02 0. -1.
        2   -1    0    0  501    0  0.00000000000E+00  0.00000000000E+00 -0.13191222142E+04  0.13191222142E+04  0.25500000920E-02 0.  1.
    10030    2    1    2    0    0  0.00000000000E+00  0.00000000000E+00 -0.98730954847E+03  0.16509348800E+04  0.13231801969E+04 0.  0.
        5    1    3    3  502    0  0.49876270343E+01  0.18900252951E+03 -0.12846748980E+04  0.12985216656E+04  0.46999998093E+01 0.  1.
       -5    1    3    3    0  502 -0.49876270343E+01 -0.18900252951E+03  0.29736534950E+03  0.35241321437E+03  0.46999998093E+01 0. -1.
</event>
<event>
 5   0  0.2511542E-03  0.1270577E+04  0.7818609E-02  0.9053229E-01
       -1   -1    0    0    0  501  0.00000000000E+00  0.00000000000E+00  0.49737952927E+03  0.49737952930E+03  0.50400001928E-02 0.  1.
        1   -1    0    0  501    0  0.00000000000E+00  0.00000000000E+00 -0.81143551940E+03  0.81143551942E+03  0.50400001928E-02 0. -1.
    10030    2    1    2    0    0  0.00000000000E+00  0.00000000000E+00 -0.31405599013E+03  0.13088150487E+04  0.12705769031E+04 0.  0.
        4    1    3    3  502    0 -0.19901763154E+03  0.28707364722E+03  0.38957361307E+03  0.52324803821E+03  0.12699999809E+01 0.  1.
       -4    1    3    3    0  502  0.19901763154E+03 -0.28707364722E+03 -0.70362960320E+03  0.78556701050E+03  0.12699999809E+01 0. -1.
</event>
<event>
 5   0  0.2370801E-03  0.1305208E+04  0.7818609E-02  0.9025445E-01
       -1   -1    0    0    0  501  0.00000000000E+00  0.00000000000E+00  0.25418565967E+03  0.25418565972E+03  0.50400001928E-02 0.  1.
        1   -1    0    0  501    0  0.00000000000E+00  0.00000000000E+00 -0.16755159221E+04  0.16755159221E+04  0.50400001928E-02 0. -1.
    10030    2    1    2    0    0  0.00000000000E+00  0.00000000000E+00 -0.14213302624E+04  0.19297015818E+04  0.13052082133E+04 0.  0.
        3    1    3    3  502    0 -0.58754980662E+03  0.70661705987E+02 -0.11174016181E+04  0.12644343550E+04  0.10100000352E+00 0. -1.
       -3    1    3    3    0  502  0.58754980662E+03 -0.70661705987E+02 -0.30392864435E+03  0.66526722677E+03  0.10100000352E+00 0.  1.
</event>
<event>
 5   0  0.1661750E-03  0.6968516E+03  0.7818609E-02  0.9722631E-01
        3   -1    0    0  501    0  0.00000000000E+00  0.00000000000E+00  0.93161400231E+03  0.93161400779E+03  0.10100000352E+00 0.  1.
       -3   -1    0    0    0  501  0.00000000000E+00  0.00000000000E+00 -0.13031204971E+03  0.13031208885E+03  0.10100000352E+00 0. -1.
    10030    2    1    2    0    0  0.00000000000E+00  0.00000000000E+00  0.80130195260E+03  0.10619260966E+04  0.69685164525E+03 0.  0.
        1    1    3    3  502    0  0.34282970555E+03  0.43525717270E+02  0.46835461376E+03  0.58205046115E+03  0.50400001928E-02 0.  1.
       -1    1    3    3    0  502 -0.34282970555E+03 -0.43525717270E+02  0.33294733884E+03  0.47987563549E+03  0.50400001928E-02 0. -1.
</event>
<event>
 5   0  0.2462055E-03  0.1313393E+04  0.7818609E-02  0.9019011E-01
        1   -1    0    0  501    0  0.00000000000E+00  0.00000000000E+00  0.88126113309E+03  0.88126113310E+03  0.50400001928E-02 0. -1.
       -1   -1    0    0    0  501  0.00000000000E+00  0.00000000000E+00 -0.48935617046E+03  0.48935617048E+03  0.50400001928E-02 0.  1.
    10030    2    1    2    0    0  0.00000000000E+00  0.00000000000E+00  0.39190496263E+03  0.13706173036E+04  0.13133934266E+04 0.  0.
        2    1    3    3  502    0 -0.63291533886E+03 -0.45905566035E+02  0.19587922482E+02  0.63488017285E+03  0.25500000920E-02 0.  1.
       -2    1    3    3    0  502  0.63291533886E+03  0.45905566035E+02  0.37231704015E+03  0.73573713074E+03  0.25500000920E-02 0. -1.
</event>
<event>
 5   0  0.1661750E-03  0.1268184E+04  0.7818609E-02  0.9055183E-01
        3   -1    0    0  501    0  0.00000000000E+00  0.00000000000E+00  0.61768416475E+03  0.61768417301E+03  0.10100000352E+00 0. -1.
       -3   -1    0    0    0  501  0.00000000000E+00  0.00000000000E+00 -0.65093521150E+03  0.65093521934E+03  0.10100000352E+00 0.  1.
    10030    2    1    2    0    0  0.00000000000E+00  0.00000000000E+00 -0.33251046750E+02  0.12686193923E+04  0.12681835555E+04 0.  0.
        5    1    3    3  502    0 -0.17754367076E+03  0.48157605286E+02  0.59038560608E+03  0.61839967969E+03  0.46999998093E+01 0. -1.
       -5    1    3    3    0  502  0.17754367076E+03 -0.48157605286E+02 -0.62363665283E+03  0.65021971266E+03  0.46999998093E+01 0.  1.
</event>
<event>
 5   0  0.4310889E-03  0.1279682E+04  0.7818609E-02  0.9045834E-01
        2   -1    0    0  501    0  0.00000000000E+00  0.00000000000E+00  0.12679657436E+04  0.12679657436E+04  0.25500000920E-02 0. -1.
       -2   -1    0    0    0  501  0.00000000000E+00  0.00000000000E+00 -0.32287674797E+03  0.32287674798E+03  0.25500000920E-02 0.  1.
    10030    2    1    2    0    0  0.00000000000E+00  0.00000000000E+00  0.94508899559E+03  0.15908424915E+04  0.12796822353E+04 0.  0.
        4    1    3    3  502    0  0.11092179304E+03 -0.44976176765E+03 -0.76144091433E+02  0.46945588437E+03  0.12699999809E+01 0.  1.
       -4    1    3    3    0  502 -0.11092179304E+03  0.44976176765E+03  0.10212330870E+04  0.11213866072E+04  0.12699999809E+01 0. -1.
</event>
<event>
 5   0  0.2356769E-03  0.1353536E+04  0.7818609E-02  0.8988156E-01
       -1   -1    0    0    0  501  0.00000000000E+00  0.00000000000E+00  0.44036087653E+03  0.44036087656E+03  0.50400001928E-02 0.  1.
        1   -1    0    0  501    0  0.00000000000E+00  0.00000000000E+00 -0.10400900369E+04  0.10400900369E+04  0.50400001928E-02 0. -1.
    10030    2    1    2    0    0  0.00000000000E+00  0.00000000000E+00 -0.59972916038E+03  0.14804509135E+04  0.13535360510E+04 0.  0.
        1    1    3    3  502    0 -0.17267807571E+03  0.36184276694E+03 -0.89620956973E+03  0.98180420590E+03  0.50400001928E-02 0. -1.
       -1    1    3    3    0  502  0.17267807571E+03 -0.36184276694E+03  0.29648040935E+03  0.49864670757E+03  0.50400001928E-02 0.  1.
</event>
<event>
 5   0  0.2370801E-03  0.1203312E+04  0.7818609E-02  0.9109962E-01
        1   -1    0    0  501    0  0.00000000000E+00  0.00000000000E+00  0.94165699121E+03  0.94165699123E+03  0.50400001928E-02 0.  1.
       -1   -1    0    0    0  501  0.00000000000E+00  0.00000000000E+00 -0.38441825668E+03  0.38441825671E+03  0.50400001928E-02 0. -1.
    10030    2    1    2    0    0  0.00000000000E+00  0.00000000000E+00  0.55723873454E+03  0.13260752479E+04  0.12033123268E+04 0.  0.
        3    1    3    3  502    0 -0.49800813339E+03 -0.30613159332E+03  0.12175462627E+03  0.59712046738E+03  0.10100000352E+00 0. -1.
       -3    1    3    3    0  502  0.49800813339E+03  0.30613159332E+03  0.43548410827E+03  0.72895478056E+03  0.10100000352E+00 0.  1.
</event>
<event>
 5   0  0.4263540E-03  0.1308216E+04  0.7818609E-02  0.9023075E-01
        2   -1    0    0  501    0  0.00000000000E+00  0.00000000000E+00  0.92611381650E+03  0.92611381650E+03  0.25500000920E-02 0.  1.
       -2   -1    0    0    0  501  0.00000000000E+00  0.00000000000E+00 -0.46199245381E+03  0.46199245382E+03  0.25500000920E-02 0. -1.
    10030    2    1    2    0    0  0.00000000000E+00  0.00000000000E+00  0.46412136269E+03  0.13881062703E+04  0.13082164876E+04 0.  0.
        2    1    3    3  502    0  0.52547483764E+03  0.80891846403E+02 -0.17224691132E+03  0.55887055234E+03  0.25500000920E-02 0. -1.
       -2    1    3    3    0  502 -0.52547483764E+03 -0.80891846403E+02  0.63636827401E+03  0.82923571798E+03  0.25500000920E-02 0.  1.
</event>
<event>
 5   0  0.4310889E-03  0.1275018E+04  0.7818609E-02  0.9049614E-01
        2   -1    0    0  501    0  0.00000000000E+00  0.00000000000E+00  0.13974508721E+04  0.13974508721E+04  0.25500000920E-02 0. -1.
       -2   -1    0    0    0  501  0.00000000000E+00  0.00000000000E+00 -0.29082808049E+03  0.29082808051E+03  0.25500000920E-02 0.  1.
    10030    2    1    2    0    0  0.00000000000E+00  0.00000000000E+00  0.11066227916E+04  0.16882789527E+04  0.12750183602E+04 0.  0.
        4    1    3    3  502    0 -0.30242833834E+03 -0.55449597926E+03  0.66788921834E+03  0.91924224866E+03  0.12699999809E+01 0. -1.
       -4    1    3    3    0  502  0.30242833834E+03  0.55449597926E+03  0.43873357331E+03  0.76903670399E+03  0.12699999809E+01 0.  1.
</event>
<event>
 5   0  0.2458456E-03  0.1315831E+04  0.7818609E-02  0.9017104E-01
        1   -1    0    0  501    0  0.00000000000E+00  0.00000000000E+00  0.18226331482E+04  0.18226331482E+04  0.50400001928E-02 0. -1.
       -1   -1    0    0    0  501  0.00000000000E+00  0.00000000000E+00 -0.23748762006E+03  0.23748762012E+03  0.50400001928E-02 0.  1.
    10030    2    1    2    0    0  0.00000000000E+00  0.00000000000E+00  0.15851455281E+04  0.20601207683E+04  0.13158310054E+04 0.  0.
        5    1    3    3  502    0  0.44396819666E+03  0.28989810173E+03  0.14023337855E+04  0.14992367408E+04  0.46999998093E+01 0. -1.
       -5    1    3    3    0  502 -0.44396819666E+03 -0.28989810173E+03  0.18281174257E+03  0.56088402745E+03  0.46999998093E+01 0.  1.
</event>
<event>
 5   0  0.4310889E-03  0.1325605E+04  0.7818609E-02  0.9009503E-01
       -2   -1    0    0    0  501  0.00000000000E+00  0.00000000000E+00  0.28105281271E+03  0.28105281272E+03  0.25500000920E-02 0. -1.
        2   -1    0    0  501    0  0.00000000000E+00  0.00000000000E+00 -0.15630775259E+04  0.15630775259E+04  0.25500000920E-02 0.  1.
    10030    2    1    2    0    0  0.00000000000E+00  0.00000000000E+00 -0.12820247132E+04  0.18441303386E+04  0.13256052733E+04 0.  0.
        4    1    3    3  502    0  0.30460716617E+02  0.42354099581E+03  0.66965435965E+02  0.42988465070E+03  0.12699999809E+01 0. -1.
       -4    1    3    3    0  502 -0.30460716617E+02 -0.42354099581E+03 -0.13489901492E+04  0.14142456879E+04  0.12699999809E+01 0.  1.
</event>
<event>
 5   0  0.2462055E-03  0.1322265E+04  0.7818609E-02  0.9012093E-01
        1   -1    0    0  501    0  0.00000000000E+00  0.00000000000E+00  0.11991341639E+04  0.11991341639E+04  0.50400001928E-02 0. -1.
       -1   -1    0    0    0  501  0.00000000000E+00  0.00000000000E+00 -0.36450996474E+03  0.36450996477E+03  0.50400001928E-02 0.  1.
    10030    2    1    2    0    0  0.00000000000E+00  0.00000000000E+00  0.83462419918E+03  0.15636441287E+04  0.13222652561E+04 0.  0.
        2    1    3    3  502    0 -0.15917129601E+03 -0.12415856428E+03 -0.32717349446E+03  0.38443900172E+03  0.25500000920E-02 0.  1.
       -2    1    3    3    0  502  0.15917129601E+03  0.12415856428E+03  0.11617976936E+04  0.11792051270E+04  0.25500000920E-02 0. -1.
</event>
<event>
 5   0  0.4388937E-03  0.1311694E+04  0.7818609E-02  0.9020343E-01
        2   -1    0    0  501    0  0.00000000000E+00  0.00000000000E+00  0.25719397557E+04  0.25719397557E+04  0.25500000920E-02 0.  1.
       -2   -1    0    0    0  501  0.00000000000E+00  0.00000000000E+00 -0.16724153373E+03  0.16724153375E+03  0.25500000920E-02 0. -1.
    10030    2    1    2    0    0  0.00000000000E+00  0.00000000000E+00  0.24046982220E+04  0.27391812895E+04  0.13116937896E+04 0.  0.
        5    1    3    3  502    0 -0.14880585673E+03 -0.17595384461E+03 -0.79877597027E+02  0.24393740782E+03  0.46999998093E+01 0. -1.
       -5    1    3    3    0  502  0.14880585673E+03  0.17595384461E+03  0.24845758190E+04  0.24952438816E+04  0.46999998093E+01 0.  1.
</event>
<event>
 5   0  0.2462055E-03  0.1342746E+04  0.7818609E-02  0.8996337E-01
       -1   -1    0    0    0  501  0.00000000000E+00  0.00000000000E+00  0.83521024788E+03  0.83521024790E+03  0.50400001928E-02 0. -1.
        1   -1    0    0  501    0  0.00000000000E+00  0.00000000000E+00 -0.53967481284E+03  0.53967481287E+03  0.50400001928E-02 0.  1.
    10030    2    1    2    0    0  0.00000000000E+00  0.00000000000E+00  0.29553543504E+03  0.13748850608E+04  0.13427463413E+04 0.  0.
        2    1    3    3  502    0  0.40236610044E+03  0.51372327602E+03  0.30944525203E+03  0.72219557401E+03  0.25500000920E-02 0. -1.
       -2    1    3    3    0  502 -0.40236610044E+03 -0.51372327602E+03 -0.13909816993E+02  0.65268948676E+03  0.25500000920E-02 0.  1.
</event>
<event>
 5   0  0.4306214E-03  0.1229435E+04  0.7818609E-02  0.9087475E-01
       -2   -1    0    0    0  501  0.00000000000E+00  0.00000000000E+00  0.18841216964E+03  0.18841216966E+03  0.25500000920E-02 0.  1.
        2   -1    0    0  501    0  0.00000000000E+00  0.00000000000E+00 -0.20055893028E+04  0.20055893028E+04  0.25500000920E-02 0. -1.
    10030    2    1    2    0    0  0.00000000000E+00  0.00000000000E+00 -0.18171771332E+04  0.21940014725E+04  0.12294347188E+04 0.  0.
        3    1    3    3  502    0 -0.11230742205E+03  0.45489029926E+03 -0.16186988057E+04  0.16851480574E+04  0.10100000352E+00 0. -1.
       -3    1    3    3    0  502  0.11230742205E+03 -0.45489029926E+03 -0.19847832748E+03  0.50885341513E+03  0.10100000352E+00 0.  1.
</event>
<event>
 5   0  0.1661750E-03  0.1328019E+04  0.7818609E-02  0.9007636E-01
        4   -1    0    0  501    0  0.00000000000E+00  0.00000000000E+00  0.41546576178E+03  0.41546770285E+03  0.12699999809E+01 0.  1.
       -4   -1    0    0    0  501  0.00000000000E+00  0.00000000000E+00 -0.10612350733E+04  0.10612358332E+04  0.12699999809E+01 0. -1.
    10030    2    1    2    0    0  0.00000000000E+00  0.00000000000E+00 -0.64576931154E+03  0.14767035361E+04  0.13280193258E+04 0.  0.
        4    1    3    3  502    0  0.27316000275E+03 -0.43944946515E+03 -0.78561876965E+03  0.94070754416E+03  0.12699999809E+01 0. -1.
       -4    1    3    3    0  502 -0.27316000275E+03  0.43944946515E+03  0.13984945810E+03  0.53599599192E+03  0.12699999809E+01 0.  1.
</event>
<event>
 5   0  0.4263540E-03  0.1198639E+04  0.7818609E-02  0.9114048E-01
       -2   -1    0    0    0  501  0.00000000000E+00  0.00000000000E+00  0.34790748522E+03  0.34790748523E+03  0.25500000920E-02 0. -1.
        2   -1    0    0  501    0  0.00000000000E+00  0.00000000000E+00 -0.10324123386E+04  0.10324123386E+04  0.25500000920E-02 0.  1.
    10030    2    1    2    0    0  0.00000000000E+00  0.00000000000E+00 -0.68450485342E+03  0.13803198239E+04  0.11986391959E+04 0.  0.
        2    1    3    3  502    0  0.36261040748E+03  0.43633009513E+03 -0.56469890252E+03  0.80047180465E+03  0.25500000920E-02 0.  1.
       -2    1    3    3    0  502 -0.36261040748E+03 -0.43633009513E+03 -0.11980595090E+03  0.57984801923E+03  0.25500000920E-02 0. -1.
</event>
<event>
 5   0  0.2458456E-03  0.6651325E+03  0.7818609E-02  0.9778791E-01
       -1   -1    0    0    0  501  0.00000000000E+00  0.00000000000E+00  0.75255129532E+03  0.75255129533E+03  0.50400001928E-02 0. -1.
        1   -1    0    0  501    0  0.00000000000E+00  0.00000000000E+00 -0.14696713459E+03  0.14696713467E+03  0.50400001928E-02 0.  1.
    10030    2    1    2    0    0  0.00000000000E+00  0.00000000000E+00  0.60558416073E+03  0.89951843001E+03  0.66513249070E+03 0.  0.
        5    1    3    3  502    0  0.16683894473E+03 -0.54685587523E+02  0.68471346463E+03  0.70688072940E+03  0.46999998093E+01 0. -1.
       -5    1    3    3    0  502 -0.16683894473E+03  0.54685587523E+02 -0.79129303894E+02  0.19263770060E+03  0.46999998093E+01 0.  1.
</event>
<event>
 5   0  0.4310889E-03  0.1337442E+04  0.7818609E-02  0.9000389E-01
       -2   -1    0    0    0  501  0.00000000000E+00  0.00000000000E+00  0.37386064994E+03  0.37386064995E+03  0.25500000920E-02 0. -1.
        2   -1    0    0  501    0  0.00000000000E+00  0.00000000000E+00 -0.11961352204E+04  0.11961352204E+04  0.25500000920E-02 0.  1.
    10030    2    1    2    0    0  0.00000000000E+00  0.00000000000E+00 -0.82227457043E+03  0.15699958703E+04  0.13374421721E+04 0.  0.
        4    1    3    3  502    0 -0.52069580911E+03  0.17650405388E+03 -0.85799615669E+03  0.10190372046E+04  0.12699999809E+01 0. -1.
       -4    1    3    3    0  502  0.52069580911E+03 -0.17650405388E+03  0.35721586253E+02  0.55095866568E+03  0.12699999809E+01 0.  1.
</event>
<event>
 5   0  0.4388937E-03  0.1335250E+04  0.7818609E-02  0.9002069E-01
        2   -1    0    0  501    0  0.00000000000E+00  0.00000000000E+00  0.67281508540E+03  0.67281508540E+03  0.25500000920E-02 0. -1.
       -2   -1    0    0    0  501  0.00000000000E+00  0.00000000000E+00 -0.66247499004E+03  0.66247499005E+03  0.25500000920E-02 0.  1.
    10030    2    1    2    0    0  0.00000000000E+00  0.00000000000E+00  0.10340095355E+02  0.13352900755E+04  0.13352500395E+04 0.  0.
        5    1    3    3  502    0 -0.43406839389E+03  0.16429832430E+03  0.48507168066E+03  0.67136125545E+03  0.46999998093E+01 0. -1.
       -5    1    3    3    0  502  0.43406839389E+03 -0.16429832430E+03 -0.47473158531E+03  0.66392882000E+03  0.46999998093E+01 0.  1.
</event>
<event>
 5   0  0.2511542E-03  0.1328928E+04  0.7818609E-02  0.9006934E-01
       -1   -1    0    0    0  501  0.00000000000E+00  0.00000000000E+00  0.66426277564E+03  0.66426277566E+03  0.50400001928E-02 0.  1.
        1   -1    0    0  501    0  0.00000000000E+00  0.00000000000E+00 -0.66466562321E+03  0.66466562322E+03  0.50400001928E-02 0. -1.
    10030    2    1    2    0    0  0.00000000000E+00  0.00000000000E+00 -0.40284756562E+00  0.13289283989E+04  0.13289283378E+04 0.  0.
        4    1    3    3  502    0 -0.20597914203E+03 -0.20528145682E+03 -0.59764863334E+03  0.66464530789E+03  0.12699999809E+01 0. -1.
       -4    1    3    3    0  502  0.20597914203E+03  0.20528145682E+03  0.59724578577E+03  0.66428309100E+03  0.12699999809E+01 0.  1.
</event>
<event>
 5   0  0.1661750E-03  0.1030473E+04  0.7818609E-02  0.9275740E-01
        4   -1    0    0  501    0  0.00000000000E+00  0.00000000000E+00  0.13227112164E+04  0.13227118261E+04  0.12699999809E+01 0. -1.
       -4   -1    0    0    0  501  0.00000000000E+00  0.00000000000E+00 -0.20069777847E+03  0.20070179666E+03  0.12699999809E+01 0.  1.
    10030    2    1    2    0    0  0.00000000000E+00  0.00000000000E+00  0.11220134379E+04  0.15234136227E+04  0.10304731491E+04 0.  0.
        1    1    3    3  502    0  0.13939091352E+03 -0.13588510670E+03  0.12662559297E+04  0.12811317921E+04  0.50400001928E-02 0. -1.
       -1    1    3    3    0  502 -0.13939091352E+03  0.13588510670E+03 -0.14424249184E+03  0.24228183067E+03  0.50400001928E-02 0.  1.
</event>
<event>
 5   0  0.4388937E-03  0.1267038E+04  0.7818609E-02  0.9056121E-01
       -2   -1    0    0    0  501  0.00000000000E+00  0.00000000000E+00  0.40595916342E+03  0.40595916343E+03  0.25500000920E-02 0. -1.
        2   -1    0    0  501    0  0.00000000000E+00  0.00000000000E+00 -0.98863717676E+03  0.98863717676E+03  0.25500000920E-02 0.  1.
    10030    2    1    2    0    0  0.00000000000E+00  0.00000000000E+00 -0.58267801333E+03  0.13945963402E+04  0.12670379966E+04 0.  0.
        5    1    3    3  502    0 -0.32977171978E+03  0.42422807831E+03  0.78011292904E+02  0.54297946684E+03  0.46999998093E+01 0. -1.
       -5    1    3    3    0  502  0.32977171978E+03 -0.42422807831E+03 -0.66068930624E+03  0.85161687335E+03  0.46999998093E+01 0.  1.
</event>
<event>
 5   0  0.2370801E-03  0.1265397E+04  0.7818609E-02  0.9057465E-01
        1   -1    0    0  501    0  0.00000000000E+00  0.00000000000E+00  0.15297570304E+04  0.15297570304E+04  0.50400001928E-02 0. -1.
       -1   -1    0    0    0  501  0.00000000000E+00  0.00000000000E+00 -0.26168021057E+03  0.26168021062E+03  0.50400001928E-02 0.  1.
    10030    2    1    2    0    0  0.00000000000E+00  0.00000000000E+00  0.12680768198E+04  0.17914372410E+04  0.12653966048E+04 0.  0.
        3    1    3    3  502    0  0.36534146276E+02 -0.21698522711E+03  0.14738430541E+04  0.14901780735E+04  0.10100000352E+00 0. -1.
       -3    1    3    3    0  502 -0.36534146276E+02  0.21698522711E+03 -0.20576623425E+03  0.30125916747E+03  0.10100000352E+00 0.  1.
</event>
<event>
 5   0  0.4453011E-03  0.1294526E+04  0.7818609E-02  0.9033918E-01
       -2   -1    0    0    0  501  0.00000000000E+00  0.00000000000E+00  0.39956848306E+03  0.39956848307E+03  0.25500000920E-02 0.  1.
        2   -1    0    0  501    0  0.00000000000E+00  0.00000000000E+00 -0.10485041727E+04  0.10485041727E+04  0.25500000920E-02 0. -1.
    10030    2    1    2    0    0  0.00000000000E+00  0.00000000000E+00 -0.64893568967E+03  0.14480726558E+04  0.12945257383E+04 0.  0.
        1    1    3    3  502    0  0.31515920424E+03 -0.38171833500E+03  0.14202844785E+03  0.51498183591E+03  0.50400001928E-02 0.  1.
       -1    1    3    3    0  502 -0.31515920424E+03  0.38171833500E+03 -0.79096413752E+03  0.93309081989E+03  0.50400001928E-02 0. -1.
</event>
<event>
 5   0  0.2356769E-03  0.1352281E+04  0.7818609E-02  0.8989103E-01
        1   -1    0    0  501    0  0.00000000000E+00  0.00000000000E+00  0.10540864312E+04  0.10540864312E+04  0.50400001928E-02 0. -1.
       -1   -1    0    0    0  501  0.00000000000E+00  0.00000000000E+00 -0.43370826061E+03  0.43370826064E+03  0.50400001928E-02 0.  1.
    10030    2    1    2    0    0  0.00000000000E+00  0.00000000000E+00  0.62037817057E+03  0.14877946918E+04  0.13522810250E+04 0.  0.
        1    1    3    3  502    0 -0.90708734822E+02 -0.41020773178E+02  0.10459788750E+04  0.10507057558E+04  0.50400001928E-02 0. -1.
       -1    1    3    3    0  502  0.90708734822E+02  0.41020773178E+02 -0.42560070438E+03  0.43708893603E+03  0.50400001928E-02 0.  1.
</event>
<event>
 5   0  0.4453011E-03  0.1365504E+04  0.7818609E-02  0.8979174E-01
        2   -1    0    0  501    0  0.00000000000E+00  0.00000000000E+00  0.13202436183E+04  0.13202436183E+04  0.25500000920E-02 0. -1.
       -2   -1    0    0    0  501  0.00000000000E+00  0.00000000000E+00 -0.35307902679E+03  0.35307902680E+03  0.25500000920E-02 0.  1.
    10030    2    1    2    0    0  0.00000000000E+00  0.00000000000E+00  0.96716459148E+03  0.16733226451E+04  0.13655040562E+04 0.  0.
        1    1    3    3  502    0  0.11471702488E+03 -0.13243118851E+03  0.12922256029E+04  0.13040494716E+04  0.50400001928E-02 0. -1.
       -1    1    3    3    0  502 -0.11471702488E+03  0.13243118851E+03 -0.32506101142E+03  0.36927317349E+03  0.50400001928E-02 0.  1.
</event>
<event>
 5   0  0.4453011E-03  0.1268147E+04  0.7818609E-02  0.9055213E-01
       -2   -1    0    0    0  501  0.00000000000E+00  0.00000000000E+00  0.24420130286E+03  0.24420130287E+03  0.25500000920E-02 0.  1.
        2   -1    0    0  501    0  0.00000000000E+00  0.00000000000E+00 -0.16463849840E+04  0.16463849840E+04  0.25500000920E-02 0. -1.
    10030    2    1    2    0    0  0.00000000000E+00  0.00000000000E+00 -0.14021836811E+04  0.18905862868E+04  0.12681472440E+04 0.  0.
        1    1    3    3  502    0  0.34295577477E+03  0.53039035689E+03 -0.78432162644E+03  0.10070218507E+04  0.50400001928E-02 0. -1.
       -1    1    3    3    0  502 -0.34295577477E+03 -0.53039035689E+03 -0.61786205466E+03  0.88356443610E+03  0.50400001928E-02 0.  1.
</event>
<event>
 5   0  0.4388937E-03  0.1239211E+04  0.7818609E-02  0.9079211E-01
        2   -1    0    0  501    0  0.00000000000E+00  0.00000000000E+00  0.12746080317E+04  0.12746080317E+04  0.25500000920E-02 0. -1.
       -2   -1    0    0    0  501  0.00000000000E+00  0.00000000000E+00 -0.30119933561E+03  0.30119933562E+03  0.25500000920E-02 0.  1.
    10030    2    1    2    0    0  0.00000000000E+00  0.00000000000E+00  0.97340869613E+03  0.15758073674E+04  0.12392111884E+04 0.  0.
        5    1    3    3  502    0  0.13735474936E+03  0.31807835330E+03 -0.16647943286E+03  0.38441859681E+03  0.46999998093E+01 0.  1.
       -5    1    3    3    0  502 -0.13735474936E+03 -0.31807835330E+03  0.11398881290E+04  0.11913887706E+04  0.46999998093E+01 0. -1.
</event>
<event>
 5   0  0.4306214E-03  0.1302920E+04  0.7818609E-02  0.9027253E-01
       -2   -1    0    0    0  501  0.00000000000E+00  0.00000000000E+00  0.39610131697E+03  0.39610131698E+03  0.25500000920E-02 0. -1.
        2   -1    0    0  501    0  0.00000000000E+00  0.00000000000E+00 -0.10714429768E+04  0.10714429768E+04  0.25500000920E-02 0.  1.
    10030    2    1    2    0    0  0.00000000000E+00  0.00000000000E+00 -0.67534165982E+03  0.14675442938E+04  0.13029197584E+04 0.  0.
        3    1    3    3  502    0 -0.41173023376E+03 -0.30427439306E+02  0.22993868324E+03  0.47256684469E+03  0.10100000352E+00 0. -1.
       -3    1    3    3    0  502  0.41173023376E+03  0.30427439306E+02 -0.90528034306E+03  0.99497744908E+03  0.10100000352E+00 0.  1.
</event>
<event>
 5   0  0.2462055E-03  0.1296593E+04  0.7818609E-02  0.9032271E-01
       -1   -1    0    0    0  501  0.00000000000E+00  0.00000000000E+00  0.61607308689E+03  0.61607308691E+03  0.50400001928E-02 0.  1.
        1   -1    0    0  501    0  0.00000000000E+00  0.00000000000E+00 -0.68220534295E+03  0.68220534296E+03  0.50400001928E-02 0. -1.
    10030    2    1    2    0    0  0.00000000000E+00  0.00000000000E+00 -0.66132256056E+02  0.12982784299E+04  0.12965929994E+04 0.  0.
        2    1    3    3  502    0 -0.24014296338E+02 -0.38304890188E+03 -0.55622515503E+03  0.67578811084E+03  0.25500000920E-02 0.  1.
       -2    1    3    3    0  502  0.24014296338E+02  0.38304890188E+03  0.49009289897E+03  0.62249031903E+03  0.25500000920E-02 0. -1.
</event>
<event>
 5   0  0.2370801E-03  0.1304032E+04  0.7818609E-02  0.9026374E-01
        1   -1    0    0  501    0  0.00000000000E+00  0.00000000000E+00  0.44363671049E+03  0.44363671052E+03  0.50400001928E-02 0. -1.
       -1   -1    0    0    0  501  0.00000000000E+00  0.00000000000E+00 -0.95827198139E+03  0.95827198140E+03  0.50400001928E-02 0.  1.
    10030    2    1    2    0    0  0.00000000000E+00  0.00000000000E+00 -0.51463527090E+03  0.14019086919E+04  0.13040316401E+04 0.  0.
        3    1    3    3  502    0  0.58490368187E+03  0.44454847816E+02  0.48717141857E+02  0.58861016019E+03  0.10100000352E+00 0.  1.
       -3    1    3    3    0  502 -0.58490368187E+03 -0.44454847816E+02 -0.56335241275E+03  0.81329853173E+03  0.10100000352E+00 0. -1.
</event>
<event>
 5   0  0.1661750E-03  0.1282103E+04  0.7818609E-02  0.9043879E-01
        3   -1    0    0  501    0  0.00000000000E+00  0.00000000000E+00  0.54613860196E+03  0.54613861130E+03  0.10100000352E+00 0.  1.
       -3   -1    0    0    0  501  0.00000000000E+00  0.00000000000E+00 -0.75245912118E+03  0.75245912796E+03  0.10100000352E+00 0. -1.
    10030    2    1    2    0    0  0.00000000000E+00  0.00000000000E+00 -0.20632051922E+03  0.12985977393E+04  0.12821029334E+04 0.  0.
        4    1    3    3  502    0  0.59467136234E+03 -0.47205142841E+02 -0.34087745719E+03  0.68706725175E+03  0.12699999809E+01 0. -1.
       -4    1    3    3    0  502 -0.59467136234E+03  0.47205142841E+02  0.13455693798E+03  0.61153048751E+03  0.12699999809E+01 0.  1.
</event>
<event>
 5   0  0.2462055E-03  0.1379723E+04  0.7818609E-02  0.8968628E-01
        1   -1    0    0  501    0  0.00000000000E+00  0.00000000000E+00  0.14930592765E+04  0.14930592765E+04  0.50400001928E-02 0. -1.
       -1   -1    0    0    0  501  0.00000000000E+00  0.00000000000E+00 -0.31874766845E+03  0.31874766849E+03  0.50400001928E-02 0.  1.
    10030    2    1    2    0    0  0.00000000000E+00  0.00000000000E+00  0.11743116081E+04  0.18118069450E+04  0.13797233974E+04 0.  0.
        2    1    3    3  502    0  0.54860650835E+03  0.37556450574E+03  0.34540695396E+03  0.74921543152E+03  0.25500000920E-02 0.  1.
       -2    1    3    3    0  502 -0.54860650835E+03 -0.37556450574E+03  0.82890465411E+03  0.10625915135E+04  0.25500000920E-02 0. -1.
</event>
<event>
 5   0  0.2356769E-03  0.1305153E+04  0.7818609E-02  0.9025488E-01
       -1   -1    0    0    0  501  0.00000000000E+00  0.00000000000E+00  0.35503633944E+03  0.35503633948E+03  0.50400001928E-02 0. -1.
        1   -1    0    0  501    0  0.00000000000E+00  0.00000000000E+00 -0.11994724995E+04  0.11994724995E+04  0.50400001928E-02 0.  1.
    10030    2    1    2    0    0  0.00000000000E+00  0.00000000000E+00 -0.84443616007E+03  0.15545088390E+04  0.13051533634E+04 0.  0.
        1    1    3    3  502    0 -0.20015824764E+03  0.27376697505E+03  0.24183583848E+03  0.41652881476E+03  0.50400001928E-02 0. -1.
       -1    1    3    3    0  502  0.20015824764E+03 -0.27376697505E+03 -0.10862719986E+04  0.11379800242E+04  0.50400001928E-02 0.  1.
</event>
<event>
 5   0  0.4310889E-03  0.1286232E+04  0.7818609E-02  0.9040555E-01
       -2   -1    0    0    0  501  0.00000000000E+00  0.00000000000E+00  0.12039114407E+04  0.12039114407E+04  0.25500000920E-02 0.  1.
        2   -1    0    0  501    0  0.00000000000E+00  0.00000000000E+00 -0.34354518300E+03  0.34354518301E+03  0.25500000920E-02 0. -1.
    10030    2    1    2    0    0  0.00000000000E+00  0.00000000000E+00  0.86036625770E+03  0.15474566237E+04  0.12862316684E+04 0.  0.
        4    1    3    3  502    0  0.58834041409E+03  0.25193684365E+03  0.50608055246E+03  0.81592631685E+03  0.12699999809E+01 0. -1.
       -4    1    3    3    0  502 -0.58834041409E+03 -0.25193684365E+03  0.35428570523E+03  0.73153030687E+03  0.12699999809E+01 0.  1.
</event>
<event>
 5   0  0.2370801E-03  0.1285055E+04  0.7818609E-02  0.9041501E-01
       -1   -1    0    0    0  501  0.00000000000E+00  0.00000000000E+00  0.35864117693E+03  0.35864117696E+03  0.50400001928E-02 0. -1.
        1   -1    0    0  501    0  0.00000000000E+00  0.00000000000E+00 -0.11511274479E+04  0.11511274479E+04  0.50400001928E-02 0.  1.
    10030    2    1    2    0    0  0.00000000000E+00  0.00000000000E+00 -0.79248627097E+03  0.15097686249E+04  0.12850551782E+04 0.  0.
        3    1    3    3  502    0  0.33835174874E+02 -0.48725268277E+03  0.94229192005E+02  0.49743255498E+03  0.10100000352E+00 0. -1.
       -3    1    3    3    0  502 -0.33835174874E+02  0.48725268277E+03 -0.88671546298E+03  0.10123360699E+04  0.10100000352E+00 0.  1.
</event>
<event>
 5   0  0.4263540E-03  0.1355161E+04  0.7818609E-02  0.8986931E-01
       -2   -1    0    0    0  501  0.00000000000E+00  0.00000000000E+00  0.50417095632E+03  0.50417095633E+03  0.25500000920E-02 0.  1.
        2   -1    0    0  501    0  0.00000000000E+00  0.00000000000E+00 -0.91063402149E+03  0.91063402150E+03  0.25500000920E-02 0. -1.
    10030    2    1    2    0    0  0.00000000000E+00  0.00000000000E+00 -0.40646306518E+03  0.14148049778E+04  0.13551608399E+04 0.  0.
        2    1    3    3  502    0 -0.20113753736E+02 -0.40475670295E+03 -0.77016273974E+03  0.87027765532E+03  0.25500000920E-02 0. -1.
       -2    1    3    3    0  502  0.20113753736E+02  0.40475670295E+03  0.36369967456E+03  0.54452732250E+03  0.25500000920E-02 0.  1.
</event>
<event>
 5   0  0.2458456E-03  0.1202526E+04  0.7818609E-02  0.9110648E-01
       -1   -1    0    0    0  501  0.00000000000E+00  0.00000000000E+00  0.85268695561E+03  0.85268695562E+03  0.50400001928E-02 0. -1.
        1   -1    0    0  501    0  0.00000000000E+00  0.00000000000E+00 -0.42397414796E+03  0.42397414799E+03  0.50400001928E-02 0.  1.
    10030    2    1    2    0    0  0.00000000000E+00  0.00000000000E+00  0.42871280765E+03  0.12766611036E+04  0.12025260505E+04 0.  0.
        5    1    3    3  502    0 -0.25078193916E+02  0.24524197959E+03 -0.36783281783E+03  0.44282684679E+03  0.46999998093E+01 0.  1.
       -5    1    3    3    0  502  0.25078193916E+02 -0.24524197959E+03  0.79654562548E+03  0.83383425682E+03  0.46999998093E+01 0. -1.
</event>
<event>
 5   0  0.4310889E-03  0.1276689E+04  0.7818609E-02  0.9048258E-01
       -2   -1    0    0    0  501  0.00000000000E+00  0.00000000000E+00  0.38129715512E+03  0.38129715513E+03  0.25500000920E-02 0.  1.
        2   -1    0    0  501    0  0.00000000000E+00  0.00000000000E+00 -0.10686771932E+04  0.10686771932E+04  0.25500000920E-02 0. -1.
    10030    2    1    2    0    0  0.00000000000E+00  0.00000000000E+00 -0.68738003810E+03  0.14499743484E+04  0.12766888008E+04 0.  0.
        4    1    3    3  502    0  0.49555819491E+03 -0.16440221912E+03  0.73412221730E+02  0.52725419050E+03  0.12699999809E+01 0.  1.
       -4    1    3    3    0  502 -0.49555819491E+03  0.16440221912E+03 -0.76079225983E+03  0.92272015786E+03  0.12699999809E+01 0. -1.
</event>
<event>
 5   0  0.4453011E-03  0.1347329E+04  0.7818609E-02  0.8992852E-01
        2   -1    0    0  501    0  0.00000000000E+00  0.00000000000E+00  0.75938726641E+03  0.75938726641E+03  0.25500000920E-02 0.  1.
       -2   -1    0    0    0  501  0.00000000000E+00  0.00000000000E+00 -0.59761859076E+03  0.59761859077E+03  0.25500000920E-02 0. -1.
    10030    2    1    2    0    0  0.00000000000E+00  0.00000000000E+00  0.16176867564E+03  0.13570058572E+04  0.13473291328E+04 0.  0.
        1    1    3    3  502    0  0.38118788920E+03 -0.53991341966E+03 -0.50487277742E+02  0.66284211758E+03  0.50400001928E-02 0. -1.
       -1    1    3    3    0  502 -0.38118788920E+03  0.53991341966E+03  0.21225595339E+03  0.69416373960E+03  0.50400001928E-02 0.  1.
</event>
<event>
 5   0  0.4453011E-03  0.1284624E+04  0.7818609E-02  0.9041848E-01
       -2   -1    0    0    0  501  0.00000000000E+00  0.00000000000E+00  0.22106636918E+03  0.22106636919E+03  0.25500000920E-02 0.  1.
        2   -1    0    0  501    0  0.00000000000E+00  0.00000000000E+00 -0.18662477489E+04  0.18662477489E+04  0.25500000920E-02 0. -1.
    10030    2    1    2    0    0  0.00000000000E+00  0.00000000000E+00 -0.16451813797E+04  0.20873141181E+04  0.12846238576E+04 0.  0.
        1    1    3    3  502    0  0.82937560433E+02 -0.63557020421E+03 -0.75488143680E+03  0.99028991061E+03  0.50400001928E-02 0.  1.
       -1    1    3    3    0  502 -0.82937560433E+02  0.63557020421E+03 -0.89029994294E+03  0.10970242075E+04  0.50400001928E-02 0. -1.
</event>
<event>
 5   0  0.2511542E-03  0.1207129E+04  0.7818609E-02  0.9106639E-01
        1   -1    0    0  501    0  0.00000000000E+00  0.00000000000E+00  0.53610644970E+03  0.53610644972E+03  0.50400001928E-02 0.  1.
       -1   -1    0    0    0  501  0.00000000000E+00  0.00000000000E+00 -0.67951097515E+03  0.67951097517E+03  0.50400001928E-02 0. -1.
    10030    2    1    2    0    0  0.00000000000E+00  0.00000000000E+00 -0.14340452545E+03  0.12156174249E+04  0.12071291836E+04 0.  0.
        4    1    3    3  502    0 -0.82896555371E+02 -0.55068814072E+03  0.16265576479E+03  0.58016185495E+03  0.12699999809E+01 0. -1.
       -4    1    3    3    0  502  0.82896555371E+02  0.55068814072E+03 -0.30606029024E+03  0.63545556995E+03  0.12699999809E+01 0.  1.
</event>
<event>
 5   0  0.4310889E-03  0.1271696E+04  0.7818609E-02  0.9052317E-01
        2   -1    0    0  501    0  0.00000000000E+00  0.00000000000E+00  0.91250473845E+03  0.91250473845E+03  0.25500000920E-02 0. -1.
       -2   -1    0    0    0  501  0.00000000000E+00  0.00000000000E+00 -0.44306883506E+03  0.44306883507E+03  0.25500000920E-02 0.  1.
    10030    2    1    2    0    0  0.00000000000E+00  0.00000000000E+00  0.46943590338E+03  0.13555735735E+04  0.12716955791E+04 0.  0.
        4    1    3    3  502    0 -0.95429303840E+02 -0.40154066990E+03 -0.28087852103E+03  0.49923543353E+03  0.12699999809E+01 0.  1.
       -4    1    3    3    0  502  0.95429303840E+02  0.40154066990E+03  0.75031442441E+03  0.85633813999E+03  0.12699999809E+01 0. -1.
</event>
<event>
 5   0  0.4310889E-03  0.1282045E+04  0.7818609E-02  0.9043926E-01
       -2   -1    0    0    0  501  0.00000000000E+00  0.00000000000E+00  0.39966042208E+03  0.39966042209E+03  0.25500000920E-02 0. -1.
        2   -1    0    0  501    0  0.00000000000E+00  0.00000000000E+00 -0.10281473525E+04  0.10281473525E+04  0.25500000920E-02 0.  1.
    10030    2    1    2    0    0  0.00000000000E+00  0.00000000000E+00 -0.62848693042E+03  0.14278077746E+04  0.12820449366E+04 0.  0.
        4    1    3    3  502    0 -0.43460736232E+03 -0.16475982091E+03 -0.80588530012E+03  0.93031289780E+03  0.12699999809E+01 0.  1.
       -4    1    3    3    0  502  0.43460736232E+03  0.16475982091E+03  0.17739836970E+03  0.49749487680E+03  0.12699999809E+01 0. -1.
</event>
<event>
 5   0  0.1661750E-03  0.1257165E+04  0.7818609E-02  0.9064241E-01
       -4   -1    0    0    0  501  0.00000000000E+00  0.00000000000E+00  0.74980932701E+03  0.74981040255E+03  0.12699999809E+01 0.  1.
        4   -1    0    0  501    0  0.00000000000E+00  0.00000000000E+00 -0.52695334504E+03  0.52695487543E+03  0.12699999809E+01 0. -1.
    10030    2    1    2    0    0  0.00000000000E+00  0.00000000000E+00  0.22285598197E+03  0.12767652780E+04  0.12571653775E+04 0.  0.
        3    1    3    3  502    0 -0.20575275498E+03 -0.47779355290E+03 -0.24691189293E+03  0.57583536575E+03  0.10100000352E+00 0.  1.
       -3    1    3    3    0  502  0.20575275498E+03  0.47779355290E+03  0.46976787490E+03  0.70092991223E+03  0.10100000352E+00 0. -1.
</event>
<event>
 5   0  0.4310889E-03  0.1305103E+04  0.7818609E-02  0.9025529E-01
       -2   -1    0    0    0  501  0.00000000000E+00  0.00000000000E+00  0.55511369452E+03  0.55511369452E+03  0.25500000920E-02 0. -1.
        2   -1    0    0  501    0  0.00000000000E+00  0.00000000000E+00 -0.76709178787E+03  0.76709178787E+03  0.25500000920E-02 0.  1.
    10030    2    1    2    0    0  0.00000000000E+00  0.00000000000E+00 -0.21197809335E+03  0.13222054824E+04  0.13051025345E+04 0.  0.
        4    1    3    3  502    0 -0.62372904186E+03 -0.19159308081E+03 -0.11480464259E+03  0.66251607161E+03  0.12699999809E+01 0.  1.
       -4    1    3    3    0  502  0.62372904186E+03  0.19159308081E+03 -0.97173450760E+02  0.65968941079E+03  0.12699999809E+01 0. -1.
</event>
<event>
 5   0  0.2370801E-03  0.1363860E+04  0.7818609E-02  0.8980402E-01
       -1   -1    0    0    0  501  0.00000000000E+00  0.00000000000E+00  0.46528227204E+03  0.46528227206E+03  0.50400001928E-02 0. -1.
        1   -1    0    0  501    0  0.00000000000E+00  0.00000000000E+00 -0.99945420087E+03  0.99945420088E+03  0.50400001928E-02 0.  1.
    10030    2    1    2    0    0  0.00000000000E+00  0.00000000000E+00 -0.53417192883E+03  0.14647364729E+04  0.13638597016E+04 0.  0.
        3    1    3    3  502    0 -0.66790382890E+03 -0.23435240135E+02 -0.41270052261E+03  0.78547212980E+03  0.10100000352E+00 0.  1.
       -3    1    3    3    0  502  0.66790382890E+03  0.23435240135E+02 -0.12147140623E+03  0.67926434314E+03  0.10100000352E+00 0. -1.
</event>
<event>
 5   0  0.2458456E-03  0.1293394E+04  0.7818609E-02  0.9034820E-01
        1   -1    0    0  501    0  0.00000000000E+00  0.00000000000E+00  0.72117819315E+03  0.72117819316E+03  0.50400001928E-02 0.  1.
       -1   -1    0    0    0  501  0.00000000000E+00  0.00000000000E+00 -0.57990816923E+03  0.57990816925E+03  0.50400001928E-02 0. -1.
    10030    2    1    2    0    0  0.00000000000E+00  0.00000000000E+00  0.14127002392E+03  0.13010863624E+04  0.12933941792E+04 0.  0.
        5    1    3    3  502    0 -0.28356938478E+03  0.85979724230E+02 -0.50757988791E+03  0.58776146656E+03  0.46999998093E+01 0. -1.
       -5    1    3    3    0  502  0.28356938478E+03 -0.85979724230E+02  0.64884991183E+03  0.71332489585E+03  0.46999998093E+01 0.  1.
</event>
<event>
 5   0  0.2458456E-03  0.1259452E+04  0.7818609E-02  0.9062353E-01
        1   -1    0    0  501    0  0.00000000000E+00  0.00000000000E+00  0.50078529812E+03  0.50078529815E+03  0.50400001928E-02 0.  1.
       -1   -1    0    0    0  501  0.00000000000E+00  0.00000000000E+00 -0.79186642583E+03  0.79186642584E+03  0.50400001928E-02 0. -1.
    10030    2    1    2    0    0  0.00000000000E+00  0.00000000000E+00 -0.29108112770E+03  0.12926517240E+04  0.12594523638E+04 0.  0.
        5    1    3    3  502    0 -0.42391859677E+03  0.41015175301E+03  0.80728294540E+02  0.59537432320E+03  0.46999998093E+01 0.  1.
       -5    1    3    3    0  502  0.42391859677E+03 -0.41015175301E+03 -0.37180942224E+03  0.69727740079E+03  0.46999998093E+01 0. -1.
</event>
<event>
 5   0  0.2462055E-03  0.1296377E+04  0.7818609E-02  0.9032443E-01
       -1   -1    0    0    0  501  0.00000000000E+00  0.00000000000E+00  0.49553990565E+03  0.49553990568E+03  0.50400001928E-02 0.  1.
        1   -1    0    0  501    0  0.00000000000E+00  0.00000000000E+00 -0.84785988560E+03  0.84785988561E+03  0.50400001928E-02 0. -1.
    10030    2    1    2    0    0  0.00000000000E+00  0.00000000000E+00 -0.35231997995E+03  0.13433997913E+04  0.12963771176E+04 0.  0.
        2    1    3    3  502    0  0.44058344940E+03 -0.46909170045E+03 -0.95973608653E+02  0.65067021822E+03  0.25500000920E-02 0.  1.
       -2    1    3    3    0  502 -0.44058344940E+03  0.46909170045E+03 -0.25634637129E+03  0.69272957307E+03  0.25500000920E-02 0. -1.
</event>
<event>
 5   0  0.4306214E-03  0.1097360E+04  0.7818609E-02  0.9207768E-01
        2   -1    0    0  501    0  0.00000000000E+00  0.00000000000E+00  0.14531086732E+04  0.14531086732E+04  0.25500000920E-02 0.  1.
       -2   -1    0    0    0  501  0.00000000000E+00  0.00000000000E+00 -0.20717647679E+03  0.20717647681E+03  0.25500000920E-02 0. -1.
    10030    2    1    2    0    0  0.00000000000E+00  0.00000000000E+00  0.12459321964E+04  0.16602851500E+04  0.10973603516E+04 0.  0.
        3    1    3    3  502    0  0.51872032040E+02 -0.23510933938E+03  0.13689175235E+04  0.13899288850E+04  0.10100000352E+00 0.  1.
       -3    1    3    3    0  502 -0.51872032040E+02  0.23510933938E+03 -0.12298532703E+03  0.27035626502E+03  0.10100000352E+00 0. -1.
</event>
<event>
 5   0  0.4388937E-03  0.1261133E+04  0.7818609E-02  0.9060968E-01
       -2   -1    0    0    0  501  0.00000000000E+00  0.00000000000E+00  0.15675433559E+04  0.15675433559E+04  0.25500000920E-02 0. -1.
        2   -1    0    0  501    0  0.00000000000E+00  0.00000000000E+00 -0.25365415836E+03  0.25365415838E+03  0.25500000920E-02 0.  1.
    10030    2    1    2    0    0  0.00000000000E+00  0.00000000000E+00  0.13138891975E+04  0.18211975143E+04  0.12611326507E+04 0.  0.
        5    1    3    3  502    0  0.26446172692E+03  0.57174383686E+03  0.69677603915E+03  0.93933484909E+03  0.46999998093E+01 0. -1.
       -5    1    3    3    0  502 -0.26446172692E+03 -0.57174383686E+03  0.61711315839E+03  0.88186266519E+03  0.46999998093E+01 0.  1.
</event>
<event>
 5   0  0.4263540E-03  0.1316078E+04  0.7818609E-02  0.9016911E-01
        2   -1    0    0  501    0  0.00000000000E+00  0.00000000000E+00  0.91470713830E+03  0.91470713831E+03  0.25500000920E-02 0. -1.
       -2   -1    0    0    0  501  0.00000000000E+00  0.00000000000E+00 -0.47339245471E+03  0.47339245471E+03  0.25500000920E-02 0.  1.
    10030    2    1    2    0    0  0.00000000000E+00  0.00000000000E+00  0.44131468360E+03  0.13880995930E+04  0.13160782006E+04 0.  0.
        2    1    3    3  502    0  0.21126263253E+03 -0.37105212496E+03 -0.30744665876E+03  0.52615114494E+03  0.25500000920E-02 0.  1.
       -2    1    3    3    0  502 -0.21126263253E+03  0.37105212496E+03  0.74876134235E+03  0.86194844808E+03  0.25500000920E-02 0. -1.
</event>
<event>
 5   0  0.2462055E-03  0.1245829E+04  0.7818609E-02  0.9073662E-01
        1   -1    0    0  501    0  0.00000000000E+00  0.00000000000E+00  0.11777746509E+04  0.11777746509E+04  0.50400001928E-02 0. -1.
       -1   -1    0    0    0  501  0.00000000000E+00  0.00000000000E+00 -0.32945407241E+03  0.32945407245E+03  0.50400001928E-02 0.  1.
    10030    2    1    2    0    0  0.00000000000E+00  0.00000000000E+00  0.84832057852E+03  0.15072287234E+04  0.12458292904E+04 0.  0.
        2    1    3    3  502    0 -0.60264465825E+03 -0.35953632192E+02  0.23850359382E+03  0.64912033711E+03  0.25500000920E-02 0.  1.
       -2    1    3    3    0  502  0.60264465825E+03  0.35953632192E+02  0.60981698469E+03  0.85810838628E+03  0.25500000920E-02 0. -1.
</event>
<event>
 5   0  0.4453011E-03  0.1312764E+04  0.7818609E-02  0.9019504E-01
        2   -1    0    0  501    0  0.00000000000E+00  0.00000000000E+00  0.22503906434E+04  0.22503906434E+04  0.25500000920E-02 0.  1.
       -2   -1    0    0    0  501  0.00000000000E+00  0.00000000000E+00 -0.19145010382E+03  0.19145010384E+03  0.25500000920E-02 0. -1.
    10030    2    1    2    0    0  0.00000000000E+00  0.00000000000E+00  0.20589405396E+04  0.24418407473E+04  0.13127642931E+04 0.  0.
        1    1    3    3  502    0  0.39032283306E+03 -0.39032580035E+03  0.16900757180E+04  0.17779375909E+04  0.50400001928E-02 0.  1.
       -1    1    3    3    0  502 -0.39032283306E+03  0.39032580035E+03  0.36886482160E+03  0.66390315639E+03  0.50400001928E-02 0. -1.
</event>
<event>
 5   0  0.1661750E-03  0.9306895E+03  0.7818609E-02  0.9388011E-01
       -3   -1    0    0    0  501  0.00000000000E+00  0.00000000000E+00  0.55970405917E+03  0.55970406828E+03  0.10100000352E+00 0. -1.
        3   -1    0    0  501    0  0.00000000000E+00  0.00000000000E+00 -0.38689327646E+03  0.38689328965E+03  0.10100000352E+00 0.  1.
    10030    2    1    2    0    0  0.00000000000E+00  0.00000000000E+00  0.17281078270E+03  0.94659735793E+03  0.93068952471E+03 0.  0.
        4    1    3    3  502    0 -0.36508965329E+03 -0.87358437892E+02 -0.19328984403E+03  0.42223752594E+03  0.12699999809E+01 0.  1.
       -4    1    3    3    0  502  0.36508965329E+03  0.87358437892E+02  0.36610062673E+03  0.52435983199E+03  0.12699999809E+01 0. -1.
</event>
<event>
 5   0  0.1661750E-03  0.1078252E+04  0.7818609E-02  0.9226652E-01
        4   -1    0    0  501    0  0.00000000000E+00  0.00000000000E+00  0.87322386678E+03  0.87322479031E+03  0.12699999809E+01 0.  1.
       -4   -1    0    0    0  501  0.00000000000E+00  0.00000000000E+00 -0.33285269089E+03  0.33285511372E+03  0.12699999809E+01 0. -1.
    10030    2    1    2    0    0  0.00000000000E+00  0.00000000000E+00  0.54037117589E+03  0.12060799040E+04  0.10782521631E+04 0.  0.
        1    1    3    3  502    0 -0.16871460634E+03  0.30214225427E+03 -0.19222714880E+03  0.39586088083E+03  0.50400001928E-02 0. -1.
       -1    1    3    3    0  502  0.16871460634E+03 -0.30214225427E+03  0.73259832468E+03  0.81021902321E+03  0.50400001928E-02 0.  1.
</event>
<event>
 5   0  0.2356769E-03  0.1300911E+04  0.7818609E-02  0.9028843E-01
       -1   -1    0    0    0  501  0.00000000000E+00  0.00000000000E+00  0.61379683797E+03  0.61379683799E+03  0.50400001928E-02 0.  1.
        1   -1    0    0  501    0  0.00000000000E+00  0.00000000000E+00 -0.68930352141E+03  0.68930352143E+03  0.50400001928E-02 0. -1.
    10030    2    1    2    0    0  0.00000000000E+00  0.00000000000E+00 -0.75506683443E+02  0.13031003594E+04  0.13009109453E+04 0.  0.
        1    1    3    3  502    0 -0.51598227102E+03  0.79939509261E+02  0.35079675453E+03  0.62903608177E+03  0.50400001928E-02 0.  1.
       -1    1    3    3    0  502  0.51598227102E+03 -0.79939509261E+02 -0.42630343798E+03  0.67406427765E+03  0.50400001928E-02 0. -1.
</event>
<event>
 5   0  0.2370801E-03  0.1105742E+04  0.7818609E-02  0.9199614E-01
       -1   -1    0    0    0  501  0.00000000000E+00  0.00000000000E+00  0.30467140909E+03  0.30467140914E+03  0.50400001928E-02 0. -1.
        1   -1    0    0  501    0  0.00000000000E+00  0.00000000000E+00 -0.10032650038E+04  0.10032650038E+04  0.50400001928E-02 0.  1.
    10030    2    1    2    0    0  0.00000000000E+00  0.00000000000E+00 -0.69859359472E+03  0.13079364130E+04  0.11057416741E+04 0.  0.
        3    1    3    3  502    0  0.31139930792E+03  0.17984297972E+03  0.14743794220E+03  0.38865277991E+03  0.10100000352E+00 0. -1.
       -3    1    3    3    0  502 -0.31139930792E+03 -0.17984297972E+03 -0.84603153692E+03  0.91928363305E+03  0.10100000352E+00 0.  1.
</event>
<event>
 5   0  0.2462055E-03  0.1294240E+04  0.7818609E-02  0.9034146E-01
       -1   -1    0    0    0  501  0.00000000000E+00  0.00000000000E+00  0.70862617819E+03  0.70862617821E+03  0.50400001928E-02 0.  1.
        1   -1    0    0  501    0  0.00000000000E+00  0.00000000000E+00 -0.59095200335E+03  0.59095200337E+03  0.50400001928E-02 0. -1.
    10030    2    1    2    0    0  0.00000000000E+00  0.00000000000E+00  0.11767417484E+03  0.12995781816E+04  0.12942396372E+04 0.  0.
        2    1    3    3  502    0 -0.41979331931E+03 -0.28943419597E+03  0.45893450524E+03  0.68601710244E+03  0.25500000920E-02 0.  1.
       -2    1    3    3    0  502  0.41979331931E+03  0.28943419597E+03 -0.34126033040E+03  0.61356107915E+03  0.25500000920E-02 0. -1.
</event>
<event>
 5   0  0.2370801E-03  0.1323595E+04  0.7818609E-02  0.9011061E-01
        1   -1    0    0  501    0  0.00000000000E+00  0.00000000000E+00  0.12250491517E+04  0.12250491517E+04  0.50400001928E-02 0. -1.
       -1   -1    0    0    0  501  0.00000000000E+00  0.00000000000E+00 -0.35751685294E+03  0.35751685298E+03  0.50400001928E-02 0.  1.
    10030    2    1    2    0    0  0.00000000000E+00  0.00000000000E+00  0.86753229873E+03  0.15825660047E+04  0.13235946773E+04 0.  0.
        3    1    3    3  502    0 -0.45879864898E+03 -0.27635059124E+03  0.89855234257E+03  0.10460698696E+04  0.10100000352E+00 0.  1.
       -3    1    3    3    0  502  0.45879864898E+03  0.27635059124E+03 -0.31020043843E+02  0.53649613503E+03  0.10100000352E+00 0. -1.
</event>
<event>
 5   0  0.2511542E-03  0.1265884E+04  0.7818609E-02  0.9057066E-01
       -1   -1    0    0    0  501  0.00000000000E+00  0.00000000000E+00  0.25236900058E+03  0.25236900063E+03  0.50400001928E-02 0. -1.
        1   -1    0    0  501    0  0.00000000000E+00  0.00000000000E+00 -0.15874190974E+04  0.15874190974E+04  0.50400001928E-02 0.  1.
    10030    2    1    2    0    0  0.00000000000E+00  0.00000000000E+00 -0.13350500969E+04  0.18397880981E+04  0.12658836774E+04 0.  0.
        4    1    3    3  502    0  0.59401017306E+03  0.11880482365E+03 -0.40091681933E+03  0.72642864807E+03  0.12699999809E+01 0. -1.
       -4    1    3    3    0  502 -0.59401017306E+03 -0.11880482365E+03 -0.93413327753E+03  0.11133594500E+04  0.12699999809E+01 0.  1.
</event>
<event>
 5   0  0.2462055E-03  0.1376410E+04  0.7818609E-02  0.8971073E-01
        1   -1    0    0  501    0  0.00000000000E+00  0.00000000000E+00  0.82971450811E+03  0.82971450813E+03  0.50400001928E-02 0.  1.
       -1   -1    0    0    0  501  0.00000000000E+00  0.00000000000E+00 -0.57083049608E+03  0.57083049610E+03  0.50400001928E-02 0. -1.
    10030    2    1    2    0    0  0.00000000000E+00  0.00000000000E+00  0.25888401203E+03  0.14005450042E+04  0.13764103230E+04 0.  0.
        2    1    3    3  502    0  0.67764080941E+03  0.12010781926E+03  0.13131533737E+03  0.70061877841E+03  0.25500000920E-02 0.  1.
       -2    1    3    3    0  502 -0.67764080941E+03 -0.12010781926E+03  0.12756867466E+03  0.69992622582E+03  0.25500000920E-02 0. -1.
</event>
<event>
 5   0  0.4263540E-03  0.1302024E+04  0.7818609E-02  0.9027962E-01
        2   -1    0    0  501    0  0.00000000000E+00  0.00000000000E+00  0.44699894920E+03  0.44699894921E+03  0.25500000920E-02 0.  1.
       -2   -1    0    0    0  501  0.00000000000E+00  0.00000000000E+00 -0.94813712749E+03  0.94813712750E+03  0.25500000920E-02 0. -1.
    10030    2    1    2    0    0  0.00000000000E+00  0.00000000000E+00 -0.50113817829E+03  0.13951360767E+04  0.13020235016E+04 0.  0.
        2    1    3    3  502    0 -0.59163370369E+03  0.27114918701E+03 -0.26797842551E+03  0.70382153811E+03  0.25500000920E-02 0. -1.
       -2    1    3    3    0  502  0.59163370369E+03 -0.27114918701E+03 -0.23315975278E+03  0.69131453860E+03  0.25500000920E-02 0.  1.
</event>
<event>
 5   0  0.2462055E-03  0.1311425E+04  0.7818609E-02  0.9020554E-01
        1   -1    0    0  501    0  0.00000000000E+00  0.00000000000E+00  0.73255453835E+03  0.73255453837E+03  0.50400001928E-02 0.  1.
       -1   -1    0    0    0  501  0.00000000000E+00  0.00000000000E+00 -0.58693090367E+03  0.58693090369E+03  0.50400001928E-02 0. -1.
    10030    2    1    2    0    0  0.00000000000E+00  0.00000000000E+00  0.14562363468E+03  0.13194854421E+04  0.13114250222E+04 0.  0.
        2    1    3    3  502    0 -0.23409455822E+03 -0.38466039230E+03  0.55239123799E+03  0.71267100362E+03  0.25500000920E-02 0.  1.
       -2    1    3    3    0  502  0.23409455822E+03  0.38466039230E+03 -0.40676760330E+03  0.60681443844E+03  0.25500000920E-02 0. -1.
</event>
<event>
 5   0  0.2458456E-03  0.1180592E+04  0.7818609E-02  0.9130016E-01
        1   -1    0    0  501    0  0.00000000000E+00  0.00000000000E+00  0.31410241008E+03  0.31410241013E+03  0.50400001928E-02 0. -1.
       -1   -1    0    0    0  501  0.00000000000E+00  0.00000000000E+00 -0.11093491757E+04  0.11093491757E+04  0.50400001928E-02 0.  1.
    10030    2    1    2    0    0  0.00000000000E+00  0.00000000000E+00 -0.79524676558E+03  0.14234515858E+04  0.11805918003E+04 0.  0.
        5    1    3    3  502    0 -0.70704078490E+02 -0.57403399842E+03 -0.53984129320E+03  0.79117937910E+03  0.46999998093E+01 0.  1.
       -5    1    3    3    0  502  0.70704078490E+02  0.57403399842E+03 -0.25540547238E+03  0.63227220671E+03  0.46999998093E+01 0. -1.
</event>
<event>
 5   0  0.1661750E-03  0.1201083E+04  0.7818609E-02  0.9111909E-01
       -3   -1    0    0    0  501  0.00000000000E+00  0.00000000000E+00  0.38125148262E+03  0.38125149600E+03  0.10100000352E+00 0. -1.
        3   -1    0    0  501    0  0.00000000000E+00  0.00000000000E+00 -0.94596335221E+03  0.94596335760E+03  0.10100000352E+00 0.  1.
    10030    2    1    2    0    0  0.00000000000E+00  0.00000000000E+00 -0.56471186959E+03  0.13272148536E+04  0.12010827498E+04 0.  0.
        2    1    3    3  502    0 -0.32851550287E+03  0.18705442919E+03 -0.79798283465E+03  0.88299965997E+03  0.25500000920E-02 0.  1.
       -2    1    3    3    0  502  0.32851550287E+03 -0.18705442919E+03  0.23327096506E+03  0.44421519363E+03  0.25500000920E-02 0. -1.
</event>
<event>
 5   0  0.4306214E-03  0.1316699E+04  0.7818609E-02  0.9016427E-01
        2   -1    0    0  501    0  0.00000000000E+00  0.00000000000E+00  0.13417613918E+04  0.13417613918E+04  0.25500000920E-02 0. -1.
       -2   -1    0    0    0  501  0.00000000000E+00  0.00000000000E+00 -0.32302607421E+03  0.32302607422E+03  0.25500000920E-02 0.  1.
    10030    2    1    2    0    0  0.00000000000E+00  0.00000000000E+00  0.10187353175E+04  0.16647874660E+04  0.13166987733E+04 0.  0.
        3    1    3    3  502    0 -0.47696698658E+03 -0.41323820594E+03  0.27228466433E+03  0.68731526228E+03  0.10100000352E+00 0. -1.
       -3    1    3    3    0  502  0.47696698658E+03  0.41323820594E+03  0.74645065320E+03  0.97747220370E+03  0.10100000352E+00 0.  1.
</event>
<event>
 5   0  0.4306214E-03  0.1272922E+04  0.7818609E-02  0.9051319E-01
        2   -1    0    0  501    0  0.00000000000E+00  0.00000000000E+00  0.77374438234E+03  0.77374438234E+03  0.25500000920E-02 0. -1.
       -2   -1    0    0    0  501  0.00000000000E+00  0.00000000000E+00 -0.52353503970E+03  0.52353503970E+03  0.25500000920E-02 0.  1.
    10030    2    1    2    0    0  0.00000000000E+00  0.00000000000E+00  0.25020934264E+03  0.12972794220E+04  0.12729215151E+04 0.  0.
        3    1    3    3  502    0 -0.28426253727E+03 -0.29256751375E+03  0.62300354157E+03  0.74467064076E+03  0.10100000352E+00 0. -1.
       -3    1    3    3    0  502  0.28426253727E+03  0.29256751375E+03 -0.37279419893E+03  0.55260878129E+03  0.10100000352E+00 0.  1.
</event>
<event>
 5   0  0.4310889E-03  0.1302630E+04  0.7818609E-02  0.9027482E-01
        2   -1    0    0  501    0  0.00000000000E+00  0.00000000000E+00  0.54442282273E+03  0.54442282274E+03  0.25500000920E-02 0.  1.
       -2   -1    0    0    0  501  0.00000000000E+00  0.00000000000E+00 -0.77919478521E+03  0.77919478521E+03  0.25500000920E-02 0. -1.
    10030    2    1    2    0    0  0.00000000000E+00  0.00000000000E+00 -0.23477196248E+03  0.13236176080E+04  0.13026302997E+04 0.  0.
        4    1    3    3  502    0  0.29442878967E+03  0.53866334987E+03  0.10375147697E+03  0.62258533435E+03  0.12699999809E+01 0.  1.
       -4    1    3    3    0  502 -0.29442878967E+03 -0.53866334987E+03 -0.33852343945E+03  0.70103227360E+03  0.12699999809E+01 0. -1.
</event>
<event>
 5   0  0.4306214E-03  0.1355378E+04  0.7818609E-02  0.8986767E-01
        2   -1    0    0  501    0  0.00000000000E+00  0.00000000000E+00  0.78227519376E+03  0.78227519377E+03  0.25500000920E-02 0. -1.
       -2   -1    0    0    0  501  0.00000000000E+00  0.00000000000E+00 -0.58708583890E+03  0.58708583891E+03  0.25500000920E-02 0.  1.
    10030    2    1    2    0    0  0.00000000000E+00  0.00000000000E+00  0.19518935486E+03  0.13693610327E+04  0.13553784540E+04 0.  0.
        3    1    3    3  502    0 -0.45894604603E+03  0.42126933377E+03  0.36711132147E+03  0.72309754342E+03  0.10100000352E+00 0.  1.
       -3    1    3    3    0  502  0.45894604603E+03 -0.42126933377E+03 -0.17192196662E+03  0.64626348926E+03  0.10100000352E+00 0. -1.
</event>
<event>
 5   0  0.4453011E-03  0.1276422E+04  0.7818609E-02  0.9048474E-01
       -2   -1    0    0    0  501  0.00000000000E+00  0.00000000000E+00  0.14247507286E+03  0.14247507288E+03  0.25500000920E-02 0.  1.
        2   -1    0    0  501    0  0.00000000000E+00  0.00000000000E+00 -0.28588391740E+04  0.28588391740E+04  0.25500000920E-02 0. -1.
    10030    2    1    2    0    0  0.00000000000E+00  0.00000000000E+00 -0.27163641012E+04  0.30013142469E+04  0.12764220613E+04 0.  0.
        1    1    3    3  502    0 -0.29240239643E+03 -0.30752279952E+03 -0.24790727655E+04  0.25151284679E+04  0.50400001928E-02 0. -1.
       -1    1    3    3    0  502  0.29240239643E+03  0.30752279952E+03 -0.23729133570E+03  0.48618577899E+03  0.50400001928E-02 0.  1.
</event>
<event>
 5   0  0.4306214E-03  0.1367161E+04  0.7818609E-02  0.8977938E-01
       -2   -1    0    0    0  501  0.00000000000E+00  0.00000000000E+00  0.53068923916E+03  0.53068923916E+03  0.25500000920E-02 0.  1.
        2   -1    0    0  501    0  0.00000000000E+00  0.00000000000E+00 -0.88051945063E+03  0.88051945063E+03  0.25500000920E-02 0. -1.
    10030    2    1    2    0    0  0.00000000000E+00  0.00000000000E+00 -0.34983021147E+03  0.14112086898E+04  0.13671608498E+04 0.  0.
        3    1    3    3  502    0  0.57897096509E+03 -0.86953916313E+02  0.18931883806E+03  0.61531292414E+03  0.10100000352E+00 0.  1.
       -3    1    3    3    0  502 -0.57897096509E+03  0.86953916313E+02 -0.53914904952E+03  0.79589576565E+03  0.10100000352E+00 0. -1.
</event>
<event>
 5   0  0.4388937E-03  0.1285029E+04  0.7818609E-02  0.9041522E-01
        2   -1    0    0  501    0  0.00000000000E+00  0.00000000000E+00  0.71981472356E+03  0.71981472357E+03  0.25500000920E-02 0.  1.
       -2   -1    0    0    0  501  0.00000000000E+00  0.00000000000E+00 -0.57351562071E+03  0.57351562072E+03  0.25500000920E-02 0. -1.
    10030    2    1    2    0    0  0.00000000000E+00  0.00000000000E+00  0.14629910285E+03  0.12933303443E+04  0.12850291639E+04 0.  0.
        5    1    3    3  502    0  0.45943741532E+03  0.26111092763E+03 -0.29464406737E+03  0.60506104780E+03  0.46999998093E+01 0.  1.
       -5    1    3    3    0  502 -0.45943741532E+03 -0.26111092763E+03  0.44094317022E+03  0.68826929649E+03  0.46999998093E+01 0. -1.
</event>
<event>
 5   0  0.2370801E-03  0.1302109E+04  0.7818609E-02  0.9027894E-01
        1   -1    0    0  501    0  0.00000000000E+00  0.00000000000E+00  0.13932433032E+04  0.13932433032E+04  0.50400001928E-02 0.  1.
       -1   -1    0    0    0  501  0.00000000000E+00  0.00000000000E+00 -0.30423411364E+03  0.30423411368E+03  0.50400001928E-02 0. -1.
    10030    2    1    2    0    0  0.00000000000E+00  0.00000000000E+00  0.10890091895E+04  0.16974774169E+04  0.13021092757E+04 0.  0.
        3    1    3    3  502    0 -0.44745192185E+03  0.12882213078E+03 -0.48705630420E+02  0.46816729102E+03  0.10100000352E+00 0. -1.
       -3    1    3    3    0  502  0.44745192185E+03 -0.12882213078E+03  0.11377148200E+04  0.12293101259E+04  0.10100000352E+00 0.  1.
</event>
<event>
 5   0  0.2356769E-03  0.1312236E+04  0.7818609E-02  0.9019918E-01
       -1   -1    0    0    0  501  0.00000000000E+00  0.00000000000E+00  0.25746119843E+03  0.25746119848E+03  0.50400001928E-02 0. -1.
        1   -1    0    0  501    0  0.00000000000E+00  0.00000000000E+00 -0.16720607702E+04  0.16720607702E+04  0.50400001928E-02 0.  1.
    10030    2    1    2    0    0  0.00000000000E+00  0.00000000000E+00 -0.14145995717E+04  0.19295219686E+04  0.13122359084E+04 0.  0.
        1    1    3    3  502    0  0.27376048842E+03  0.54664831778E+03 -0.35710314560E+03  0.70801966425E+03  0.50400001928E-02 0. -1.
       -1    1    3    3    0  502 -0.27376048842E+03 -0.54664831778E+03 -0.10574964261E+04  0.12215023044E+04  0.50400001928E-02 0.  1.
</event>
<event>
 5   0  0.2370801E-03  0.1288149E+04  0.7818609E-02  0.9039016E-01
        1   -1    0    0  501    0  0.00000000000E+00  0.00000000000E+00  0.12897336360E+04  0.12897336360E+04  0.50400001928E-02 0. -1.
       -1   -1    0    0    0  501  0.00000000000E+00  0.00000000000E+00 -0.32164149413E+03  0.32164149417E+03  0.50400001928E-02 0.  1.
    10030    2    1    2    0    0  0.00000000000E+00  0.00000000000E+00  0.96809214183E+03  0.16113751301E+04  0.12881488326E+04 0.  0.
        3    1    3    3  502    0  0.31564237830E+03  0.54814444048E+03  0.33217656245E+03  0.71444644127E+03  0.10100000352E+00 0.  1.
       -3    1    3    3    0  502 -0.31564237830E+03 -0.54814444048E+03  0.63591557938E+03  0.89692868886E+03  0.10100000352E+00 0. -1.
</event>
<event>
 5   0  0.2356769E-03  0.1145369E+04  0.7818609E-02  0.9162067E-01
       -1   -1    0    0    0  501  0.00000000000E+00  0.00000000000E+00  0.63624519510E+03  0.63624519512E+03  0.50400001928E-02 0.  1.
        1   -1    0    0  501    0  0.00000000000E+00  0.00000000000E+00 -0.51547345431E+03  0.51547345433E+03  0.50400001928E-02 0. -1.
    10030    2    1    2    0    0  0.00000000000E+00  0.00000000000E+00  0.12077174078E+03  0.11517186495E+04  0.11453689511E+04 0.  0.
        1    1    3    3  502    0  0.78326354181E+02 -0.45055429163E+02  0.62903178048E+03  0.63548878066E+03  0.50400001928E-02 0.  1.
       -1    1    3    3    0  502 -0.78326354181E+02  0.45055429163E+02 -0.50826003970E+03  0.51622986879E+03  0.50400001928E-02 0. -1.
</event>
<event>
 5   0  0.2511542E-03  0.1308527E+04  0.7818609E-02  0.9022830E-01
        1   -1    0    0  501    0  0.00000000000E+00  0.00000000000E+00  0.17478334375E+04  0.17478334375E+04  0.50400001928E-02 0.  1.
       -1   -1    0    0    0  501  0.00000000000E+00  0.00000000000E+00 -0.24490928217E+03  0.24490928222E+03  0.50400001928E-02 0. -1.
    10030    2    1    2    0    0  0.00000000000E+00  0.00000000000E+00  0.15029241553E+04  0.19927427197E+04  0.13085268550E+04 0.  0.
        4    1    3    3  502    0 -0.67736551854E+02 -0.32053751068E+03  0.16139161999E+04  0.16468332184E+04  0.12699999809E+01 0.  1.
       -4    1    3    3    0  502  0.67736551854E+02  0.32053751068E+03 -0.11099204457E+03  0.34590950127E+03  0.12699999809E+01 0. -1.
</event>
<event>
 5   0  0.4310889E-03  0.1297076E+04  0.7818609E-02  0.9031887E-01
        2   -1    0    0  501    0  0.00000000000E+00  0.00000000000E+00  0.82202872665E+03  0.82202872665E+03  0.25500000920E-02 0. -1.
       -2   -1    0    0    0  501  0.00000000000E+00  0.00000000000E+00 -0.51166289171E+03  0.51166289172E+03  0.25500000920E-02 0.  1.
    10030    2    1    2    0    0  0.00000000000E+00  0.00000000000E+00  0.31036583494E+03  0.13336916184E+04  0.12970760893E+04 0.  0.
        4    1    3    3  502    0  0.27572217622E+03  0.26263014643E+03 -0.38461558927E+03  0.54122830366E+03  0.12699999809E+01 0.  1.
       -4    1    3    3    0  502 -0.27572217622E+03 -0.26263014643E+03  0.69498142421E+03  0.79246331471E+03  0.12699999809E+01 0. -1.
</event>
<event>
 5   0  0.4388937E-03  0.1322686E+04  0.7818609E-02  0.9011766E-01
        2   -1    0    0  501    0  0.00000000000E+00  0.00000000000E+00  0.63527548982E+03  0.63527548982E+03  0.25500000920E-02 0.  1.
       -2   -1    0    0    0  501  0.00000000000E+00  0.00000000000E+00 -0.68848005068E+03  0.68848005068E+03  0.25500000920E-02 0. -1.
    10030    2    1    2    0    0  0.00000000000E+00  0.00000000000E+00 -0.53204560859E+02  0.13237555405E+04  0.13226859059E+04 0.  0.
        5    1    3    3  502    0  0.51686469896E+03  0.36659345393E+03 -0.21599731571E+03  0.66948996100E+03  0.46999998093E+01 0. -1.
       -5    1    3    3    0  502 -0.51686469896E+03 -0.36659345393E+03  0.16279275485E+03  0.65426557950E+03  0.46999998093E+01 0.  1.
</event>
<event>
 5   0  0.2356769E-03  0.1303727E+04  0.7818609E-02  0.9026615E-01
        1   -1    0    0  501    0  0.00000000000E+00  0.00000000000E+00  0.68915634452E+03  0.68915634454E+03  0.50400001928E-02 0.  1.
       -1   -1    0    0    0  501  0.00000000000E+00  0.00000000000E+00 -0.61658863099E+03  0.61658863101E+03  0.50400001928E-02 0. -1.
    10030    2    1    2    0    0  0.00000000000E+00  0.00000000000E+00  0.72567713533E+02  0.13057449756E+04  0.13037269147E+04 0.  0.
        1    1    3    3  502    0  0.19111660689E+03 -0.38920910174E+03  0.52377817162E+03  0.67996533397E+03  0.50400001928E-02 0.  1.
       -1    1    3    3    0  502 -0.19111660689E+03  0.38920910174E+03 -0.45121045808E+03  0.62577964158E+03  0.50400001928E-02 0. -1.
</event>
<event>
 5   0  0.4306214E-03  0.1431485E+04  0.7818609E-02  0.8931339E-01
        2   -1    0    0  501    0  0.00000000000E+00  0.00000000000E+00  0.10902419417E+04  0.10902419417E+04  0.25500000920E-02 0.  1.
       -2   -1    0    0    0  501  0.00000000000E+00  0.00000000000E+00 -0.46988377941E+03  0.46988377941E+03  0.25500000920E-02 0. -1.
    10030    2    1    2    0    0  0.00000000000E+00  0.00000000000E+00  0.62035816229E+03  0.15601257211E+04  0.14314845497E+04 0.  0.
        3    1    3    3  502    0 -0.82928854846E+02 -0.55194772029E+03  0.79851123962E+03  0.97424005815E+03  0.10100000352E+00 0. -1.
       -3    1    3    3    0  502  0.82928854846E+02  0.55194772029E+03 -0.17815307733E+03  0.58588566296E+03  0.10100000352E+00 0.  1.
</event>
<event>
 5   0  0.4453011E-03  0.1290714E+04  0.7818609E-02  0.9036962E-01
        2   -1    0    0  501    0  0.00000000000E+00  0.00000000000E+00  0.11814465637E+04  0.11814465637E+04  0.25500000920E-02 0.  1.
       -2   -1    0    0    0  501  0.00000000000E+00  0.00000000000E+00 -0.35252171692E+03  0.35252171693E+03  0.25500000920E-02 0. -1.
    10030    2    1    2    0    0  0.00000000000E+00  0.00000000000E+00  0.82892484682E+03  0.15339682807E+04  0.12907138662E+04 0.  0.
        1    1    3    3  502    0 -0.52925592016E+02  0.52273566358E+03 -0.30905830218E+02  0.52631631424E+03  0.50400001928E-02 0.  1.
       -1    1    3    3    0  502  0.52925592016E+02 -0.52273566358E+03  0.85983067704E+03  0.10076519664E+04  0.50400001928E-02 0. -1.
</event>
<event>
 5   0  0.4263540E-03  0.1305941E+04  0.7818609E-02  0.9024867E-01
       -2   -1    0    0    0  501  0.00000000000E+00  0.00000000000E+00  0.33569874269E+03  0.33569874270E+03  0.25500000920E-02 0.  1.
        2   -1    0    0  501    0  0.00000000000E+00  0.00000000000E+00 -0.12700982969E+04  0.12700982969E+04  0.25500000920E-02 0. -1.
    10030    2    1    2    0    0  0.00000000000E+00  0.00000000000E+00 -0.93439955424E+03  0.16057970396E+04  0.13059408890E+04 0.  0.
        2    1    3    3  502    0  0.19875304592E+03  0.20302173669E+03  0.25571198279E+03  0.38224235372E+03  0.25500000920E-02 0.  1.
       -2    1    3    3    0  502 -0.19875304592E+03 -0.20302173669E+03 -0.11901115370E+04  0.12235546859E+04  0.25500000920E-02 0. -1.
</event>
<event>
 5   0  0.1661750E-03  0.1305064E+04  0.7818609E-02  0.9025559E-01
       -4   -1    0    0    0  501  0.00000000000E+00  0.00000000000E+00  0.50105437348E+03  0.50105598299E+03  0.12699999809E+01 0. -1.
        4   -1    0    0  501    0  0.00000000000E+00  0.00000000000E+00 -0.84980116360E+03  0.84980211258E+03  0.12699999809E+01 0.  1.
    10030    2    1    2    0    0  0.00000000000E+00  0.00000000000E+00 -0.34874679012E+03  0.13508580956E+04  0.13050644700E+04 0.  0.
        3    1    3    3  502    0  0.58248083769E+03  0.20994368895E+03  0.38860070122E+02  0.62037923406E+03  0.10100000352E+00 0. -1.
       -3    1    3    3    0  502 -0.58248083769E+03 -0.20994368895E+03 -0.38760686024E+03  0.73047886151E+03  0.10100000352E+00 0.  1.
</event>
<event>
 5   0  0.2511542E-03  0.1299345E+04  0.7818609E-02  0.9030084E-01
       -1   -1    0    0    0  501  0.00000000000E+00  0.00000000000E+00  0.27987842700E+03  0.27987842704E+03  0.50400001928E-02 0. -1.
        1   -1    0    0  501    0  0.00000000000E+00  0.00000000000E+00 -0.15080639576E+04  0.15080639576E+04  0.50400001928E-02 0.  1.
    10030    2    1    2    0    0  0.00000000000E+00  0.00000000000E+00 -0.12281855306E+04  0.17879423846E+04  0.12993453249E+04 0.  0.
        4    1    3    3  502    0 -0.23030402021E+03 -0.12145583158E+03 -0.14331290945E+04  0.14565891923E+04  0.12699999809E+01 0.  1.
       -4    1    3    3    0  502  0.23030402021E+03  0.12145583158E+03  0.20494356394E+03  0.33135319230E+03  0.12699999809E+01 0. -1.
</event>
<event>
 5   0  0.4388937E-03  0.1312085E+04  0.7818609E-02  0.9020036E-01
       -2   -1    0    0    0  501  0.00000000000E+00  0.00000000000E+00  0.64887508075E+03  0.64887508076E+03  0.25500000920E-02 0. -1.
        2   -1    0    0  501    0  0.00000000000E+00  0.00000000000E+00 -0.66328906915E+03  0.66328906915E+03  0.25500000920E-02 0.  1.
    10030    2    1    2    0    0  0.00000000000E+00  0.00000000000E+00 -0.14413988394E+02  0.13121641499E+04  0.13120849794E+04 0.  0.
        5    1    3    3  502    0  0.59185594417E+03  0.22491860305E+03  0.16452355153E+03  0.65419563255E+03  0.46999998093E+01 0. -1.
       -5    1    3    3    0  502 -0.59185594417E+03 -0.22491860305E+03 -0.17893753992E+03  0.65796851736E+03  0.46999998093E+01 0.  1.
</event>
<event>
 5   0  0.1661750E-03  0.1284665E+04  0.7818609E-02  0.9041815E-01
       -4   -1    0    0    0  501  0.00000000000E+00  0.00000000000E+00  0.44995480017E+03  0.44995659246E+03  0.12699999809E+01 0. -1.
        4   -1    0    0  501    0  0.00000000000E+00  0.00000000000E+00 -0.91695734673E+03  0.91695822622E+03  0.12699999809E+01 0.  1.
    10030    2    1    2    0    0  0.00000000000E+00  0.00000000000E+00 -0.46700254656E+03  0.13669148187E+04  0.12846652260E+04 0.  0.
        4    1    3    3  502    0 -0.21230278705E+03  0.16012398065E+03  0.38863666535E+03  0.47090575822E+03  0.12699999809E+01 0. -1.
       -4    1    3    3    0  502  0.21230278705E+03 -0.16012398065E+03 -0.85563921191E+03  0.89600906046E+03  0.12699999809E+01 0.  1.
</event>
<event>
 5   0  0.2458456E-03  0.1317734E+04  0.7818609E-02  0.9015619E-01
        1   -1    0    0  501    0  0.00000000000E+00  0.00000000000E+00  0.12283172163E+04  0.12283172163E+04  0.50400001928E-02 0. -1.
       -1   -1    0    0    0  501  0.00000000000E+00  0.00000000000E+00 -0.35341476144E+03  0.35341476148E+03  0.50400001928E-02 0.  1.
    10030    2    1    2    0    0  0.00000000000E+00  0.00000000000E+00  0.87490245488E+03  0.15817319778E+04  0.13177335634E+04 0.  0.
        5    1    3    3  502    0 -0.30871273425E+03  0.41458492853E+03  0.92783074771E+03  0.10621093172E+04  0.46999998093E+01 0. -1.
       -5    1    3    3    0  502  0.30871273425E+03 -0.41458492853E+03 -0.52928292833E+02  0.51962266063E+03  0.46999998093E+01 0.  1.
</event>
<event>
 5   0  0.2511542E-03  0.1696843E+04  0.7818609E-02  0.8763167E-01
       -1   -1    0    0    0  501  0.00000000000E+00  0.00000000000E+00  0.36756031386E+03  0.36756031389E+03  0.50400001928E-02 0.  1.
        1   -1    0    0  501    0  0.00000000000E+00  0.00000000000E+00 -0.19583708525E+04  0.19583708525E+04  0.50400001928E-02 0. -1.
    10030    2    1    2    0    0  0.00000000000E+00  0.00000000000E+00 -0.15908105386E+04  0.23259311663E+04  0.16968434285E+04 0.  0.
        4    1    3    3  502    0 -0.39889224857E+03 -0.63019549669E+02  0.22736455816E+03  0.46344659327E+03  0.12699999809E+01 0.  1.
       -4    1    3    3    0  502  0.39889224857E+03  0.63019549669E+02 -0.18181750968E+04  0.18624845731E+04  0.12699999809E+01 0. -1.
</event>
<event>
 5   0  0.2370801E-03  0.1315814E+04  0.7818609E-02  0.9017118E-01
       -1   -1    0    0    0  501  0.00000000000E+00  0.00000000000E+00  0.42527923374E+03  0.42527923377E+03  0.50400001928E-02 0. -1.
        1   -1    0    0  501    0  0.00000000000E+00  0.00000000000E+00 -0.10177819160E+04  0.10177819160E+04  0.50400001928E-02 0.  1.
    10030    2    1    2    0    0  0.00000000000E+00  0.00000000000E+00 -0.59250268229E+03  0.14430611498E+04  0.13158138370E+04 0.  0.
        3    1    3    3  502    0  0.25986622060E+02 -0.56239740646E+03  0.77072586363E+02  0.56824848534E+03  0.10100000352E+00 0. -1.
       -3    1    3    3    0  502 -0.25986622060E+02  0.56239740646E+03 -0.66957526865E+03  0.87481266447E+03  0.10100000352E+00 0.  1.
</event>
<event>
 5   0  0.1661750E-03  0.1291487E+04  0.7818609E-02  0.9036343E-01
       -3   -1    0    0    0  501  0.00000000000E+00  0.00000000000E+00  0.35998598171E+03  0.35998599588E+03  0.10100000352E+00 0. -1.
        3   -1    0    0  501    0  0.00000000000E+00  0.00000000000E+00 -0.11583358536E+04  0.11583358580E+04  0.10100000352E+00 0.  1.
    10030    2    1    2    0    0  0.00000000000E+00  0.00000000000E+00 -0.79834987191E+03  0.15183218539E+04  0.12914870244E+04 0.  0.
        3    1    3    3  502    0 -0.10828211744E+03  0.60870576582E+03 -0.18006119227E+03  0.64394857672E+03  0.10100000352E+00 0. -1.
       -3    1    3    3    0  502  0.10828211744E+03 -0.60870576582E+03 -0.61828867964E+03  0.87437327719E+03  0.10100000352E+00 0.  1.
</event>
<event>
 5   0  0.2458456E-03  0.1328190E+04  0.7818609E-02  0.9007504E-01
       -1   -1    0    0    0  501  0.00000000000E+00  0.00000000000E+00  0.57791351395E+03  0.57791351397E+03  0.50400001928E-02 0.  1.
        1   -1    0    0  501    0  0.00000000000E+00  0.00000000000E+00 -0.76312859707E+03  0.76312859709E+03  0.50400001928E-02 0. -1.
    10030    2    1    2    0    0  0.00000000000E+00  0.00000000000E+00 -0.18521508312E+03  0.13410421111E+04  0.13281902411E+04 0.  0.
        5    1    3    3  502    0  0.84191918743E+02  0.33007415598E+03 -0.66817879621E+03  0.75001481407E+03  0.46999998093E+01 0. -1.
       -5    1    3    3    0  502 -0.84191918743E+02 -0.33007415598E+03  0.48296371308E+03  0.59102729698E+03  0.46999998093E+01 0.  1.
</event>
<event>
 5   0  0.2356769E-03  0.1190191E+04  0.7818609E-02  0.9121486E-01
       -1   -1    0    0    0  501  0.00000000000E+00  0.00000000000E+00  0.27217977768E+03  0.27217977772E+03  0.50400001928E-02 0. -1.
        1   -1    0    0  501    0  0.00000000000E+00  0.00000000000E+00 -0.13011212510E+04  0.13011212510E+04  0.50400001928E-02 0.  1.
    10030    2    1    2    0    0  0.00000000000E+00  0.00000000000E+00 -0.10289414733E+04  0.15733010287E+04  0.11901914012E+04 0.  0.
        1    1    3    3  502    0  0.20835714888E+03  0.32132203585E+03  0.87646973463E+02  0.39286453670E+03  0.50400001928E-02 0. -1.
       -1    1    3    3    0  502 -0.20835714888E+03 -0.32132203585E+03 -0.11165884468E+04  0.11804364920E+04  0.50400001928E-02 0.  1.
</event>
<event>
 5   0  0.1661750E-03  0.1335621E+04  0.7818609E-02  0.9001785E-01
       -3   -1    0    0    0  501  0.00000000000E+00  0.00000000000E+00  0.47490936665E+03  0.47490937739E+03  0.10100000352E+00 0. -1.
        3   -1    0    0  501    0  0.00000000000E+00  0.00000000000E+00 -0.93906463481E+03  0.93906464024E+03  0.10100000352E+00 0.  1.
    10030    2    1    2    0    0  0.00000000000E+00  0.00000000000E+00 -0.46415526816E+03  0.14139740176E+04  0.13356206084E+04 0.  0.
        2    1    3    3  502    0 -0.31893967150E+03 -0.56419349847E+03 -0.40256463363E+03  0.76295157253E+03  0.25500000920E-02 0. -1.
       -2    1    3    3    0  502  0.31893967150E+03  0.56419349847E+03 -0.61590634526E+02  0.65102244511E+03  0.25500000920E-02 0.  1.
</event>
<event>
 5   0  0.4453011E-03  0.1311153E+04  0.7818609E-02  0.9020767E-01
        2   -1    0    0  501    0  0.00000000000E+00  0.00000000000E+00  0.13602604315E+04  0.13602604315E+04  0.25500000920E-02 0. -1.
       -2   -1    0    0    0  501  0.00000000000E+00  0.00000000000E+00 -0.31595455977E+03  0.31595455978E+03  0.25500000920E-02 0.  1.
    10030    2    1    2    0    0  0.00000000000E+00  0.00000000000E+00  0.10443058717E+04  0.16762149913E+04  0.13111529061E+04 0.  0.
        1    1    3    3  502    0 -0.18120933721E+03 -0.53352272870E+03  0.93741786466E+02  0.57120123292E+03  0.50400001928E-02 0.  1.
       -1    1    3    3    0  502  0.18120933721E+03  0.53352272870E+03  0.95056408526E+03  0.11050137584E+04  0.50400001928E-02 0. -1.
</event>
<event>
 5   0  0.2356769E-03  0.1255978E+04  0.7818609E-02  0.9065222E-01
       -1   -1    0    0    0  501  0.00000000000E+00  0.00000000000E+00  0.76124059947E+03  0.76124059949E+03  0.50400001928E-02 0. -1.
        1   -1    0    0  501    0  0.00000000000E+00  0.00000000000E+00 -0.51806270796E+03  0.51806270798E+03  0.50400001928E-02 0.  1.
    10030    2    1    2    0    0  0.00000000000E+00  0.00000000000E+00  0.24317789152E+03  0.12793033075E+04  0.12559782902E+04 0.  0.
        1    1    3    3  502    0 -0.27396186456E+03 -0.33123418721E+03 -0.34473334519E+03  0.55101022615E+03  0.50400001928E-02 0.  1.
       -1    1    3    3    0  502  0.27396186456E+03  0.33123418721E+03  0.58791123671E+03  0.72829308131E+03  0.50400001928E-02 0. -1.
</event>
<event>
 5   0  0.4310889E-03  0.1291638E+04  0.7818609E-02  0.9036223E-01
        2   -1    0    0  501    0  0.00000000000E+00  0.00000000000E+00  0.19304248393E+04  0.19304248393E+04  0.25500000920E-02 0.  1.
       -2   -1    0    0    0  501  0.00000000000E+00  0.00000000000E+00 -0.21605713924E+03  0.21605713926E+03  0.25500000920E-02 0. -1.
    10030    2    1    2    0    0  0.00000000000E+00  0.00000000000E+00  0.17143677000E+04  0.21464819785E+04  0.12916378259E+04 0.  0.
        4    1    3    3  502    0  0.41462189358E+03  0.44252426883E+02  0.16767386089E+04  0.17278088921E+04  0.12699999809E+01 0.  1.
       -4    1    3    3    0  502 -0.41462189358E+03 -0.44252426883E+02  0.37629091083E+02  0.41867308645E+03  0.12699999809E+01 0. -1.
</event>
<event>
 5   0  0.4388937E-03  0.1303992E+04  0.7818609E-02  0.9026405E-01
        2   -1    0    0  501    0  0.00000000000E+00  0.00000000000E+00  0.93997077879E+03  0.93997077879E+03  0.25500000920E-02 0.  1.
       -2   -1    0    0    0  501  0.00000000000E+00  0.00000000000E+00 -0.45224707920E+03  0.45224707921E+03  0.25500000920E-02 0. -1.
    10030    2    1    2    0    0  0.00000000000E+00  0.00000000000E+00  0.48772369959E+03  0.13922178580E+04  0.13039923915E+04 0.  0.
        5    1    3    3  502    0  0.35834959342E+03 -0.10123243932E+03 -0.32752422469E+03  0.49594016336E+03  0.46999998093E+01 0. -1.
       -5    1    3    3    0  502 -0.35834959342E+03  0.10123243932E+03  0.81524792428E+03  0.89627769464E+03  0.46999998093E+01 0.  1.
</event>
<event>
 5   0  0.2462055E-03  0.1344105E+04  0.7818609E-02  0.8995303E-01
        1   -1    0    0  501    0  0.00000000000E+00  0.00000000000E+00  0.12873100179E+04  0.12873100180E+04  0.50400001928E-02 0.  1.
       -1   -1    0    0    0  501  0.00000000000E+00  0.00000000000E+00 -0.35085144331E+03  0.35085144335E+03  0.50400001928E-02 0. -1.
    10030    2    1    2    0    0  0.00000000000E+00  0.00000000000E+00  0.93645857463E+03  0.16381614613E+04  0.13441050224E+04 0.  0.
        2    1    3    3  502    0 -0.73188596747E+02  0.64437382727E+03  0.68309476629E+03  0.94190905065E+03  0.25500000920E-02 0. -1.
       -2    1    3    3    0  502  0.73188596747E+02 -0.64437382727E+03  0.25336380834E+03  0.69625241066E+03  0.25500000920E-02 0.  1.
</event>
<event>
 5   0  0.2356769E-03  0.1279550E+04  0.7818609E-02  0.9045941E-01
        1   -1    0    0  501    0  0.00000000000E+00  0.00000000000E+00  0.19977287089E+04  0.19977287089E+04  0.50400001928E-02 0. -1.
       -1   -1    0    0    0  501  0.00000000000E+00  0.00000000000E+00 -0.20488875714E+03  0.20488875720E+03  0.50400001928E-02 0.  1.
    10030    2    1    2    0    0  0.00000000000E+00  0.00000000000E+00  0.17928399518E+04  0.22026174661E+04  0.12795501590E+04 0.  0.
        1    1    3    3  502    0  0.65654001298E+02 -0.87084327352E+02  0.19816093776E+04  0.19846082367E+04  0.50400001928E-02 0. -1.
       -1    1    3    3    0  502 -0.65654001298E+02  0.87084327352E+02 -0.18876942580E+03  0.21800922939E+03  0.50400001928E-02 0.  1.
</event>
<event>
 5   0  0.4263540E-03  0.1340046E+04  0.7818609E-02  0.8998398E-01
        2   -1    0    0  501    0  0.00000000000E+00  0.00000000000E+00  0.11226382680E+04  0.11226382680E+04  0.25500000920E-02 0. -1.
       -2   -1    0    0    0  501  0.00000000000E+00  0.00000000000E+00 -0.39988910816E+03  0.39988910817E+03  0.25500000920E-02 0.  1.
    10030    2    1    2    0    0  0.00000000000E+00  0.00000000000E+00  0.72274915983E+03  0.15225273762E+04  0.13400459929E+04 0.  0.
        2    1    3    3  502    0  0.13243551594E+03 -0.65170240012E+03  0.45420527153E+03  0.80533074751E+03  0.25500000920E-02 0. -1.
       -2    1    3    3    0  502 -0.13243551594E+03  0.65170240012E+03  0.26854388830E+03  0.71719662865E+03  0.25500000920E-02 0.  1.
</event>
<event>
 5   0  0.2370801E-03  0.1332936E+04  0.7818609E-02  0.9003846E-01
        1   -1    0    0  501    0  0.00000000000E+00  0.00000000000E+00  0.82447226120E+03  0.82447226121E+03  0.50400001928E-02 0. -1.
       -1   -1    0    0    0  501  0.00000000000E+00  0.00000000000E+00 -0.53874450633E+03  0.53874450636E+03  0.50400001928E-02 0.  1.
    10030    2    1    2    0    0  0.00000000000E+00  0.00000000000E+00  0.28572775486E+03  0.13632167676E+04  0.13329364597E+04 0.  0.
        3    1    3    3  502    0 -0.24960860673E+03 -0.29909843168E+03  0.69590281975E+03  0.79752434015E+03  0.10100000352E+00 0. -1.
       -3    1    3    3    0  502  0.24960860673E+03  0.29909843168E+03 -0.41017506489E+03  0.56569242742E+03  0.10100000352E+00 0.  1.
</event>
<event>
 5   0  0.2370801E-03  0.1320035E+04  0.7818609E-02  0.9013826E-01
        1   -1    0    0  501    0  0.00000000000E+00  0.00000000000E+00  0.83912867338E+03  0.83912867340E+03  0.50400001928E-02 0. -1.
       -1   -1    0    0    0  501  0.00000000000E+00  0.00000000000E+00 -0.51913734665E+03  0.51913734667E+03  0.50400001928E-02 0.  1.
    10030    2    1    2    0    0  0.00000000000E+00  0.00000000000E+00  0.31999132674E+03  0.13582660201E+04  0.13200348981E+04 0.  0.
        3    1    3    3  502    0 -0.44547791934E+03  0.46070919827E+03 -0.24353366699E+01  0.64086619747E+03  0.10100000352E+00 0.  1.
       -3    1    3    3    0  502  0.44547791934E+03 -0.46070919827E+03  0.32242666341E+03  0.71739982260E+03  0.10100000352E+00 0. -1.
</event>
<event>
 5   0  0.4263540E-03  0.1315301E+04  0.7818609E-02  0.9017519E-01
        2   -1    0    0  501    0  0.00000000000E+00  0.00000000000E+00  0.84102108078E+03  0.84102108078E+03  0.25500000920E-02 0.  1.
       -2   -1    0    0    0  501  0.00000000000E+00  0.00000000000E+00 -0.51426065526E+03  0.51426065526E+03  0.25500000920E-02 0. -1.
    10030    2    1    2    0    0  0.00000000000E+00  0.00000000000E+00  0.32676042552E+03  0.13552817360E+04  0.13153008053E+04 0.  0.
        2    1    3    3  502    0  0.42608578620E+03 -0.38587586910E+03 -0.16579047188E+03  0.59827733045E+03  0.25500000920E-02 0. -1.
       -2    1    3    3    0  502 -0.42608578620E+03  0.38587586910E+03  0.49255089740E+03  0.75700440559E+03  0.25500000920E-02 0.  1.
</event>
<event>
 5   0  0.2370801E-03  0.1299212E+04  0.7818609E-02  0.9030190E-01
        1   -1    0    0  501    0  0.00000000000E+00  0.00000000000E+00  0.42813524186E+03  0.42813524189E+03  0.50400001928E-02 0. -1.
       -1   -1    0    0    0  501  0.00000000000E+00  0.00000000000E+00 -0.98564148585E+03  0.98564148586E+03  0.50400001928E-02 0.  1.
    10030    2    1    2    0    0  0.00000000000E+00  0.00000000000E+00 -0.55750624398E+03  0.14137767278E+04  0.12992118472E+04 0.  0.
        3    1    3    3  502    0  0.15933504145E+03 -0.49707538916E+03  0.14201715236E+03  0.54096254926E+03  0.10100000352E+00 0. -1.
       -3    1    3    3    0  502 -0.15933504145E+03  0.49707538916E+03 -0.69952339634E+03  0.87281417849E+03  0.10100000352E+00 0.  1.
</event>
<event>
 5   0  0.4306214E-03  0.1287475E+04  0.7818609E-02  0.9039557E-01
        2   -1    0    0  501    0  0.00000000000E+00  0.00000000000E+00  0.11238768443E+04  0.11238768443E+04  0.25500000920E-02 0.  1.
       -2   -1    0    0    0  501  0.00000000000E+00  0.00000000000E+00 -0.36872162669E+03  0.36872162670E+03  0.25500000920E-02 0. -1.
    10030    2    1    2    0    0  0.00000000000E+00  0.00000000000E+00  0.75515521758E+03  0.14925984710E+04  0.12874745795E+04 0.  0.
        3    1    3    3  502    0  0.24022247769E+03 -0.17768877664E+02  0.10696603441E+04  0.10964469133E+04  0.10100000352E+00 0.  1.
       -3    1    3    3    0  502 -0.24022247769E+03  0.17768877664E+02 -0.31450512653E+03  0.39615155763E+03  0.10100000352E+00 0. -1.
</event>
<event>
 5   0  0.4306214E-03  0.1324863E+04  0.7818609E-02  0.9010078E-01
       -2   -1    0    0    0  501  0.00000000000E+00  0.00000000000E+00  0.29216026596E+03  0.29216026597E+03  0.25500000920E-02 0. -1.
        2   -1    0    0  501    0  0.00000000000E+00  0.00000000000E+00 -0.15019677207E+04  0.15019677207E+04  0.25500000920E-02 0.  1.
    10030    2    1    2    0    0  0.00000000000E+00  0.00000000000E+00 -0.12098074548E+04  0.17941279867E+04  0.13248626929E+04 0.  0.
        3    1    3    3  502    0 -0.50927939831E+03 -0.64329411174E+02 -0.37897599346E+02  0.51472324303E+03  0.10100000352E+00 0. -1.
       -3    1    3    3    0  502  0.50927939831E+03  0.64329411174E+02 -0.11719098554E+04  0.12794047437E+04  0.10100000352E+00 0.  1.
</event>
<event>
 5   0  0.4263540E-03  0.1273911E+04  0.7818609E-02  0.9050514E-01
       -2   -1    0    0    0  501  0.00000000000E+00  0.00000000000E+00  0.18042721182E+03  0.18042721184E+03  0.25500000920E-02 0.  1.
        2   -1    0    0  501    0  0.00000000000E+00  0.00000000000E+00 -0.22486209052E+04  0.22486209052E+04  0.25500000920E-02 0. -1.
    10030    2    1    2    0    0  0.00000000000E+00  0.00000000000E+00 -0.20681936934E+04  0.24290481171E+04  0.12739111435E+04 0.  0.
        2    1    3    3  502    0  0.61270386968E+03  0.67406193862E+02 -0.72804620894E+03  0.95393967799E+03  0.25500000920E-02 0. -1.
       -2    1    3    3    0  502 -0.61270386968E+03 -0.67406193862E+02 -0.13401474845E+04  0.14751084391E+04  0.25500000920E-02 0.  1.
</event>
<event>
 5   0  0.2511542E-03  0.1290981E+04  0.7818609E-02  0.9036748E-01
       -1   -1    0    0    0  501  0.00000000000E+00  0.00000000000E+00  0.37712595836E+03  0.37712595839E+03  0.50400001928E-02 0. -1.
        1   -1    0    0  501    0  0.00000000000E+00  0.00000000000E+00 -0.11048252113E+04  0.11048252113E+04  0.50400001928E-02 0.  1.
    10030    2    1    2    0    0  0.00000000000E+00  0.00000000000E+00 -0.72769925291E+03  0.14819511697E+04  0.12909814354E+04 0.  0.
        4    1    3    3  502    0 -0.23711341319E+03 -0.48257270975E+03  0.46134302443E+02  0.53965653676E+03  0.12699999809E+01 0. -1.
       -4    1    3    3    0  502  0.23711341319E+03  0.48257270975E+03 -0.77383355536E+03  0.94229463291E+03  0.12699999809E+01 0.  1.
</event>
<event>
 5   0  0.4453011E-03  0.1316199E+04  0.7818609E-02  0.9016817E-01
        2   -1    0    0  501    0  0.00000000000E+00  0.00000000000E+00  0.11526594595E+04  0.11526594595E+04  0.25500000920E-02 0.  1.
       -2   -1    0    0    0  501  0.00000000000E+00  0.00000000000E+00 -0.37573566841E+03  0.37573566842E+03  0.25500000920E-02 0. -1.
    10030    2    1    2    0    0  0.00000000000E+00  0.00000000000E+00  0.77692379107E+03  0.15283951279E+04  0.13161994871E+04 0.  0.
        1    1    3    3  502    0 -0.52906261581E+03 -0.23356359374E+03  0.75315857116E+03  0.94958255939E+03  0.50400001928E-02 0. -1.
       -1    1    3    3    0  502  0.52906261581E+03  0.23356359374E+03  0.23765219907E+02  0.57881256851E+03  0.50400001928E-02 0.  1.
</event>
<event>
 5   0  0.4263540E-03  0.1277707E+04  0.7818609E-02  0.9047433E-01
       -2   -1    0    0    0  501  0.00000000000E+00  0.00000000000E+00  0.34638559925E+03  0.34638559926E+03  0.25500000920E-02 0.  1.
        2   -1    0    0  501    0  0.00000000000E+00  0.00000000000E+00 -0.11782651589E+04  0.11782651589E+04  0.25500000920E-02 0. -1.
    10030    2    1    2    0    0  0.00000000000E+00  0.00000000000E+00 -0.83187955962E+03  0.15246507581E+04  0.12777074519E+04 0.  0.
        2    1    3    3  502    0 -0.30623147973E+03  0.26871534246E+03 -0.10031312984E+04  0.10827086664E+04  0.25500000920E-02 0. -1.
       -2    1    3    3    0  502  0.30623147973E+03 -0.26871534246E+03  0.17125173875E+03  0.44194209177E+03  0.25500000920E-02 0.  1.
</event>
<event>
 5   0  0.4453011E-03  0.1493734E+04  0.7818609E-02  0.8888630E-01
        2   -1    0    0  501    0  0.00000000000E+00  0.00000000000E+00  0.18528702426E+04  0.18528702426E+04  0.25500000920E-02 0.  1.
       -2   -1    0    0    0  501  0.00000000000E+00  0.00000000000E+00 -0.30105220844E+03  0.30105220845E+03  0.25500000920E-02 0. -1.
    10030    2    1    2    0    0  0.00000000000E+00  0.00000000000E+00  0.15518180342E+04  0.21539224510E+04  0.14937344858E+04 0.  0.
        1    1    3    3  502    0  0.30285473321E+03  0.65567196237E+03  0.50161600503E+03  0.87934369173E+03  0.50400001928E-02 0. -1.
       -1    1    3    3    0  502 -0.30285473321E+03 -0.65567196237E+03  0.10502020291E+04  0.12745787593E+04  0.50400001928E-02 0.  1.
</event>
<event>
 5   0  0.4306214E-03  0.1343087E+04  0.7818609E-02  0.8996078E-01
       -2   -1    0    0    0  501  0.00000000000E+00  0.00000000000E+00  0.21529700918E+03  0.21529700920E+03  0.25500000920E-02 0.  1.
        2   -1    0    0  501    0  0.00000000000E+00  0.00000000000E+00 -0.20946432340E+04  0.20946432341E+04  0.25500000920E-02 0. -1.
    10030    2    1    2    0    0  0.00000000000E+00  0.00000000000E+00 -0.18793462249E+04  0.23099402433E+04  0.13430866296E+04 0.  0.
        3    1    3    3  502    0  0.62087290850E+03  0.22760670697E+03 -0.73849609450E+03  0.99129434244E+03  0.10100000352E+00 0.  1.
       -3    1    3    3    0  502 -0.62087290850E+03 -0.22760670697E+03 -0.11408501304E+04  0.13186459008E+04  0.10100000352E+00 0. -1.
</event>
<event>
 5   0  0.2462055E-03  0.1319303E+04  0.7818609E-02  0.9014396E-01
       -1   -1    0    0    0  501  0.00000000000E+00  0.00000000000E+00  0.43781251057E+03  0.43781251060E+03  0.50400001928E-02 0.  1.
        1   -1    0    0  501    0  0.00000000000E+00  0.00000000000E+00 -0.99389566535E+03  0.99389566536E+03  0.50400001928E-02 0. -1.
    10030    2    1    2    0    0  0.00000000000E+00  0.00000000000E+00 -0.55608315478E+03  0.14317081760E+04  0.13193027803E+04 0.  0.
        2    1    3    3  502    0 -0.51246449905E+03 -0.38831384699E+03 -0.43802109082E+03  0.77799099131E+03  0.25500000920E-02 0. -1.
       -2    1    3    3    0  502  0.51246449905E+03  0.38831384699E+03 -0.11806206396E+03  0.65371718465E+03  0.25500000920E-02 0.  1.
</event>
<event>
 5   0  0.4453011E-03  0.1287466E+04  0.7818609E-02  0.9039564E-01
        2   -1    0    0  501    0  0.00000000000E+00  0.00000000000E+00  0.83899958996E+03  0.83899958996E+03  0.25500000920E-02 0. -1.
       -2   -1    0    0    0  501  0.00000000000E+00  0.00000000000E+00 -0.49391255129E+03  0.49391255129E+03  0.25500000920E-02 0.  1.
    10030    2    1    2    0    0  0.00000000000E+00  0.00000000000E+00  0.34508703867E+03  0.13329121413E+04  0.12874663926E+04 0.  0.
        1    1    3    3  502    0  0.45945873550E+03  0.42077227479E+02  0.63729873743E+03  0.78677983163E+03  0.50400001928E-02 0. -1.
       -1    1    3    3    0  502 -0.45945873550E+03 -0.42077227479E+02 -0.29221169876E+03  0.54613230963E+03  0.50400001928E-02 0.  1.
</event>
<event>
 5   0  0.4310889E-03  0.1297004E+04  0.7818609E-02  0.9031944E-01
        2   -1    0    0  501    0  0.00000000000E+00  0.00000000000E+00  0.80180777405E+03  0.80180777405E+03  0.25500000920E-02 0.  1.
       -2   -1    0    0    0  501  0.00000000000E+00  0.00000000000E+00 -0.52450860080E+03  0.52450860081E+03  0.25500000920E-02 0. -1.
    10030    2    1    2    0    0  0.00000000000E+00  0.00000000000E+00  0.27729917324E+03  0.13263163749E+04  0.12970043542E+04 0.  0.
        4    1    3    3  502    0 -0.22064560971E+03  0.53650503827E+03 -0.15778323596E+03  0.60118158955E+03  0.12699999809E+01 0. -1.
       -4    1    3    3    0  502  0.22064560971E+03 -0.53650503827E+03  0.43508240920E+03  0.72513478531E+03  0.12699999809E+01 0.  1.
</event>
<event>
 5   0  0.2356769E-03  0.1326087E+04  0.7818609E-02  0.9009130E-01
       -1   -1    0    0    0  501  0.00000000000E+00  0.00000000000E+00  0.43568960278E+03  0.43568960281E+03  0.50400001928E-02 0. -1.
        1   -1    0    0  501    0  0.00000000000E+00  0.00000000000E+00 -0.10090367900E+04  0.10090367900E+04  0.50400001928E-02 0.  1.
    10030    2    1    2    0    0  0.00000000000E+00  0.00000000000E+00 -0.57334718723E+03  0.14447263928E+04  0.13260872343E+04 0.  0.
        1    1    3    3  502    0  0.37489831341E+03  0.20211666870E+03  0.26694961892E+03  0.50265494351E+03  0.50400001928E-02 0. -1.
       -1    1    3    3    0  502 -0.37489831341E+03 -0.20211666870E+03 -0.84029680615E+03  0.94207144932E+03  0.50400001928E-02 0.  1.
</event>
<event>
 5   0  0.2462055E-03  0.1287886E+04  0.7818609E-02  0.9039227E-01
       -1   -1    0    0    0  501  0.00000000000E+00  0.00000000000E+00  0.47456448604E+03  0.47456448606E+03  0.50400001928E-02 0.  1.
        1   -1    0    0  501    0  0.00000000000E+00  0.00000000000E+00 -0.87377466270E+03  0.87377466271E+03  0.50400001928E-02 0. -1.
    10030    2    1    2    0    0  0.00000000000E+00  0.00000000000E+00 -0.39921017666E+03  0.13483391488E+04  0.12878857461E+04 0.  0.
        2    1    3    3  502    0  0.87032872822E+02 -0.13040951038E+02 -0.86744914338E+03  0.87190183147E+03  0.25500000920E-02 0. -1.
       -2    1    3    3    0  502 -0.87032872822E+02  0.13040951038E+02  0.46823896672E+03  0.47643731730E+03  0.25500000920E-02 0.  1.
</event>
<event>
 5   0  0.2458456E-03  0.8430514E+03  0.7818609E-02  0.9499711E-01
        1   -1    0    0  501    0  0.00000000000E+00  0.00000000000E+00  0.37121660342E+03  0.37121660345E+03  0.50400001928E-02 0.  1.
       -1   -1    0    0    0  501  0.00000000000E+00  0.00000000000E+00 -0.47865292522E+03  0.47865292524E+03  0.50400001928E-02 0. -1.
    10030    2    1    2    0    0  0.00000000000E+00  0.00000000000E+00 -0.10743632180E+03  0.84986952870E+03  0.84305139379E+03 0.  0.
        5    1    3    3  502    0 -0.90441950037E+02 -0.33353859330E+03 -0.29698719475E+03  0.45568763796E+03  0.46999998093E+01 0. -1.
       -5    1    3    3    0  502  0.90441950037E+02  0.33353859330E+03  0.18955087295E+03  0.39418189073E+03  0.46999998093E+01 0.  1.
</event>
<event>
 5   0  0.1661750E-03  0.1299008E+04  0.7818609E-02  0.9030352E-01
       -3   -1    0    0    0  501  0.00000000000E+00  0.00000000000E+00  0.40244844091E+03  0.40244845358E+03  0.10100000352E+00 0. -1.
        3   -1    0    0  501    0  0.00000000000E+00  0.00000000000E+00 -0.10482217276E+04  0.10482217325E+04  0.10100000352E+00 0.  1.
    10030    2    1    2    0    0  0.00000000000E+00  0.00000000000E+00 -0.64577328672E+03  0.14506701861E+04  0.12990076408E+04 0.  0.
        2    1    3    3  502    0  0.60105231705E+02 -0.59452470200E+03 -0.38645233402E+02  0.59880356899E+03  0.25500000920E-02 0. -1.
       -2    1    3    3    0  502 -0.60105231705E+02  0.59452470200E+03 -0.60712805332E+03  0.85186661709E+03  0.25500000920E-02 0.  1.
</event>
<event>
 5   0  0.2370801E-03  0.1270186E+04  0.7818609E-02  0.9053548E-01
        1   -1    0    0  501    0  0.00000000000E+00  0.00000000000E+00  0.11733186944E+04  0.11733186944E+04  0.50400001928E-02 0.  1.
       -1   -1    0    0    0  501  0.00000000000E+00  0.00000000000E+00 -0.34376239626E+03  0.34376239630E+03  0.50400001928E-02 0. -1.
    10030    2    1    2    0    0  0.00000000000E+00  0.00000000000E+00  0.82955629815E+03  0.15170810907E+04  0.12701855707E+04 0.  0.
        3    1    3    3  502    0  0.19894161834E+03 -0.59226826300E+03  0.27868527480E+03  0.68412349430E+03  0.10100000352E+00 0. -1.
       -3    1    3    3    0  502 -0.19894161834E+03  0.59226826300E+03  0.55087102335E+03  0.83295759641E+03  0.10100000352E+00 0.  1.
</event>
<event>
 5   0  0.4310889E-03  0.1080955E+04  0.7818609E-02  0.9223955E-01
       -2   -1    0    0    0  501  0.00000000000E+00  0.00000000000E+00  0.38618219363E+03  0.38618219364E+03  0.25500000920E-02 0. -1.
        2   -1    0    0  501    0  0.00000000000E+00  0.00000000000E+00 -0.75642062338E+03  0.75642062339E+03  0.25500000920E-02 0.  1.
    10030    2    1    2    0    0  0.00000000000E+00  0.00000000000E+00 -0.37023842975E+03  0.11426028170E+04  0.10809554582E+04 0.  0.
        4    1    3    3  502    0  0.97539518477E+02 -0.66815869361E+02 -0.74258251953E+03  0.75193665244E+03  0.12699999809E+01 0.  1.
       -4    1    3    3    0  502 -0.97539518477E+02  0.66815869361E+02  0.37234408978E+03  0.39066616459E+03  0.12699999809E+01 0. -1.
</event>
<event>
 5   0  0.2356769E-03  0.1200915E+04  0.7818609E-02  0.9112056E-01
        1   -1    0    0  501    0  0.00000000000E+00  0.00000000000E+00  0.79770803818E+03  0.79770803820E+03  0.50400001928E-02 0.  1.
       -1   -1    0    0    0  501  0.00000000000E+00  0.00000000000E+00 -0.45198178513E+03  0.45198178515E+03  0.50400001928E-02 0. -1.
    10030    2    1    2    0    0  0.00000000000E+00  0.00000000000E+00  0.34572625306E+03  0.12496898234E+04  0.12009154893E+04 0.  0.
        1    1    3    3  502    0  0.37833171515E+03 -0.42686858986E+03 -0.22367384422E+02  0.57083445902E+03  0.50400001928E-02 0. -1.
       -1    1    3    3    0  502 -0.37833171515E+03  0.42686858986E+03  0.36809363748E+03  0.67885536433E+03  0.50400001928E-02 0.  1.
</event>
<event>
 5   0  0.4388937E-03  0.1162387E+04  0.7818609E-02  0.9146432E-01
        2   -1    0    0  501    0  0.00000000000E+00  0.00000000000E+00  0.14619045439E+04  0.14619045439E+04  0.25500000920E-02 0. -1.
       -2   -1    0    0    0  501  0.00000000000E+00  0.00000000000E+00 -0.23105864960E+03  0.23105864961E+03  0.25500000920E-02 0.  1.
    10030    2    1    2    0    0  0.00000000000E+00  0.00000000000E+00  0.12308458943E+04  0.16929631935E+04  0.11623866651E+04 0.  0.
        5    1    3    3  502    0  0.45388132835E+03  0.34420631082E+03  0.78324641204E+03  0.96849536736E+03  0.46999998093E+01 0. -1.
       -5    1    3    3    0  502 -0.45388132835E+03 -0.34420631082E+03  0.44759948229E+03  0.72446782618E+03  0.46999998093E+01 0.  1.
</event>
<event>
 5   0  0.4388937E-03  0.6546456E+03  0.7818609E-02  0.9798101E-01
        2   -1    0    0  501    0  0.00000000000E+00  0.00000000000E+00  0.20298043074E+04  0.20298043074E+04  0.25500000920E-02 0. -1.
       -2   -1    0    0    0  501  0.00000000000E+00  0.00000000000E+00 -0.52783516313E+02  0.52783516375E+02  0.25500000920E-02 0.  1.
    10030    2    1    2    0    0  0.00000000000E+00  0.00000000000E+00  0.19770207911E+04  0.20825878237E+04  0.65464557995E+03 0.  0.
        5    1    3    3  502    0 -0.27042893397E+03  0.85884856807E+02  0.15074542265E+04  0.15339323166E+04  0.46999998093E+01 0. -1.
       -5    1    3    3    0  502  0.27042893397E+03 -0.85884856807E+02  0.46956656452E+03  0.54865550710E+03  0.46999998093E+01 0.  1.
</event>
<event>
 5   0  0.4388937E-03  0.1345965E+04  0.7818609E-02  0.8993888E-01
        2   -1    0    0  501    0  0.00000000000E+00  0.00000000000E+00  0.10442543800E+04  0.10442543800E+04  0.25500000920E-02 0.  1.
       -2   -1    0    0    0  501  0.00000000000E+00  0.00000000000E+00 -0.43371164211E+03  0.43371164211E+03  0.25500000920E-02 0. -1.
    10030    2    1    2    0    0  0.00000000000E+00  0.00000000000E+00  0.61054273787E+03  0.14779660221E+04  0.13459647572E+04 0.  0.
        5    1    3    3  502    0  0.35825548672E+03 -0.22872241671E+03 -0.26764677258E+03  0.50231247501E+03  0.46999998093E+01 0. -1.
       -5    1    3    3    0  502 -0.35825548672E+03  0.22872241671E+03  0.87818951046E+03  0.97565354709E+03  0.46999998093E+01 0.  1.
</event>
<event>
 5   0  0.4263540E-03  0.1289546E+04  0.7818609E-02  0.9037897E-01
       -2   -1    0    0    0  501  0.00000000000E+00  0.00000000000E+00  0.51848939042E+03  0.51848939042E+03  0.25500000920E-02 0.  1.
        2   -1    0    0  501    0  0.00000000000E+00  0.00000000000E+00 -0.80181427084E+03  0.80181427085E+03  0.25500000920E-02 0. -1.
    10030    2    1    2    0    0  0.00000000000E+00  0.00000000000E+00 -0.28332488043E+03  0.13203036613E+04  0.12895459550E+04 0.  0.
        2    1    3    3  502    0  0.33412218784E+03  0.16222314844E+03  0.39795513814E+03  0.54435491940E+03  0.25500000920E-02 0.  1.
       -2    1    3    3    0  502 -0.33412218784E+03 -0.16222314844E+03 -0.68128001857E+03  0.77594874187E+03  0.25500000920E-02 0. -1.
</event>
<event>
 5   0  0.2511542E-03  0.1291880E+04  0.7818609E-02  0.9036029E-01
        1   -1    0    0  501    0  0.00000000000E+00  0.00000000000E+00  0.74084334881E+03  0.74084334883E+03  0.50400001928E-02 0.  1.
       -1   -1    0    0    0  501  0.00000000000E+00  0.00000000000E+00 -0.56319414845E+03  0.56319414847E+03  0.50400001928E-02 0. -1.
    10030    2    1    2    0    0  0.00000000000E+00  0.00000000000E+00  0.17764920036E+03  0.13040374973E+04  0.12918802406E+04 0.  0.
        4    1    3    3  502    0 -0.37131492660E+03  0.17014569143E+02 -0.44442009587E+03  0.57937475333E+03  0.12699999809E+01 0. -1.
       -4    1    3    3    0  502  0.37131492660E+03 -0.17014569143E+02  0.62206929623E+03  0.72466274397E+03  0.12699999809E+01 0.  1.
</event>
<event>
 5   0  0.4453011E-03  0.1325982E+04  0.7818609E-02  0.9009211E-01
        2   -1    0    0  501    0  0.00000000000E+00  0.00000000000E+00  0.11694874869E+04  0.11694874869E+04  0.25500000920E-02 0. -1.
       -2   -1    0    0    0  501  0.00000000000E+00  0.00000000000E+00 -0.37585467832E+03  0.37585467833E+03  0.25500000920E-02 0.  1.
    10030    2    1    2    0    0  0.00000000000E+00  0.00000000000E+00  0.79363280860E+03  0.15453421653E+04  0.13259824180E+04 0.  0.
        1    1    3    3  502    0  0.48239645401E+03  0.39355501020E+03  0.13114533120E+03  0.63623186247E+03  0.50400001928E-02 0. -1.
       -1    1    3    3    0  502 -0.48239645401E+03 -0.39355501020E+03  0.66248747740E+03  0.90911030278E+03  0.50400001928E-02 0.  1.
</event>
<event>
 5   0  0.4388937E-03  0.1222540E+04  0.7818609E-02  0.9093353E-01
       -2   -1    0    0    0  501  0.00000000000E+00  0.00000000000E+00  0.11598482897E+04  0.11598482897E+04  0.25500000920E-02 0.  1.
        2   -1    0    0  501    0  0.00000000000E+00  0.00000000000E+00 -0.32215508713E+03  0.32215508714E+03  0.25500000920E-02 0. -1.
    10030    2    1    2    0    0  0.00000000000E+00  0.00000000000E+00  0.83769320253E+03  0.14820033768E+04  0.12225400228E+04 0.  0.
        5    1    3    3  502    0 -0.28460482936E+03  0.81113437688E+02  0.10671925611E+04  0.11074752147E+04  0.46999998093E+01 0.  1.
       -5    1    3    3    0  502  0.28460482936E+03 -0.81113437688E+02 -0.22949935854E+03  0.37452816214E+03  0.46999998093E+01 0. -1.
</event>
<event>
 5   0  0.4310889E-03  0.1193944E+04  0.7818609E-02  0.9118174E-01
        2   -1    0    0  501    0  0.00000000000E+00  0.00000000000E+00  0.17694315943E+04  0.17694315943E+04  0.25500000920E-02 0.  1.
       -2   -1    0    0    0  501  0.00000000000E+00  0.00000000000E+00 -0.20140667399E+03  0.20140667401E+03  0.25500000920E-02 0. -1.
    10030    2    1    2    0    0  0.00000000000E+00  0.00000000000E+00  0.15680249203E+04  0.19708382683E+04  0.11939436038E+04 0.  0.
        4    1    3    3  502    0  0.47211306051E+03  0.10246237627E+03  0.20512751486E+03  0.52485063657E+03  0.12699999809E+01 0. -1.
       -4    1    3    3    0  502 -0.47211306051E+03 -0.10246237627E+03  0.13628974055E+04  0.14459876318E+04  0.12699999809E+01 0.  1.
</event>
<event>
 5   0  0.4306214E-03  0.1169047E+04  0.7818609E-02  0.9140389E-01
        2   -1    0    0  501    0  0.00000000000E+00  0.00000000000E+00  0.49489284012E+03  0.49489284012E+03  0.25500000920E-02 0.  1.
       -2   -1    0    0    0  501  0.00000000000E+00  0.00000000000E+00 -0.69038763273E+03  0.69038763273E+03  0.25500000920E-02 0. -1.
    10030    2    1    2    0    0  0.00000000000E+00  0.00000000000E+00 -0.19549479261E+03  0.11852804729E+04  0.11690472982E+04 0.  0.
        3    1    3    3  502    0 -0.37955896694E+03 -0.14775140091E+03 -0.52282124650E+03  0.66274999196E+03  0.10100000352E+00 0. -1.
       -3    1    3    3    0  502  0.37955896694E+03  0.14775140091E+03  0.32732645389E+03  0.52253048090E+03  0.10100000352E+00 0.  1.
</event>
<event>
 5   0  0.4388937E-03  0.1290645E+04  0.7818609E-02  0.9037017E-01
        2   -1    0    0  501    0  0.00000000000E+00  0.00000000000E+00  0.18311018027E+04  0.18311018027E+04  0.25500000920E-02 0.  1.
       -2   -1    0    0    0  501  0.00000000000E+00  0.00000000000E+00 -0.22742664938E+03  0.22742664939E+03  0.25500000920E-02 0. -1.
    10030    2    1    2    0    0  0.00000000000E+00  0.00000000000E+00  0.16036751534E+04  0.20585284521E+04  0.12906453389E+04 0.  0.
        5    1    3    3  502    0 -0.15594740784E+03  0.34640888150E+03  0.16338209876E+04  0.16774122382E+04  0.46999998093E+01 0.  1.
       -5    1    3    3    0  502  0.15594740784E+03 -0.34640888150E+03 -0.30145834281E+02  0.38111621393E+03  0.46999998093E+01 0. -1.
</event>
<event>
 5   0  0.2511542E-03  0.1325810E+04  0.7818609E-02  0.9009344E-01
        1   -1    0    0  501    0  0.00000000000E+00  0.00000000000E+00  0.13494239961E+04  0.13494239961E+04  0.50400001928E-02 0. -1.
       -1   -1    0    0    0  501  0.00000000000E+00  0.00000000000E+00 -0.32565235439E+03  0.32565235443E+03  0.50400001928E-02 0.  1.
    10030    2    1    2    0    0  0.00000000000E+00  0.00000000000E+00  0.10237716417E+04  0.16750763505E+04  0.13258100942E+04 0.  0.
        4    1    3    3  502    0 -0.35853971609E+03  0.29866052779E+02 -0.19156425015E+03  0.40760420012E+03  0.12699999809E+01 0.  1.
       -4    1    3    3    0  502  0.35853971609E+03 -0.29866052779E+02  0.12153358919E+04  0.12674721504E+04  0.12699999809E+01 0. -1.
</event>
<event>
 5   0  0.2370801E-03  0.1294668E+04  0.7818609E-02  0.9033804E-01
       -1   -1    0    0    0  501  0.00000000000E+00  0.00000000000E+00  0.44876115746E+03  0.44876115748E+03  0.50400001928E-02 0. -1.
        1   -1    0    0  501    0  0.00000000000E+00  0.00000000000E+00 -0.93377419541E+03  0.93377419543E+03  0.50400001928E-02 0.  1.
    10030    2    1    2    0    0  0.00000000000E+00  0.00000000000E+00 -0.48501303796E+03  0.13825353529E+04  0.12946684344E+04 0.  0.
        3    1    3    3  502    0  0.34944886791E+03  0.14219117455E+03 -0.80423846371E+03  0.88833122095E+03  0.10100000352E+00 0.  1.
       -3    1    3    3    0  502 -0.34944886791E+03 -0.14219117455E+03  0.31922542575E+03  0.49420413196E+03  0.10100000352E+00 0. -1.
</event>
<event>
 5   0  0.2458456E-03  0.1315781E+04  0.7818609E-02  0.9017144E-01
       -1   -1    0    0    0  501  0.00000000000E+00  0.00000000000E+00  0.84407719649E+03  0.84407719650E+03  0.50400001928E-02 0. -1.
        1   -1    0    0  501    0  0.00000000000E+00  0.00000000000E+00 -0.51277270527E+03  0.51277270529E+03  0.50400001928E-02 0.  1.
    10030    2    1    2    0    0  0.00000000000E+00  0.00000000000E+00  0.33130449122E+03  0.13568499018E+04  0.13157807531E+04 0.  0.
        5    1    3    3  502    0 -0.44095157147E+03 -0.47209020981E+03  0.37307872770E+02  0.64708687357E+03  0.46999998093E+01 0.  1.
       -5    1    3    3    0  502  0.44095157147E+03  0.47209020981E+03  0.29399661845E+03  0.70976302822E+03  0.46999998093E+01 0. -1.
</event>
<event>
 5   0  0.4453011E-03  0.1289053E+04  0.7818609E-02  0.9038291E-01
       -2   -1    0    0    0  501  0.00000000000E+00  0.00000000000E+00  0.17251644896E+03  0.17251644898E+03  0.25500000920E-02 0. -1.
        2   -1    0    0  501    0  0.00000000000E+00  0.00000000000E+00 -0.24079710480E+04  0.24079710480E+04  0.25500000920E-02 0.  1.
    10030    2    1    2    0    0  0.00000000000E+00  0.00000000000E+00 -0.22354545990E+04  0.25804874970E+04  0.12890533184E+04 0.  0.
        1    1    3    3  502    0  0.13935129320E+03  0.49807152823E+03 -0.34780803812E+03  0.62326917264E+03  0.50400001928E-02 0. -1.
       -1    1    3    3    0  502 -0.13935129320E+03 -0.49807152823E+03 -0.18876465609E+04  0.19572183243E+04  0.50400001928E-02 0.  1.
</event>
<event>
 5   0  0.4388937E-03  0.1376168E+04  0.7818609E-02  0.8971252E-01
       -2   -1    0    0    0  501  0.00000000000E+00  0.00000000000E+00  0.80628950804E+03  0.80628950804E+03  0.25500000920E-02 0.  1.
        2   -1    0    0  501    0  0.00000000000E+00  0.00000000000E+00 -0.58720831460E+03  0.58720831461E+03  0.25500000920E-02 0. -1.
    10030    2    1    2    0    0  0.00000000000E+00  0.00000000000E+00  0.21908119344E+03  0.13934978226E+04  0.13761684535E+04 0.  0.
        5    1    3    3  502    0  0.12305287697E+01  0.65383327723E+03 -0.10749070060E+03  0.66262795695E+03  0.46999998093E+01 0. -1.
       -5    1    3    3    0  502 -0.12305287697E+01 -0.65383327723E+03  0.32657189404E+03  0.73086986570E+03  0.46999998093E+01 0.  1.
</event>
<event>
 5   0  0.2458456E-03  0.1343776E+04  0.7818609E-02  0.8995553E-01
       -1   -1    0    0    0  501  0.00000000000E+00  0.00000000000E+00  0.50776010190E+03  0.50776010193E+03  0.50400001928E-02 0.  1.
        1   -1    0    0  501    0  0.00000000000E+00  0.00000000000E+00 -0.88906829187E+03  0.88906829189E+03  0.50400001928E-02 0. -1.
    10030    2    1    2    0    0  0.00000000000E+00  0.00000000000E+00 -0.38130818997E+03  0.13968283938E+04  0.13437758839E+04 0.  0.
        5    1    3    3  502    0 -0.39363857337E+03 -0.52891662416E+03 -0.32501347132E+03  0.73509180943E+03  0.46999998093E+01 0.  1.
       -5    1    3    3    0  502  0.39363857337E+03  0.52891662416E+03 -0.56294718649E+02  0.66173658438E+03  0.46999998093E+01 0. -1.
</event>
<event>
 5   0  0.2356769E-03  0.1275450E+04  0.7818609E-02  0.9049264E-01
       -1   -1    0    0    0  501  0.00000000000E+00  0.00000000000E+00  0.33015241704E+03  0.33015241708E+03  0.50400001928E-02 0. -1.
        1   -1    0    0  501    0  0.00000000000E+00  0.00000000000E+00 -0.12318338107E+04  0.12318338107E+04  0.50400001928E-02 0.  1.
    10030    2    1    2    0    0  0.00000000000E+00  0.00000000000E+00 -0.90168139364E+03  0.15619862278E+04  0.12754495835E+04 0.  0.
        1    1    3    3  502    0 -0.75460239961E+02  0.28531551987E+03  0.24148909449E+03  0.38133473023E+03  0.50400001928E-02 0. -1.
       -1    1    3    3    0  502  0.75460239961E+02 -0.28531551987E+03 -0.11431704881E+04  0.11806514975E+04  0.50400001928E-02 0.  1.
</event>
<event>
 5   0  0.4263540E-03  0.1228942E+04  0.7818609E-02  0.9087894E-01
       -2   -1    0    0    0  501  0.00000000000E+00  0.00000000000E+00  0.31983830745E+03  0.31983830746E+03  0.25500000920E-02 0. -1.
        2   -1    0    0  501    0  0.00000000000E+00  0.00000000000E+00 -0.11805169935E+04  0.11805169935E+04  0.25500000920E-02 0.  1.
    10030    2    1    2    0    0  0.00000000000E+00  0.00000000000E+00 -0.86067868604E+03  0.15003553010E+04  0.12289419142E+04 0.  0.
        2    1    3    3  502    0  0.57299113573E+03 -0.18421259133E+03 -0.58145605863E+03  0.83686574106E+03  0.25500000920E-02 0.  1.
       -2    1    3    3    0  502 -0.57299113573E+03  0.18421259133E+03 -0.27922262741E+03  0.66348955990E+03  0.25500000920E-02 0. -1.
</event>
<event>
 5   0  0.2356769E-03  0.1337052E+04  0.7818609E-02  0.9000688E-01
        1   -1    0    0  501    0  0.00000000000E+00  0.00000000000E+00  0.10633120827E+04  0.10633120827E+04  0.50400001928E-02 0.  1.
       -1   -1    0    0    0  501  0.00000000000E+00  0.00000000000E+00 -0.42031569493E+03  0.42031569496E+03  0.50400001928E-02 0. -1.
    10030    2    1    2    0    0  0.00000000000E+00  0.00000000000E+00  0.64299638780E+03  0.14836277777E+04  0.13370516176E+04 0.  0.
        1    1    3    3  502    0  0.36794377400E+03 -0.82317942062E+02 -0.29107979566E+03  0.47632584632E+03  0.50400001928E-02 0. -1.
       -1    1    3    3    0  502 -0.36794377400E+03  0.82317942062E+02  0.93407618346E+03  0.10073019314E+04  0.50400001928E-02 0.  1.
</event>
<event>
 5   0  0.4310889E-03  0.1315943E+04  0.7818609E-02  0.9017017E-01
       -2   -1    0    0    0  501  0.00000000000E+00  0.00000000000E+00  0.13466875125E+04  0.13466875125E+04  0.25500000920E-02 0.  1.
        2   -1    0    0  501    0  0.00000000000E+00  0.00000000000E+00 -0.32147513111E+03  0.32147513112E+03  0.25500000920E-02 0. -1.
    10030    2    1    2    0    0  0.00000000000E+00  0.00000000000E+00  0.10252123814E+04  0.16681626437E+04  0.13159430758E+04 0.  0.
        4    1    3    3  502    0 -0.18670398584E+03  0.36568114757E+03  0.11643634772E+04  0.12346355737E+04  0.12699999809E+01 0.  1.
       -4    1    3    3    0  502  0.18670398584E+03 -0.36568114757E+03 -0.13915109576E+03  0.43352706993E+03  0.12699999809E+01 0. -1.
</event>
<event>
 5   0  0.4453011E-03  0.1185354E+04  0.7818609E-02  0.9125773E-01
       -2   -1    0    0    0  501  0.00000000000E+00  0.00000000000E+00  0.10107861244E+04  0.10107861244E+04  0.25500000920E-02 0. -1.
        2   -1    0    0  501    0  0.00000000000E+00  0.00000000000E+00 -0.34751790116E+03  0.34751790117E+03  0.25500000920E-02 0.  1.
    10030    2    1    2    0    0  0.00000000000E+00  0.00000000000E+00  0.66326822320E+03  0.13583040255E+04  0.11853544153E+04 0.  0.
        1    1    3    3  502    0 -0.30648732908E+03 -0.50702810503E+03  0.34990727060E+03  0.68807490887E+03  0.50400001928E-02 0.  1.
       -1    1    3    3    0  502  0.30648732908E+03  0.50702810503E+03  0.31336095260E+03  0.67022911666E+03  0.50400001928E-02 0. -1.
</event>
<event>
 5   0  0.1661750E-03  0.1287788E+04  0.7818609E-02  0.9039306E-01
       -4   -1    0    0    0  501  0.00000000000E+00  0.00000000000E+00  0.82937686892E+03  0.82937784128E+03  0.12699999809E+01 0. -1.
        4   -1    0    0  501    0  0.00000000000E+00  0.00000000000E+00 -0.49989084448E+03  0.49989245773E+03  0.12699999809E+01 0.  1.
    10030    2    1    2    0    0  0.00000000000E+00  0.00000000000E+00  0.32948602444E+03  0.13292702990E+04  0.12877882153E+04 0.  0.
        2    1    3    3  502    0  0.20058792826E+03 -0.32516231648E+03 -0.37025109531E+03  0.53202624240E+03  0.25500000920E-02 0.  1.
       -2    1    3    3    0  502 -0.20058792826E+03  0.32516231648E+03  0.69973711975E+03  0.79724405660E+03  0.25500000920E-02 0. -1.
</event>
<event>
 5   0  0.2356769E-03  0.1273413E+04  0.7818609E-02  0.9050919E-01
       -1   -1    0    0    0  501  0.00000000000E+00  0.00000000000E+00  0.29487803436E+03  0.29487803440E+03  0.50400001928E-02 0. -1.
        1   -1    0    0  501    0  0.00000000000E+00  0.00000000000E+00 -0.13747894253E+04  0.13747894253E+04  0.50400001928E-02 0.  1.
    10030    2    1    2    0    0  0.00000000000E+00  0.00000000000E+00 -0.10799113910E+04  0.16696674597E+04  0.12734130570E+04 0.  0.
        1    1    3    3  502    0 -0.42300804469E+03 -0.18208535471E+03  0.36520615784E+02  0.46197904463E+03  0.50400001928E-02 0. -1.
       -1    1    3    3    0  502  0.42300804469E+03  0.18208535471E+03 -0.11164320068E+04  0.12076884151E+04  0.50400001928E-02 0.  1.
</event>
<event>
 5   0  0.2458456E-03  0.1325590E+04  0.7818609E-02  0.9009515E-01
       -1   -1    0    0    0  501  0.00000000000E+00  0.00000000000E+00  0.16060678547E+04  0.16060678547E+04  0.50400001928E-02 0. -1.
        1   -1    0    0  501    0  0.00000000000E+00  0.00000000000E+00 -0.27352332911E+03  0.27352332916E+03  0.50400001928E-02 0.  1.
    10030    2    1    2    0    0  0.00000000000E+00  0.00000000000E+00  0.13325445256E+04  0.18795911838E+04  0.13255897200E+04 0.  0.
        5    1    3    3  502    0 -0.94831775915E+01  0.28482279727E+03 -0.18219046678E+03  0.33827416793E+03  0.46999998093E+01 0.  1.
       -5    1    3    3    0  502  0.94831775915E+01 -0.28482279727E+03  0.15147349923E+04  0.15413170159E+04  0.46999998093E+01 0. -1.
</event>
<event>
 5   0  0.4310889E-03  0.1186224E+04  0.7818609E-02  0.9125001E-01
       -2   -1    0    0    0  501  0.00000000000E+00  0.00000000000E+00  0.28255739775E+03  0.28255739777E+03  0.25500000920E-02 0. -1.
        2   -1    0    0  501    0  0.00000000000E+00  0.00000000000E+00 -0.12449915369E+04  0.12449915369E+04  0.25500000920E-02 0.  1.
    10030    2    1    2    0    0  0.00000000000E+00  0.00000000000E+00 -0.96243413913E+03  0.15275489347E+04  0.11862235353E+04 0.  0.
        4    1    3    3  502    0 -0.45226419664E+03  0.35487337961E+03 -0.66916525712E+03  0.88219146071E+03  0.12699999809E+01 0.  1.
       -4    1    3    3    0  502  0.45226419664E+03 -0.35487337961E+03 -0.29326888202E+03  0.64535747395E+03  0.12699999809E+01 0. -1.
</event>
<event>
 5   0  0.2511542E-03  0.1293525E+04  0.7818609E-02  0.9034716E-01
       -1   -1    0    0    0  501  0.00000000000E+00  0.00000000000E+00  0.75019895237E+03  0.75019895238E+03  0.50400001928E-02 0. -1.
        1   -1    0    0  501    0  0.00000000000E+00  0.00000000000E+00 -0.55758752908E+03  0.55758752911E+03  0.50400001928E-02 0.  1.
    10030    2    1    2    0    0  0.00000000000E+00  0.00000000000E+00  0.19261142328E+03  0.13077864815E+04  0.12935247662E+04 0.  0.
        4    1    3    3  502    0  0.52959916053E+03  0.25898226926E+03 -0.17262113461E+03  0.61428556522E+03  0.12699999809E+01 0.  1.
       -4    1    3    3    0  502 -0.52959916053E+03 -0.25898226926E+03  0.36523255789E+03  0.69350091627E+03  0.12699999809E+01 0. -1.
</event>
<event>
 5   0  0.4310889E-03  0.1157995E+04  0.7818609E-02  0.9150439E-01
        2   -1    0    0  501    0  0.00000000000E+00  0.00000000000E+00  0.57458280610E+03  0.57458280610E+03  0.25500000920E-02 0.  1.
       -2   -1    0    0    0  501  0.00000000000E+00  0.00000000000E+00 -0.58344610314E+03  0.58344610315E+03  0.25500000920E-02 0. -1.
    10030    2    1    2    0    0  0.00000000000E+00  0.00000000000E+00 -0.88632970441E+01  0.11580289092E+04  0.11579949899E+04 0.  0.
        4    1    3    3  502    0  0.10655698360E+03  0.56861368018E+03  0.19245577846E+02  0.57883323437E+03  0.12699999809E+01 0.  1.
       -4    1    3    3    0  502 -0.10655698360E+03 -0.56861368018E+03 -0.28108874890E+02  0.57919567488E+03  0.12699999809E+01 0. -1.
</event>
<event>
 5   0  0.2462055E-03  0.1182410E+04  0.7818609E-02  0.9128394E-01
       -1   -1    0    0    0  501  0.00000000000E+00  0.00000000000E+00  0.46589783286E+03  0.46589783289E+03  0.50400001928E-02 0. -1.
        1   -1    0    0  501    0  0.00000000000E+00  0.00000000000E+00 -0.75021422929E+03  0.75021422931E+03  0.50400001928E-02 0.  1.
    10030    2    1    2    0    0  0.00000000000E+00  0.00000000000E+00 -0.28431639643E+03  0.12161120622E+04  0.11824097152E+04 0.  0.
        2    1    3    3  502    0 -0.29305772786E+03  0.36369328933E+02  0.38460974935E+03  0.48490227804E+03  0.25500000920E-02 0. -1.
       -2    1    3    3    0  502  0.29305772786E+03 -0.36369328933E+02 -0.66892614578E+03  0.73120978417E+03  0.25500000920E-02 0.  1.
</event>
<event>
 5   0  0.4453011E-03  0.1251715E+04  0.7818609E-02  0.9068757E-01
       -2   -1    0    0    0  501  0.00000000000E+00  0.00000000000E+00  0.49020055898E+03  0.49020055899E+03  0.25500000920E-02 0. -1.
        2   -1    0    0  501    0  0.00000000000E+00  0.00000000000E+00 -0.79905607674E+03  0.79905607675E+03  0.25500000920E-02 0.  1.
    10030    2    1    2    0    0  0.00000000000E+00  0.00000000000E+00 -0.30885551776E+03  0.12892566357E+04  0.12517152000E+04 0.  0.
        1    1    3    3  502    0  0.57156006352E+03 -0.81947334533E+01  0.10806803112E+03  0.58174458248E+03  0.50400001928E-02 0.  1.
       -1    1    3    3    0  502 -0.57156006352E+03  0.81947334533E+01 -0.41692354888E+03  0.70751205326E+03  0.50400001928E-02 0. -1.
</event>
<event>
 5   0  0.2356769E-03  0.1222273E+04  0.7818609E-02  0.9093581E-01
       -1   -1    0    0    0  501  0.00000000000E+00  0.00000000000E+00  0.26603618872E+04  0.26603618873E+04  0.50400001928E-02 0. -1.
        1   -1    0    0  501    0  0.00000000000E+00  0.00000000000E+00 -0.14038982222E+03  0.14038982231E+03  0.50400001928E-02 0.  1.
    10030    2    1    2    0    0  0.00000000000E+00  0.00000000000E+00  0.25199720650E+04  0.28007517096E+04  0.12222728542E+04 0.  0.
        1    1    3    3  502    0 -0.19551513777E+03  0.24724264426E+03  0.24597251413E+04  0.24798392821E+04  0.50400001928E-02 0. -1.
       -1    1    3    3    0  502  0.19551513777E+03 -0.24724264426E+03  0.60246923688E+02  0.32091242743E+03  0.50400001928E-02 0.  1.
</event>
<event>
 5   0  0.2356769E-03  0.1235281E+04  0.7818609E-02  0.9082523E-01
        1   -1    0    0  501    0  0.00000000000E+00  0.00000000000E+00  0.25939254849E+04  0.25939254849E+04  0.50400001928E-02 0.  1.
       -1   -1    0    0    0  501  0.00000000000E+00  0.00000000000E+00 -0.14706668693E+03  0.14706668702E+03  0.50400001928E-02 0. -1.
    10030    2    1    2    0    0  0.00000000000E+00  0.00000000000E+00  0.24468587980E+04  0.27409921720E+04  0.12352813887E+04 0.  0.
        1    1    3    3  502    0  0.57447792545E+02  0.55281163682E+02 -0.13560105893E+03  0.15730194892E+03  0.50400001928E-02 0. -1.
       -1    1    3    3    0  502 -0.57447792545E+02 -0.55281163682E+02  0.25824598569E+04  0.25836902230E+04  0.50400001928E-02 0.  1.
</event>
<event>
 5   0  0.2370801E-03  0.1276731E+04  0.7818609E-02  0.9048224E-01
        1   -1    0    0  501    0  0.00000000000E+00  0.00000000000E+00  0.80409883471E+03  0.80409883473E+03  0.50400001928E-02 0. -1.
       -1   -1    0    0    0  501  0.00000000000E+00  0.00000000000E+00 -0.50679153636E+03  0.50679153639E+03  0.50400001928E-02 0.  1.
    10030    2    1    2    0    0  0.00000000000E+00  0.00000000000E+00  0.29730729835E+03  0.13108903711E+04  0.12767309566E+04 0.  0.
        3    1    3    3  502    0  0.56816197566E+03  0.19353283102E+03  0.37183419687E+03  0.70606208468E+03  0.10100000352E+00 0. -1.
       -3    1    3    3    0  502 -0.56816197566E+03 -0.19353283102E+03 -0.74526898515E+02  0.60482828643E+03  0.10100000352E+00 0.  1.
</event>
<event>
 5   0  0.4306214E-03  0.1302585E+04  0.7818609E-02  0.9027518E-01
       -2   -1    0    0    0  501  0.00000000000E+00  0.00000000000E+00  0.10749495605E+04  0.10749495605E+04  0.25500000920E-02 0. -1.
        2   -1    0    0  501    0  0.00000000000E+00  0.00000000000E+00 -0.39460626425E+03  0.39460626426E+03  0.25500000920E-02 0.  1.
    10030    2    1    2    0    0  0.00000000000E+00  0.00000000000E+00  0.68034329621E+03  0.14695558247E+04  0.13025848615E+04 0.  0.
        3    1    3    3  502    0 -0.41390818445E+03 -0.49962756642E+03  0.40433082555E+03  0.76448094612E+03  0.10100000352E+00 0. -1.
       -3    1    3    3    0  502  0.41390818445E+03  0.49962756642E+03  0.27601247066E+03  0.70507487861E+03  0.10100000352E+00 0.  1.
</event>
<event>
 5   0  0.4263540E-03  0.1314275E+04  0.7818609E-02  0.9018321E-01
        2   -1    0    0  501    0  0.00000000000E+00  0.00000000000E+00  0.53449618228E+03  0.53449618229E+03  0.25500000920E-02 0. -1.
       -2   -1    0    0    0  501  0.00000000000E+00  0.00000000000E+00 -0.80791876776E+03  0.80791876777E+03  0.25500000920E-02 0.  1.
    10030    2    1    2    0    0  0.00000000000E+00  0.00000000000E+00 -0.27342258548E+03  0.13424149501E+04  0.13142747003E+04 0.  0.
        2    1    3    3  502    0 -0.21593009864E+03  0.32007752678E+03  0.40642029556E+03  0.56058263200E+03  0.25500000920E-02 0. -1.
       -2    1    3    3    0  502  0.21593009864E+03 -0.32007752678E+03 -0.67984288104E+03  0.78183231805E+03  0.25500000920E-02 0.  1.
</event>
<event>
 5   0  0.2462055E-03  0.1291978E+04  0.7818609E-02  0.9035951E-01
        1   -1    0    0  501    0  0.00000000000E+00  0.00000000000E+00  0.68357604375E+03  0.68357604377E+03  0.50400001928E-02 0. -1.
       -1   -1    0    0    0  501  0.00000000000E+00  0.00000000000E+00 -0.61046863271E+03  0.61046863273E+03  0.50400001928E-02 0.  1.
    10030    2    1    2    0    0  0.00000000000E+00  0.00000000000E+00  0.73107411040E+02  0.12940446765E+04  0.12919779144E+04 0.  0.
        2    1    3    3  502    0 -0.32270266424E+03 -0.29938208893E+03  0.51010500489E+03  0.67377574957E+03  0.25500000920E-02 0. -1.
       -2    1    3    3    0  502  0.32270266424E+03  0.29938208893E+03 -0.43699759385E+03  0.62026892693E+03  0.25500000920E-02 0.  1.
</event>
<event>
 5   0  0.4310889E-03  0.1308172E+04  0.7818609E-02  0.9023110E-01
        2   -1    0    0  501    0  0.00000000000E+00  0.00000000000E+00  0.51120130619E+03  0.51120130619E+03  0.25500000920E-02 0. -1.
       -2   -1    0    0    0  501  0.00000000000E+00  0.00000000000E+00 -0.83690824185E+03  0.83690824186E+03  0.25500000920E-02 0.  1.
    10030    2    1    2    0    0  0.00000000000E+00  0.00000000000E+00 -0.32570693567E+03  0.13481095481E+04  0.13081721391E+04 0.  0.
        4    1    3    3  502    0 -0.20871159495E+03 -0.59443063315E+03 -0.34405867065E+03  0.71783444417E+03  0.12699999809E+01 0.  1.
       -4    1    3    3    0  502  0.20871159495E+03  0.59443063315E+03  0.18351734982E+02  0.63027510388E+03  0.12699999809E+01 0. -1.
</event>
<event>
 5   0  0.4388937E-03  0.1356547E+04  0.7818609E-02  0.8985887E-01
        2   -1    0    0  501    0  0.00000000000E+00  0.00000000000E+00  0.32174203081E+03  0.32174203082E+03  0.25500000920E-02 0. -1.
       -2   -1    0    0    0  501  0.00000000000E+00  0.00000000000E+00 -0.14298871958E+04  0.14298871958E+04  0.25500000920E-02 0.  1.
    10030    2    1    2    0    0  0.00000000000E+00  0.00000000000E+00 -0.11081451650E+04  0.17516292266E+04  0.13565468075E+04 0.  0.
        5    1    3    3  502    0 -0.42900438008E+03  0.35658062521E+03 -0.55917422923E+02  0.56066331125E+03  0.46999998093E+01 0. -1.
       -5    1    3    3    0  502  0.42900438008E+03 -0.35658062521E+03 -0.10522277420E+04  0.11909659153E+04  0.46999998093E+01 0.  1.
</event>
<event>
 5   0  0.2511542E-03  0.1302378E+04  0.7818609E-02  0.9027681E-01
        1   -1    0    0  501    0  0.00000000000E+00  0.00000000000E+00  0.17953052529E+04  0.17953052529E+04  0.50400001928E-02 0. -1.
       -1   -1    0    0    0  501  0.00000000000E+00  0.00000000000E+00 -0.23619782835E+03  0.23619782841E+03  0.50400001928E-02 0.  1.
    10030    2    1    2    0    0  0.00000000000E+00  0.00000000000E+00  0.15591074245E+04  0.20315030813E+04  0.13023781356E+04 0.  0.
        4    1    3    3  502    0 -0.24879316888E+03  0.24782695032E+03 -0.75844419131E+02  0.35926345069E+03  0.12699999809E+01 0.  1.
       -4    1    3    3    0  502  0.24879316888E+03 -0.24782695032E+03  0.16349518437E+04  0.16722396306E+04  0.12699999809E+01 0. -1.
</event>
<event>
 5   0  0.4453011E-03  0.1315466E+04  0.7818609E-02  0.9017389E-01
       -2   -1    0    0    0  501  0.00000000000E+00  0.00000000000E+00  0.32869649506E+03  0.32869649507E+03  0.25500000920E-02 0. -1.
        2   -1    0    0  501    0  0.00000000000E+00  0.00000000000E+00 -0.13161473618E+04  0.13161473618E+04  0.25500000920E-02 0.  1.
    10030    2    1    2    0    0  0.00000000000E+00  0.00000000000E+00 -0.98745086671E+03  0.16448438568E+04  0.13154664949E+04 0.  0.
        1    1    3    3  502    0 -0.32420810967E+03 -0.49570631226E+02  0.21915476286E+03  0.39445779998E+03  0.50400001928E-02 0. -1.
       -1    1    3    3    0  502  0.32420810967E+03  0.49570631226E+02 -0.12066056296E+04  0.12503860569E+04  0.50400001928E-02 0.  1.
</event>
<event>
 5   0  0.2356769E-03  0.1260071E+04  0.7818609E-02  0.9061842E-01
       -1   -1    0    0    0  501  0.00000000000E+00  0.00000000000E+00  0.12055358801E+04  0.12055358801E+04  0.50400001928E-02 0. -1.
        1   -1    0    0  501    0  0.00000000000E+00  0.00000000000E+00 -0.32926839411E+03  0.32926839414E+03  0.50400001928E-02 0.  1.
    10030    2    1    2    0    0  0.00000000000E+00  0.00000000000E+00  0.87626748595E+03  0.15348042742E+04  0.12600712096E+04 0.  0.
        1    1    3    3  502    0  0.27359806092E+03 -0.42606830433E+03  0.89478083556E+03  0.10281161620E+04  0.50400001928E-02 0. -1.
       -1    1    3    3    0  502 -0.27359806092E+03  0.42606830433E+03 -0.18513349613E+02  0.50668811219E+03  0.50400001928E-02 0.  1.
</event>
<event>
 5   0  0.4453011E-03  0.1253128E+04  0.7818609E-02  0.9067584E-01
        2   -1    0    0  501    0  0.00000000000E+00  0.00000000000E+00  0.46015808341E+03  0.46015808342E+03  0.25500000920E-02 0.  1.
       -2   -1    0    0    0  501  0.00000000000E+00  0.00000000000E+00 -0.85314638318E+03  0.85314638319E+03  0.25500000920E-02 0. -1.
    10030    2    1    2    0    0  0.00000000000E+00  0.00000000000E+00 -0.39298829977E+03  0.13133044666E+04  0.12531276145E+04 0.  0.
        1    1    3    3  502    0 -0.46464539484E+03  0.41899119045E+03 -0.23177441326E+03  0.66720936691E+03  0.50400001928E-02 0. -1.
       -1    1    3    3    0  502  0.46464539484E+03 -0.41899119045E+03 -0.16121388651E+03  0.64609509970E+03  0.50400001928E-02 0.  1.
</event>
<event>
 5   0  0.2511542E-03  0.1268789E+04  0.7818609E-02  0.9054689E-01
        1   -1    0    0  501    0  0.00000000000E+00  0.00000000000E+00  0.65448694799E+03  0.65448694801E+03  0.50400001928E-02 0.  1.
       -1   -1    0    0    0  501  0.00000000000E+00  0.00000000000E+00 -0.61491847186E+03  0.61491847188E+03  0.50400001928E-02 0. -1.
    10030    2    1    2    0    0  0.00000000000E+00  0.00000000000E+00  0.39568476136E+02  0.12694054199E+04  0.12687885780E+04 0.  0.
        4    1    3    3  502    0  0.20647321239E+03  0.12100776156E+03  0.60759045342E+03  0.65302514330E+03  0.12699999809E+01 0.  1.
       -4    1    3    3    0  502 -0.20647321239E+03 -0.12100776156E+03 -0.56802197729E+03  0.61638027659E+03  0.12699999809E+01 0. -1.
</event>
<event>
 5   0  0.4263540E-03  0.1275145E+04  0.7818609E-02  0.9049511E-01
       -2   -1    0    0    0  501  0.00000000000E+00  0.00000000000E+00  0.28180707460E+03  0.28180707461E+03  0.25500000920E-02 0.  1.
        2   -1    0    0  501    0  0.00000000000E+00  0.00000000000E+00 -0.14424710930E+04  0.14424710930E+04  0.25500000920E-02 0. -1.
    10030    2    1    2    0    0  0.00000000000E+00  0.00000000000E+00 -0.11606640184E+04  0.17242781676E+04  0.12751447901E+04 0.  0.
        2    1    3    3  502    0 -0.43022690395E+03  0.12971259843E+03  0.31281832163E+02  0.45044322629E+03  0.25500000920E-02 0.  1.
       -2    1    3    3    0  502  0.43022690395E+03 -0.12971259843E+03 -0.11919458505E+04  0.12738349413E+04  0.25500000920E-02 0. -1.
</event>
<event>
 5   0  0.4263540E-03  0.1323412E+04  0.7818609E-02  0.9011203E-01
        2   -1    0    0  501    0  0.00000000000E+00  0.00000000000E+00  0.15488639097E+04  0.15488639097E+04  0.25500000920E-02 0. -1.
       -2   -1    0    0    0  501  0.00000000000E+00  0.00000000000E+00 -0.28269413175E+03  0.28269413177E+03  0.25500000920E-02 0.  1.
    10030    2    1    2    0    0  0.00000000000E+00  0.00000000000E+00  0.12661697779E+04  0.18315580414E+04  0.13234118606E+04 0.  0.
        2    1    3    3  502    0 -0.65659483505E+03  0.78955850287E+02  0.60201693229E+03  0.89430150983E+03  0.25500000920E-02 0.  1.
       -2    1    3    3    0  502  0.65659483505E+03 -0.78955850287E+02  0.66415284563E+03  0.93725653162E+03  0.25500000920E-02 0. -1.
</event>
<event>
 5   0  0.2511542E-03  0.1244295E+04  0.7818609E-02  0.9074945E-01
       -1   -1    0    0    0  501  0.00000000000E+00  0.00000000000E+00  0.95273921967E+03  0.95273921968E+03  0.50400001928E-02 0.  1.
        1   -1    0    0  501    0  0.00000000000E+00  0.00000000000E+00 -0.40626831423E+03  0.40626831426E+03  0.50400001928E-02 0. -1.
    10030    2    1    2    0    0  0.00000000000E+00  0.00000000000E+00  0.54647090544E+03  0.13590075339E+04  0.12442953937E+04 0.  0.
        4    1    3    3  502    0 -0.53099993241E+03 -0.25155958061E+03  0.49659572251E+03  0.76931922849E+03  0.12699999809E+01 0.  1.
       -4    1    3    3    0  502  0.53099993241E+03  0.25155958061E+03  0.49875182935E+02  0.58968830545E+03  0.12699999809E+01 0. -1.
</event>
<event>
 5   0  0.2458456E-03  0.1318309E+04  0.7818609E-02  0.9015171E-01
       -1   -1    0    0    0  501  0.00000000000E+00  0.00000000000E+00  0.52552920237E+03  0.52552920240E+03  0.50400001928E-02 0. -1.
        1   -1    0    0  501    0  0.00000000000E+00  0.00000000000E+00 -0.82675639556E+03  0.82675639558E+03  0.50400001928E-02 0.  1.
    10030    2    1    2    0    0  0.00000000000E+00  0.00000000000E+00 -0.30122719319E+03  0.13522855980E+04  0.13183089610E+04 0.  0.
        5    1    3    3  502    0  0.16935576658E+03  0.42309383043E+03 -0.63909347074E+03  0.78495370523E+03  0.46999998093E+01 0.  1.
       -5    1    3    3    0  502 -0.16935576658E+03 -0.42309383043E+03  0.33786627754E+03  0.56733189274E+03  0.46999998093E+01 0. -1.
</event>
<event>
 5   0  0.1661750E-03  0.1270259E+04  0.7818609E-02  0.9053489E-01
        4   -1    0    0  501    0  0.00000000000E+00  0.00000000000E+00  0.13567540408E+04  0.13567546352E+04  0.12699999809E+01 0.  1.
       -4   -1    0    0    0  501  0.00000000000E+00  0.00000000000E+00 -0.29731731305E+03  0.29732002546E+03  0.12699999809E+01 0. -1.
    10030    2    1    2    0    0  0.00000000000E+00  0.00000000000E+00  0.10594367278E+04  0.16540746607E+04  0.12702585575E+04 0.  0.
        5    1    3    3  502    0 -0.43381991553E+03 -0.22885112656E+03  0.10551097095E+04  0.11635510931E+04  0.46999998093E+01 0.  1.
       -5    1    3    3    0  502  0.43381991553E+03  0.22885112656E+03  0.43270182780E+01  0.49052356756E+03  0.46999998093E+01 0. -1.
</event>
<event>
 5   0  0.4306214E-03  0.1299484E+04  0.7818609E-02  0.9029974E-01
       -2   -1    0    0    0  501  0.00000000000E+00  0.00000000000E+00  0.16621202498E+03  0.16621202500E+03  0.25500000920E-02 0. -1.
        2   -1    0    0  501    0  0.00000000000E+00  0.00000000000E+00 -0.25399163968E+04  0.25399163968E+04  0.25500000920E-02 0.  1.
    10030    2    1    2    0    0  0.00000000000E+00  0.00000000000E+00 -0.23737043718E+04  0.27061284218E+04  0.12994839708E+04 0.  0.
        3    1    3    3  502    0  0.21986340403E+03 -0.51140232012E+03 -0.48901736792E+03  0.74095225607E+03  0.10100000352E+00 0. -1.
       -3    1    3    3    0  502 -0.21986340403E+03  0.51140232012E+03 -0.18846870039E+04  0.19651761657E+04  0.10100000352E+00 0.  1.
</event>
<event>
 5   0  0.2462055E-03  0.1269543E+04  0.7818609E-02  0.9054073E-01
       -1   -1    0    0    0  501  0.00000000000E+00  0.00000000000E+00  0.59670042716E+03  0.59670042719E+03  0.50400001928E-02 0. -1.
        1   -1    0    0  501    0  0.00000000000E+00  0.00000000000E+00 -0.67527130275E+03  0.67527130277E+03  0.50400001928E-02 0.  1.
    10030    2    1    2    0    0  0.00000000000E+00  0.00000000000E+00 -0.78570875590E+02  0.12719717300E+04  0.12695427127E+04 0.  0.
        2    1    3    3  502    0  0.48829790323E+03 -0.11500640633E+03 -0.42896835470E+03  0.66005694082E+03  0.25500000920E-02 0.  1.
       -2    1    3    3    0  502 -0.48829790323E+03  0.11500640633E+03  0.35039747911E+03  0.61191478914E+03  0.25500000920E-02 0. -1.
</event>
<event>
 5   0  0.2356769E-03  0.1448602E+04  0.7818609E-02  0.8919370E-01
       -1   -1    0    0    0  501  0.00000000000E+00  0.00000000000E+00  0.33254355475E+03  0.33254355479E+03  0.50400001928E-02 0.  1.
        1   -1    0    0  501    0  0.00000000000E+00  0.00000000000E+00 -0.15775729771E+04  0.15775729771E+04  0.50400001928E-02 0. -1.
    10030    2    1    2    0    0  0.00000000000E+00  0.00000000000E+00 -0.12450294224E+04  0.19101165319E+04  0.14486017061E+04 0.  0.
        1    1    3    3  502    0  0.10043140217E+03 -0.68147143927E+03 -0.91772044769E+03  0.11474757554E+04  0.50400001928E-02 0. -1.
       -1    1    3    3    0  502 -0.10043140217E+03  0.68147143927E+03 -0.32730897468E+03  0.76264077653E+03  0.50400001928E-02 0.  1.
</event>
<event>
 5   0  0.4453011E-03  0.1397624E+04  0.7818609E-02  0.8955540E-01
        2   -1    0    0  501    0  0.00000000000E+00  0.00000000000E+00  0.12628816307E+04  0.12628816307E+04  0.25500000920E-02 0. -1.
       -2   -1    0    0    0  501  0.00000000000E+00  0.00000000000E+00 -0.38668575513E+03  0.38668575514E+03  0.25500000920E-02 0.  1.
    10030    2    1    2    0    0  0.00000000000E+00  0.00000000000E+00  0.87619587552E+03  0.16495673858E+04  0.13976241798E+04 0.  0.
        1    1    3    3  502    0  0.61631605729E+03 -0.20469062311E+03  0.74267638896E+03  0.98656573649E+03  0.50400001928E-02 0. -1.
       -1    1    3    3    0  502 -0.61631605729E+03  0.20469062311E+03  0.13351948656E+03  0.66300164931E+03  0.50400001928E-02 0.  1.
</event>
<event>
 5   0  0.2458456E-03  0.1329567E+04  0.7818609E-02  0.9006441E-01
        1   -1    0    0  501    0  0.00000000000E+00  0.00000000000E+00  0.33169220489E+03  0.33169220493E+03  0.50400001928E-02 0. -1.
       -1   -1    0    0    0  501  0.00000000000E+00  0.00000000000E+00 -0.13323713397E+04  0.13323713397E+04  0.50400001928E-02 0.  1.
    10030    2    1    2    0    0  0.00000000000E+00  0.00000000000E+00 -0.10006791348E+04  0.16640635446E+04  0.13295671287E+04 0.  0.
        5    1    3    3  502    0  0.39005206547E+03  0.19506101931E+03 -0.11282871610E+04  0.12096459907E+04  0.46999998093E+01 0.  1.
       -5    1    3    3    0  502 -0.39005206547E+03 -0.19506101931E+03  0.12760802619E+03  0.45441755399E+03  0.46999998093E+01 0. -1.
</event>
<event>
 5   0  0.2458456E-03  0.1296098E+04  0.7818609E-02  0.9032665E-01
        1   -1    0    0  501    0  0.00000000000E+00  0.00000000000E+00  0.15406830214E+04  0.15406830215E+04  0.50400001928E-02 0.  1.
       -1   -1    0    0    0  501  0.00000000000E+00  0.00000000000E+00 -0.27258536279E+03  0.27258536284E+03  0.50400001928E-02 0. -1.
    10030    2    1    2    0    0  0.00000000000E+00  0.00000000000E+00  0.12680976587E+04  0.18132683843E+04  0.12960982068E+04 0.  0.
        5    1    3    3  502    0  0.53437356183E+03 -0.36390951636E+03  0.69599103077E+03  0.94995307494E+03  0.46999998093E+01 0.  1.
       -5    1    3    3    0  502 -0.53437356183E+03  0.36390951636E+03  0.57210662789E+03  0.86331530935E+03  0.46999998093E+01 0. -1.
</event>
<event>
 5   0  0.4263540E-03  0.1358723E+04  0.7818609E-02  0.8984251E-01
       -2   -1    0    0    0  501  0.00000000000E+00  0.00000000000E+00  0.32957961598E+03  0.32957961599E+03  0.25500000920E-02 0.  1.
        2   -1    0    0  501    0  0.00000000000E+00  0.00000000000E+00 -0.14003655923E+04  0.14003655923E+04  0.25500000920E-02 0. -1.
    10030    2    1    2    0    0  0.00000000000E+00  0.00000000000E+00 -0.10707859763E+04  0.17299452083E+04  0.13587228623E+04 0.  0.
        2    1    3    3  502    0  0.24848875319E+03 -0.53988096963E+03 -0.11636461950E+03  0.60560618104E+03  0.25500000920E-02 0.  1.
       -2    1    3    3    0  502 -0.24848875319E+03  0.53988096963E+03 -0.95442135678E+03  0.11243390272E+04  0.25500000920E-02 0. -1.
</event>
<event>
 5   0  0.4263540E-03  0.1296632E+04  0.7818609E-02  0.9032240E-01
        2   -1    0    0  501    0  0.00000000000E+00  0.00000000000E+00  0.66878916741E+03  0.66878916742E+03  0.25500000920E-02 0. -1.
       -2   -1    0    0    0  501  0.00000000000E+00  0.00000000000E+00 -0.62846996570E+03  0.62846996570E+03  0.25500000920E-02 0.  1.
    10030    2    1    2    0    0  0.00000000000E+00  0.00000000000E+00  0.40319201715E+02  0.12972591331E+04  0.12966324153E+04 0.  0.
        2    1    3    3  502    0 -0.25948409140E+03 -0.58235452750E+03  0.13788174329E+03  0.65228840594E+03  0.25500000920E-02 0.  1.
       -2    1    3    3    0  502  0.25948409140E+03  0.58235452750E+03 -0.97562541572E+02  0.64497072717E+03  0.25500000920E-02 0. -1.
</event>
<event>
 5   0  0.2370801E-03  0.1361892E+04  0.7818609E-02  0.8981875E-01
        1   -1    0    0  501    0  0.00000000000E+00  0.00000000000E+00  0.94460817755E+03  0.94460817756E+03  0.50400001928E-02 0. -1.
       -1   -1    0    0    0  501  0.00000000000E+00  0.00000000000E+00 -0.49087800531E+03  0.49087800534E+03  0.50400001928E-02 0.  1.
    10030    2    1    2    0    0  0.00000000000E+00  0.00000000000E+00  0.45373017224E+03  0.14354861829E+04  0.13618918871E+04 0.  0.
        3    1    3    3  502    0  0.18413348710E+03 -0.52324168604E+03 -0.18944716440E+03  0.58615462242E+03  0.10100000352E+00 0.  1.
       -3    1    3    3    0  502 -0.18413348710E+03  0.52324168604E+03  0.64317733663E+03  0.84933156049E+03  0.10100000352E+00 0. -1.
</event>
<event>
 5   0  0.4388937E-03  0.1330683E+04  0.7818609E-02  0.9005581E-01
       -2   -1    0    0    0  501  0.00000000000E+00  0.00000000000E+00  0.29634232954E+03  0.29634232955E+03  0.25500000920E-02 0. -1.
        2   -1    0    0  501    0  0.00000000000E+00  0.00000000000E+00 -0.14938105939E+04  0.14938105939E+04  0.25500000920E-02 0.  1.
    10030    2    1    2    0    0  0.00000000000E+00  0.00000000000E+00 -0.11974682644E+04  0.17901529235E+04  0.13306829995E+04 0.  0.
        5    1    3    3  502    0 -0.55043531760E+01 -0.66263230875E+03 -0.51863185087E+03  0.84149448081E+03  0.46999998093E+01 0.  1.
       -5    1    3    3    0  502  0.55043531760E+01  0.66263230875E+03 -0.67883641349E+03  0.94865844264E+03  0.46999998093E+01 0. -1.
</event>
<event>
 5   0  0.2511542E-03  0.1223845E+04  0.7818609E-02  0.9092238E-01
       -1   -1    0    0    0  501  0.00000000000E+00  0.00000000000E+00  0.19552567591E+03  0.19552567597E+03  0.50400001928E-02 0.  1.
        1   -1    0    0  501    0  0.00000000000E+00  0.00000000000E+00 -0.19150879212E+04  0.19150879212E+04  0.50400001928E-02 0. -1.
    10030    2    1    2    0    0  0.00000000000E+00  0.00000000000E+00 -0.17195622453E+04  0.21106135972E+04  0.12238445331E+04 0.  0.
        4    1    3    3  502    0  0.27142088911E+03 -0.49259909122E+02 -0.18017716305E+04  0.18227667045E+04  0.12699999809E+01 0. -1.
       -4    1    3    3    0  502 -0.27142088911E+03  0.49259909122E+02  0.82209385225E+02  0.28784689266E+03  0.12699999809E+01 0.  1.
</event>
<event>
 5   0  0.4263540E-03  0.1339105E+04  0.7818609E-02  0.8999116E-01
        2   -1    0    0  501    0  0.00000000000E+00  0.00000000000E+00  0.10573553660E+04  0.10573553660E+04  0.25500000920E-02 0.  1.
       -2   -1    0    0    0  501  0.00000000000E+00  0.00000000000E+00 -0.42398306173E+03  0.42398306174E+03  0.25500000920E-02 0. -1.
    10030    2    1    2    0    0  0.00000000000E+00  0.00000000000E+00  0.63337230431E+03  0.14813384278E+04  0.13391053214E+04 0.  0.
        2    1    3    3  502    0 -0.54300560192E+03  0.13940309576E+03 -0.88273859881E+02  0.56752143675E+03  0.25500000920E-02 0. -1.
       -2    1    3    3    0  502  0.54300560192E+03 -0.13940309576E+03  0.72164616419E+03  0.91381699104E+03  0.25500000920E-02 0.  1.
</event>
<event>
 5   0  0.2370801E-03  0.1194867E+04  0.7818609E-02  0.9117361E-01
       -1   -1    0    0    0  501  0.00000000000E+00  0.00000000000E+00  0.39146435632E+03  0.39146435635E+03  0.50400001928E-02 0.  1.
        1   -1    0    0  501    0  0.00000000000E+00  0.00000000000E+00 -0.91177385600E+03  0.91177385601E+03  0.50400001928E-02 0. -1.
    10030    2    1    2    0    0  0.00000000000E+00  0.00000000000E+00 -0.52030949968E+03  0.13032382124E+04  0.11948672992E+04 0.  0.
        3    1    3    3  502    0  0.10750314303E+03 -0.35196773874E+03  0.25315552400E+03  0.44668327080E+03  0.10100000352E+00 0.  1.
       -3    1    3    3    0  502 -0.10750314303E+03  0.35196773874E+03 -0.77346502368E+03  0.85655494157E+03  0.10100000352E+00 0. -1.
</event>
<event>
 5   0  0.2458456E-03  0.1268799E+04  0.7818609E-02  0.9054680E-01
        1   -1    0    0  501    0  0.00000000000E+00  0.00000000000E+00  0.55478694752E+03  0.55478694754E+03  0.50400001928E-02 0.  1.
       -1   -1    0    0    0  501  0.00000000000E+00  0.00000000000E+00 -0.72543676011E+03  0.72543676013E+03  0.50400001928E-02 0. -1.
    10030    2    1    2    0    0  0.00000000000E+00  0.00000000000E+00 -0.17064981260E+03  0.12802237077E+04  0.12687991894E+04 0.  0.
        5    1    3    3  502    0  0.45629971755E+03  0.43910385688E+03 -0.12333540060E+03  0.64517853374E+03  0.46999998093E+01 0. -1.
       -5    1    3    3    0  502 -0.45629971755E+03 -0.43910385688E+03 -0.47314411992E+02  0.63504517393E+03  0.46999998093E+01 0.  1.
</event>
<event>
 5   0  0.2462055E-03  0.1308661E+04  0.7818609E-02  0.9022725E-01
        1   -1    0    0  501    0  0.00000000000E+00  0.00000000000E+00  0.32318874846E+03  0.32318874850E+03  0.50400001928E-02 0.  1.
       -1   -1    0    0    0  501  0.00000000000E+00  0.00000000000E+00 -0.13247630121E+04  0.13247630121E+04  0.50400001928E-02 0. -1.
    10030    2    1    2    0    0  0.00000000000E+00  0.00000000000E+00 -0.10015742636E+04  0.16479517606E+04  0.13086611478E+04 0.  0.
        2    1    3    3  502    0 -0.87738654214E+02 -0.64283663267E+03 -0.39384967444E+03  0.75898259124E+03  0.25500000920E-02 0. -1.
       -2    1    3    3    0  502  0.87738654214E+02  0.64283663267E+03 -0.60772458916E+03  0.88896916933E+03  0.25500000920E-02 0.  1.
</event>
<event>
 5   0  0.2458456E-03  0.1350817E+04  0.7818609E-02  0.8990210E-01
        1   -1    0    0  501    0  0.00000000000E+00  0.00000000000E+00  0.12145572684E+04  0.12145572684E+04  0.50400001928E-02 0. -1.
       -1   -1    0    0    0  501  0.00000000000E+00  0.00000000000E+00 -0.37559079613E+03  0.37559079616E+03  0.50400001928E-02 0.  1.
    10030    2    1    2    0    0  0.00000000000E+00  0.00000000000E+00  0.83896647229E+03  0.15901480646E+04  0.13508168365E+04 0.  0.
        5    1    3    3  502    0  0.15502861044E+03  0.24738377812E+03  0.11364223940E+04  0.11733330948E+04  0.46999998093E+01 0. -1.
       -5    1    3    3    0  502 -0.15502861044E+03 -0.24738377812E+03 -0.29745592169E+03  0.41681496983E+03  0.46999998093E+01 0.  1.
</event>
<event>
 5   0  0.4263540E-03  0.1289356E+04  0.7818609E-02  0.9038048E-01
        2   -1    0    0  501    0  0.00000000000E+00  0.00000000000E+00  0.49307610533E+03  0.49307610534E+03  0.25500000920E-02 0.  1.
       -2   -1    0    0    0  501  0.00000000000E+00  0.00000000000E+00 -0.84289226730E+03  0.84289226731E+03  0.25500000920E-02 0. -1.
    10030    2    1    2    0    0  0.00000000000E+00  0.00000000000E+00 -0.34981616197E+03  0.13359683726E+04  0.12893564850E+04 0.  0.
        2    1    3    3  502    0  0.29243957227E+02  0.57183400056E+03  0.13204586095E+03  0.58760994089E+03  0.25500000920E-02 0.  1.
       -2    1    3    3    0  502 -0.29243957227E+02 -0.57183400056E+03 -0.48186202293E+03  0.74835843175E+03  0.25500000920E-02 0. -1.
</event>
<event>
 5   0  0.4263540E-03  0.1223311E+04  0.7818609E-02  0.9092693E-01
       -2   -1    0    0    0  501  0.00000000000E+00  0.00000000000E+00  0.46733752623E+03  0.46733752623E+03  0.25500000920E-02 0. -1.
        2   -1    0    0  501    0  0.00000000000E+00  0.00000000000E+00 -0.80054060024E+03  0.80054060024E+03  0.25500000920E-02 0.  1.
    10030    2    1    2    0    0  0.00000000000E+00  0.00000000000E+00 -0.33320307401E+03  0.12678781265E+04  0.12233113484E+04 0.  0.
        2    1    3    3  502    0 -0.13651462372E+03  0.52096201353E+03 -0.46713980107E+03  0.71292163368E+03  0.25500000920E-02 0.  1.
       -2    1    3    3    0  502  0.13651462372E+03 -0.52096201353E+03  0.13393672706E+03  0.55495649279E+03  0.25500000920E-02 0. -1.
</event>
<event>
 5   0  0.2511542E-03  0.1288183E+04  0.7818609E-02  0.9038989E-01
       -1   -1    0    0    0  501  0.00000000000E+00  0.00000000000E+00  0.24325471107E+03  0.24325471113E+03  0.50400001928E-02 0. -1.
        1   -1    0    0  501    0  0.00000000000E+00  0.00000000000E+00 -0.17054311954E+04  0.17054311954E+04  0.50400001928E-02 0.  1.
    10030    2    1    2    0    0  0.00000000000E+00  0.00000000000E+00 -0.14621764843E+04  0.19486859065E+04  0.12881834850E+04 0.  0.
        4    1    3    3  502    0 -0.54576744317E+03  0.32569319241E+03 -0.88912717723E+03  0.10929258473E+04  0.12699999809E+01 0. -1.
       -4    1    3    3    0  502  0.54576744317E+03 -0.32569319241E+03 -0.57304930705E+03  0.85576005915E+03  0.12699999809E+01 0.  1.
</event>
<event>
 5   0  0.4310889E-03  0.1313111E+04  0.7818609E-02  0.9019232E-01
       -2   -1    0    0    0  501  0.00000000000E+00  0.00000000000E+00  0.92306091599E+03  0.92306091599E+03  0.25500000920E-02 0.  1.
        2   -1    0    0  501    0  0.00000000000E+00  0.00000000000E+00 -0.46699522274E+03  0.46699522275E+03  0.25500000920E-02 0. -1.
    10030    2    1    2    0    0  0.00000000000E+00  0.00000000000E+00  0.45606569325E+03  0.13900561387E+04  0.13131108682E+04 0.  0.
        4    1    3    3  502    0  0.14017631027E+03  0.40106028393E+03 -0.30186342841E+03  0.52117357149E+03  0.12699999809E+01 0. -1.
       -4    1    3    3    0  502 -0.14017631027E+03 -0.40106028393E+03  0.75792912166E+03  0.86888256725E+03  0.12699999809E+01 0.  1.
</event>
<event>
 5   0  0.2458456E-03  0.1256351E+04  0.7818609E-02  0.9064914E-01
       -1   -1    0    0    0  501  0.00000000000E+00  0.00000000000E+00  0.33298645484E+03  0.33298645487E+03  0.50400001928E-02 0. -1.
        1   -1    0    0  501    0  0.00000000000E+00  0.00000000000E+00 -0.11850460430E+04  0.11850460430E+04  0.50400001928E-02 0.  1.
    10030    2    1    2    0    0  0.00000000000E+00  0.00000000000E+00 -0.85205958812E+03  0.15180324978E+04  0.12563507165E+04 0.  0.
        5    1    3    3  502    0  0.31275239643E+03  0.26319275237E+03 -0.10023431528E+04  0.10824963614E+04  0.46999998093E+01 0.  1.
       -5    1    3    3    0  502 -0.31275239643E+03 -0.26319275237E+03  0.15028356469E+03  0.43553613649E+03  0.46999998093E+01 0. -1.
</event>
<event>
 5   0  0.2458456E-03  0.1292793E+04  0.7818609E-02  0.9035300E-01
       -1   -1    0    0    0  501  0.00000000000E+00  0.00000000000E+00  0.86673843025E+03  0.86673843026E+03  0.50400001928E-02 0. -1.
        1   -1    0    0  501    0  0.00000000000E+00  0.00000000000E+00 -0.48207008505E+03  0.48207008508E+03  0.50400001928E-02 0.  1.
    10030    2    1    2    0    0  0.00000000000E+00  0.00000000000E+00  0.38466834519E+03  0.13488085153E+04  0.12927933614E+04 0.  0.
        5    1    3    3  502    0  0.40946560416E+03  0.13748926845E+03  0.69404536776E+03  0.81748788519E+03  0.46999998093E+01 0. -1.
       -5    1    3    3    0  502 -0.40946560416E+03 -0.13748926845E+03 -0.30937702256E+03  0.53132063015E+03  0.46999998093E+01 0.  1.
</event>
<event>
 5   0  0.2370801E-03  0.8519443E+03  0.7818609E-02  0.9487731E-01
       -1   -1    0    0    0  501  0.00000000000E+00  0.00000000000E+00  0.13256975341E+03  0.13256975350E+03  0.50400001928E-02 0. -1.
        1   -1    0    0  501    0  0.00000000000E+00  0.00000000000E+00 -0.13687305333E+04  0.13687305333E+04  0.50400001928E-02 0.  1.
    10030    2    1    2    0    0  0.00000000000E+00  0.00000000000E+00 -0.12361607798E+04  0.15013002868E+04  0.85194429244E+03 0.  0.
        3    1    3    3  502    0 -0.25591594991E+03  0.11529653155E+03 -0.53442937875E+02  0.28573137982E+03  0.10100000352E+00 0. -1.
       -3    1    3    3    0  502  0.25591594991E+03 -0.11529653155E+03 -0.11827178420E+04  0.12155689069E+04  0.10100000352E+00 0.  1.
</event>
<event>
 5   0  0.4263540E-03  0.1270359E+04  0.7818609E-02  0.9053406E-01
       -2   -1    0    0    0  501  0.00000000000E+00  0.00000000000E+00  0.10454214176E+04  0.10454214176E+04  0.25500000920E-02 0. -1.
        2   -1    0    0  501    0  0.00000000000E+00  0.00000000000E+00 -0.38592402972E+03  0.38592402973E+03  0.25500000920E-02 0.  1.
    10030    2    1    2    0    0  0.00000000000E+00  0.00000000000E+00  0.65949738790E+03  0.14313454474E+04  0.12703593921E+04 0.  0.
        2    1    3    3  502    0  0.98138968102E+02 -0.59246841894E+03  0.96641442658E+02  0.60826774774E+03  0.25500000920E-02 0.  1.
       -2    1    3    3    0  502 -0.98138968102E+02  0.59246841894E+03  0.56285594524E+03  0.82307769961E+03  0.25500000920E-02 0. -1.
</event>
<event>
 5   0  0.2356769E-03  0.1166193E+04  0.7818609E-02  0.9142974E-01
        1   -1    0    0  501    0  0.00000000000E+00  0.00000000000E+00  0.75000548237E+03  0.75000548238E+03  0.50400001928E-02 0.  1.
       -1   -1    0    0    0  501  0.00000000000E+00  0.00000000000E+00 -0.45333175909E+03  0.45333175912E+03  0.50400001928E-02 0. -1.
    10030    2    1    2    0    0  0.00000000000E+00  0.00000000000E+00  0.29667372328E+03  0.12033372415E+04  0.11661926165E+04 0.  0.
        1    1    3    3  502    0 -0.45559250692E+03 -0.36079745500E+03  0.19741186878E+03  0.61376769372E+03  0.50400001928E-02 0.  1.
       -1    1    3    3    0  502  0.45559250692E+03  0.36079745500E+03  0.99261854492E+02  0.58956954778E+03  0.50400001928E-02 0. -1.
</event>
<event>
 5   0  0.4263540E-03  0.1273505E+04  0.7818609E-02  0.9050844E-01
        2   -1    0    0  501    0  0.00000000000E+00  0.00000000000E+00  0.64430188453E+03  0.64430188453E+03  0.25500000920E-02 0. -1.
       -2   -1    0    0    0  501  0.00000000000E+00  0.00000000000E+00 -0.62929191782E+03  0.62929191782E+03  0.25500000920E-02 0.  1.
    10030    2    1    2    0    0  0.00000000000E+00  0.00000000000E+00  0.15009966708E+02  0.12735938024E+04  0.12735053491E+04 0.  0.
        2    1    3    3  502    0 -0.25842896598E+03  0.41833643240E+03 -0.39707603838E+03  0.63202870298E+03  0.25500000920E-02 0.  1.
       -2    1    3    3    0  502  0.25842896598E+03 -0.41833643240E+03  0.41208600509E+03  0.64156509937E+03  0.25500000920E-02 0. -1.
</event>
<event>
 5   0  0.4263540E-03  0.1236412E+04  0.7818609E-02  0.9081569E-01
        2   -1    0    0  501    0  0.00000000000E+00  0.00000000000E+00  0.88183593149E+03  0.88183593150E+03  0.25500000920E-02 0.  1.
       -2   -1    0    0    0  501  0.00000000000E+00  0.00000000000E+00 -0.43338986734E+03  0.43338986734E+03  0.25500000920E-02 0. -1.
    10030    2    1    2    0    0  0.00000000000E+00  0.00000000000E+00  0.44844606416E+03  0.13152257988E+04  0.12364121600E+04 0.  0.
        2    1    3    3  502    0 -0.55874020851E+02 -0.25378655806E+03 -0.37246920948E+03  0.45416168407E+03  0.25500000920E-02 0. -1.
       -2    1    3    3    0  502  0.55874020851E+02  0.25378655806E+03  0.82091527364E+03  0.86106411478E+03  0.25500000920E-02 0.  1.
</event>
<event>
 5   0  0.2370801E-03  0.1315342E+04  0.7818609E-02  0.9017487E-01
        1   -1    0    0  501    0  0.00000000000E+00  0.00000000000E+00  0.64337653456E+03  0.64337653458E+03  0.50400001928E-02 0. -1.
       -1   -1    0    0    0  501  0.00000000000E+00  0.00000000000E+00 -0.67228294914E+03  0.67228294916E+03  0.50400001928E-02 0.  1.
    10030    2    1    2    0    0  0.00000000000E+00  0.00000000000E+00 -0.28906414580E+02  0.13156594837E+04  0.13153418933E+04 0.  0.
        3    1    3    3  502    0  0.24894766683E+03 -0.11570958075E+03 -0.61223235845E+03  0.67096357489E+03  0.10100000352E+00 0.  1.
       -3    1    3    3    0  502 -0.24894766683E+03  0.11570958075E+03  0.58332594387E+03  0.64469590885E+03  0.10100000352E+00 0. -1.
</event>
<event>
 5   0  0.2356769E-03  0.1292658E+04  0.7818609E-02  0.9035408E-01
       -1   -1    0    0    0  501  0.00000000000E+00  0.00000000000E+00  0.31196553769E+03  0.31196553773E+03  0.50400001928E-02 0.  1.
        1   -1    0    0  501    0  0.00000000000E+00  0.00000000000E+00 -0.13390620937E+04  0.13390620937E+04  0.50400001928E-02 0. -1.
    10030    2    1    2    0    0  0.00000000000E+00  0.00000000000E+00 -0.10270965560E+04  0.16510276314E+04  0.12926580771E+04 0.  0.
        1    1    3    3  502    0  0.40262327068E+03 -0.49507049871E+03 -0.38241584250E+03  0.74393694182E+03  0.50400001928E-02 0.  1.
       -1    1    3    3    0  502 -0.40262327068E+03  0.49507049871E+03 -0.64468071351E+03  0.90709068961E+03  0.50400001928E-02 0. -1.
</event>
<event>
 5   0  0.2370801E-03  0.1314998E+04  0.7818609E-02  0.9017756E-01
       -1   -1    0    0    0  501  0.00000000000E+00  0.00000000000E+00  0.24945099796E+03  0.24945099801E+03  0.50400001928E-02 0. -1.
        1   -1    0    0  501    0  0.00000000000E+00  0.00000000000E+00 -0.17330251465E+04  0.17330251465E+04  0.50400001928E-02 0.  1.
    10030    2    1    2    0    0  0.00000000000E+00  0.00000000000E+00 -0.14835741485E+04  0.19824761445E+04  0.13149978743E+04 0.  0.
        3    1    3    3  502    0 -0.15358373129E+03  0.54800825063E+03 -0.12381567553E+04  0.13626933500E+04  0.10100000352E+00 0.  1.
       -3    1    3    3    0  502  0.15358373129E+03 -0.54800825063E+03 -0.24541739327E+03  0.61978279453E+03  0.10100000352E+00 0. -1.
</event>
<event>
 5   0  0.2458456E-03  0.1283783E+04  0.7818609E-02  0.9042525E-01
       -1   -1    0    0    0  501  0.00000000000E+00  0.00000000000E+00  0.35521616039E+03  0.35521616043E+03  0.50400001928E-02 0. -1.
        1   -1    0    0  501    0  0.00000000000E+00  0.00000000000E+00 -0.11599271540E+04  0.11599271540E+04  0.50400001928E-02 0.  1.
    10030    2    1    2    0    0  0.00000000000E+00  0.00000000000E+00 -0.80471099363E+03  0.15151433145E+04  0.12837832683E+04 0.  0.
        5    1    3    3  502    0 -0.21460226906E+03 -0.10064681612E+03 -0.11063617025E+04  0.11314778930E+04  0.46999998093E+01 0.  1.
       -5    1    3    3    0  502  0.21460226906E+03  0.10064681612E+03  0.30165070889E+03  0.38366542149E+03  0.46999998093E+01 0. -1.
</event>
<event>
 5   0  0.2511542E-03  0.1288294E+04  0.7818609E-02  0.9038900E-01
        1   -1    0    0  501    0  0.00000000000E+00  0.00000000000E+00  0.71538697003E+03  0.71538697004E+03  0.50400001928E-02 0. -1.
       -1   -1    0    0    0  501  0.00000000000E+00  0.00000000000E+00 -0.58000171198E+03  0.58000171200E+03  0.50400001928E-02 0.  1.
    10030    2    1    2    0    0  0.00000000000E+00  0.00000000000E+00  0.13538525805E+03  0.12953886820E+04  0.12882944809E+04 0.  0.
        4    1    3    3  502    0 -0.42385420843E+03 -0.48502074682E+03  0.72872659125E+02  0.64823572271E+03  0.12699999809E+01 0.  1.
       -4    1    3    3    0  502  0.42385420843E+03  0.48502074682E+03  0.62512598925E+02  0.64715295933E+03  0.12699999809E+01 0. -1.
</event>
<event>
 5   0  0.2511542E-03  0.1280587E+04  0.7818609E-02  0.9045103E-01
        1   -1    0    0  501    0  0.00000000000E+00  0.00000000000E+00  0.27131977729E+03  0.27131977733E+03  0.50400001928E-02 0.  1.
       -1   -1    0    0    0  501  0.00000000000E+00  0.00000000000E+00 -0.15110434207E+04  0.15110434207E+04  0.50400001928E-02 0. -1.
    10030    2    1    2    0    0  0.00000000000E+00  0.00000000000E+00 -0.12397236434E+04  0.17823631980E+04  0.12805873097E+04 0.  0.
        4    1    3    3  502    0  0.10111424358E+03  0.50757657555E+03 -0.95164400230E+02  0.52622803638E+03  0.12699999809E+01 0.  1.
       -4    1    3    3    0  502 -0.10111424358E+03 -0.50757657555E+03 -0.11445592432E+04  0.12561351616E+04  0.12699999809E+01 0. -1.
</event>
<event>
 5   0  0.4453011E-03  0.1407280E+04  0.7818609E-02  0.8948566E-01
        2   -1    0    0  501    0  0.00000000000E+00  0.00000000000E+00  0.84081885583E+03  0.84081885584E+03  0.25500000920E-02 0. -1.
       -2   -1    0    0    0  501  0.00000000000E+00  0.00000000000E+00 -0.58884164686E+03  0.58884164687E+03  0.25500000920E-02 0.  1.
    10030    2    1    2    0    0  0.00000000000E+00  0.00000000000E+00  0.25197720897E+03  0.14296605027E+04  0.14072798724E+04 0.  0.
        1    1    3    3  502    0 -0.12023591729E+03 -0.16016622389E+03 -0.55927519558E+03  0.59405272451E+03  0.50400001928E-02 0.  1.
       -1    1    3    3    0  502  0.12023591729E+03  0.16016622389E+03  0.81125240455E+03  0.83560777820E+03  0.50400001928E-02 0. -1.
</event>
<event>
 5   0  0.4306214E-03  0.1351928E+04  0.7818609E-02  0.8989370E-01
        2   -1    0    0  501    0  0.00000000000E+00  0.00000000000E+00  0.19572735303E+04  0.19572735303E+04  0.25500000920E-02 0.  1.
       -2   -1    0    0    0  501  0.00000000000E+00  0.00000000000E+00 -0.23345079413E+03  0.23345079414E+03  0.25500000920E-02 0. -1.
    10030    2    1    2    0    0  0.00000000000E+00  0.00000000000E+00  0.17238227361E+04  0.21907243244E+04  0.13519276016E+04 0.  0.
        3    1    3    3  502    0  0.51048147695E+03  0.95551914892E+02  0.16078928306E+03  0.54366783103E+03  0.10100000352E+00 0. -1.
       -3    1    3    3    0  502 -0.51048147695E+03 -0.95551914892E+02  0.15630334531E+04  0.16470564934E+04  0.10100000352E+00 0.  1.
</event>
<event>
 5   0  0.2458456E-03  0.1243775E+04  0.7818609E-02  0.9075380E-01
       -1   -1    0    0    0  501  0.00000000000E+00  0.00000000000E+00  0.13872154013E+04  0.13872154013E+04  0.50400001928E-02 0.  1.
        1   -1    0    0  501    0  0.00000000000E+00  0.00000000000E+00 -0.27879169977E+03  0.27879169982E+03  0.50400001928E-02 0. -1.
    10030    2    1    2    0    0  0.00000000000E+00  0.00000000000E+00  0.11084237015E+04  0.16660071011E+04  0.12437751239E+04 0.  0.
        5    1    3    3  502    0  0.48759598141E+03  0.30526036418E+03  0.23783360160E+03  0.62251156059E+03  0.46999998093E+01 0. -1.
       -5    1    3    3    0  502 -0.48759598141E+03 -0.30526036418E+03  0.87059009995E+03  0.10434955406E+04  0.46999998093E+01 0.  1.
</event>
<event>
 5   0  0.4263540E-03  0.6642028E+03  0.7818609E-02  0.9780488E-01
        2   -1    0    0  501    0  0.00000000000E+00  0.00000000000E+00  0.14319069845E+04  0.14319069845E+04  0.25500000920E-02 0.  1.
       -2   -1    0    0    0  501  0.00000000000E+00  0.00000000000E+00 -0.77024103377E+02  0.77024103419E+02  0.25500000920E-02 0. -1.
    10030    2    1    2    0    0  0.00000000000E+00  0.00000000000E+00  0.13548828811E+04  0.15089310879E+04  0.66420283538E+03 0.  0.
        2    1    3    3  502    0  0.96966358196E+02  0.26368264802E+03  0.10797497932E+04  0.11157018551E+04  0.25500000920E-02 0.  1.
       -2    1    3    3    0  502 -0.96966358196E+02 -0.26368264802E+03  0.27513308793E+03  0.39322923285E+03  0.25500000920E-02 0. -1.
</event>
<event>
 5   0  0.4310889E-03  0.1313677E+04  0.7818609E-02  0.9018789E-01
       -2   -1    0    0    0  501  0.00000000000E+00  0.00000000000E+00  0.19678536861E+03  0.19678536862E+03  0.25500000920E-02 0. -1.
        2   -1    0    0  501    0  0.00000000000E+00  0.00000000000E+00 -0.21924220679E+04  0.21924220679E+04  0.25500000920E-02 0.  1.
    10030    2    1    2    0    0  0.00000000000E+00  0.00000000000E+00 -0.19956366993E+04  0.23892074365E+04  0.13136766494E+04 0.  0.
        4    1    3    3  502    0 -0.42559285055E+03 -0.23201489810E+03 -0.19166291146E+03  0.52124511692E+03  0.12699999809E+01 0. -1.
       -4    1    3    3    0  502  0.42559285055E+03  0.23201489810E+03 -0.18039737878E+04  0.18679623196E+04  0.12699999809E+01 0.  1.
</event>
<event>
 5   0  0.2511542E-03  0.1302519E+04  0.7818609E-02  0.9027570E-01
        1   -1    0    0  501    0  0.00000000000E+00  0.00000000000E+00  0.57926198823E+03  0.57926198826E+03  0.50400001928E-02 0.  1.
       -1   -1    0    0    0  501  0.00000000000E+00  0.00000000000E+00 -0.73220549931E+03  0.73220549933E+03  0.50400001928E-02 0. -1.
    10030    2    1    2    0    0  0.00000000000E+00  0.00000000000E+00 -0.15294351108E+03  0.13114674876E+04  0.13025188112E+04 0.  0.
        4    1    3    3  502    0  0.88718926916E+02 -0.54740799161E+03 -0.42030084707E+03  0.69583113772E+03  0.12699999809E+01 0. -1.
       -4    1    3    3    0  502 -0.88718926916E+02  0.54740799161E+03  0.26735733599E+03  0.61563634987E+03  0.12699999809E+01 0.  1.
</event>
<event>
 5   0  0.4388937E-03  0.1299231E+04  0.7818609E-02  0.9030175E-01
        2   -1    0    0  501    0  0.00000000000E+00  0.00000000000E+00  0.55169319051E+03  0.55169319052E+03  0.25500000920E-02 0.  1.
       -2   -1    0    0    0  501  0.00000000000E+00  0.00000000000E+00 -0.76491880101E+03  0.76491880102E+03  0.25500000920E-02 0. -1.
    10030    2    1    2    0    0  0.00000000000E+00  0.00000000000E+00 -0.21322561050E+03  0.13166119915E+04  0.12992313017E+04 0.  0.
        5    1    3    3  502    0  0.48128274967E+02  0.57100022283E+03 -0.41668123355E+03  0.70852164802E+03  0.46999998093E+01 0. -1.
       -5    1    3    3    0  502 -0.48128274967E+02 -0.57100022283E+03  0.20345562305E+03  0.60809034351E+03  0.46999998093E+01 0.  1.
</event>
<event>
 5   0  0.4453011E-03  0.1303062E+04  0.7818609E-02  0.9027141E-01
        2   -1    0    0  501    0  0.00000000000E+00  0.00000000000E+00  0.13645268037E+04  0.13645268037E+04  0.25500000920E-02 0. -1.
       -2   -1    0    0    0  501  0.00000000000E+00  0.00000000000E+00 -0.31109133284E+03  0.31109133285E+03  0.25500000920E-02 0.  1.
    10030    2    1    2    0    0  0.00000000000E+00  0.00000000000E+00  0.10534354709E+04  0.16756181366E+04  0.13030617208E+04 0.  0.
        1    1    3    3  502    0  0.42323085131E+03 -0.48992086764E+03  0.43269986563E+03  0.77870147284E+03  0.50400001928E-02 0. -1.
       -1    1    3    3    0  502 -0.42323085131E+03  0.48992086764E+03  0.62073560527E+03  0.89691666376E+03  0.50400001928E-02 0.  1.
</event>
<event>
 5   0  0.2511542E-03  0.1029911E+04  0.7818609E-02  0.9276334E-01
       -1   -1    0    0    0  501  0.00000000000E+00  0.00000000000E+00  0.19100644663E+03  0.19100644669E+03  0.50400001928E-02 0.  1.
        1   -1    0    0  501    0  0.00000000000E+00  0.00000000000E+00 -0.13883252459E+04  0.13883252459E+04  0.50400001928E-02 0. -1.
    10030    2    1    2    0    0  0.00000000000E+00  0.00000000000E+00 -0.11973187992E+04  0.15793316926E+04  0.10299108156E+04 0.  0.
        4    1    3    3  502    0 -0.12513660076E+03  0.79201715422E+02 -0.13549627608E+04  0.13630325662E+04  0.12699999809E+01 0. -1.
       -4    1    3    3    0  502  0.12513660076E+03 -0.79201715422E+02  0.15764396150E+03  0.21629912639E+03  0.12699999809E+01 0.  1.
</event>
<event>
 5   0  0.1661750E-03  0.1341731E+04  0.7818609E-02  0.8997111E-01
       -3   -1    0    0    0  501  0.00000000000E+00  0.00000000000E+00  0.85328555109E+03  0.85328555707E+03  0.10100000352E+00 0.  1.
        3   -1    0    0  501    0  0.00000000000E+00  0.00000000000E+00 -0.52744417707E+03  0.52744418674E+03  0.10100000352E+00 0. -1.
    10030    2    1    2    0    0  0.00000000000E+00  0.00000000000E+00  0.32584137403E+03  0.13807297438E+04  0.13417309806E+04 0.  0.
        5    1    3    3  502    0  0.17424641265E+03  0.14955822698E+03 -0.48572480145E+03  0.53728963168E+03  0.46999998093E+01 0. -1.
       -5    1    3    3    0  502 -0.17424641265E+03 -0.14955822698E+03  0.81156617547E+03  0.84344011213E+03  0.46999998093E+01 0.  1.
</event>
<event>
 5   0  0.2356769E-03  0.1269481E+04  0.7818609E-02  0.9054124E-01
        1   -1    0    0  501    0  0.00000000000E+00  0.00000000000E+00  0.55650733537E+03  0.55650733539E+03  0.50400001928E-02 0. -1.
       -1   -1    0    0    0  501  0.00000000000E+00  0.00000000000E+00 -0.72397132668E+03  0.72397132669E+03  0.50400001928E-02 0.  1.
    10030    2    1    2    0    0  0.00000000000E+00  0.00000000000E+00 -0.16746399131E+03  0.12804786621E+04  0.12694807662E+04 0.  0.
        1    1    3    3  502    0  0.25846700303E+03  0.25126224407E+03 -0.61071146303E+03  0.70915893709E+03  0.50400001928E-02 0.  1.
       -1    1    3    3    0  502 -0.25846700303E+03 -0.25126224407E+03  0.44324747172E+03  0.57131972499E+03  0.50400001928E-02 0. -1.
</event>
<event>
 5   0  0.4310889E-03  0.1290498E+04  0.7818609E-02  0.9037134E-01
       -2   -1    0    0    0  501  0.00000000000E+00  0.00000000000E+00  0.20651001834E+03  0.20651001835E+03  0.25500000920E-02 0. -1.
        2   -1    0    0  501    0  0.00000000000E+00  0.00000000000E+00 -0.20161083065E+04  0.20161083065E+04  0.25500000920E-02 0.  1.
    10030    2    1    2    0    0  0.00000000000E+00  0.00000000000E+00 -0.18095982882E+04  0.22226183249E+04  0.12904984516E+04 0.  0.
        4    1    3    3  502    0  0.23791346415E+03  0.23380708072E+03  0.46488152572E+02  0.33679567789E+03  0.12699999809E+01 0. -1.
       -4    1    3    3    0  502 -0.23791346415E+03 -0.23380708072E+03 -0.18560864408E+04  0.18858226470E+04  0.12699999809E+01 0.  1.
</event>
<event>
 5   0  0.4306214E-03  0.1300104E+04  0.7818609E-02  0.9029483E-01
       -2   -1    0    0    0  501  0.00000000000E+00  0.00000000000E+00  0.16235879332E+04  0.16235879332E+04  0.25500000920E-02 0.  1.
        2   -1    0    0  501    0  0.00000000000E+00  0.00000000000E+00 -0.26026770886E+03  0.26026770887E+03  0.25500000920E-02 0. -1.
    10030    2    1    2    0    0  0.00000000000E+00  0.00000000000E+00  0.13633202244E+04  0.18838556421E+04  0.13001038597E+04 0.  0.
        3    1    3    3  502    0 -0.64297808287E+03 -0.14821080583E+02  0.54475398943E+03  0.84285075707E+03  0.10100000352E+00 0. -1.
       -3    1    3    3    0  502  0.64297808287E+03  0.14821080583E+02  0.81856623495E+03  0.10410048850E+04  0.10100000352E+00 0.  1.
</event>
<event>
 5   0  0.4263540E-03  0.1210475E+04  0.7818609E-02  0.9103737E-01
       -2   -1    0    0    0  501  0.00000000000E+00  0.00000000000E+00  0.73790114235E+03  0.73790114235E+03  0.25500000920E-02 0. -1.
        2   -1    0    0  501    0  0.00000000000E+00  0.00000000000E+00 -0.49642447317E+03  0.49642447317E+03  0.25500000920E-02 0.  1.
    10030    2    1    2    0    0  0.00000000000E+00  0.00000000000E+00  0.24147666918E+03  0.12343256155E+04  0.12104745943E+04 0.  0.
        2    1    3    3  502    0 -0.41398623352E+03 -0.22672325260E+03 -0.26557220440E+03  0.54158714033E+03  0.25500000920E-02 0.  1.
       -2    1    3    3    0  502  0.41398623352E+03  0.22672325260E+03  0.50704887358E+03  0.69273847520E+03  0.25500000920E-02 0. -1.
</event>
<event>
 5   0  0.4263540E-03  0.1371942E+04  0.7818609E-02  0.8974382E-01
        2   -1    0    0  501    0  0.00000000000E+00  0.00000000000E+00  0.59461137639E+03  0.59461137639E+03  0.25500000920E-02 0. -1.
       -2   -1    0    0    0  501  0.00000000000E+00  0.00000000000E+00 -0.79136784992E+03  0.79136784993E+03  0.25500000920E-02 0.  1.
    10030    2    1    2    0    0  0.00000000000E+00  0.00000000000E+00 -0.19675647354E+03  0.13859792263E+04  0.13719421657E+04 0.  0.
        2    1    3    3  502    0  0.17891502337E+03 -0.73902406378E+02 -0.76320282675E+03  0.78736948507E+03  0.25500000920E-02 0.  1.
       -2    1    3    3    0  502 -0.17891502337E+03  0.73902406378E+02  0.56644635321E+03  0.59860974125E+03  0.25500000920E-02 0. -1.
</event>
<event>
 5   0  0.4310889E-03  0.1327941E+04  0.7818609E-02  0.9007696E-01
        2   -1    0    0  501    0  0.00000000000E+00  0.00000000000E+00  0.59867851549E+03  0.59867851550E+03  0.25500000920E-02 0.  1.
       -2   -1    0    0    0  501  0.00000000000E+00  0.00000000000E+00 -0.73638340519E+03  0.73638340519E+03  0.25500000920E-02 0. -1.
    10030    2    1    2    0    0  0.00000000000E+00  0.00000000000E+00 -0.13770488969E+03  0.13350619207E+04  0.13279411491E+04 0.  0.
        4    1    3    3  502    0 -0.24710331897E+03  0.47957372723E+03 -0.45797349139E+03  0.70766682967E+03  0.12699999809E+01 0. -1.
       -4    1    3    3    0  502  0.24710331897E+03 -0.47957372723E+03  0.32026860170E+03  0.62739509102E+03  0.12699999809E+01 0.  1.
</event>
<event>
 5   0  0.4388937E-03  0.1280665E+04  0.7818609E-02  0.9045040E-01
        2   -1    0    0  501    0  0.00000000000E+00  0.00000000000E+00  0.23335700952E+04  0.23335700952E+04  0.25500000920E-02 0.  1.
       -2   -1    0    0    0  501  0.00000000000E+00  0.00000000000E+00 -0.17570749418E+03  0.17570749420E+03  0.25500000920E-02 0. -1.
    10030    2    1    2    0    0  0.00000000000E+00  0.00000000000E+00  0.21578626010E+04  0.25092775894E+04  0.12806650678E+04 0.  0.
        5    1    3    3  502    0 -0.24449213202E+03  0.45420655350E+03  0.18222571808E+04  0.18938646516E+04  0.46999998093E+01 0.  1.
       -5    1    3    3    0  502  0.24449213202E+03 -0.45420655350E+03  0.33560542023E+03  0.61541293775E+03  0.46999998093E+01 0. -1.
</event>
<event>
 5   0  0.4388937E-03  0.1284083E+04  0.7818609E-02  0.9042284E-01
       -2   -1    0    0    0  501  0.00000000000E+00  0.00000000000E+00  0.50041514758E+03  0.50041514758E+03  0.25500000920E-02 0.  1.
        2   -1    0    0  501    0  0.00000000000E+00  0.00000000000E+00 -0.82375032209E+03  0.82375032209E+03  0.25500000920E-02 0. -1.
    10030    2    1    2    0    0  0.00000000000E+00  0.00000000000E+00 -0.32333517451E+03  0.13241654697E+04  0.12840827684E+04 0.  0.
        5    1    3    3  502    0  0.19097751939E+03  0.26507883519E+03  0.40826496401E+03  0.52291641073E+03  0.46999998093E+01 0.  1.
       -5    1    3    3    0  502 -0.19097751939E+03 -0.26507883519E+03 -0.73160013852E+03  0.80124905894E+03  0.46999998093E+01 0. -1.
</event>
<event>
 5   0  0.4306214E-03  0.1196725E+04  0.7818609E-02  0.9115728E-01
       -2   -1    0    0    0  501  0.00000000000E+00  0.00000000000E+00  0.14557578898E+03  0.14557578900E+03  0.25500000920E-02 0. -1.
        2   -1    0    0  501    0  0.00000000000E+00  0.00000000000E+00 -0.24594583483E+04  0.24594583483E+04  0.25500000920E-02 0.  1.
    10030    2    1    2    0    0  0.00000000000E+00  0.00000000000E+00 -0.23138825593E+04  0.26050341373E+04  0.11967248465E+04 0.  0.
        3    1    3    3  502    0 -0.53959857017E+03  0.24881545129E+03 -0.10036066639E+04  0.11663198925E+04  0.10100000352E+00 0. -1.
       -3    1    3    3    0  502  0.53959857017E+03 -0.24881545129E+03 -0.13102758954E+04  0.14387142448E+04  0.10100000352E+00 0.  1.
</event>
<event>
 5   0  0.2356769E-03  0.1293566E+04  0.7818609E-02  0.9034683E-01
        1   -1    0    0  501    0  0.00000000000E+00  0.00000000000E+00  0.13088302250E+04  0.13088302250E+04  0.50400001928E-02 0. -1.
       -1   -1    0    0    0  501  0.00000000000E+00  0.00000000000E+00 -0.31961989216E+03  0.31961989220E+03  0.50400001928E-02 0.  1.
    10030    2    1    2    0    0  0.00000000000E+00  0.00000000000E+00  0.98921033282E+03  0.16284501172E+04  0.12935658861E+04 0.  0.
        1    1    3    3  502    0 -0.13419474954E+02 -0.45712353518E+03 -0.81169280354E+02  0.46446793304E+03  0.50400001928E-02 0. -1.
       -1    1    3    3    0  502  0.13419474954E+02  0.45712353518E+03  0.10703796132E+04  0.11639821842E+04  0.50400001928E-02 0.  1.
</event>
<event>
 5   0  0.2356769E-03  0.1293404E+04  0.7818609E-02  0.9034812E-01
       -1   -1    0    0    0  501  0.00000000000E+00  0.00000000000E+00  0.76551019089E+03  0.76551019091E+03  0.50400001928E-02 0.  1.
        1   -1    0    0  501    0  0.00000000000E+00  0.00000000000E+00 -0.54633274811E+03  0.54633274814E+03  0.50400001928E-02 0. -1.
    10030    2    1    2    0    0  0.00000000000E+00  0.00000000000E+00  0.21917744278E+03  0.13118429390E+04  0.12934037055E+04 0.  0.
        1    1    3    3  502    0  0.86738948794E+02  0.13854118883E+03  0.74421337779E+03  0.76195200502E+03  0.50400001928E-02 0.  1.
       -1    1    3    3    0  502 -0.86738948794E+02 -0.13854118883E+03 -0.52503593502E+03  0.54989093403E+03  0.50400001928E-02 0. -1.
</event>
<event>
 5   0  0.4263540E-03  0.1334289E+04  0.7818609E-02  0.9002807E-01
       -2   -1    0    0    0  501  0.00000000000E+00  0.00000000000E+00  0.29951237717E+03  0.29951237718E+03  0.25500000920E-02 0. -1.
        2   -1    0    0  501    0  0.00000000000E+00  0.00000000000E+00 -0.14860217818E+04  0.14860217818E+04  0.25500000920E-02 0.  1.
    10030    2    1    2    0    0  0.00000000000E+00  0.00000000000E+00 -0.11865094046E+04  0.17855341590E+04  0.13342891986E+04 0.  0.
        2    1    3    3  502    0 -0.10663077185E+03  0.18083262172E+03  0.25416104356E+03  0.32964889603E+03  0.25500000920E-02 0. -1.
       -2    1    3    3    0  502  0.10663077185E+03 -0.18083262172E+03 -0.14406704482E+04  0.14558852629E+04  0.25500000920E-02 0.  1.
</event>
<event>
 5   0  0.4310889E-03  0.1266414E+04  0.7818609E-02  0.9056632E-01
        2   -1    0    0  501    0  0.00000000000E+00  0.00000000000E+00  0.12661613403E+04  0.12661613403E+04  0.25500000920E-02 0. -1.
       -2   -1    0    0    0  501  0.00000000000E+00  0.00000000000E+00 -0.31666659650E+03  0.31666659651E+03  0.25500000920E-02 0.  1.
    10030    2    1    2    0    0  0.00000000000E+00  0.00000000000E+00  0.94949474377E+03  0.15828279368E+04  0.12664138380E+04 0.  0.
        4    1    3    3  502    0 -0.38863553958E+03  0.30820061062E+03 -0.17198903858E+02  0.49630899065E+03  0.12699999809E+01 0.  1.
       -4    1    3    3    0  502  0.38863553958E+03 -0.30820061062E+03  0.96669364763E+03  0.10865189461E+04  0.12699999809E+01 0. -1.
</event>
<event>
 5   0  0.2458456E-03  0.1307941E+04  0.7818609E-02  0.9023292E-01
       -1   -1    0    0    0  501  0.00000000000E+00  0.00000000000E+00  0.46223016117E+03  0.46223016120E+03  0.50400001928E-02 0. -1.
        1   -1    0    0  501    0  0.00000000000E+00  0.00000000000E+00 -0.92524749138E+03  0.92524749140E+03  0.50400001928E-02 0.  1.
    10030    2    1    2    0    0  0.00000000000E+00  0.00000000000E+00 -0.46301733021E+03  0.13874776526E+04  0.13079408199E+04 0.  0.
        5    1    3    3  502    0  0.11409323245E+03 -0.27358429471E+03 -0.84987085717E+03  0.90009343730E+03  0.46999998093E+01 0.  1.
       -5    1    3    3    0  502 -0.11409323245E+03  0.27358429471E+03  0.38685352696E+03  0.48738421530E+03  0.46999998093E+01 0. -1.
</event>
<event>
 5   0  0.1661750E-03  0.1304647E+04  0.7818609E-02  0.9025888E-01
       -3   -1    0    0    0  501  0.00000000000E+00  0.00000000000E+00  0.33509927122E+03  0.33509928644E+03  0.10100000352E+00 0.  1.
        3   -1    0    0  501    0  0.00000000000E+00  0.00000000000E+00 -0.12698507592E+04  0.12698507633E+04  0.10100000352E+00 0. -1.
    10030    2    1    2    0    0  0.00000000000E+00  0.00000000000E+00 -0.93475148802E+03  0.16049500497E+04  0.13046472005E+04 0.  0.
        4    1    3    3  502    0 -0.21636573577E+03 -0.53911220754E+00  0.28966951798E+03  0.36155838368E+03  0.12699999809E+01 0.  1.
       -4    1    3    3    0  502  0.21636573577E+03  0.53911220754E+00 -0.12244210060E+04  0.12433916660E+04  0.12699999809E+01 0. -1.
</event>
<event>
 5   0  0.4310889E-03  0.1338298E+04  0.7818609E-02  0.8999734E-01
       -2   -1    0    0    0  501  0.00000000000E+00  0.00000000000E+00  0.38683219460E+03  0.38683219461E+03  0.25500000920E-02 0. -1.
        2   -1    0    0  501    0  0.00000000000E+00  0.00000000000E+00 -0.11575062562E+04  0.11575062562E+04  0.25500000920E-02 0.  1.
    10030    2    1    2    0    0  0.00000000000E+00  0.00000000000E+00 -0.77067406157E+03  0.15443384508E+04  0.13382984500E+04 0.  0.
        4    1    3    3  502    0 -0.24180447476E+03 -0.28869105869E+03  0.25294513392E+03  0.45364610111E+03  0.12699999809E+01 0. -1.
       -4    1    3    3    0  502  0.24180447476E+03  0.28869105869E+03 -0.10236191955E+04  0.10906923497E+04  0.12699999809E+01 0.  1.
</event>
<event>
 5   0  0.2458456E-03  0.1362311E+04  0.7818609E-02  0.8981560E-01
       -1   -1    0    0    0  501  0.00000000000E+00  0.00000000000E+00  0.39333698104E+03  0.39333698107E+03  0.50400001928E-02 0. -1.
        1   -1    0    0  501    0  0.00000000000E+00  0.00000000000E+00 -0.11795817222E+04  0.11795817222E+04  0.50400001928E-02 0.  1.
    10030    2    1    2    0    0  0.00000000000E+00  0.00000000000E+00 -0.78624474114E+03  0.15729187033E+04  0.13623114380E+04 0.  0.
        5    1    3    3  502    0  0.28551998502E+03  0.37808411695E+03  0.17190058972E+03  0.50402496374E+03  0.46999998093E+01 0. -1.
       -5    1    3    3    0  502 -0.28551998502E+03 -0.37808411695E+03 -0.95814533086E+03  0.10688937395E+04  0.46999998093E+01 0.  1.
</event>
<event>
 5   0  0.2511542E-03  0.1255281E+04  0.7818609E-02  0.9065800E-01
        1   -1    0    0  501    0  0.00000000000E+00  0.00000000000E+00  0.71772576561E+03  0.71772576563E+03  0.50400001928E-02 0. -1.
       -1   -1    0    0    0  501  0.00000000000E+00  0.00000000000E+00 -0.54886194413E+03  0.54886194416E+03  0.50400001928E-02 0.  1.
    10030    2    1    2    0    0  0.00000000000E+00  0.00000000000E+00  0.16886382148E+03  0.12665877098E+04  0.12552806206E+04 0.  0.
        4    1    3    3  502    0  0.38949460568E+03  0.47871278824E+03  0.19973620820E+03  0.64866643758E+03  0.12699999809E+01 0. -1.
       -4    1    3    3    0  502 -0.38949460568E+03 -0.47871278824E+03 -0.30872386718E+02  0.61792127220E+03  0.12699999809E+01 0.  1.
</event>
<event>
 5   0  0.2356769E-03  0.1344466E+04  0.7818609E-02  0.8995028E-01
        1   -1    0    0  501    0  0.00000000000E+00  0.00000000000E+00  0.12396723289E+04  0.12396723289E+04  0.50400001928E-02 0.  1.
       -1   -1    0    0    0  501  0.00000000000E+00  0.00000000000E+00 -0.36452959764E+03  0.36452959768E+03  0.50400001928E-02 0. -1.
    10030    2    1    2    0    0  0.00000000000E+00  0.00000000000E+00  0.87514273121E+03  0.16042019265E+04  0.13444660729E+04 0.  0.
        1    1    3    3  502    0  0.18214622973E+02 -0.11954575261E+03  0.12265880025E+04  0.12325344163E+04  0.50400001928E-02 0.  1.
       -1    1    3    3    0  502 -0.18214622973E+02  0.11954575261E+03 -0.35144527128E+03  0.37166751026E+03  0.50400001928E-02 0. -1.
</event>
<event>
 5   0  0.2356769E-03  0.9756819E+03  0.7818609E-02  0.9335626E-01
        1   -1    0    0  501    0  0.00000000000E+00  0.00000000000E+00  0.14815699973E+04  0.14815699973E+04  0.50400001928E-02 0. -1.
       -1   -1    0    0    0  501  0.00000000000E+00  0.00000000000E+00 -0.16063283965E+03  0.16063283973E+03  0.50400001928E-02 0.  1.
    10030    2    1    2    0    0  0.00000000000E+00  0.00000000000E+00  0.13209371576E+04  0.16422028370E+04  0.97568190693E+03 0.  0.
        1    1    3    3  502    0  0.10011231769E+03 -0.25576411918E+03 -0.18130735020E+02  0.27525712414E+03  0.50400001928E-02 0.  1.
       -1    1    3    3    0  502 -0.10011231769E+03  0.25576411918E+03  0.13390678926E+04  0.13669457129E+04  0.50400001928E-02 0. -1.
</event>
<event>
 5   0  0.2356769E-03  0.1318467E+04  0.7818609E-02  0.9015048E-01
       -1   -1    0    0    0  501  0.00000000000E+00  0.00000000000E+00  0.41649671676E+03  0.41649671679E+03  0.50400001928E-02 0.  1.
        1   -1    0    0  501    0  0.00000000000E+00  0.00000000000E+00 -0.10434380261E+04  0.10434380261E+04  0.50400001928E-02 0. -1.
    10030    2    1    2    0    0  0.00000000000E+00  0.00000000000E+00 -0.62694130936E+03  0.14599347429E+04  0.13184665518E+04 0.  0.
        1    1    3    3  502    0  0.26287280935E+03 -0.19588969795E+03  0.31983540526E+03  0.45800608526E+03  0.50400001928E-02 0.  1.
       -1    1    3    3    0  502 -0.26287280935E+03  0.19588969795E+03 -0.94677671462E+03  0.10019286577E+04  0.50400001928E-02 0. -1.
</event>
<event>
 5   0  0.1661750E-03  0.8211479E+03  0.7818609E-02  0.9529901E-01
        4   -1    0    0  501    0  0.00000000000E+00  0.00000000000E+00  0.35087519527E+03  0.35087749366E+03  0.12699999809E+01 0. -1.
       -4   -1    0    0    0  501  0.00000000000E+00  0.00000000000E+00 -0.48042525332E+03  0.48042693193E+03  0.12699999809E+01 0.  1.
    10030    2    1    2    0    0  0.00000000000E+00  0.00000000000E+00 -0.12955005804E+03  0.83130442559E+03  0.82114787369E+03 0.  0.
        5    1    3    3  502    0  0.97222203561E+02 -0.39156475105E+03 -0.14170010814E+03  0.42764017792E+03  0.46999998093E+01 0. -1.
       -5    1    3    3    0  502 -0.97222203561E+02  0.39156475105E+03  0.12150050094E+02  0.40366424767E+03  0.46999998093E+01 0.  1.
</event>
<event>
 5   0  0.2458456E-03  0.1340206E+04  0.7818609E-02  0.8998275E-01
       -1   -1    0    0    0  501  0.00000000000E+00  0.00000000000E+00  0.78937538822E+03  0.78937538824E+03  0.50400001928E-02 0. -1.
        1   -1    0    0  501    0  0.00000000000E+00  0.00000000000E+00 -0.56885260037E+03  0.56885260040E+03  0.50400001928E-02 0.  1.
    10030    2    1    2    0    0  0.00000000000E+00  0.00000000000E+00  0.22052278785E+03  0.13582279886E+04  0.13402063159E+04 0.  0.
        5    1    3    3  502    0 -0.37042111583E+03 -0.25130402676E+03  0.61561550377E+03  0.76116361933E+03  0.46999998093E+01 0. -1.
       -5    1    3    3    0  502  0.37042111583E+03  0.25130402676E+03 -0.39509271592E+03  0.59706436930E+03  0.46999998093E+01 0.  1.
</event>
<event>
 5   0  0.4306214E-03  0.1208070E+04  0.7818609E-02  0.9105822E-01
        2   -1    0    0  501    0  0.00000000000E+00  0.00000000000E+00  0.15037155184E+04  0.15037155184E+04  0.25500000920E-02 0.  1.
       -2   -1    0    0    0  501  0.00000000000E+00  0.00000000000E+00 -0.24263792415E+03  0.24263792416E+03  0.25500000920E-02 0. -1.
    10030    2    1    2    0    0  0.00000000000E+00  0.00000000000E+00  0.12610775942E+04  0.17463534425E+04  0.12080702163E+04 0.  0.
        3    1    3    3  502    0  0.24683207404E+02  0.11137234443E+03 -0.22692515262E+03  0.25398443835E+03  0.10100000352E+00 0. -1.
       -3    1    3    3    0  502 -0.24683207404E+02 -0.11137234443E+03  0.14880027468E+04  0.14923690042E+04  0.10100000352E+00 0.  1.
</event>
<event>
 5   0  0.2370801E-03  0.1279354E+04  0.7818609E-02  0.9046100E-01
        1   -1    0    0  501    0  0.00000000000E+00  0.00000000000E+00  0.93926173542E+03  0.93926173543E+03  0.50400001928E-02 0.  1.
       -1   -1    0    0    0  501  0.00000000000E+00  0.00000000000E+00 -0.43564686725E+03  0.43564686728E+03  0.50400001928E-02 0. -1.
    10030    2    1    2    0    0  0.00000000000E+00  0.00000000000E+00  0.50361486817E+03  0.13749086027E+04  0.12793536377E+04 0.  0.
        3    1    3    3  502    0  0.35750369440E+03  0.11692974429E+03 -0.30423947961E+03  0.48378004069E+03  0.10100000352E+00 0. -1.
       -3    1    3    3    0  502 -0.35750369440E+03 -0.11692974429E+03  0.80785434778E+03  0.89112856202E+03  0.10100000352E+00 0.  1.
</event>
<event>
 5   0  0.2462055E-03  0.1203835E+04  0.7818609E-02  0.9109507E-01
        1   -1    0    0  501    0  0.00000000000E+00  0.00000000000E+00  0.11254287642E+04  0.11254287642E+04  0.50400001928E-02 0. -1.
       -1   -1    0    0    0  501  0.00000000000E+00  0.00000000000E+00 -0.32192574362E+03  0.32192574366E+03  0.50400001928E-02 0.  1.
    10030    2    1    2    0    0  0.00000000000E+00  0.00000000000E+00  0.80350302053E+03  0.14473545078E+04  0.12038346927E+04 0.  0.
        2    1    3    3  502    0  0.15628486226E+03 -0.51081973280E+03  0.73524846366E+03  0.90881904740E+03  0.25500000920E-02 0. -1.
       -2    1    3    3    0  502 -0.15628486226E+03  0.51081973280E+03  0.68254556873E+02  0.53853546042E+03  0.25500000920E-02 0.  1.
</event>
<event>
 5   0  0.4388937E-03  0.1331795E+04  0.7818609E-02  0.9004725E-01
       -2   -1    0    0    0  501  0.00000000000E+00  0.00000000000E+00  0.19260459992E+03  0.19260459994E+03  0.25500000920E-02 0. -1.
        2   -1    0    0  501    0  0.00000000000E+00  0.00000000000E+00 -0.23022260030E+04  0.23022260030E+04  0.25500000920E-02 0.  1.
    10030    2    1    2    0    0  0.00000000000E+00  0.00000000000E+00 -0.21096214031E+04  0.24948306030E+04  0.13317947564E+04 0.  0.
        5    1    3    3  502    0 -0.46050045987E+03 -0.34343392656E+03 -0.16856090556E+04  0.17808165301E+04  0.46999998093E+01 0.  1.
       -5    1    3    3    0  502  0.46050045987E+03  0.34343392656E+03 -0.42401234749E+03  0.71401407288E+03  0.46999998093E+01 0. -1.
</event>
<event>
 5   0  0.4306214E-03  0.1300518E+04  0.7818609E-02  0.9029155E-01
       -2   -1    0    0    0  501  0.00000000000E+00  0.00000000000E+00  0.44502545319E+03  0.44502545319E+03  0.25500000920E-02 0.  1.
        2   -1    0    0  501    0  0.00000000000E+00  0.00000000000E+00 -0.95014019348E+03  0.95014019348E+03  0.25500000920E-02 0. -1.
    10030    2    1    2    0    0  0.00000000000E+00  0.00000000000E+00 -0.50511474029E+03  0.13951656467E+04  0.13005176972E+04 0.  0.
        3    1    3    3  502    0 -0.84555270045E+02  0.26494527228E+03 -0.88311946080E+03  0.92587557654E+03  0.10100000352E+00 0. -1.
       -3    1    3    3    0  502  0.84555270045E+02 -0.26494527228E+03  0.37800472051E+03  0.46929007013E+03  0.10100000352E+00 0.  1.
</event>
<event>
 5   0  0.2356769E-03  0.1410565E+04  0.7818609E-02  0.8946206E-01
        1   -1    0    0  501    0  0.00000000000E+00  0.00000000000E+00  0.21427763988E+04  0.21427763988E+04  0.50400001928E-02 0.  1.
       -1   -1    0    0    0  501  0.00000000000E+00  0.00000000000E+00 -0.23213967948E+03  0.23213967953E+03  0.50400001928E-02 0. -1.
    10030    2    1    2    0    0  0.00000000000E+00  0.00000000000E+00  0.19106367193E+04  0.23749160783E+04  0.14105650307E+04 0.  0.
        1    1    3    3  502    0 -0.47935423398E+03  0.11233282303E+03  0.18055669511E+04  0.18714890221E+04  0.50400001928E-02 0.  1.
       -1    1    3    3    0  502  0.47935423398E+03 -0.11233282303E+03  0.10506976822E+03  0.50342705627E+03  0.50400001928E-02 0. -1.
</event>
<event>
 5   0  0.4310889E-03  0.1340059E+04  0.7818609E-02  0.8998388E-01
       -2   -1    0    0    0  501  0.00000000000E+00  0.00000000000E+00  0.60879747910E+03  0.60879747910E+03  0.25500000920E-02 0.  1.
        2   -1    0    0  501    0  0.00000000000E+00  0.00000000000E+00 -0.73741975054E+03  0.73741975054E+03  0.25500000920E-02 0. -1.
    10030    2    1    2    0    0  0.00000000000E+00  0.00000000000E+00 -0.12862227144E+03  0.13462172296E+04  0.13400586333E+04 0.  0.
        4    1    3    3  502    0  0.26217633389E+03  0.79674834910E+00 -0.68374899698E+03  0.73229186027E+03  0.12699999809E+01 0. -1.
       -4    1    3    3    0  502 -0.26217633389E+03 -0.79674834910E+00  0.55512672553E+03  0.61392536937E+03  0.12699999809E+01 0.  1.
</event>
<event>
 5   0  0.4453011E-03  0.1279656E+04  0.7818609E-02  0.9045855E-01
        2   -1    0    0  501    0  0.00000000000E+00  0.00000000000E+00  0.56552548642E+03  0.56552548643E+03  0.25500000920E-02 0. -1.
       -2   -1    0    0    0  501  0.00000000000E+00  0.00000000000E+00 -0.72389332160E+03  0.72389332161E+03  0.25500000920E-02 0.  1.
    10030    2    1    2    0    0  0.00000000000E+00  0.00000000000E+00 -0.15836783518E+03  0.12894188080E+04  0.12796563958E+04 0.  0.
        1    1    3    3  502    0  0.44744518832E+03 -0.16275582312E+03 -0.50985950346E+03  0.69760545282E+03  0.50400001928E-02 0.  1.
       -1    1    3    3    0  502 -0.44744518832E+03  0.16275582312E+03  0.35149166828E+03  0.59181335521E+03  0.50400001928E-02 0. -1.
</event>
<event>
 5   0  0.4306214E-03  0.1292897E+04  0.7818609E-02  0.9035217E-01
        2   -1    0    0  501    0  0.00000000000E+00  0.00000000000E+00  0.13193549359E+04  0.13193549359E+04  0.25500000920E-02 0.  1.
       -2   -1    0    0    0  501  0.00000000000E+00  0.00000000000E+00 -0.31674240461E+03  0.31674240462E+03  0.25500000920E-02 0. -1.
    10030    2    1    2    0    0  0.00000000000E+00  0.00000000000E+00  0.10026125313E+04  0.16360973405E+04  0.12928969873E+04 0.  0.
        3    1    3    3  502    0  0.52203315750E+03  0.36738297253E+03  0.63039946824E+03  0.89715793804E+03  0.10100000352E+00 0. -1.
       -3    1    3    3    0  502 -0.52203315750E+03 -0.36738297253E+03  0.37221306306E+03  0.73893940249E+03  0.10100000352E+00 0.  1.
</event>
<event>
 5   0  0.2458456E-03  0.1235220E+04  0.7818609E-02  0.9082575E-01
        1   -1    0    0  501    0  0.00000000000E+00  0.00000000000E+00  0.11975125640E+04  0.11975125640E+04  0.50400001928E-02 0.  1.
       -1   -1    0    0    0  501  0.00000000000E+00  0.00000000000E+00 -0.31852880377E+03  0.31852880381E+03  0.50400001928E-02 0. -1.
    10030    2    1    2    0    0  0.00000000000E+00  0.00000000000E+00  0.87898376024E+03  0.15160413678E+04  0.12352202145E+04 0.  0.
        5    1    3    3  502    0  0.36307889244E+03 -0.19912920560E+03  0.10018535853E+04  0.10840716854E+04  0.46999998093E+01 0.  1.
       -5    1    3    3    0  502 -0.36307889244E+03  0.19912920560E+03 -0.12286982506E+03  0.43196968246E+03  0.46999998093E+01 0. -1.
</event>
<event>
 5   0  0.2462055E-03  0.1323226E+04  0.7818609E-02  0.9011347E-01
        1   -1    0    0  501    0  0.00000000000E+00  0.00000000000E+00  0.44890100871E+03  0.44890100874E+03  0.50400001928E-02 0. -1.
       -1   -1    0    0    0  501  0.00000000000E+00  0.00000000000E+00 -0.97511834897E+03  0.97511834898E+03  0.50400001928E-02 0.  1.
    10030    2    1    2    0    0  0.00000000000E+00  0.00000000000E+00 -0.52621734026E+03  0.14240193577E+04  0.13232257714E+04 0.  0.
        2    1    3    3  502    0  0.74200878952E+02  0.11040624235E+02  0.44430925127E+03  0.45059779915E+03  0.25500000920E-02 0. -1.
       -2    1    3    3    0  502 -0.74200878952E+02 -0.11040624235E+02 -0.97052659153E+03  0.97342155857E+03  0.25500000920E-02 0.  1.
</event>
<event>
 5   0  0.2356769E-03  0.1286446E+04  0.7818609E-02  0.9040384E-01
        1   -1    0    0  501    0  0.00000000000E+00  0.00000000000E+00  0.10749364185E+04  0.10749364185E+04  0.50400001928E-02 0.  1.
       -1   -1    0    0    0  501  0.00000000000E+00  0.00000000000E+00 -0.38489302614E+03  0.38489302617E+03  0.50400001928E-02 0. -1.
    10030    2    1    2    0    0  0.00000000000E+00  0.00000000000E+00  0.69004339235E+03  0.14598294447E+04  0.12864455388E+04 0.  0.
        1    1    3    3  502    0 -0.53273472435E+03 -0.21955780340E+02  0.75330067940E+03  0.92290316742E+03  0.50400001928E-02 0.  1.
       -1    1    3    3    0  502  0.53273472435E+03  0.21955780340E+02 -0.63257287054E+02  0.53692627725E+03  0.50400001928E-02 0. -1.
</event>
<event>
 5   0  0.4263540E-03  0.1208378E+04  0.7818609E-02  0.9105555E-01
        2   -1    0    0  501    0  0.00000000000E+00  0.00000000000E+00  0.88200457911E+03  0.88200457911E+03  0.25500000920E-02 0. -1.
       -2   -1    0    0    0  501  0.00000000000E+00  0.00000000000E+00 -0.41388018849E+03  0.41388018850E+03  0.25500000920E-02 0.  1.
    10030    2    1    2    0    0  0.00000000000E+00  0.00000000000E+00  0.46812439062E+03  0.12958847676E+04  0.12083777910E+04 0.  0.
        2    1    3    3  502    0  0.19579541265E+03 -0.52514795761E+03  0.47607701624E+03  0.73536762670E+03  0.25500000920E-02 0. -1.
       -2    1    3    3    0  502 -0.19579541265E+03  0.52514795761E+03 -0.79526256237E+01  0.56051714091E+03  0.25500000920E-02 0.  1.
</event>
<event>
 5   0  0.4310889E-03  0.1265928E+04  0.7818609E-02  0.9057029E-01
        2   -1    0    0  501    0  0.00000000000E+00  0.00000000000E+00  0.12810289270E+04  0.12810289270E+04  0.25500000920E-02 0.  1.
       -2   -1    0    0    0  501  0.00000000000E+00  0.00000000000E+00 -0.31275140829E+03  0.31275140830E+03  0.25500000920E-02 0. -1.
    10030    2    1    2    0    0  0.00000000000E+00  0.00000000000E+00  0.96827751873E+03  0.15937803353E+04  0.12659282776E+04 0.  0.
        4    1    3    3  502    0  0.28131642890E+03 -0.53302879602E+03  0.24071749421E+03  0.64900320143E+03  0.12699999809E+01 0.  1.
       -4    1    3    3    0  502 -0.28131642890E+03  0.53302879602E+03  0.72756002452E+03  0.94477713389E+03  0.12699999809E+01 0. -1.
</event>
<event>
 5   0  0.2462055E-03  0.1381251E+04  0.7818609E-02  0.8967503E-01
        1   -1    0    0  501    0  0.00000000000E+00  0.00000000000E+00  0.11845535270E+04  0.11845535270E+04  0.50400001928E-02 0.  1.
       -1   -1    0    0    0  501  0.00000000000E+00  0.00000000000E+00 -0.40265238334E+03  0.40265238337E+03  0.50400001928E-02 0. -1.
    10030    2    1    2    0    0  0.00000000000E+00  0.00000000000E+00  0.78190114369E+03  0.15872059104E+04  0.13812505941E+04 0.  0.
        2    1    3    3  502    0  0.43335769693E+03 -0.90876683770E+02 -0.21808291877E+03  0.49357636148E+03  0.25500000920E-02 0. -1.
       -2    1    3    3    0  502 -0.43335769693E+03  0.90876683770E+02  0.99998406246E+03  0.10936295489E+04  0.25500000920E-02 0.  1.
</event>
<event>
 5   0  0.2458456E-03  0.1332101E+04  0.7818609E-02  0.9004489E-01
        1   -1    0    0  501    0  0.00000000000E+00  0.00000000000E+00  0.34275317895E+03  0.34275317898E+03  0.50400001928E-02 0. -1.
       -1   -1    0    0    0  501  0.00000000000E+00  0.00000000000E+00 -0.12942944845E+04  0.12942944845E+04  0.50400001928E-02 0.  1.
    10030    2    1    2    0    0  0.00000000000E+00  0.00000000000E+00 -0.95154130551E+03  0.16370476635E+04  0.13321014212E+04 0.  0.
        5    1    3    3  502    0 -0.66797022454E+02 -0.65310358998E+03 -0.61369108027E+03  0.89869069955E+03  0.46999998093E+01 0. -1.
       -5    1    3    3    0  502  0.66797022454E+02  0.65310358998E+03 -0.33785022524E+03  0.73835696390E+03  0.46999998093E+01 0.  1.
</event>
<event>
 5   0  0.2462055E-03  0.1311463E+04  0.7818609E-02  0.9020524E-01
       -1   -1    0    0    0  501  0.00000000000E+00  0.00000000000E+00  0.48952173019E+03  0.48952173022E+03  0.50400001928E-02 0. -1.
        1   -1    0    0  501    0  0.00000000000E+00  0.00000000000E+00 -0.87837482319E+03  0.87837482320E+03  0.50400001928E-02 0.  1.
    10030    2    1    2    0    0  0.00000000000E+00  0.00000000000E+00 -0.38885309299E+03  0.13678965534E+04  0.13114626388E+04 0.  0.
        2    1    3    3  502    0  0.65231075480E+03 -0.51860500212E+02 -0.23849052494E+03  0.69647438058E+03  0.25500000920E-02 0.  1.
       -2    1    3    3    0  502 -0.65231075480E+03  0.51860500212E+02 -0.15036256805E+03  0.67142217284E+03  0.25500000920E-02 0. -1.
</event>
<event>
 5   0  0.1661750E-03  0.1306831E+04  0.7818609E-02  0.9024166E-01
        3   -1    0    0  501    0  0.00000000000E+00  0.00000000000E+00  0.67796064752E+03  0.67796065504E+03  0.10100000352E+00 0. -1.
       -3   -1    0    0    0  501  0.00000000000E+00  0.00000000000E+00 -0.62975882623E+03  0.62975883433E+03  0.10100000352E+00 0.  1.
    10030    2    1    2    0    0  0.00000000000E+00  0.00000000000E+00  0.48201821287E+02  0.13077194894E+04  0.13068308411E+04 0.  0.
        4    1    3    3  502    0 -0.24795035034E+03  0.56695907268E+03 -0.18587059086E+03  0.64612031060E+03  0.12699999809E+01 0.  1.
       -4    1    3    3    0  502  0.24795035034E+03 -0.56695907268E+03  0.23407241214E+03  0.66159917877E+03  0.12699999809E+01 0. -1.
</event>
<event>
 5   0  0.4263540E-03  0.1326330E+04  0.7818609E-02  0.9008942E-01
        2   -1    0    0  501    0  0.00000000000E+00  0.00000000000E+00  0.12479616077E+04  0.12479616077E+04  0.25500000920E-02 0. -1.
       -2   -1    0    0    0  501  0.00000000000E+00  0.00000000000E+00 -0.35240482973E+03  0.35240482974E+03  0.25500000920E-02 0.  1.
    10030    2    1    2    0    0  0.00000000000E+00  0.00000000000E+00  0.89555677798E+03  0.16003664375E+04  0.13263298200E+04 0.  0.
        2    1    3    3  502    0 -0.45997036970E+03 -0.42777166754E+03  0.19117422136E+03  0.65658885421E+03  0.25500000920E-02 0. -1.
       -2    1    3    3    0  502  0.45997036970E+03  0.42777166754E+03  0.70438255662E+03  0.94377758324E+03  0.25500000920E-02 0.  1.
</event>
<event>
 5   0  0.4306214E-03  0.9373598E+03  0.7818609E-02  0.9380048E-01
        2   -1    0    0  501    0  0.00000000000E+00  0.00000000000E+00  0.24276032163E+04  0.24276032163E+04  0.25500000920E-02 0. -1.
       -2   -1    0    0    0  501  0.00000000000E+00  0.00000000000E+00 -0.90484657359E+02  0.90484657395E+02  0.25500000920E-02 0.  1.
    10030    2    1    2    0    0  0.00000000000E+00  0.00000000000E+00  0.23371185589E+04  0.25180878737E+04  0.93735979277E+03 0.  0.
        3    1    3    3  502    0 -0.35561060712E+03 -0.28906780552E+03  0.14323394569E+04  0.15038668259E+04  0.10100000352E+00 0. -1.
       -3    1    3    3    0  502  0.35561060712E+03  0.28906780552E+03  0.90477910205E+03  0.10142210478E+04  0.10100000352E+00 0.  1.
</event>
<event>
 5   0  0.4263540E-03  0.1271331E+04  0.7818609E-02  0.9052614E-01
        2   -1    0    0  501    0  0.00000000000E+00  0.00000000000E+00  0.10346994434E+04  0.10346994434E+04  0.25500000920E-02 0. -1.
       -2   -1    0    0    0  501  0.00000000000E+00  0.00000000000E+00 -0.39051987915E+03  0.39051987915E+03  0.25500000920E-02 0.  1.
    10030    2    1    2    0    0  0.00000000000E+00  0.00000000000E+00  0.64417956429E+03  0.14252193226E+04  0.12713311160E+04 0.  0.
        2    1    3    3  502    0 -0.10284329146E+02  0.48562400358E+03  0.78176504735E+03  0.92037656942E+03  0.25500000920E-02 0. -1.
       -2    1    3    3    0  502  0.10284329146E+02 -0.48562400358E+03 -0.13758548306E+03  0.50484275317E+03  0.25500000920E-02 0.  1.
</event>
<event>
 5   0  0.2370801E-03  0.1300446E+04  0.7818609E-02  0.9029211E-01
        1   -1    0    0  501    0  0.00000000000E+00  0.00000000000E+00  0.52148942835E+03  0.52148942837E+03  0.50400001928E-02 0. -1.
       -1   -1    0    0    0  501  0.00000000000E+00  0.00000000000E+00 -0.81073580013E+03  0.81073580015E+03  0.50400001928E-02 0.  1.
    10030    2    1    2    0    0  0.00000000000E+00  0.00000000000E+00 -0.28924637179E+03  0.13322252285E+04  0.13004463064E+04 0.  0.
        3    1    3    3  502    0  0.54756508417E+03  0.27855888990E+03 -0.36282479555E+03  0.71348750445E+03  0.10100000352E+00 0. -1.
       -3    1    3    3    0  502 -0.54756508417E+03 -0.27855888990E+03  0.73578423764E+02  0.61873772407E+03  0.10100000352E+00 0.  1.
</event>
<event>
 5   0  0.2458456E-03  0.1284954E+04  0.7818609E-02  0.9041583E-01
       -1   -1    0    0    0  501  0.00000000000E+00  0.00000000000E+00  0.14284958020E+04  0.14284958020E+04  0.50400001928E-02 0. -1.
        1   -1    0    0  501    0  0.00000000000E+00  0.00000000000E+00 -0.28895886688E+03  0.28895886692E+03  0.50400001928E-02 0.  1.
    10030    2    1    2    0    0  0.00000000000E+00  0.00000000000E+00  0.11395369351E+04  0.17174546689E+04  0.12849537398E+04 0.  0.
        5    1    3    3  502    0 -0.82765218164E+02 -0.17700613375E+03 -0.24825569613E+03  0.31596555728E+03  0.46999998093E+01 0.  1.
       -5    1    3    3    0  502  0.82765218164E+02  0.17700613375E+03  0.13877926312E+04  0.14014891116E+04  0.46999998093E+01 0. -1.
</event>
<event>
 5   0  0.4388937E-03  0.1243098E+04  0.7818609E-02  0.9075948E-01
       -2   -1    0    0    0  501  0.00000000000E+00  0.00000000000E+00  0.37252285856E+03  0.37252285857E+03  0.25500000920E-02 0. -1.
        2   -1    0    0  501    0  0.00000000000E+00  0.00000000000E+00 -0.10370452208E+04  0.10370452208E+04  0.25500000920E-02 0.  1.
    10030    2    1    2    0    0  0.00000000000E+00  0.00000000000E+00 -0.66452236227E+03  0.14095680794E+04  0.12430978242E+04 0.  0.
        5    1    3    3  502    0  0.27507237897E+03  0.53590368899E+03 -0.50587763742E+03  0.78663323829E+03  0.46999998093E+01 0. -1.
       -5    1    3    3    0  502 -0.27507237897E+03 -0.53590368899E+03 -0.15864472485E+03  0.62293484111E+03  0.46999998093E+01 0.  1.
</event>
<event>
 5   0  0.2458456E-03  0.1295490E+04  0.7818609E-02  0.9033149E-01
       -1   -1    0    0    0  501  0.00000000000E+00  0.00000000000E+00  0.61618326662E+03  0.61618326664E+03  0.50400001928E-02 0. -1.
        1   -1    0    0  501    0  0.00000000000E+00  0.00000000000E+00 -0.68092348911E+03  0.68092348913E+03  0.50400001928E-02 0.  1.
    10030    2    1    2    0    0  0.00000000000E+00  0.00000000000E+00 -0.64740222486E+02  0.12971067558E+04  0.12954901155E+04 0.  0.
        5    1    3    3  502    0  0.14823812504E+03  0.32042265614E+03  0.51136036908E+03  0.62141510872E+03  0.46999998093E+01 0. -1.
       -5    1    3    3    0  502 -0.14823812504E+03 -0.32042265614E+03 -0.57610059157E+03  0.67569164704E+03  0.46999998093E+01 0.  1.
</event>
<event>
 5   0  0.2462055E-03  0.1290143E+04  0.7818609E-02  0.9037418E-01
        1   -1    0    0  501    0  0.00000000000E+00  0.00000000000E+00  0.47091978308E+03  0.47091978311E+03  0.50400001928E-02 0. -1.
       -1   -1    0    0    0  501  0.00000000000E+00  0.00000000000E+00 -0.88362719896E+03  0.88362719897E+03  0.50400001928E-02 0.  1.
    10030    2    1    2    0    0  0.00000000000E+00  0.00000000000E+00 -0.41270741587E+03  0.13545469821E+04  0.12901434477E+04 0.  0.
        2    1    3    3  502    0  0.52252944273E+03  0.11519830422E+03 -0.58463068912E+03  0.79252805028E+03  0.25500000920E-02 0.  1.
       -2    1    3    3    0  502 -0.52252944273E+03 -0.11519830422E+03  0.17192327324E+03  0.56201893180E+03  0.25500000920E-02 0. -1.
</event>
<event>
 5   0  0.4388937E-03  0.1300100E+04  0.7818609E-02  0.9029486E-01
        2   -1    0    0  501    0  0.00000000000E+00  0.00000000000E+00  0.13947427988E+04  0.13947427988E+04  0.25500000920E-02 0. -1.
       -2   -1    0    0    0  501  0.00000000000E+00  0.00000000000E+00 -0.30296983656E+03  0.30296983657E+03  0.25500000920E-02 0.  1.
    10030    2    1    2    0    0  0.00000000000E+00  0.00000000000E+00  0.10917729622E+04  0.16977126353E+04  0.13000999928E+04 0.  0.
        5    1    3    3  502    0 -0.67506511571E+02  0.48476091153E+03  0.11044907281E+04  0.12080861430E+04  0.46999998093E+01 0. -1.
       -5    1    3    3    0  502  0.67506511571E+02 -0.48476091153E+03 -0.12717765866E+02  0.48962649236E+03  0.46999998093E+01 0.  1.
</event>
<event>
 5   0  0.2356769E-03  0.1295806E+04  0.7818609E-02  0.9032897E-01
        1   -1    0    0  501    0  0.00000000000E+00  0.00000000000E+00  0.43469401773E+03  0.43469401776E+03  0.50400001928E-02 0. -1.
       -1   -1    0    0    0  501  0.00000000000E+00  0.00000000000E+00 -0.96568756173E+03  0.96568756174E+03  0.50400001928E-02 0.  1.
    10030    2    1    2    0    0  0.00000000000E+00  0.00000000000E+00 -0.53099354399E+03  0.14003815795E+04  0.12958064765E+04 0.  0.
        1    1    3    3  502    0  0.23535538465E+03  0.37177871826E+03  0.24845325620E+03  0.50531237168E+03  0.50400001928E-02 0. -1.
       -1    1    3    3    0  502 -0.23535538465E+03 -0.37177871826E+03 -0.77944680019E+03  0.89506920782E+03  0.50400001928E-02 0.  1.
</event>
<event>
 5   0  0.4306214E-03  0.1286590E+04  0.7818609E-02  0.9040267E-01
        2   -1    0    0  501    0  0.00000000000E+00  0.00000000000E+00  0.24630980722E+04  0.24630980722E+04  0.25500000920E-02 0.  1.
       -2   -1    0    0    0  501  0.00000000000E+00  0.00000000000E+00 -0.16801144977E+03  0.16801144979E+03  0.25500000920E-02 0. -1.
    10030    2    1    2    0    0  0.00000000000E+00  0.00000000000E+00  0.22950866224E+04  0.26311095219E+04  0.12865903436E+04 0.  0.
        3    1    3    3  502    0 -0.19950875684E+02 -0.38521506459E+03  0.22003638227E+04  0.22339180034E+04  0.10100000352E+00 0.  1.
       -3    1    3    3    0  502  0.19950875684E+02  0.38521506459E+03  0.94722799692E+02  0.39719151855E+03  0.10100000352E+00 0. -1.
</event>
<event>
 5   0  0.4453011E-03  0.1177203E+04  0.7818609E-02  0.9133048E-01
        2   -1    0    0  501    0  0.00000000000E+00  0.00000000000E+00  0.92301085959E+03  0.92301085960E+03  0.25500000920E-02 0.  1.
       -2   -1    0    0    0  501  0.00000000000E+00  0.00000000000E+00 -0.37534939681E+03  0.37534939681E+03  0.25500000920E-02 0. -1.
    10030    2    1    2    0    0  0.00000000000E+00  0.00000000000E+00  0.54766146279E+03  0.12983602564E+04  0.11772027343E+04 0.  0.
        1    1    3    3  502    0 -0.51545135715E+03  0.14964111065E+03  0.54029261823E+03  0.76157644194E+03  0.50400001928E-02 0. -1.
       -1    1    3    3    0  502  0.51545135715E+03 -0.14964111065E+03  0.73688445607E+01  0.53678381447E+03  0.50400001928E-02 0.  1.
</event>
<event>
 5   0  0.4306214E-03  0.1331152E+04  0.7818609E-02  0.9005220E-01
        2   -1    0    0  501    0  0.00000000000E+00  0.00000000000E+00  0.16347380346E+04  0.16347380346E+04  0.25500000920E-02 0.  1.
       -2   -1    0    0    0  501  0.00000000000E+00  0.00000000000E+00 -0.27098602149E+03  0.27098602150E+03  0.25500000920E-02 0. -1.
    10030    2    1    2    0    0  0.00000000000E+00  0.00000000000E+00  0.13637520131E+04  0.19057240561E+04  0.13311516160E+04 0.  0.
        3    1    3    3  502    0 -0.45374497986E+03 -0.39660417779E+03  0.27742497160E+03  0.66343349754E+03  0.10100000352E+00 0. -1.
       -3    1    3    3    0  502  0.45374497986E+03  0.39660417779E+03  0.10863270415E+04  0.12422905586E+04  0.10100000352E+00 0.  1.
</event>
<event>
 5   0  0.1661750E-03  0.1233921E+04  0.7818609E-02  0.9083673E-01
        4   -1    0    0  501    0  0.00000000000E+00  0.00000000000E+00  0.26273034706E+03  0.26273341654E+03  0.12699999809E+01 0.  1.
       -4   -1    0    0    0  501  0.00000000000E+00  0.00000000000E+00 -0.14487750863E+04  0.14487756429E+04  0.12699999809E+01 0. -1.
    10030    2    1    2    0    0  0.00000000000E+00  0.00000000000E+00 -0.11860447392E+04  0.17115090595E+04  0.12339210417E+04 0.  0.
        5    1    3    3  502    0 -0.30418216534E+03 -0.15787816760E+03  0.11852960809E+03  0.36266191350E+03  0.46999998093E+01 0.  1.
       -5    1    3    3    0  502  0.30418216534E+03  0.15787816760E+03 -0.13045743473E+04  0.13488471460E+04  0.46999998093E+01 0. -1.
</event>
<event>
 5   0  0.4310889E-03  0.1316261E+04  0.7818609E-02  0.9016768E-01
       -2   -1    0    0    0  501  0.00000000000E+00  0.00000000000E+00  0.56666687289E+03  0.56666687289E+03  0.25500000920E-02 0. -1.
        2   -1    0    0  501    0  0.00000000000E+00  0.00000000000E+00 -0.76435748107E+03  0.76435748108E+03  0.25500000920E-02 0.  1.
    10030    2    1    2    0    0  0.00000000000E+00  0.00000000000E+00 -0.19769060819E+03  0.13310243540E+04  0.13162614688E+04 0.  0.
        4    1    3    3  502    0 -0.48751680081E+03  0.57713393479E+02  0.34439836058E+03  0.59967933975E+03  0.12699999809E+01 0. -1.
       -4    1    3    3    0  502  0.48751680081E+03 -0.57713393479E+02 -0.54208896876E+03  0.73134501421E+03  0.12699999809E+01 0.  1.
</event>
<event>
 5   0  0.2458456E-03  0.1299600E+04  0.7818609E-02  0.9029883E-01
       -1   -1    0    0    0  501  0.00000000000E+00  0.00000000000E+00  0.42113668723E+03  0.42113668726E+03  0.50400001928E-02 0.  1.
        1   -1    0    0  501    0  0.00000000000E+00  0.00000000000E+00 -0.10026197765E+04  0.10026197765E+04  0.50400001928E-02 0. -1.
    10030    2    1    2    0    0  0.00000000000E+00  0.00000000000E+00 -0.58148308926E+03  0.14237564638E+04  0.12995998942E+04 0.  0.
        5    1    3    3  502    0 -0.44908515248E+03 -0.27475224602E+03 -0.70798287246E+03  0.88228572955E+03  0.46999998093E+01 0. -1.
       -5    1    3    3    0  502  0.44908515248E+03  0.27475224602E+03  0.12649978320E+03  0.54147073422E+03  0.46999998093E+01 0.  1.
</event>
<event>
 5   0  0.1661750E-03  0.7966786E+03  0.7818609E-02  0.9564837E-01
       -4   -1    0    0    0  501  0.00000000000E+00  0.00000000000E+00  0.47082076642E+03  0.47082247928E+03  0.12699999809E+01 0.  1.
        4   -1    0    0  501    0  0.00000000000E+00  0.00000000000E+00 -0.33701257698E+03  0.33701496991E+03  0.12699999809E+01 0. -1.
    10030    2    1    2    0    0  0.00000000000E+00  0.00000000000E+00  0.13380818944E+03  0.80783744918E+03  0.79667855045E+03 0.  0.
        4    1    3    3  502    0  0.24108621176E+03 -0.26550550553E+02 -0.25350451305E+03  0.35084703829E+03  0.12699999809E+01 0. -1.
       -4    1    3    3    0  502 -0.24108621176E+03  0.26550550553E+02  0.38731270250E+03  0.45699041090E+03  0.12699999809E+01 0.  1.
</event>
<event>
 5   0  0.1661750E-03  0.1250417E+04  0.7818609E-02  0.9069836E-01
        3   -1    0    0  501    0  0.00000000000E+00  0.00000000000E+00  0.53452006478E+03  0.53452007432E+03  0.10100000352E+00 0. -1.
       -3   -1    0    0    0  501  0.00000000000E+00  0.00000000000E+00 -0.73128318168E+03  0.73128318866E+03  0.10100000352E+00 0.  1.
    10030    2    1    2    0    0  0.00000000000E+00  0.00000000000E+00 -0.19676311690E+03  0.12658032630E+04  0.12504168011E+04 0.  0.
        3    1    3    3  502    0  0.42331666609E+02  0.49404358551E+03  0.28711199916E+03  0.57297848533E+03  0.10100000352E+00 0. -1.
       -3    1    3    3    0  502 -0.42331666609E+02 -0.49404358551E+03 -0.48387511607E+03  0.69282477766E+03  0.10100000352E+00 0.  1.
</event>
<event>
 5   0  0.1661750E-03  0.1280006E+04  0.7818609E-02  0.9045573E-01
        3   -1    0    0  501    0  0.00000000000E+00  0.00000000000E+00  0.35451783475E+03  0.35451784914E+03  0.10100000352E+00 0.  1.
       -3   -1    0    0    0  501  0.00000000000E+00  0.00000000000E+00 -0.11553828965E+04  0.11553829009E+04  0.10100000352E+00 0. -1.
    10030    2    1    2    0    0  0.00000000000E+00  0.00000000000E+00 -0.80086506175E+03  0.15099007501E+04  0.12800060265E+04 0.  0.
        5    1    3    3  502    0 -0.40179336771E+03 -0.44932296476E+03 -0.65412353770E+03  0.88951038756E+03  0.46999998093E+01 0. -1.
       -5    1    3    3    0  502  0.40179336771E+03  0.44932296476E+03 -0.14674152405E+03  0.62039036250E+03  0.46999998093E+01 0.  1.
</event>
<event>
 5   0  0.1661750E-03  0.1317023E+04  0.7818609E-02  0.9016174E-01
       -3   -1    0    0    0  501  0.00000000000E+00  0.00000000000E+00  0.49660180079E+03  0.49660181106E+03  0.10100000352E+00 0. -1.
        3   -1    0    0  501    0  0.00000000000E+00  0.00000000000E+00 -0.87320960619E+03  0.87320961203E+03  0.10100000352E+00 0.  1.
    10030    2    1    2    0    0  0.00000000000E+00  0.00000000000E+00 -0.37660780541E+03  0.13698114231E+04  0.13170231189E+04 0.  0.
        2    1    3    3  502    0 -0.33687336647E+03  0.10335317132E+03  0.39029554831E+03  0.52582901983E+03  0.25500000920E-02 0. -1.
       -2    1    3    3    0  502  0.33687336647E+03 -0.10335317132E+03 -0.76690335372E+03  0.84398240326E+03  0.25500000920E-02 0.  1.
</event>
<event>
 5   0  0.2462055E-03  0.8997607E+03  0.7818609E-02  0.9425881E-01
        1   -1    0    0  501    0  0.00000000000E+00  0.00000000000E+00  0.91868950689E+03  0.91868950690E+03  0.50400001928E-02 0.  1.
       -1   -1    0    0    0  501  0.00000000000E+00  0.00000000000E+00 -0.22030547868E+03  0.22030547874E+03  0.50400001928E-02 0. -1.
    10030    2    1    2    0    0  0.00000000000E+00  0.00000000000E+00  0.69838402821E+03  0.11389949856E+04  0.89976070510E+03 0.  0.
        2    1    3    3  502    0  0.11683907603E+03  0.18380933089E+03 -0.14911582061E+03  0.26395599590E+03  0.25500000920E-02 0. -1.
       -2    1    3    3    0  502 -0.11683907603E+03 -0.18380933089E+03  0.84749984882E+03  0.87503898974E+03  0.25500000920E-02 0.  1.
</event>
<event>
 5   0  0.2370801E-03  0.1377764E+04  0.7818609E-02  0.8970073E-01
        1   -1    0    0  501    0  0.00000000000E+00  0.00000000000E+00  0.52578585343E+03  0.52578585346E+03  0.50400001928E-02 0. -1.
       -1   -1    0    0    0  501  0.00000000000E+00  0.00000000000E+00 -0.90256949012E+03  0.90256949013E+03  0.50400001928E-02 0.  1.
    10030    2    1    2    0    0  0.00000000000E+00  0.00000000000E+00 -0.37678363668E+03  0.14283553436E+04  0.13777637964E+04 0.  0.
        3    1    3    3  502    0  0.68443224691E+03  0.38672497653E+02 -0.25882164297E+03  0.73275624580E+03  0.10100000352E+00 0.  1.
       -3    1    3    3    0  502 -0.68443224691E+03 -0.38672497653E+02 -0.11796199372E+03  0.69559909779E+03  0.10100000352E+00 0. -1.
</event>
<event>
 5   0  0.2458456E-03  0.1312967E+04  0.7818609E-02  0.9019345E-01
        1   -1    0    0  501    0  0.00000000000E+00  0.00000000000E+00  0.61174728270E+03  0.61174728272E+03  0.50400001928E-02 0. -1.
       -1   -1    0    0    0  501  0.00000000000E+00  0.00000000000E+00 -0.70449097206E+03  0.70449097208E+03  0.50400001928E-02 0.  1.
    10030    2    1    2    0    0  0.00000000000E+00  0.00000000000E+00 -0.92743689359E+02  0.13162382548E+04  0.13129667747E+04 0.  0.
        5    1    3    3  502    0 -0.39463652139E+03 -0.10133106480E+03 -0.56237990863E+03  0.69447766007E+03  0.46999998093E+01 0.  1.
       -5    1    3    3    0  502  0.39463652139E+03  0.10133106480E+03  0.46963621927E+03  0.62176059473E+03  0.46999998093E+01 0. -1.
</event>
<event>
 5   0  0.4388937E-03  0.1221086E+04  0.7818609E-02  0.9094598E-01
       -2   -1    0    0    0  501  0.00000000000E+00  0.00000000000E+00  0.44241931394E+03  0.44241931395E+03  0.25500000920E-02 0. -1.
        2   -1    0    0  501    0  0.00000000000E+00  0.00000000000E+00 -0.84255554297E+03  0.84255554297E+03  0.25500000920E-02 0.  1.
    10030    2    1    2    0    0  0.00000000000E+00  0.00000000000E+00 -0.40013622903E+03  0.12849748569E+04  0.12210861481E+04 0.  0.
        5    1    3    3  502    0  0.81071320879E+02 -0.47167909788E+03 -0.59896174490E+03  0.76670137100E+03  0.46999998093E+01 0.  1.
       -5    1    3    3    0  502 -0.81071320879E+02  0.47167909788E+03  0.19882551587E+03  0.51827348592E+03  0.46999998093E+01 0. -1.
</event>
<event>
 5   0  0.2356769E-03  0.1356596E+04  0.7818609E-02  0.8985850E-01
       -1   -1    0    0    0  501  0.00000000000E+00  0.00000000000E+00  0.64228511362E+03  0.64228511364E+03  0.50400001928E-02 0.  1.
        1   -1    0    0  501    0  0.00000000000E+00  0.00000000000E+00 -0.71633024759E+03  0.71633024761E+03  0.50400001928E-02 0. -1.
    10030    2    1    2    0    0  0.00000000000E+00  0.00000000000E+00 -0.74045133972E+02  0.13586153612E+04  0.13565961145E+04 0.  0.
        1    1    3    3  502    0  0.37325343940E+03  0.32885133029E+03  0.42477866065E+03  0.65413931087E+03  0.50400001928E-02 0.  1.
       -1    1    3    3    0  502 -0.37325343940E+03 -0.32885133029E+03 -0.49882379462E+03  0.70447605038E+03  0.50400001928E-02 0. -1.
</event>
<event>
 5   0  0.2458456E-03  0.1564975E+04  0.7818609E-02  0.8842359E-01
        1   -1    0    0  501    0  0.00000000000E+00  0.00000000000E+00  0.10273392563E+04  0.10273392563E+04  0.50400001928E-02 0. -1.
       -1   -1    0    0    0  501  0.00000000000E+00  0.00000000000E+00 -0.59599242158E+03  0.59599242160E+03  0.50400001928E-02 0.  1.
    10030    2    1    2    0    0  0.00000000000E+00  0.00000000000E+00  0.43134683473E+03  0.16233316779E+04  0.15649746467E+04 0.  0.
        5    1    3    3  502    0  0.75994417542E+02 -0.77868063870E+03  0.22819125281E+03  0.81499204072E+03  0.46999998093E+01 0. -1.
       -5    1    3    3    0  502 -0.75994417542E+02  0.77868063870E+03  0.20315558192E+03  0.80833963719E+03  0.46999998093E+01 0.  1.
</event>
<event>
 5   0  0.2511542E-03  0.1280352E+04  0.7818609E-02  0.9045293E-01
        1   -1    0    0  501    0  0.00000000000E+00  0.00000000000E+00  0.10074427582E+04  0.10074427582E+04  0.50400001928E-02 0.  1.
       -1   -1    0    0    0  501  0.00000000000E+00  0.00000000000E+00 -0.40679731044E+03  0.40679731047E+03  0.50400001928E-02 0. -1.
    10030    2    1    2    0    0  0.00000000000E+00  0.00000000000E+00  0.60064544778E+03  0.14142400687E+04  0.12803515213E+04 0.  0.
        4    1    3    3  502    0 -0.47316894336E+02 -0.16154409905E+03  0.98255829700E+03  0.99687401627E+03  0.12699999809E+01 0.  1.
       -4    1    3    3    0  502  0.47316894336E+02  0.16154409905E+03 -0.38191284921E+03  0.41736605243E+03  0.12699999809E+01 0. -1.
</event>
<event>
 5   0  0.2462055E-03  0.1319671E+04  0.7818609E-02  0.9014110E-01
       -1   -1    0    0    0  501  0.00000000000E+00  0.00000000000E+00  0.38594619783E+03  0.38594619787E+03  0.50400001928E-02 0. -1.
        1   -1    0    0  501    0  0.00000000000E+00  0.00000000000E+00 -0.11280924373E+04  0.11280924373E+04  0.50400001928E-02 0.  1.
    10030    2    1    2    0    0  0.00000000000E+00  0.00000000000E+00 -0.74214623949E+03  0.15140386352E+04  0.13196711515E+04 0.  0.
        2    1    3    3  502    0 -0.18624245940E+03 -0.20643213074E+03 -0.10576082868E+04  0.10935427594E+04  0.25500000920E-02 0.  1.
       -2    1    3    3    0  502  0.18624245940E+03  0.20643213074E+03  0.31546204731E+03  0.42049587582E+03  0.25500000920E-02 0. -1.
</event>
<event>
 5   0  0.4263540E-03  0.1311156E+04  0.7818609E-02  0.9020765E-01
        2   -1    0    0  501    0  0.00000000000E+00  0.00000000000E+00  0.75177659624E+03  0.75177659624E+03  0.25500000920E-02 0. -1.
       -2   -1    0    0    0  501  0.00000000000E+00  0.00000000000E+00 -0.57168935678E+03  0.57168935678E+03  0.25500000920E-02 0.  1.
    10030    2    1    2    0    0  0.00000000000E+00  0.00000000000E+00  0.18008723946E+03  0.13234659530E+04  0.13111562512E+04 0.  0.
        2    1    3    3  502    0  0.50219085502E+01 -0.21555186683E+03 -0.53487694493E+03  0.57669851143E+03  0.25500000920E-02 0.  1.
       -2    1    3    3    0  502 -0.50219085502E+01  0.21555186683E+03  0.71496418439E+03  0.74676744160E+03  0.25500000920E-02 0. -1.
</event>
<event>
 5   0  0.4306214E-03  0.1161140E+04  0.7818609E-02  0.9147568E-01
       -2   -1    0    0    0  501  0.00000000000E+00  0.00000000000E+00  0.50799957873E+03  0.50799957874E+03  0.25500000920E-02 0. -1.
        2   -1    0    0  501    0  0.00000000000E+00  0.00000000000E+00 -0.66350710203E+03  0.66350710204E+03  0.25500000920E-02 0.  1.
    10030    2    1    2    0    0  0.00000000000E+00  0.00000000000E+00 -0.15550752330E+03  0.11715066808E+04  0.11611396614E+04 0.  0.
        3    1    3    3  502    0 -0.21361015409E+03 -0.53829656292E+03 -0.36537705805E+02  0.58028226039E+03  0.10100000352E+00 0.  1.
       -3    1    3    3    0  502  0.21361015409E+03  0.53829656292E+03 -0.11896981750E+03  0.59122442038E+03  0.10100000352E+00 0. -1.
</event>
<event>
 5   0  0.4310889E-03  0.1365700E+04  0.7818609E-02  0.8979028E-01
       -2   -1    0    0    0  501  0.00000000000E+00  0.00000000000E+00  0.33658197556E+03  0.33658197557E+03  0.25500000920E-02 0. -1.
        2   -1    0    0  501    0  0.00000000000E+00  0.00000000000E+00 -0.13853507118E+04  0.13853507118E+04  0.25500000920E-02 0.  1.
    10030    2    1    2    0    0  0.00000000000E+00  0.00000000000E+00 -0.10487687362E+04  0.17219326874E+04  0.13656999369E+04 0.  0.
        4    1    3    3  502    0 -0.41815780845E+03  0.36159848164E+03 -0.10297810687E+04  0.11687857276E+04  0.12699999809E+01 0.  1.
       -4    1    3    3    0  502  0.41815780845E+03 -0.36159848164E+03 -0.18987667547E+02  0.55314695978E+03  0.12699999809E+01 0. -1.
</event>
<event>
 5   0  0.2370801E-03  0.1334765E+04  0.7818609E-02  0.9002442E-01
       -1   -1    0    0    0  501  0.00000000000E+00  0.00000000000E+00  0.80887287012E+03  0.80887287014E+03  0.50400001928E-02 0.  1.
        1   -1    0    0  501    0  0.00000000000E+00  0.00000000000E+00 -0.55064180168E+03  0.55064180170E+03  0.50400001928E-02 0. -1.
    10030    2    1    2    0    0  0.00000000000E+00  0.00000000000E+00  0.25823106844E+03  0.13595146718E+04  0.13347647202E+04 0.  0.
        3    1    3    3  502    0 -0.13383928859E+02  0.29910875314E+02  0.80805297192E+03  0.80871713575E+03  0.10100000352E+00 0.  1.
       -3    1    3    3    0  502  0.13383928859E+02 -0.29910875314E+02 -0.54982190348E+03  0.55079753609E+03  0.10100000352E+00 0. -1.
</event>
<event>
 5   0  0.4453011E-03  0.6449551E+03  0.7818609E-02  0.9816292E-01
       -2   -1    0    0    0  501  0.00000000000E+00  0.00000000000E+00  0.11180265755E+03  0.11180265758E+03  0.25500000920E-02 0. -1.
        2   -1    0    0  501    0  0.00000000000E+00  0.00000000000E+00 -0.93013669572E+03  0.93013669573E+03  0.25500000920E-02 0.  1.
    10030    2    1    2    0    0  0.00000000000E+00  0.00000000000E+00 -0.81833403818E+03  0.10419393533E+04  0.64495505109E+03 0.  0.
        1    1    3    3  502    0  0.90156527165E+02  0.24809962141E+03 -0.70841015222E+03  0.75599376012E+03  0.50400001928E-02 0.  1.
       -1    1    3    3    0  502 -0.90156527165E+02 -0.24809962141E+03 -0.10992388595E+03  0.28594559319E+03  0.50400001928E-02 0. -1.
</event>
<event>
 5   0  0.4388937E-03  0.1341887E+04  0.7818609E-02  0.8996993E-01
       -2   -1    0    0    0  501  0.00000000000E+00  0.00000000000E+00  0.10402294918E+04  0.10402294918E+04  0.25500000920E-02 0. -1.
        2   -1    0    0  501    0  0.00000000000E+00  0.00000000000E+00 -0.43275549856E+03  0.43275549857E+03  0.25500000920E-02 0.  1.
    10030    2    1    2    0    0  0.00000000000E+00  0.00000000000E+00  0.60747399319E+03  0.14729849903E+04  0.13418867796E+04 0.  0.
        5    1    3    3  502    0 -0.52578101038E+03 -0.37780648820E+03  0.49688028407E+03  0.81614675156E+03  0.46999998093E+01 0. -1.
       -5    1    3    3    0  502  0.52578101038E+03  0.37780648820E+03  0.11059370913E+03  0.65683823876E+03  0.46999998093E+01 0.  1.
</event>
<event>
 5   0  0.2511542E-03  0.1298186E+04  0.7818609E-02  0.9031005E-01
        1   -1    0    0  501    0  0.00000000000E+00  0.00000000000E+00  0.22030093832E+03  0.22030093838E+03  0.50400001928E-02 0.  1.
       -1   -1    0    0    0  501  0.00000000000E+00  0.00000000000E+00 -0.19124830958E+04  0.19124830958E+04  0.50400001928E-02 0. -1.
    10030    2    1    2    0    0  0.00000000000E+00  0.00000000000E+00 -0.16921821574E+04  0.21327840342E+04  0.12981861509E+04 0.  0.
        4    1    3    3  502    0  0.11686801033E+03 -0.32395567506E+03  0.57822132599E+02  0.34921400768E+03  0.12699999809E+01 0.  1.
       -4    1    3    3    0  502 -0.11686801033E+03  0.32395567506E+03 -0.17500042900E+04  0.17835700265E+04  0.12699999809E+01 0. -1.
</event>
<event>
 5   0  0.2462055E-03  0.1272404E+04  0.7818609E-02  0.9051740E-01
        1   -1    0    0  501    0  0.00000000000E+00  0.00000000000E+00  0.87632716858E+03  0.87632716860E+03  0.50400001928E-02 0.  1.
       -1   -1    0    0    0  501  0.00000000000E+00  0.00000000000E+00 -0.46187427434E+03  0.46187427437E+03  0.50400001928E-02 0. -1.
    10030    2    1    2    0    0  0.00000000000E+00  0.00000000000E+00  0.41445289424E+03  0.13382014430E+04  0.12724039848E+04 0.  0.
        2    1    3    3  502    0  0.58437622153E+03  0.22967287647E+03  0.31503467053E+03  0.70248988755E+03  0.25500000920E-02 0.  1.
       -2    1    3    3    0  502 -0.58437622153E+03 -0.22967287647E+03  0.99418223714E+02  0.63571155542E+03  0.25500000920E-02 0. -1.
</event>
<event>
 5   0  0.2462055E-03  0.1416989E+04  0.7818609E-02  0.8941612E-01
        1   -1    0    0  501    0  0.00000000000E+00  0.00000000000E+00  0.42013312013E+03  0.42013312016E+03  0.50400001928E-02 0. -1.
       -1   -1    0    0    0  501  0.00000000000E+00  0.00000000000E+00 -0.11947740574E+04  0.11947740574E+04  0.50400001928E-02 0.  1.
    10030    2    1    2    0    0  0.00000000000E+00  0.00000000000E+00 -0.77464093725E+03  0.16149071775E+04  0.14169885710E+04 0.  0.
        2    1    3    3  502    0  0.48411641122E+03  0.19613278654E+03  0.15821088343E+03  0.54577234559E+03  0.25500000920E-02 0. -1.
       -2    1    3    3    0  502 -0.48411641122E+03 -0.19613278654E+03 -0.93285182068E+03  0.10691348320E+04  0.25500000920E-02 0.  1.
</event>
<event>
 5   0  0.2370801E-03  0.1297576E+04  0.7818609E-02  0.9031489E-01
        1   -1    0    0  501    0  0.00000000000E+00  0.00000000000E+00  0.97223987279E+03  0.97223987281E+03  0.50400001928E-02 0. -1.
       -1   -1    0    0    0  501  0.00000000000E+00  0.00000000000E+00 -0.43294471400E+03  0.43294471403E+03  0.50400001928E-02 0.  1.
    10030    2    1    2    0    0  0.00000000000E+00  0.00000000000E+00  0.53929515880E+03  0.14051845868E+04  0.12975763772E+04 0.  0.
        3    1    3    3  502    0  0.26870395482E+03  0.58709956831E+03  0.20082922082E+03  0.67618052662E+03  0.10100000352E+00 0. -1.
       -3    1    3    3    0  502 -0.26870395482E+03 -0.58709956831E+03  0.33846593798E+03  0.72900406022E+03  0.10100000352E+00 0.  1.
</event>
<event>
 5   0  0.2462055E-03  0.1266728E+04  0.7818609E-02  0.9056374E-01
       -1   -1    0    0    0  501  0.00000000000E+00  0.00000000000E+00  0.47800402873E+03  0.47800402876E+03  0.50400001928E-02 0.  1.
        1   -1    0    0  501    0  0.00000000000E+00  0.00000000000E+00 -0.83921894207E+03  0.83921894208E+03  0.50400001928E-02 0. -1.
    10030    2    1    2    0    0  0.00000000000E+00  0.00000000000E+00 -0.36121491334E+03  0.13172229708E+04  0.12667281245E+04 0.  0.
        2    1    3    3  502    0 -0.40504741950E+03 -0.37403976750E+03 -0.50477257918E+03  0.74750552935E+03  0.25500000920E-02 0.  1.
       -2    1    3    3    0  502  0.40504741950E+03  0.37403976750E+03  0.14355766584E+03  0.56971744149E+03  0.25500000920E-02 0. -1.
</event>
<event>
 5   0  0.4263540E-03  0.1283255E+04  0.7818609E-02  0.9042950E-01
       -2   -1    0    0    0  501  0.00000000000E+00  0.00000000000E+00  0.49195105563E+03  0.49195105564E+03  0.25500000920E-02 0.  1.
        2   -1    0    0  501    0  0.00000000000E+00  0.00000000000E+00 -0.83684364738E+03  0.83684364738E+03  0.25500000920E-02 0. -1.
    10030    2    1    2    0    0  0.00000000000E+00  0.00000000000E+00 -0.34489259175E+03  0.13287947030E+04  0.12832554161E+04 0.  0.
        2    1    3    3  502    0 -0.44772652989E+03  0.45534703044E+03 -0.10789504306E+03  0.64764288309E+03  0.25500000920E-02 0.  1.
       -2    1    3    3    0  502  0.44772652989E+03 -0.45534703044E+03 -0.23699754868E+03  0.68115181993E+03  0.25500000920E-02 0. -1.
</event>
<event>
 5   0  0.4263540E-03  0.1278230E+04  0.7818609E-02  0.9047010E-01
        2   -1    0    0  501    0  0.00000000000E+00  0.00000000000E+00  0.51614797384E+03  0.51614797385E+03  0.25500000920E-02 0.  1.
       -2   -1    0    0    0  501  0.00000000000E+00  0.00000000000E+00 -0.79137725584E+03  0.79137725585E+03  0.25500000920E-02 0. -1.
    10030    2    1    2    0    0  0.00000000000E+00  0.00000000000E+00 -0.27522928200E+03  0.13075252297E+04  0.12782296619E+04 0.  0.
        2    1    3    3  502    0 -0.56841504803E+03  0.19954116262E+03  0.80714263889E+02  0.60780517833E+03  0.25500000920E-02 0.  1.
       -2    1    3    3    0  502  0.56841504803E+03 -0.19954116262E+03 -0.35594354589E+03  0.69972005136E+03  0.25500000920E-02 0. -1.
</event>
<event>
 5   0  0.4306214E-03  0.7591678E+03  0.7818609E-02  0.9621076E-01
        2   -1    0    0  501    0  0.00000000000E+00  0.00000000000E+00  0.36300274712E+03  0.36300274713E+03  0.25500000920E-02 0.  1.
       -2   -1    0    0    0  501  0.00000000000E+00  0.00000000000E+00 -0.39692241667E+03  0.39692241668E+03  0.25500000920E-02 0. -1.
    10030    2    1    2    0    0  0.00000000000E+00  0.00000000000E+00 -0.33919669553E+02  0.75992516380E+03  0.75916777500E+03 0.  0.
        3    1    3    3  502    0  0.36228020956E+03 -0.10303691566E+03  0.30207884587E+02  0.37785722531E+03  0.10100000352E+00 0.  1.
       -3    1    3    3    0  502 -0.36228020956E+03  0.10303691566E+03 -0.64127554140E+02  0.38206793850E+03  0.10100000352E+00 0. -1.
</event>
<event>
 5   0  0.1661750E-03  0.6686197E+03  0.7818609E-02  0.9772455E-01
        3   -1    0    0  501    0  0.00000000000E+00  0.00000000000E+00  0.72305940232E+03  0.72305940937E+03  0.10100000352E+00 0.  1.
       -3   -1    0    0    0  501  0.00000000000E+00  0.00000000000E+00 -0.15456966643E+03  0.15456969943E+03  0.10100000352E+00 0. -1.
    10030    2    1    2    0    0  0.00000000000E+00  0.00000000000E+00  0.56848973588E+03  0.87762910880E+03  0.66861967726E+03 0.  0.
        5    1    3    3  502    0  0.22260069652E+03 -0.43033358198E+02 -0.38179204049E+02  0.22996234828E+03  0.46999998093E+01 0. -1.
       -5    1    3    3    0  502 -0.22260069652E+03  0.43033358198E+02  0.60666893993E+03  0.64766676052E+03  0.46999998093E+01 0.  1.
</event>
<event>
 5   0  0.2356769E-03  0.1297675E+04  0.7818609E-02  0.9031411E-01
        1   -1    0    0  501    0  0.00000000000E+00  0.00000000000E+00  0.11588140694E+04  0.11588140694E+04  0.50400001928E-02 0. -1.
       -1   -1    0    0    0  501  0.00000000000E+00  0.00000000000E+00 -0.36329399198E+03  0.36329399201E+03  0.50400001928E-02 0.  1.
    10030    2    1    2    0    0  0.00000000000E+00  0.00000000000E+00  0.79552007743E+03  0.15221080614E+04  0.12976751354E+04 0.  0.
        1    1    3    3  502    0  0.50540217782E+03 -0.99211846675E+02 -0.65095958899E+02  0.51914529349E+03  0.50400001928E-02 0.  1.
       -1    1    3    3    0  502 -0.50540217782E+03  0.99211846675E+02  0.86061603632E+03  0.10029627679E+04  0.50400001928E-02 0. -1.
</event>
<event>
 5   0  0.2462055E-03  0.1263228E+04  0.7818609E-02  0.9059245E-01
       -1   -1    0    0    0  501  0.00000000000E+00  0.00000000000E+00  0.44482001020E+03  0.44482001023E+03  0.50400001928E-02 0. -1.
        1   -1    0    0  501    0  0.00000000000E+00  0.00000000000E+00 -0.89684890019E+03  0.89684890020E+03  0.50400001928E-02 0.  1.
    10030    2    1    2    0    0  0.00000000000E+00  0.00000000000E+00 -0.45202888999E+03  0.13416689104E+04  0.12632281456E+04 0.  0.
        2    1    3    3  502    0  0.17282241099E+03 -0.56839613471E+03  0.17662513798E+01  0.59409163548E+03  0.25500000920E-02 0. -1.
       -2    1    3    3    0  502 -0.17282241099E+03  0.56839613471E+03 -0.45379514137E+03  0.74757727495E+03  0.25500000920E-02 0.  1.
</event>
<event>
 5   0  0.2462055E-03  0.1273215E+04  0.7818609E-02  0.9051080E-01
       -1   -1    0    0    0  501  0.00000000000E+00  0.00000000000E+00  0.82322812390E+03  0.82322812392E+03  0.50400001928E-02 0. -1.
        1   -1    0    0  501    0  0.00000000000E+00  0.00000000000E+00 -0.49229268002E+03  0.49229268004E+03  0.50400001928E-02 0.  1.
    10030    2    1    2    0    0  0.00000000000E+00  0.00000000000E+00  0.33093544389E+03  0.13155208040E+04  0.12732151105E+04 0.  0.
        2    1    3    3  502    0  0.18937719869E+03  0.21384225854E+03 -0.42236237630E+03  0.50988450834E+03  0.25500000920E-02 0.  1.
       -2    1    3    3    0  502 -0.18937719869E+03 -0.21384225854E+03  0.75329782019E+03  0.80563629562E+03  0.25500000920E-02 0. -1.
</event>
<event>
 5   0  0.4306214E-03  0.1301886E+04  0.7818609E-02  0.9028071E-01
        2   -1    0    0  501    0  0.00000000000E+00  0.00000000000E+00  0.51321362970E+03  0.51321362970E+03  0.25500000920E-02 0. -1.
       -2   -1    0    0    0  501  0.00000000000E+00  0.00000000000E+00 -0.82563436934E+03  0.82563436935E+03  0.25500000920E-02 0.  1.
    10030    2    1    2    0    0  0.00000000000E+00  0.00000000000E+00 -0.31242073965E+03  0.13388479990E+04  0.13018860342E+04 0.  0.
        3    1    3    3  502    0  0.33341644823E+03  0.55637320820E+03 -0.21262328357E+03  0.68258797650E+03  0.10100000352E+00 0. -1.
       -3    1    3    3    0  502 -0.33341644823E+03 -0.55637320820E+03 -0.99797456077E+02  0.65626002254E+03  0.10100000352E+00 0.  1.
</event>
<event>
 5   0  0.4263540E-03  0.1304435E+04  0.7818609E-02  0.9026055E-01
        2   -1    0    0  501    0  0.00000000000E+00  0.00000000000E+00  0.15954038523E+04  0.15954038523E+04  0.25500000920E-02 0.  1.
       -2   -1    0    0    0  501  0.00000000000E+00  0.00000000000E+00 -0.26663326540E+03  0.26663326541E+03  0.25500000920E-02 0. -1.
    10030    2    1    2    0    0  0.00000000000E+00  0.00000000000E+00  0.13287705869E+04  0.18620371177E+04  0.13044351096E+04 0.  0.
        2    1    3    3  502    0  0.19395759769E+03 -0.17236476965E+03  0.15185525003E+04  0.15405618649E+04  0.25500000920E-02 0.  1.
       -2    1    3    3    0  502 -0.19395759769E+03  0.17236476965E+03 -0.18978191337E+03  0.32147525281E+03  0.25500000920E-02 0. -1.
</event>
<event>
 5   0  0.4263540E-03  0.1314587E+04  0.7818609E-02  0.9018077E-01
        2   -1    0    0  501    0  0.00000000000E+00  0.00000000000E+00  0.82449370465E+03  0.82449370465E+03  0.25500000920E-02 0.  1.
       -2   -1    0    0    0  501  0.00000000000E+00  0.00000000000E+00 -0.52400033313E+03  0.52400033313E+03  0.25500000920E-02 0. -1.
    10030    2    1    2    0    0  0.00000000000E+00  0.00000000000E+00  0.30049337152E+03  0.13484940378E+04  0.13145873511E+04 0.  0.
        2    1    3    3  502    0  0.17898780989E+03  0.45556748481E+02 -0.49683492840E+03  0.53005377040E+03  0.25500000920E-02 0. -1.
       -2    1    3    3    0  502 -0.17898780989E+03 -0.45556748481E+02  0.79732829992E+03  0.81844026739E+03  0.25500000920E-02 0.  1.
</event>
<event>
 5   0  0.2511542E-03  0.1319350E+04  0.7818609E-02  0.9014360E-01
        1   -1    0    0  501    0  0.00000000000E+00  0.00000000000E+00  0.44733806397E+03  0.44733806400E+03  0.50400001928E-02 0. -1.
       -1   -1    0    0    0  501  0.00000000000E+00  0.00000000000E+00 -0.97280105136E+03  0.97280105137E+03  0.50400001928E-02 0.  1.
    10030    2    1    2    0    0  0.00000000000E+00  0.00000000000E+00 -0.52546298739E+03  0.14201391154E+04  0.13193497474E+04 0.  0.
        4    1    3    3  502    0 -0.29972717687E+03 -0.29994914233E+02  0.36898684773E+03  0.47632864929E+03  0.12699999809E+01 0. -1.
       -4    1    3    3    0  502  0.29972717687E+03  0.29994914233E+02 -0.89444983513E+03  0.94381046608E+03  0.12699999809E+01 0.  1.
</event>
<event>
 5   0  0.2458456E-03  0.1186899E+04  0.7818609E-02  0.9124402E-01
        1   -1    0    0  501    0  0.00000000000E+00  0.00000000000E+00  0.20520261476E+04  0.20520261476E+04  0.50400001928E-02 0. -1.
       -1   -1    0    0    0  501  0.00000000000E+00  0.00000000000E+00 -0.17162657966E+03  0.17162657973E+03  0.50400001928E-02 0.  1.
    10030    2    1    2    0    0  0.00000000000E+00  0.00000000000E+00  0.18803995680E+04  0.22236527274E+04  0.11868988654E+04 0.  0.
        5    1    3    3  502    0 -0.34309404043E+03  0.17509316796E+03  0.17859529245E+04  0.18270251987E+04  0.46999998093E+01 0. -1.
       -5    1    3    3    0  502  0.34309404043E+03 -0.17509316796E+03  0.94446643444E+02  0.39662752867E+03  0.46999998093E+01 0.  1.
</event>
<event>
 5   0  0.4453011E-03  0.1289438E+04  0.7818609E-02  0.9037983E-01
        2   -1    0    0  501    0  0.00000000000E+00  0.00000000000E+00  0.13216351067E+04  0.13216351067E+04  0.25500000920E-02 0. -1.
       -2   -1    0    0    0  501  0.00000000000E+00  0.00000000000E+00 -0.31450618444E+03  0.31450618445E+03  0.25500000920E-02 0.  1.
    10030    2    1    2    0    0  0.00000000000E+00  0.00000000000E+00  0.10071289223E+04  0.16361412912E+04  0.12894377296E+04 0.  0.
        1    1    3    3  502    0  0.16755788804E+03 -0.52868460390E+03  0.86414881603E+02  0.56129367361E+03  0.50400001928E-02 0.  1.
       -1    1    3    3    0  502 -0.16755788804E+03  0.52868460390E+03  0.92071404068E+03  0.10748476176E+04  0.50400001928E-02 0. -1.
</event>
<event>
 5   0  0.4306214E-03  0.1293563E+04  0.7818609E-02  0.9034686E-01
       -2   -1    0    0    0  501  0.00000000000E+00  0.00000000000E+00  0.22210006059E+03  0.22210006060E+03  0.25500000920E-02 0. -1.
        2   -1    0    0  501    0  0.00000000000E+00  0.00000000000E+00 -0.18835030335E+04  0.18835030335E+04  0.25500000920E-02 0.  1.
    10030    2    1    2    0    0  0.00000000000E+00  0.00000000000E+00 -0.16614029730E+04  0.21056030941E+04  0.12935627358E+04 0.  0.
        3    1    3    3  502    0 -0.13730464923E+03  0.61367771193E+03 -0.10768814668E+04  0.12470471541E+04  0.10100000352E+00 0. -1.
       -3    1    3    3    0  502  0.13730464923E+03 -0.61367771193E+03 -0.58452150612E+03  0.85855594001E+03  0.10100000352E+00 0.  1.
</event>
<event>
 5   0  0.1661750E-03  0.8751053E+03  0.7818609E-02  0.9457247E-01
        4   -1    0    0  501    0  0.00000000000E+00  0.00000000000E+00  0.43467169270E+03  0.43467354800E+03  0.12699999809E+01 0. -1.
       -4   -1    0    0    0  501  0.00000000000E+00  0.00000000000E+00 -0.44044894959E+03  0.44045078056E+03  0.12699999809E+01 0.  1.
    10030    2    1    2    0    0  0.00000000000E+00  0.00000000000E+00 -0.57772568958E+01  0.87512432856E+03  0.87510525867E+03 0.  0.
        3    1    3    3  502    0  0.14178480559E+03  0.37120157173E+03  0.18030585261E+03  0.43635278003E+03  0.10100000352E+00 0. -1.
       -3    1    3    3    0  502 -0.14178480559E+03 -0.37120157173E+03 -0.18608310951E+03  0.43877154853E+03  0.10100000352E+00 0.  1.
</event>
<event>
 5   0  0.4306214E-03  0.1315269E+04  0.7818609E-02  0.9017544E-01
       -2   -1    0    0    0  501  0.00000000000E+00  0.00000000000E+00  0.61771088388E+03  0.61771088389E+03  0.25500000920E-02 0. -1.
        2   -1    0    0  501    0  0.00000000000E+00  0.00000000000E+00 -0.70013846453E+03  0.70013846453E+03  0.25500000920E-02 0.  1.
    10030    2    1    2    0    0  0.00000000000E+00  0.00000000000E+00 -0.82427580646E+02  0.13178493484E+04  0.13152690216E+04 0.  0.
        3    1    3    3  502    0 -0.43128025321E+03  0.49224326425E+03 -0.10597069668E+03  0.66297502725E+03  0.10100000352E+00 0. -1.
       -3    1    3    3    0  502  0.43128025321E+03 -0.49224326425E+03  0.23543116031E+02  0.65487432117E+03  0.10100000352E+00 0.  1.
</event>
<event>
 5   0  0.4263540E-03  0.1295044E+04  0.7818609E-02  0.9033505E-01
       -2   -1    0    0    0  501  0.00000000000E+00  0.00000000000E+00  0.44855069292E+03  0.44855069293E+03  0.25500000920E-02 0.  1.
        2   -1    0    0  501    0  0.00000000000E+00  0.00000000000E+00 -0.93475450121E+03  0.93475450122E+03  0.25500000920E-02 0. -1.
    10030    2    1    2    0    0  0.00000000000E+00  0.00000000000E+00 -0.48620380829E+03  0.13833051941E+04  0.12950440598E+04 0.  0.
        2    1    3    3  502    0  0.14066504670E+03  0.47568293644E+03 -0.68766901386E+03  0.84790894795E+03  0.25500000920E-02 0. -1.
       -2    1    3    3    0  502 -0.14066504670E+03 -0.47568293644E+03  0.20146520557E+03  0.53539624620E+03  0.25500000920E-02 0.  1.
</event>
<event>
 5   0  0.4306214E-03  0.1314407E+04  0.7818609E-02  0.9018217E-01
        2   -1    0    0  501    0  0.00000000000E+00  0.00000000000E+00  0.40155970995E+03  0.40155970995E+03  0.25500000920E-02 0. -1.
       -2   -1    0    0    0  501  0.00000000000E+00  0.00000000000E+00 -0.10755974664E+04  0.10755974664E+04  0.25500000920E-02 0.  1.
    10030    2    1    2    0    0  0.00000000000E+00  0.00000000000E+00 -0.67403775641E+03  0.14771571763E+04  0.13144072529E+04 0.  0.
        3    1    3    3  502    0  0.63627039264E+03 -0.15346200626E+03 -0.27028633132E+03  0.70812803293E+03  0.10100000352E+00 0.  1.
       -3    1    3    3    0  502 -0.63627039264E+03  0.15346200626E+03 -0.40375142510E+03  0.76902914339E+03  0.10100000352E+00 0. -1.
</event>
<event>
 5   0  0.2370801E-03  0.1280140E+04  0.7818609E-02  0.9045464E-01
       -1   -1    0    0    0  501  0.00000000000E+00  0.00000000000E+00  0.93405544044E+03  0.93405544045E+03  0.50400001928E-02 0.  1.
        1   -1    0    0  501    0  0.00000000000E+00  0.00000000000E+00 -0.43861365191E+03  0.43861365194E+03  0.50400001928E-02 0. -1.
    10030    2    1    2    0    0  0.00000000000E+00  0.00000000000E+00  0.49544178853E+03  0.13726690924E+04  0.12801397859E+04 0.  0.
        3    1    3    3  502    0 -0.15543853381E+03  0.51331453355E+01  0.91348712192E+03  0.92663165232E+03  0.10100000352E+00 0.  1.
       -3    1    3    3    0  502  0.15543853381E+03 -0.51331453355E+01 -0.41804533339E+03  0.44603744007E+03  0.10100000352E+00 0. -1.
</event>
<event>
 5   0  0.2458456E-03  0.1340032E+04  0.7818609E-02  0.8998408E-01
        1   -1    0    0  501    0  0.00000000000E+00  0.00000000000E+00  0.94154054670E+03  0.94154054671E+03  0.50400001928E-02 0.  1.
       -1   -1    0    0    0  501  0.00000000000E+00  0.00000000000E+00 -0.47679438020E+03  0.47679438022E+03  0.50400001928E-02 0. -1.
    10030    2    1    2    0    0  0.00000000000E+00  0.00000000000E+00  0.46474616650E+03  0.14183349269E+04  0.13400317032E+04 0.  0.
        5    1    3    3  502    0  0.61205146568E+03 -0.21636881167E+03  0.40782008390E+03  0.76665622683E+03  0.46999998093E+01 0.  1.
       -5    1    3    3    0  502 -0.61205146568E+03  0.21636881167E+03  0.56926082603E+02  0.65167870011E+03  0.46999998093E+01 0. -1.
</event>
<event>
 5   0  0.4453011E-03  0.1259142E+04  0.7818609E-02  0.9062608E-01
       -2   -1    0    0    0  501  0.00000000000E+00  0.00000000000E+00  0.24282360990E+03  0.24282360991E+03  0.25500000920E-02 0.  1.
        2   -1    0    0  501    0  0.00000000000E+00  0.00000000000E+00 -0.16322953535E+04  0.16322953535E+04  0.25500000920E-02 0. -1.
    10030    2    1    2    0    0  0.00000000000E+00  0.00000000000E+00 -0.13894717436E+04  0.18751189634E+04  0.12591423274E+04 0.  0.
        1    1    3    3  502    0  0.28961368078E+02  0.62855396326E+03 -0.72600930387E+03  0.96073323816E+03  0.50400001928E-02 0.  1.
       -1    1    3    3    0  502 -0.28961368078E+02 -0.62855396326E+03 -0.66346243969E+03  0.91438572522E+03  0.50400001928E-02 0. -1.
</event>
<event>
 5   0  0.2462055E-03  0.1290958E+04  0.7818609E-02  0.9036767E-01
        1   -1    0    0  501    0  0.00000000000E+00  0.00000000000E+00  0.79855493950E+03  0.79855493951E+03  0.50400001928E-02 0.  1.
       -1   -1    0    0    0  501  0.00000000000E+00  0.00000000000E+00 -0.52174618765E+03  0.52174618767E+03  0.50400001928E-02 0. -1.
    10030    2    1    2    0    0  0.00000000000E+00  0.00000000000E+00  0.27680875185E+03  0.13203011272E+04  0.12909577767E+04 0.  0.
        2    1    3    3  502    0 -0.14957886521E+03  0.16414830134E+03  0.75825336930E+03  0.79010548271E+03  0.25500000920E-02 0.  1.
       -2    1    3    3    0  502  0.14957886521E+03 -0.16414830134E+03 -0.48144461745E+03  0.53019564448E+03  0.25500000920E-02 0. -1.
</event>
<event>
 5   0  0.4263540E-03  0.1530844E+04  0.7818609E-02  0.8864197E-01
        2   -1    0    0  501    0  0.00000000000E+00  0.00000000000E+00  0.31880910708E+03  0.31880910709E+03  0.25500000920E-02 0.  1.
       -2   -1    0    0    0  501  0.00000000000E+00  0.00000000000E+00 -0.18376863936E+04  0.18376863936E+04  0.25500000920E-02 0. -1.
    10030    2    1    2    0    0  0.00000000000E+00  0.00000000000E+00 -0.15188772866E+04  0.21564955007E+04  0.15308444183E+04 0.  0.
        2    1    3    3  502    0  0.74506692437E+03  0.13515355645E+03 -0.91680937709E+03  0.11890881547E+04  0.25500000920E-02 0. -1.
       -2    1    3    3    0  502 -0.74506692437E+03 -0.13515355645E+03 -0.60206790947E+03  0.96740734607E+03  0.25500000920E-02 0.  1.
</event>
<event>
 5   0  0.2356769E-03  0.1302680E+04  0.7818609E-02  0.9027443E-01
        1   -1    0    0  501    0  0.00000000000E+00  0.00000000000E+00  0.78757803346E+03  0.78757803347E+03  0.50400001928E-02 0. -1.
       -1   -1    0    0    0  501  0.00000000000E+00  0.00000000000E+00 -0.53866899226E+03  0.53866899228E+03  0.50400001928E-02 0.  1.
    10030    2    1    2    0    0  0.00000000000E+00  0.00000000000E+00  0.24890904120E+03  0.13262470258E+04  0.13026801075E+04 0.  0.
        1    1    3    3  502    0  0.13269612082E+03 -0.26910103308E+02 -0.52418333834E+03  0.54138764888E+03  0.50400001928E-02 0.  1.
       -1    1    3    3    0  502 -0.13269612082E+03  0.26910103308E+02  0.77309237954E+03  0.78485937687E+03  0.50400001928E-02 0. -1.
</event>
<event>
 5   0  0.4310889E-03  0.1279497E+04  0.7818609E-02  0.9045984E-01
        2   -1    0    0  501    0  0.00000000000E+00  0.00000000000E+00  0.13462280792E+04  0.13462280792E+04  0.25500000920E-02 0.  1.
       -2   -1    0    0    0  501  0.00000000000E+00  0.00000000000E+00 -0.30401827645E+03  0.30401827646E+03  0.25500000920E-02 0. -1.
    10030    2    1    2    0    0  0.00000000000E+00  0.00000000000E+00  0.10422098027E+04  0.16502463556E+04  0.12794966828E+04 0.  0.
        4    1    3    3  502    0 -0.24255348683E+03  0.18483736608E+03  0.12464505163E+04  0.12832137578E+04  0.12699999809E+01 0.  1.
       -4    1    3    3    0  502  0.24255348683E+03 -0.18483736608E+03 -0.20424071355E+03  0.36703259780E+03  0.12699999809E+01 0. -1.
</event>
<event>
 5   0  0.2511542E-03  0.1309400E+04  0.7818609E-02  0.9022144E-01
       -1   -1    0    0    0  501  0.00000000000E+00  0.00000000000E+00  0.75079954101E+03  0.75079954103E+03  0.50400001928E-02 0. -1.
        1   -1    0    0  501    0  0.00000000000E+00  0.00000000000E+00 -0.57090115330E+03  0.57090115332E+03  0.50400001928E-02 0.  1.
    10030    2    1    2    0    0  0.00000000000E+00  0.00000000000E+00  0.17989838771E+03  0.13217006944E+04  0.13094003572E+04 0.  0.
        4    1    3    3  502    0  0.42820571071E+03 -0.46543711536E+03  0.26076915428E+03  0.68410087251E+03  0.12699999809E+01 0. -1.
       -4    1    3    3    0  502 -0.42820571071E+03  0.46543711536E+03 -0.80870766570E+02  0.63759982185E+03  0.12699999809E+01 0.  1.
</event>
<event>
 5   0  0.4388937E-03  0.1441263E+04  0.7818609E-02  0.8924480E-01
        2   -1    0    0  501    0  0.00000000000E+00  0.00000000000E+00  0.80121322542E+03  0.80121322542E+03  0.25500000920E-02 0.  1.
       -2   -1    0    0    0  501  0.00000000000E+00  0.00000000000E+00 -0.64815394188E+03  0.64815394189E+03  0.25500000920E-02 0. -1.
    10030    2    1    2    0    0  0.00000000000E+00  0.00000000000E+00  0.15305928354E+03  0.14493671673E+04  0.14412626552E+04 0.  0.
        5    1    3    3  502    0 -0.14100122304E+02 -0.45602658853E+03 -0.48439572858E+03  0.66544749963E+03  0.46999998093E+01 0. -1.
       -5    1    3    3    0  502  0.14100122304E+02  0.45602658853E+03  0.63745501212E+03  0.78391966768E+03  0.46999998093E+01 0.  1.
</event>
<event>
 5   0  0.2462055E-03  0.1296224E+04  0.7818609E-02  0.9032565E-01
       -1   -1    0    0    0  501  0.00000000000E+00  0.00000000000E+00  0.69727392881E+03  0.69727392883E+03  0.50400001928E-02 0. -1.
        1   -1    0    0  501    0  0.00000000000E+00  0.00000000000E+00 -0.60241588148E+03  0.60241588150E+03  0.50400001928E-02 0.  1.
    10030    2    1    2    0    0  0.00000000000E+00  0.00000000000E+00  0.94858047331E+02  0.12996898103E+04  0.12962235740E+04 0.  0.
        2    1    3    3  502    0  0.11319665636E+03  0.61443213738E+03 -0.12539358473E+03  0.63723142229E+03  0.25500000920E-02 0.  1.
       -2    1    3    3    0  502 -0.11319665636E+03 -0.61443213738E+03  0.22025163206E+03  0.66245838804E+03  0.25500000920E-02 0. -1.
</event>
<event>
 5   0  0.2370801E-03  0.1321862E+04  0.7818609E-02  0.9012406E-01
        1   -1    0    0  501    0  0.00000000000E+00  0.00000000000E+00  0.52417874301E+03  0.52417874303E+03  0.50400001928E-02 0.  1.
       -1   -1    0    0    0  501  0.00000000000E+00  0.00000000000E+00 -0.83336008689E+03  0.83336008690E+03  0.50400001928E-02 0. -1.
    10030    2    1    2    0    0  0.00000000000E+00  0.00000000000E+00 -0.30918134388E+03  0.13575388299E+04  0.13218617823E+04 0.  0.
        3    1    3    3  502    0 -0.18221696263E+03  0.60270973311E+03  0.51748944458E+02  0.63177528229E+03  0.10100000352E+00 0.  1.
       -3    1    3    3    0  502  0.18221696263E+03 -0.60270973311E+03 -0.36093028834E+03  0.72576354765E+03  0.10100000352E+00 0. -1.
</event>
<event>
 5   0  0.4453011E-03  0.1236521E+04  0.7818609E-02  0.9081477E-01
        2   -1    0    0  501    0  0.00000000000E+00  0.00000000000E+00  0.12173283347E+04  0.12173283347E+04  0.25500000920E-02 0.  1.
       -2   -1    0    0    0  501  0.00000000000E+00  0.00000000000E+00 -0.31400397327E+03  0.31400397328E+03  0.25500000920E-02 0. -1.
    10030    2    1    2    0    0  0.00000000000E+00  0.00000000000E+00  0.90332436143E+03  0.15313323080E+04  0.12365208189E+04 0.  0.
        1    1    3    3  502    0 -0.14161948872E+03  0.34456828667E+02 -0.29242387542E+03  0.32673395227E+03  0.50400001928E-02 0. -1.
       -1    1    3    3    0  502  0.14161948872E+03 -0.34456828667E+02  0.11957482368E+04  0.12045983557E+04  0.50400001928E-02 0.  1.
</event>
<event>
 5   0  0.2370801E-03  0.1350034E+04  0.7818609E-02  0.8990802E-01
        1   -1    0    0  501    0  0.00000000000E+00  0.00000000000E+00  0.95676611731E+03  0.95676611733E+03  0.50400001928E-02 0. -1.
       -1   -1    0    0    0  501  0.00000000000E+00  0.00000000000E+00 -0.47623748600E+03  0.47623748603E+03  0.50400001928E-02 0.  1.
    10030    2    1    2    0    0  0.00000000000E+00  0.00000000000E+00  0.48052863131E+03  0.14330036034E+04  0.13500339113E+04 0.  0.
        3    1    3    3  502    0 -0.13110729499E+03  0.17555841943E+03  0.91796813821E+03  0.94375600364E+03  0.10100000352E+00 0. -1.
       -3    1    3    3    0  502  0.13110729499E+03 -0.17555841943E+03 -0.43743950690E+03  0.48924759972E+03  0.10100000352E+00 0.  1.
</event>
<event>
 5   0  0.4453011E-03  0.1320855E+04  0.7818609E-02  0.9013189E-01
        2   -1    0    0  501    0  0.00000000000E+00  0.00000000000E+00  0.18843895444E+04  0.18843895444E+04  0.25500000920E-02 0. -1.
       -2   -1    0    0    0  501  0.00000000000E+00  0.00000000000E+00 -0.23146194193E+03  0.23146194194E+03  0.25500000920E-02 0.  1.
    10030    2    1    2    0    0  0.00000000000E+00  0.00000000000E+00  0.16529276024E+04  0.21158514863E+04  0.13208549705E+04 0.  0.
        1    1    3    3  502    0  0.21953924818E+03 -0.10774403154E+03 -0.15625833897E+03  0.29021186458E+03  0.50400001928E-02 0.  1.
       -1    1    3    3    0  502 -0.21953924818E+03  0.10774403154E+03  0.18091859414E+04  0.18256396217E+04  0.50400001928E-02 0. -1.
</event>
<event>
 5   0  0.2370801E-03  0.1302990E+04  0.7818609E-02  0.9027197E-01
       -1   -1    0    0    0  501  0.00000000000E+00  0.00000000000E+00  0.43868590971E+03  0.43868590974E+03  0.50400001928E-02 0.  1.
        1   -1    0    0  501    0  0.00000000000E+00  0.00000000000E+00 -0.96753894211E+03  0.96753894212E+03  0.50400001928E-02 0. -1.
    10030    2    1    2    0    0  0.00000000000E+00  0.00000000000E+00 -0.52885303239E+03  0.14062248519E+04  0.13029899478E+04 0.  0.
        3    1    3    3  502    0 -0.19573490217E+03 -0.18706411466E+03 -0.90394661756E+03  0.94362314115E+03  0.10100000352E+00 0. -1.
       -3    1    3    3    0  502  0.19573490217E+03  0.18706411466E+03  0.37509358516E+03  0.46260171071E+03  0.10100000352E+00 0.  1.
</event>
<event>
 5   0  0.2458456E-03  0.1281177E+04  0.7818609E-02  0.9044627E-01
       -1   -1    0    0    0  501  0.00000000000E+00  0.00000000000E+00  0.37412999160E+03  0.37412999164E+03  0.50400001928E-02 0. -1.
        1   -1    0    0  501    0  0.00000000000E+00  0.00000000000E+00 -0.10968203777E+04  0.10968203778E+04  0.50400001928E-02 0.  1.
    10030    2    1    2    0    0  0.00000000000E+00  0.00000000000E+00 -0.72269038614E+03  0.14709503694E+04  0.12811766447E+04 0.  0.
        5    1    3    3  502    0 -0.24647429125E+03  0.11377394696E+03 -0.10274921885E+04  0.10627588507E+04  0.46999998093E+01 0.  1.
       -5    1    3    3    0  502  0.24647429125E+03 -0.11377394696E+03  0.30480180235E+03  0.40819151873E+03  0.46999998093E+01 0. -1.
</event>
<event>
 5   0  0.4310889E-03  0.1276863E+04  0.7818609E-02  0.9048117E-01
        2   -1    0    0  501    0  0.00000000000E+00  0.00000000000E+00  0.51583955198E+03  0.51583955198E+03  0.25500000920E-02 0.  1.
       -2   -1    0    0    0  501  0.00000000000E+00  0.00000000000E+00 -0.79015825651E+03  0.79015825652E+03  0.25500000920E-02 0. -1.
    10030    2    1    2    0    0  0.00000000000E+00  0.00000000000E+00 -0.27431870454E+03  0.13059978085E+04  0.12768631580E+04 0.  0.
        4    1    3    3  502    0  0.45540281718E+03 -0.44705997084E+03 -0.15598932580E+03  0.65695405173E+03  0.12699999809E+01 0. -1.
       -4    1    3    3    0  502 -0.45540281718E+03  0.44705997084E+03 -0.11832937874E+03  0.64904375677E+03  0.12699999809E+01 0.  1.
</event>
<event>
 5   0  0.4263540E-03  0.1275070E+04  0.7818609E-02  0.9049572E-01
       -2   -1    0    0    0  501  0.00000000000E+00  0.00000000000E+00  0.32559709884E+03  0.32559709885E+03  0.25500000920E-02 0.  1.
        2   -1    0    0  501    0  0.00000000000E+00  0.00000000000E+00 -0.12483248904E+04  0.12483248904E+04  0.25500000920E-02 0. -1.
    10030    2    1    2    0    0  0.00000000000E+00  0.00000000000E+00 -0.92272779159E+03  0.15739219893E+04  0.12750701357E+04 0.  0.
        2    1    3    3  502    0 -0.26931316679E+03 -0.21570719763E+03  0.20037445465E+03  0.39901014900E+03  0.25500000920E-02 0.  1.
       -2    1    3    3    0  502  0.26931316679E+03  0.21570719763E+03 -0.11231022462E+04  0.11749118403E+04  0.25500000920E-02 0. -1.
</event>
<event>
 5   0  0.2511542E-03  0.1310954E+04  0.7818609E-02  0.9020923E-01
        1   -1    0    0  501    0  0.00000000000E+00  0.00000000000E+00  0.75459478844E+03  0.75459478846E+03  0.50400001928E-02 0. -1.
       -1   -1    0    0    0  501  0.00000000000E+00  0.00000000000E+00 -0.56937877274E+03  0.56937877276E+03  0.50400001928E-02 0.  1.
    10030    2    1    2    0    0  0.00000000000E+00  0.00000000000E+00  0.18521601571E+03  0.13239735612E+04  0.13109542396E+04 0.  0.
        4    1    3    3  502    0  0.62387288572E+03 -0.17806474556E+03  0.18693909707E+03  0.67518313816E+03  0.12699999809E+01 0. -1.
       -4    1    3    3    0  502 -0.62387288572E+03  0.17806474556E+03 -0.17230813644E+01  0.64879042306E+03  0.12699999809E+01 0.  1.
</event>
<event>
 5   0  0.1661750E-03  0.1303496E+04  0.7818609E-02  0.9026797E-01
        3   -1    0    0  501    0  0.00000000000E+00  0.00000000000E+00  0.12234515080E+04  0.12234515122E+04  0.10100000352E+00 0.  1.
       -3   -1    0    0    0  501  0.00000000000E+00  0.00000000000E+00 -0.34719429147E+03  0.34719430616E+03  0.10100000352E+00 0. -1.
    10030    2    1    2    0    0  0.00000000000E+00  0.00000000000E+00  0.87625721654E+03  0.15706458183E+04  0.13034959061E+04 0.  0.
        3    1    3    3  502    0  0.46299546386E+03  0.18404320921E+03  0.94440599583E+03  0.10677731021E+04  0.10100000352E+00 0.  1.
       -3    1    3    3    0  502 -0.46299546386E+03 -0.18404320921E+03 -0.68148779290E+02  0.50287271623E+03  0.10100000352E+00 0. -1.
</event>
<event>
 5   0  0.4388937E-03  0.1392785E+04  0.7818609E-02  0.8959058E-01
        2   -1    0    0  501    0  0.00000000000E+00  0.00000000000E+00  0.68339631936E+03  0.68339631936E+03  0.25500000920E-02 0.  1.
       -2   -1    0    0    0  501  0.00000000000E+00  0.00000000000E+00 -0.70963546285E+03  0.70963546286E+03  0.25500000920E-02 0. -1.
    10030    2    1    2    0    0  0.00000000000E+00  0.00000000000E+00 -0.26239143495E+02  0.13930317822E+04  0.13927846401E+04 0.  0.
        5    1    3    3  502    0 -0.56818498982E+03 -0.12175741119E+03  0.37072075534E+03  0.68928587558E+03  0.46999998093E+01 0. -1.
       -5    1    3    3    0  502  0.56818498982E+03  0.12175741119E+03 -0.39695989883E+03  0.70374590664E+03  0.46999998093E+01 0.  1.
</event>
<event>
 5   0  0.2356769E-03  0.1497804E+04  0.7818609E-02  0.8885915E-01
       -1   -1    0    0    0  501  0.00000000000E+00  0.00000000000E+00  0.57604293485E+03  0.57604293487E+03  0.50400001928E-02 0.  1.
        1   -1    0    0  501    0  0.00000000000E+00  0.00000000000E+00 -0.97363221383E+03  0.97363221384E+03  0.50400001928E-02 0. -1.
    10030    2    1    2    0    0  0.00000000000E+00  0.00000000000E+00 -0.39758927898E+03  0.15496751487E+04  0.14978036693E+04 0.  0.
        1    1    3    3  502    0  0.33521804787E+03 -0.66634992308E+03 -0.12969395711E+03  0.75710889715E+03  0.50400001928E-02 0.  1.
       -1    1    3    3    0  502 -0.33521804787E+03  0.66634992308E+03 -0.26789532187E+03  0.79256625156E+03  0.50400001928E-02 0. -1.
</event>
<event>
 5   0  0.4310889E-03  0.1298308E+04  0.7818609E-02  0.9030908E-01
        2   -1    0    0  501    0  0.00000000000E+00  0.00000000000E+00  0.11117713153E+04  0.11117713153E+04  0.25500000920E-02 0. -1.
       -2   -1    0    0    0  501  0.00000000000E+00  0.00000000000E+00 -0.37903554000E+03  0.37903554000E+03  0.25500000920E-02 0.  1.
    10030    2    1    2    0    0  0.00000000000E+00  0.00000000000E+00  0.73273577526E+03  0.14908068553E+04  0.12983078847E+04 0.  0.
        4    1    3    3  502    0 -0.19768226800E+03  0.28401475435E+03  0.99703484787E+03  0.10553780178E+04  0.12699999809E+01 0. -1.
       -4    1    3    3    0  502  0.19768226800E+03 -0.28401475435E+03 -0.26429907262E+03  0.43542883742E+03  0.12699999809E+01 0.  1.
</event>
<event>
 5   0  0.2462055E-03  0.1287779E+04  0.7818609E-02  0.9039313E-01
        1   -1    0    0  501    0  0.00000000000E+00  0.00000000000E+00  0.81620583538E+03  0.81620583540E+03  0.50400001928E-02 0. -1.
       -1   -1    0    0    0  501  0.00000000000E+00  0.00000000000E+00 -0.50795231548E+03  0.50795231551E+03  0.50400001928E-02 0.  1.
    10030    2    1    2    0    0  0.00000000000E+00  0.00000000000E+00  0.30825351990E+03  0.13241581509E+04  0.12877789314E+04 0.  0.
        2    1    3    3  502    0  0.31244329758E+03  0.35004947632E+03  0.60753491991E+03  0.76762890057E+03  0.25500000920E-02 0. -1.
       -2    1    3    3    0  502 -0.31244329758E+03 -0.35004947632E+03 -0.29928140001E+03  0.55652925033E+03  0.25500000920E-02 0.  1.
</event>
<event>
 5   0  0.2462055E-03  0.1297853E+04  0.7818609E-02  0.9031270E-01
       -1   -1    0    0    0  501  0.00000000000E+00  0.00000000000E+00  0.50968259861E+03  0.50968259863E+03  0.50400001928E-02 0. -1.
        1   -1    0    0  501    0  0.00000000000E+00  0.00000000000E+00 -0.82621103084E+03  0.82621103086E+03  0.50400001928E-02 0.  1.
    10030    2    1    2    0    0  0.00000000000E+00  0.00000000000E+00 -0.31652843223E+03  0.13358936295E+04  0.12978526653E+04 0.  0.
        2    1    3    3  502    0  0.56463000791E+03  0.30650635574E+03 -0.25233326509E+03  0.69023566165E+03  0.25500000920E-02 0.  1.
       -2    1    3    3    0  502 -0.56463000791E+03 -0.30650635574E+03 -0.64195167146E+02  0.64565796784E+03  0.25500000920E-02 0. -1.
</event>
<event>
 5   0  0.4263540E-03  0.1312343E+04  0.7818609E-02  0.9019834E-01
       -2   -1    0    0    0  501  0.00000000000E+00  0.00000000000E+00  0.73389635486E+03  0.73389635486E+03  0.25500000920E-02 0. -1.
        2   -1    0    0  501    0  0.00000000000E+00  0.00000000000E+00 -0.58667855337E+03  0.58667855337E+03  0.25500000920E-02 0.  1.
    10030    2    1    2    0    0  0.00000000000E+00  0.00000000000E+00  0.14721780149E+03  0.13205749082E+04  0.13123433267E+04 0.  0.
        2    1    3    3  502    0  0.41059965909E+03  0.26401196331E+03 -0.36762389511E+03  0.61109878504E+03  0.25500000920E-02 0.  1.
       -2    1    3    3    0  502 -0.41059965909E+03 -0.26401196331E+03  0.51484169660E+03  0.70947612319E+03  0.25500000920E-02 0. -1.
</event>
<event>
 5   0  0.2458456E-03  0.1282714E+04  0.7818609E-02  0.9043386E-01
       -1   -1    0    0    0  501  0.00000000000E+00  0.00000000000E+00  0.41966069938E+03  0.41966069941E+03  0.50400001928E-02 0.  1.
        1   -1    0    0  501    0  0.00000000000E+00  0.00000000000E+00 -0.98017063437E+03  0.98017063438E+03  0.50400001928E-02 0. -1.
    10030    2    1    2    0    0  0.00000000000E+00  0.00000000000E+00 -0.56050993499E+03  0.13998313338E+04  0.12827144561E+04 0.  0.
        5    1    3    3  502    0 -0.29165143480E+03  0.37618926162E+03  0.18880021505E+03  0.51210011832E+03  0.46999998093E+01 0.  1.
       -5    1    3    3    0  502  0.29165143480E+03 -0.37618926162E+03 -0.74931015004E+03  0.88773121547E+03  0.46999998093E+01 0. -1.
</event>
<event>
 5   0  0.2511542E-03  0.1301528E+04  0.7818609E-02  0.9028354E-01
       -1   -1    0    0    0  501  0.00000000000E+00  0.00000000000E+00  0.62211497595E+03  0.62211497597E+03  0.50400001928E-02 0.  1.
        1   -1    0    0  501    0  0.00000000000E+00  0.00000000000E+00 -0.68073214531E+03  0.68073214532E+03  0.50400001928E-02 0. -1.
    10030    2    1    2    0    0  0.00000000000E+00  0.00000000000E+00 -0.58617169360E+02  0.13028471213E+04  0.13015278133E+04 0.  0.
        4    1    3    3  502    0 -0.58467102333E+03 -0.27989542933E+03  0.28285747346E+02  0.64883229981E+03  0.12699999809E+01 0.  1.
       -4    1    3    3    0  502  0.58467102333E+03  0.27989542933E+03 -0.86902916706E+02  0.65401482148E+03  0.12699999809E+01 0. -1.
</event>
<event>
 5   0  0.2458456E-03  0.1409420E+04  0.7818609E-02  0.8947028E-01
        1   -1    0    0  501    0  0.00000000000E+00  0.00000000000E+00  0.13059372498E+04  0.13059372498E+04  0.50400001928E-02 0. -1.
       -1   -1    0    0    0  501  0.00000000000E+00  0.00000000000E+00 -0.38027590024E+03  0.38027590027E+03  0.50400001928E-02 0.  1.
    10030    2    1    2    0    0  0.00000000000E+00  0.00000000000E+00  0.92566134960E+03  0.16862131501E+04  0.14094203963E+04 0.  0.
        5    1    3    3  502    0  0.21646548230E+03  0.43875505904E+03  0.10696139880E+04  0.11762055433E+04  0.46999998093E+01 0. -1.
       -5    1    3    3    0  502 -0.21646548230E+03 -0.43875505904E+03 -0.14395263841E+03  0.51000760677E+03  0.46999998093E+01 0.  1.
</event>
<event>
 5   0  0.4263540E-03  0.1316290E+04  0.7818609E-02  0.9016746E-01
        2   -1    0    0  501    0  0.00000000000E+00  0.00000000000E+00  0.59857406650E+03  0.59857406651E+03  0.25500000920E-02 0. -1.
       -2   -1    0    0    0  501  0.00000000000E+00  0.00000000000E+00 -0.72364417167E+03  0.72364417168E+03  0.25500000920E-02 0.  1.
    10030    2    1    2    0    0  0.00000000000E+00  0.00000000000E+00 -0.12507010517E+03  0.13222182382E+04  0.13162896863E+04 0.  0.
        2    1    3    3  502    0 -0.43308583858E+03 -0.41121108367E+03 -0.34036119979E+03  0.68738900576E+03  0.25500000920E-02 0. -1.
       -2    1    3    3    0  502  0.43308583858E+03  0.41121108367E+03  0.21529109462E+03  0.63482923242E+03  0.25500000920E-02 0.  1.
</event>
<event>
 5   0  0.4263540E-03  0.1468861E+04  0.7818609E-02  0.8905428E-01
       -2   -1    0    0    0  501  0.00000000000E+00  0.00000000000E+00  0.63133455718E+03  0.63133455719E+03  0.25500000920E-02 0.  1.
        2   -1    0    0  501    0  0.00000000000E+00  0.00000000000E+00 -0.85436171235E+03  0.85436171235E+03  0.25500000920E-02 0. -1.
    10030    2    1    2    0    0  0.00000000000E+00  0.00000000000E+00 -0.22302715517E+03  0.14856962695E+04  0.14688608829E+04 0.  0.
        2    1    3    3  502    0 -0.18163894783E+03  0.77719018386E-01 -0.83128438146E+03  0.85089742994E+03  0.25500000920E-02 0. -1.
       -2    1    3    3    0  502  0.18163894783E+03 -0.77719018386E-01  0.60825722630E+03  0.63479883960E+03  0.25500000920E-02 0.  1.
</event>
<event>
 5   0  0.2356769E-03  0.1301199E+04  0.7818609E-02  0.9028615E-01
       -1   -1    0    0    0  501  0.00000000000E+00  0.00000000000E+00  0.32238253164E+03  0.32238253168E+03  0.50400001928E-02 0.  1.
        1   -1    0    0  501    0  0.00000000000E+00  0.00000000000E+00 -0.13129728883E+04  0.13129728884E+04  0.50400001928E-02 0. -1.
    10030    2    1    2    0    0  0.00000000000E+00  0.00000000000E+00 -0.99059035671E+03  0.16353554200E+04  0.13011987147E+04 0.  0.
        1    1    3    3  502    0  0.11065673902E+03  0.15190973806E+03 -0.12781133674E+04  0.12918572918E+04  0.50400001928E-02 0. -1.
       -1    1    3    3    0  502 -0.11065673902E+03 -0.15190973806E+03  0.28752301068E+03  0.34349812824E+03  0.50400001928E-02 0.  1.
</event>
<event>
 5   0  0.4306214E-03  0.1270439E+04  0.7818609E-02  0.9053341E-01
       -2   -1    0    0    0  501  0.00000000000E+00  0.00000000000E+00  0.31481057935E+03  0.31481057936E+03  0.25500000920E-02 0. -1.
        2   -1    0    0  501    0  0.00000000000E+00  0.00000000000E+00 -0.12817357425E+04  0.12817357425E+04  0.25500000920E-02 0.  1.
    10030    2    1    2    0    0  0.00000000000E+00  0.00000000000E+00 -0.96692516315E+03  0.15965463219E+04  0.12704392495E+04 0.  0.
        3    1    3    3  502    0  0.54153385347E+03  0.65145242948E+02 -0.74312259010E+02  0.55047719224E+03  0.10100000352E+00 0. -1.
       -3    1    3    3    0  502 -0.54153385347E+03 -0.65145242948E+02 -0.89261290414E+03  0.10460691296E+04  0.10100000352E+00 0.  1.
</event>
<event>
 5   0  0.4306214E-03  0.1308279E+04  0.7818609E-02  0.9023025E-01
        2   -1    0    0  501    0  0.00000000000E+00  0.00000000000E+00  0.10877624587E+04  0.10877624587E+04  0.25500000920E-02 0.  1.
       -2   -1    0    0    0  501  0.00000000000E+00  0.00000000000E+00 -0.39337509905E+03  0.39337509906E+03  0.25500000920E-02 0. -1.
    10030    2    1    2    0    0  0.00000000000E+00  0.00000000000E+00  0.69438735963E+03  0.14811375577E+04  0.13082792744E+04 0.  0.
        3    1    3    3  502    0  0.53887879271E+03 -0.19243623959E+03 -0.11668249949E+02  0.57232701998E+03  0.10100000352E+00 0. -1.
       -3    1    3    3    0  502 -0.53887879271E+03  0.19243623959E+03  0.70605560957E+03  0.90881053776E+03  0.10100000352E+00 0.  1.
</event>
<event>
 5   0  0.4310889E-03  0.1291371E+04  0.7818609E-02  0.9036437E-01
        2   -1    0    0  501    0  0.00000000000E+00  0.00000000000E+00  0.10136817673E+04  0.10136817673E+04  0.25500000920E-02 0. -1.
       -2   -1    0    0    0  501  0.00000000000E+00  0.00000000000E+00 -0.41128240121E+03  0.41128240122E+03  0.25500000920E-02 0.  1.
    10030    2    1    2    0    0  0.00000000000E+00  0.00000000000E+00  0.60239936610E+03  0.14249641685E+04  0.12913705453E+04 0.  0.
        4    1    3    3  502    0  0.24239729301E+03  0.91346284880E+02 -0.35143098973E+03  0.43658440749E+03  0.12699999809E+01 0.  1.
       -4    1    3    3    0  502 -0.24239729301E+03 -0.91346284880E+02  0.95383035584E+03  0.98837976104E+03  0.12699999809E+01 0. -1.
</event>
<event>
 5   0  0.2511542E-03  0.1287576E+04  0.7818609E-02  0.9039476E-01
        1   -1    0    0  501    0  0.00000000000E+00  0.00000000000E+00  0.64186207352E+03  0.64186207354E+03  0.50400001928E-02 0. -1.
       -1   -1    0    0    0  501  0.00000000000E+00  0.00000000000E+00 -0.64572017929E+03  0.64572017931E+03  0.50400001928E-02 0.  1.
    10030    2    1    2    0    0  0.00000000000E+00  0.00000000000E+00 -0.38581057687E+01  0.12875822529E+04  0.12875764726E+04 0.  0.
        4    1    3    3  502    0  0.22356716535E+03  0.35408528145E+03 -0.49091285950E+03  0.64525631534E+03  0.12699999809E+01 0.  1.
       -4    1    3    3    0  502 -0.22356716535E+03 -0.35408528145E+03  0.48705475373E+03  0.64232593751E+03  0.12699999809E+01 0. -1.
</event>
<event>
 5   0  0.2511542E-03  0.9622370E+03  0.7818609E-02  0.9350961E-01
        1   -1    0    0  501    0  0.00000000000E+00  0.00000000000E+00  0.10706450986E+04  0.10706450986E+04  0.50400001928E-02 0. -1.
       -1   -1    0    0    0  501  0.00000000000E+00  0.00000000000E+00 -0.21620144785E+03  0.21620144791E+03  0.50400001928E-02 0.  1.
    10030    2    1    2    0    0  0.00000000000E+00  0.00000000000E+00  0.85444365071E+03  0.12868465465E+04  0.96223701964E+03 0.  0.
        4    1    3    3  502    0 -0.29649876304E+03 -0.19879884017E+03  0.85858868409E+03  0.92984333986E+03  0.12699999809E+01 0. -1.
       -4    1    3    3    0  502  0.29649876304E+03  0.19879884017E+03 -0.41450333819E+01  0.35700320663E+03  0.12699999809E+01 0.  1.
</event>
<event>
 5   0  0.4388937E-03  0.1291691E+04  0.7818609E-02  0.9036181E-01
       -2   -1    0    0    0  501  0.00000000000E+00  0.00000000000E+00  0.37363493178E+03  0.37363493179E+03  0.25500000920E-02 0. -1.
        2   -1    0    0  501    0  0.00000000000E+00  0.00000000000E+00 -0.11163734531E+04  0.11163734531E+04  0.25500000920E-02 0.  1.
    10030    2    1    2    0    0  0.00000000000E+00  0.00000000000E+00 -0.74273852132E+03  0.14900083849E+04  0.12916905496E+04 0.  0.
        5    1    3    3  502    0  0.10884163511E+03 -0.57599184516E+03 -0.58676715094E+02  0.58913339247E+03  0.46999998093E+01 0. -1.
       -5    1    3    3    0  502 -0.10884163511E+03  0.57599184516E+03 -0.68406180622E+03  0.90087499242E+03  0.46999998093E+01 0.  1.
</event>
<event>
 5   0  0.2511542E-03  0.1314447E+04  0.7818609E-02  0.9018187E-01
       -1   -1    0    0    0  501  0.00000000000E+00  0.00000000000E+00  0.44505501198E+03  0.44505501201E+03  0.50400001928E-02 0.  1.
        1   -1    0    0  501    0  0.00000000000E+00  0.00000000000E+00 -0.97053719029E+03  0.97053719030E+03  0.50400001928E-02 0. -1.
    10030    2    1    2    0    0  0.00000000000E+00  0.00000000000E+00 -0.52548217831E+03  0.14155922023E+04  0.13144465617E+04 0.  0.
        4    1    3    3  502    0 -0.28251734457E+03  0.17803578428E+03  0.34688070102E+03  0.48149831164E+03  0.12699999809E+01 0.  1.
       -4    1    3    3    0  502  0.28251734457E+03 -0.17803578428E+03 -0.87236287933E+03  0.93409389068E+03  0.12699999809E+01 0. -1.
</event>
<event>
 5   0  0.4306214E-03  0.1282268E+04  0.7818609E-02  0.9043746E-01
        2   -1    0    0  501    0  0.00000000000E+00  0.00000000000E+00  0.15732667185E+04  0.15732667185E+04  0.25500000920E-02 0.  1.
       -2   -1    0    0    0  501  0.00000000000E+00  0.00000000000E+00 -0.26127360097E+03  0.26127360098E+03  0.25500000920E-02 0. -1.
    10030    2    1    2    0    0  0.00000000000E+00  0.00000000000E+00  0.13119931176E+04  0.18345403195E+04  0.12822683976E+04 0.  0.
        3    1    3    3  502    0 -0.10397060491E+03 -0.75943369157E+02  0.15545801582E+04  0.15599028048E+04  0.10100000352E+00 0.  1.
       -3    1    3    3    0  502  0.10397060491E+03  0.75943369157E+02 -0.24258704062E+03  0.27463751471E+03  0.10100000352E+00 0. -1.
</event>
<event>
 5   0  0.4306214E-03  0.1319383E+04  0.7818609E-02  0.9014334E-01
        2   -1    0    0  501    0  0.00000000000E+00  0.00000000000E+00  0.24360339139E+04  0.24360339139E+04  0.25500000920E-02 0. -1.
       -2   -1    0    0    0  501  0.00000000000E+00  0.00000000000E+00 -0.17864822890E+03  0.17864822892E+03  0.25500000920E-02 0.  1.
    10030    2    1    2    0    0  0.00000000000E+00  0.00000000000E+00  0.22573856849E+04  0.26146821428E+04  0.13193834079E+04 0.  0.
        3    1    3    3  502    0 -0.34306857586E+03 -0.26626773098E+02  0.22440971390E+04  0.22703253098E+04  0.10100000352E+00 0. -1.
       -3    1    3    3    0  502  0.34306857586E+03  0.26626773098E+02  0.13288545966E+02  0.34435683301E+03  0.10100000352E+00 0.  1.
</event>
<event>
 5   0  0.2511542E-03  0.1268320E+04  0.7818609E-02  0.9055072E-01
        1   -1    0    0  501    0  0.00000000000E+00  0.00000000000E+00  0.12988663104E+04  0.12988663104E+04  0.50400001928E-02 0. -1.
       -1   -1    0    0    0  501  0.00000000000E+00  0.00000000000E+00 -0.30962304244E+03  0.30962304248E+03  0.50400001928E-02 0.  1.
    10030    2    1    2    0    0  0.00000000000E+00  0.00000000000E+00  0.98924326800E+03  0.16084893529E+04  0.12683200523E+04 0.  0.
        4    1    3    3  502    0 -0.61500457216E+03  0.39607263024E+02  0.30499231495E+03  0.68762001436E+03  0.12699999809E+01 0. -1.
       -4    1    3    3    0  502  0.61500457216E+03 -0.39607263024E+02  0.68425095305E+03  0.92086933857E+03  0.12699999809E+01 0.  1.
</event>
<event>
 5   0  0.2370801E-03  0.1350159E+04  0.7818609E-02  0.8990707E-01
        1   -1    0    0  501    0  0.00000000000E+00  0.00000000000E+00  0.10249065514E+04  0.10249065514E+04  0.50400001928E-02 0.  1.
       -1   -1    0    0    0  501  0.00000000000E+00  0.00000000000E+00 -0.44465770454E+03  0.44465770457E+03  0.50400001928E-02 0. -1.
    10030    2    1    2    0    0  0.00000000000E+00  0.00000000000E+00  0.58024884682E+03  0.14695642559E+04  0.13501593899E+04 0.  0.
        3    1    3    3  502    0  0.26964045972E+02  0.30255195118E+03  0.94632489001E+03  0.99387904224E+03  0.10100000352E+00 0.  1.
       -3    1    3    3    0  502 -0.26964045972E+02 -0.30255195118E+03 -0.36607604319E+03  0.47568521371E+03  0.10100000352E+00 0. -1.
</event>
<event>
 5   0  0.2511542E-03  0.9366106E+03  0.7818609E-02  0.9380939E-01
       -1   -1    0    0    0  501  0.00000000000E+00  0.00000000000E+00  0.18146564526E+03  0.18146564533E+03  0.50400001928E-02 0. -1.
        1   -1    0    0  501    0  0.00000000000E+00  0.00000000000E+00 -0.12085474616E+04  0.12085474617E+04  0.50400001928E-02 0.  1.
    10030    2    1    2    0    0  0.00000000000E+00  0.00000000000E+00 -0.10270818164E+04  0.13900131070E+04  0.93661058079E+03 0.  0.
        4    1    3    3  502    0 -0.12438595266E+03 -0.12473871578E+03 -0.11574996334E+04  0.11708281798E+04  0.12699999809E+01 0.  1.
       -4    1    3    3    0  502  0.12438595266E+03  0.12473871578E+03  0.13041781697E+03  0.21918492721E+03  0.12699999809E+01 0. -1.
</event>
<event>
 5   0  0.4388937E-03  0.1356569E+04  0.7818609E-02  0.8985871E-01
        2   -1    0    0  501    0  0.00000000000E+00  0.00000000000E+00  0.18914435714E+04  0.18914435714E+04  0.25500000920E-02 0.  1.
       -2   -1    0    0    0  501  0.00000000000E+00  0.00000000000E+00 -0.24323732476E+03  0.24323732477E+03  0.25500000920E-02 0. -1.
    10030    2    1    2    0    0  0.00000000000E+00  0.00000000000E+00  0.16482062466E+04  0.21346808962E+04  0.13565687218E+04 0.  0.
        5    1    3    3  502    0  0.17977580164E+03 -0.39754961414E+03  0.69233907230E+01  0.43638865463E+03  0.46999998093E+01 0. -1.
       -5    1    3    3    0  502 -0.17977580164E+03  0.39754961414E+03  0.16412828559E+04  0.16982922415E+04  0.46999998093E+01 0.  1.
</event>
<event>
 5   0  0.2511542E-03  0.8562728E+03  0.7818609E-02  0.9481956E-01
        1   -1    0    0  501    0  0.00000000000E+00  0.00000000000E+00  0.96421027912E+03  0.96421027913E+03  0.50400001928E-02 0.  1.
       -1   -1    0    0    0  501  0.00000000000E+00  0.00000000000E+00 -0.19010456727E+03  0.19010456733E+03  0.50400001928E-02 0. -1.
    10030    2    1    2    0    0  0.00000000000E+00  0.00000000000E+00  0.77410571186E+03  0.11543148465E+04  0.85627280212E+03 0.  0.
        4    1    3    3  502    0  0.23422081737E+03 -0.27236751732E+03  0.73049091784E+02  0.36658046660E+03  0.12699999809E+01 0. -1.
       -4    1    3    3    0  502 -0.23422081737E+03  0.27236751732E+03  0.70105662007E+03  0.78773437987E+03  0.12699999809E+01 0.  1.
</event>
<event>
 5   0  0.1661750E-03  0.1277332E+04  0.7818609E-02  0.9047737E-01
        3   -1    0    0  501    0  0.00000000000E+00  0.00000000000E+00  0.13156181864E+04  0.13156181902E+04  0.10100000352E+00 0.  1.
       -3   -1    0    0    0  501  0.00000000000E+00  0.00000000000E+00 -0.31004012188E+03  0.31004013834E+03  0.10100000352E+00 0. -1.
    10030    2    1    2    0    0  0.00000000000E+00  0.00000000000E+00  0.10055780645E+04  0.16256583286E+04  0.12773322816E+04 0.  0.
        4    1    3    3  502    0  0.26494706915E+03  0.56627698181E+03  0.66885665781E+03  0.91555306300E+03  0.12699999809E+01 0. -1.
       -4    1    3    3    0  502 -0.26494706915E+03 -0.56627698181E+03  0.33672140667E+03  0.71010526557E+03  0.12699999809E+01 0.  1.
</event>
<event>
 5   0  0.2462055E-03  0.1372560E+04  0.7818609E-02  0.8973924E-01
        1   -1    0    0  501    0  0.00000000000E+00  0.00000000000E+00  0.25174628014E+04  0.25174628014E+04  0.50400001928E-02 0. -1.
       -1   -1    0    0    0  501  0.00000000000E+00  0.00000000000E+00 -0.18708535873E+03  0.18708535880E+03  0.50400001928E-02 0.  1.
    10030    2    1    2    0    0  0.00000000000E+00  0.00000000000E+00  0.23303774427E+04  0.27045481602E+04  0.13725602812E+04 0.  0.
        2    1    3    3  502    0 -0.59965009704E+02  0.19891013710E+03 -0.12363500449E+03  0.24175743912E+03  0.25500000920E-02 0.  1.
       -2    1    3    3    0  502  0.59965009704E+02 -0.19891013710E+03  0.24540124472E+04  0.24627907211E+04  0.25500000920E-02 0. -1.
</event>
<event>
 5   0  0.2458456E-03  0.1264265E+04  0.7818609E-02  0.9058393E-01
        1   -1    0    0  501    0  0.00000000000E+00  0.00000000000E+00  0.12856859332E+04  0.12856859332E+04  0.50400001928E-02 0. -1.
       -1   -1    0    0    0  501  0.00000000000E+00  0.00000000000E+00 -0.31080039577E+03  0.31080039581E+03  0.50400001928E-02 0.  1.
    10030    2    1    2    0    0  0.00000000000E+00  0.00000000000E+00  0.97488553744E+03  0.15964863290E+04  0.12642653154E+04 0.  0.
        5    1    3    3  502    0  0.61587723857E+03 -0.13667254419E+03  0.53772368681E+03  0.82894692875E+03  0.46999998093E+01 0. -1.
       -5    1    3    3    0  502 -0.61587723857E+03  0.13667254419E+03  0.43716185063E+03  0.76753940027E+03  0.46999998093E+01 0.  1.
</event>
<event>
 5   0  0.4263540E-03  0.1309269E+04  0.7818609E-02  0.9022247E-01
        2   -1    0    0  501    0  0.00000000000E+00  0.00000000000E+00  0.41698625003E+03  0.41698625004E+03  0.25500000920E-02 0.  1.
       -2   -1    0    0    0  501  0.00000000000E+00  0.00000000000E+00 -0.10277222023E+04  0.10277222023E+04  0.25500000920E-02 0. -1.
    10030    2    1    2    0    0  0.00000000000E+00  0.00000000000E+00 -0.61073595231E+03  0.14447084524E+04  0.13092685397E+04 0.  0.
        2    1    3    3  502    0  0.10028453968E+01  0.54156227453E+03  0.10044755713E+03  0.55079979542E+03  0.25500000920E-02 0. -1.
       -2    1    3    3    0  502 -0.10028453968E+01 -0.54156227453E+03 -0.71118350944E+03  0.89390865696E+03  0.25500000920E-02 0.  1.
</event>
<event>
 5   0  0.4310889E-03  0.1240440E+04  0.7818609E-02  0.9078178E-01
       -2   -1    0    0    0  501  0.00000000000E+00  0.00000000000E+00  0.33495779511E+03  0.33495779511E+03  0.25500000920E-02 0. -1.
        2   -1    0    0  501    0  0.00000000000E+00  0.00000000000E+00 -0.11484223517E+04  0.11484223517E+04  0.25500000920E-02 0.  1.
    10030    2    1    2    0    0  0.00000000000E+00  0.00000000000E+00 -0.81346455664E+03  0.14833801469E+04  0.12404402747E+04 0.  0.
        4    1    3    3  502    0  0.38359024517E+03 -0.46706877249E+03 -0.57319477950E+03  0.83297573949E+03  0.12699999809E+01 0.  1.
       -4    1    3    3    0  502 -0.38359024517E+03  0.46706877249E+03 -0.24026977714E+03  0.65040440737E+03  0.12699999809E+01 0. -1.
</event>
<event>
 5   0  0.4306214E-03  0.1203564E+04  0.7818609E-02  0.9109743E-01
        2   -1    0    0  501    0  0.00000000000E+00  0.00000000000E+00  0.65327346643E+03  0.65327346643E+03  0.25500000920E-02 0. -1.
       -2   -1    0    0    0  501  0.00000000000E+00  0.00000000000E+00 -0.55434906050E+03  0.55434906051E+03  0.25500000920E-02 0.  1.
    10030    2    1    2    0    0  0.00000000000E+00  0.00000000000E+00  0.98924405929E+02  0.12076225269E+04  0.12035639283E+04 0.  0.
        3    1    3    3  502    0 -0.42564003481E+03  0.23231532842E+02  0.47566792893E+03  0.63872461371E+03  0.10100000352E+00 0. -1.
       -3    1    3    3    0  502  0.42564003481E+03 -0.23231532842E+02 -0.37674352300E+03  0.56889791323E+03  0.10100000352E+00 0.  1.
</event>
<event>
 5   0  0.2511542E-03  0.1304367E+04  0.7818609E-02  0.9026109E-01
        1   -1    0    0  501    0  0.00000000000E+00  0.00000000000E+00  0.81684231595E+03  0.81684231597E+03  0.50400001928E-02 0. -1.
       -1   -1    0    0    0  501  0.00000000000E+00  0.00000000000E+00 -0.52071674260E+03  0.52071674263E+03  0.50400001928E-02 0.  1.
    10030    2    1    2    0    0  0.00000000000E+00  0.00000000000E+00  0.29612557335E+03  0.13375590586E+04  0.13043672336E+04 0.  0.
        4    1    3    3  502    0  0.43597074162E+02  0.64831126627E+03  0.20546632007E+03  0.68148824233E+03  0.12699999809E+01 0.  1.
       -4    1    3    3    0  502 -0.43597074162E+02 -0.64831126627E+03  0.90659253279E+02  0.65607081626E+03  0.12699999809E+01 0. -1.
</event>
<event>
 5   0  0.2370801E-03  0.1293099E+04  0.7818609E-02  0.9035055E-01
        1   -1    0    0  501    0  0.00000000000E+00  0.00000000000E+00  0.14468752223E+04  0.14468752223E+04  0.50400001928E-02 0. -1.
       -1   -1    0    0    0  501  0.00000000000E+00  0.00000000000E+00 -0.28891673108E+03  0.28891673113E+03  0.50400001928E-02 0.  1.
    10030    2    1    2    0    0  0.00000000000E+00  0.00000000000E+00  0.11579584912E+04  0.17357919535E+04  0.12930993149E+04 0.  0.
        3    1    3    3  502    0  0.52215971801E+02  0.49763041658E+03  0.29330065734E+02  0.50122131057E+03  0.10100000352E+00 0.  1.
       -3    1    3    3    0  502 -0.52215971801E+02 -0.49763041658E+03  0.11286284255E+04  0.12345706429E+04  0.10100000352E+00 0. -1.
</event>
<event>
 5   0  0.2458456E-03  0.1183005E+04  0.7818609E-02  0.9127864E-01
       -1   -1    0    0    0  501  0.00000000000E+00  0.00000000000E+00  0.17824351860E+03  0.17824351867E+03  0.50400001928E-02 0.  1.
        1   -1    0    0  501    0  0.00000000000E+00  0.00000000000E+00 -0.19629061599E+04  0.19629061599E+04  0.50400001928E-02 0. -1.
    10030    2    1    2    0    0  0.00000000000E+00  0.00000000000E+00 -0.17846626413E+04  0.21411496786E+04  0.11830051576E+04 0.  0.
        5    1    3    3  502    0 -0.84609441661E+02  0.49199716684E+03 -0.31817371821E+03  0.59201062048E+03  0.46999998093E+01 0.  1.
       -5    1    3    3    0  502  0.84609441661E+02 -0.49199716684E+03 -0.14664889231E+04  0.15491390581E+04  0.46999998093E+01 0. -1.
</event>
<event>
 5   0  0.2458456E-03  0.1189635E+04  0.7818609E-02  0.9121978E-01
       -1   -1    0    0    0  501  0.00000000000E+00  0.00000000000E+00  0.48581436380E+03  0.48581436383E+03  0.50400001928E-02 0.  1.
        1   -1    0    0  501    0  0.00000000000E+00  0.00000000000E+00 -0.72827768953E+03  0.72827768954E+03  0.50400001928E-02 0. -1.
    10030    2    1    2    0    0  0.00000000000E+00  0.00000000000E+00 -0.24246332573E+03  0.12140920534E+04  0.11896348388E+04 0.  0.
        5    1    3    3  502    0 -0.13006188240E+03 -0.57490065705E+03 -0.20261321964E+03  0.62329853642E+03  0.46999998093E+01 0. -1.
       -5    1    3    3    0  502  0.13006188240E+03  0.57490065705E+03 -0.39850106083E+02  0.59079351696E+03  0.46999998093E+01 0.  1.
</event>
<event>
 5   0  0.4263540E-03  0.1276483E+04  0.7818609E-02  0.9048425E-01
       -2   -1    0    0    0  501  0.00000000000E+00  0.00000000000E+00  0.40352661671E+03  0.40352661672E+03  0.25500000920E-02 0. -1.
        2   -1    0    0  501    0  0.00000000000E+00  0.00000000000E+00 -0.10094806189E+04  0.10094806189E+04  0.25500000920E-02 0.  1.
    10030    2    1    2    0    0  0.00000000000E+00  0.00000000000E+00 -0.60595400216E+03  0.14130072356E+04  0.12764831355E+04 0.  0.
        2    1    3    3  502    0  0.45293641527E+03  0.39016523329E+03 -0.55042995390E+03  0.81262133845E+03  0.25500000920E-02 0.  1.
       -2    1    3    3    0  502 -0.45293641527E+03 -0.39016523329E+03 -0.55524048259E+02  0.60038589714E+03  0.25500000920E-02 0. -1.
</event>
<event>
 5   0  0.4263540E-03  0.1328198E+04  0.7818609E-02  0.9007498E-01
        2   -1    0    0  501    0  0.00000000000E+00  0.00000000000E+00  0.80158755613E+03  0.80158755613E+03  0.25500000920E-02 0. -1.
       -2   -1    0    0    0  501  0.00000000000E+00  0.00000000000E+00 -0.55019277414E+03  0.55019277414E+03  0.25500000920E-02 0.  1.
    10030    2    1    2    0    0  0.00000000000E+00  0.00000000000E+00  0.25139478199E+03  0.13517803303E+04  0.13281983003E+04 0.  0.
        2    1    3    3  502    0  0.22439426974E+03 -0.33795890824E+03 -0.40943138979E+03  0.57637060551E+03  0.25500000920E-02 0.  1.
       -2    1    3    3    0  502 -0.22439426974E+03  0.33795890824E+03  0.66082617178E+03  0.77540972476E+03  0.25500000920E-02 0. -1.
</event>
<event>
 5   0  0.2370801E-03  0.1321823E+04  0.7818609E-02  0.9012436E-01
       -1   -1    0    0    0  501  0.00000000000E+00  0.00000000000E+00  0.45532505453E+03  0.45532505455E+03  0.50400001928E-02 0. -1.
        1   -1    0    0  501    0  0.00000000000E+00  0.00000000000E+00 -0.95932395935E+03  0.95932395936E+03  0.50400001928E-02 0.  1.
    10030    2    1    2    0    0  0.00000000000E+00  0.00000000000E+00 -0.50399890482E+03  0.14146490139E+04  0.13218233379E+04 0.  0.
        3    1    3    3  502    0 -0.40608587293E+03 -0.35042337985E+03  0.16125442456E+03  0.56009399298E+03  0.10100000352E+00 0. -1.
       -3    1    3    3    0  502  0.40608587293E+03  0.35042337985E+03 -0.66525332939E+03  0.85455502093E+03  0.10100000352E+00 0.  1.
</event>
<event>
 5   0  0.2356769E-03  0.1402749E+04  0.7818609E-02  0.8951831E-01
       -1   -1    0    0    0  501  0.00000000000E+00  0.00000000000E+00  0.23448174932E+03  0.23448174938E+03  0.50400001928E-02 0.  1.
        1   -1    0    0  501    0  0.00000000000E+00  0.00000000000E+00 -0.20979293901E+04  0.20979293901E+04  0.50400001928E-02 0. -1.
    10030    2    1    2    0    0  0.00000000000E+00  0.00000000000E+00 -0.18634476407E+04  0.23324111394E+04  0.14027489489E+04 0.  0.
        1    1    3    3  502    0 -0.37778922247E+03 -0.73172091755E+02  0.43283699603E+02  0.38723678842E+03  0.50400001928E-02 0.  1.
       -1    1    3    3    0  502  0.37778922247E+03  0.73172091755E+02 -0.19067313403E+04  0.19451743510E+04  0.50400001928E-02 0. -1.
</event>
<event>
 5   0  0.4453011E-03  0.1310552E+04  0.7818609E-02  0.9021239E-01
       -2   -1    0    0    0  501  0.00000000000E+00  0.00000000000E+00  0.57435754579E+03  0.57435754580E+03  0.25500000920E-02 0. -1.
        2   -1    0    0  501    0  0.00000000000E+00  0.00000000000E+00 -0.74759501799E+03  0.74759501799E+03  0.25500000920E-02 0.  1.
    10030    2    1    2    0    0  0.00000000000E+00  0.00000000000E+00 -0.17323747219E+03  0.13219525638E+04  0.13105523107E+04 0.  0.
        1    1    3    3  502    0 -0.53876365677E+03 -0.28848271407E+03  0.15186609182E+03  0.62972364101E+03  0.50400001928E-02 0. -1.
       -1    1    3    3    0  502  0.53876365677E+03  0.28848271407E+03 -0.32510356402E+03  0.69222892278E+03  0.50400001928E-02 0.  1.
</event>
<event>
 5   0  0.4388937E-03  0.1326581E+04  0.7818609E-02  0.9008748E-01
       -2   -1    0    0    0  501  0.00000000000E+00  0.00000000000E+00  0.53459653817E+03  0.53459653818E+03  0.25500000920E-02 0. -1.
        2   -1    0    0  501    0  0.00000000000E+00  0.00000000000E+00 -0.82296449743E+03  0.82296449743E+03  0.25500000920E-02 0.  1.
    10030    2    1    2    0    0  0.00000000000E+00  0.00000000000E+00 -0.28836795925E+03  0.13575610356E+04  0.13265805236E+04 0.  0.
        5    1    3    3  502    0 -0.21671949067E+03  0.57462234639E+03 -0.40058197240E+03  0.73324360565E+03  0.46999998093E+01 0. -1.
       -5    1    3    3    0  502  0.21671949067E+03 -0.57462234639E+03  0.11221401315E+03  0.62431742996E+03  0.46999998093E+01 0.  1.
</event>
<event>
 5   0  0.2462055E-03  0.1285770E+04  0.7818609E-02  0.9040926E-01
        1   -1    0    0  501    0  0.00000000000E+00  0.00000000000E+00  0.81707679886E+03  0.81707679888E+03  0.50400001928E-02 0. -1.
       -1   -1    0    0    0  501  0.00000000000E+00  0.00000000000E+00 -0.50582920632E+03  0.50582920635E+03  0.50400001928E-02 0.  1.
    10030    2    1    2    0    0  0.00000000000E+00  0.00000000000E+00  0.31124759254E+03  0.13229060052E+04  0.12857702885E+04 0.  0.
        2    1    3    3  502    0 -0.47720427784E+03  0.38944532871E+03 -0.33840645981E+02  0.61687662962E+03  0.25500000920E-02 0. -1.
       -2    1    3    3    0  502  0.47720427784E+03 -0.38944532871E+03  0.34508823852E+03  0.70602937560E+03  0.25500000920E-02 0.  1.
</event>
<event>
 5   0  0.2462055E-03  0.1299588E+04  0.7818609E-02  0.9029892E-01
       -1   -1    0    0    0  501  0.00000000000E+00  0.00000000000E+00  0.29459780284E+03  0.29459780288E+03  0.50400001928E-02 0. -1.
        1   -1    0    0  501    0  0.00000000000E+00  0.00000000000E+00 -0.14332504456E+04  0.14332504457E+04  0.50400001928E-02 0.  1.
    10030    2    1    2    0    0  0.00000000000E+00  0.00000000000E+00 -0.11386526428E+04  0.17278482485E+04  0.12995882921E+04 0.  0.
        2    1    3    3  502    0  0.40651435411E+03  0.35414209672E+03 -0.87084518047E+02  0.54612659527E+03  0.25500000920E-02 0. -1.
       -2    1    3    3    0  502 -0.40651435411E+03 -0.35414209672E+03 -0.10515681248E+04  0.11817216533E+04  0.25500000920E-02 0.  1.
</event>
<event>
 5   0  0.2370801E-03  0.1249758E+04  0.7818609E-02  0.9070384E-01
        1   -1    0    0  501    0  0.00000000000E+00  0.00000000000E+00  0.56070839064E+03  0.56070839066E+03  0.50400001928E-02 0. -1.
       -1   -1    0    0    0  501  0.00000000000E+00  0.00000000000E+00 -0.69639416508E+03  0.69639416510E+03  0.50400001928E-02 0.  1.
    10030    2    1    2    0    0  0.00000000000E+00  0.00000000000E+00 -0.13568577444E+03  0.12571025558E+04  0.12497584592E+04 0.  0.
        3    1    3    3  502    0  0.57299823317E+03  0.23848141328E+03 -0.14088975199E+03  0.63643561506E+03  0.10100000352E+00 0.  1.
       -3    1    3    3    0  502 -0.57299823317E+03 -0.23848141328E+03  0.52039775469E+01  0.62066694070E+03  0.10100000352E+00 0. -1.
</event>
<event>
 5   0  0.4306214E-03  0.1259288E+04  0.7818609E-02  0.9062488E-01
        2   -1    0    0  501    0  0.00000000000E+00  0.00000000000E+00  0.13284405209E+04  0.13284405209E+04  0.25500000920E-02 0. -1.
       -2   -1    0    0    0  501  0.00000000000E+00  0.00000000000E+00 -0.29843398789E+03  0.29843398790E+03  0.25500000920E-02 0.  1.
    10030    2    1    2    0    0  0.00000000000E+00  0.00000000000E+00  0.10300065330E+04  0.16268745088E+04  0.12592883742E+04 0.  0.
        3    1    3    3  502    0  0.36676136529E+03  0.28278635914E+03 -0.36094284698E+02  0.46452645950E+03  0.10100000352E+00 0.  1.
       -3    1    3    3    0  502 -0.36676136529E+03 -0.28278635914E+03  0.10661008177E+04  0.11623480493E+04  0.10100000352E+00 0. -1.
</event>
<event>
 5   0  0.2458456E-03  0.1348083E+04  0.7818609E-02  0.8992280E-01
        1   -1    0    0  501    0  0.00000000000E+00  0.00000000000E+00  0.14596136048E+04  0.14596136048E+04  0.50400001928E-02 0.  1.
       -1   -1    0    0    0  501  0.00000000000E+00  0.00000000000E+00 -0.31126874586E+03  0.31126874590E+03  0.50400001928E-02 0. -1.
    10030    2    1    2    0    0  0.00000000000E+00  0.00000000000E+00  0.11483448590E+04  0.17708823507E+04  0.13480832263E+04 0.  0.
        5    1    3    3  502    0  0.48694046676E+03  0.34104368611E+03  0.99141938338E+03  0.11560087793E+04  0.46999998093E+01 0.  1.
       -5    1    3    3    0  502 -0.48694046676E+03 -0.34104368611E+03  0.15692547559E+03  0.61487357147E+03  0.46999998093E+01 0. -1.
</event>
<event>
 5   0  0.2462055E-03  0.1333959E+04  0.7818609E-02  0.9003060E-01
       -1   -1    0    0    0  501  0.00000000000E+00  0.00000000000E+00  0.36662333224E+03  0.36662333228E+03  0.50400001928E-02 0.  1.
        1   -1    0    0  501    0  0.00000000000E+00  0.00000000000E+00 -0.12134025552E+04  0.12134025552E+04  0.50400001928E-02 0. -1.
    10030    2    1    2    0    0  0.00000000000E+00  0.00000000000E+00 -0.84677922296E+03  0.15800258875E+04  0.13339590521E+04 0.  0.
        2    1    3    3  502    0  0.18604286579E+03  0.63841401420E+03 -0.48467672204E+03  0.82285838778E+03  0.25500000920E-02 0. -1.
       -2    1    3    3    0  502 -0.18604286579E+03 -0.63841401420E+03 -0.36210250092E+03  0.75716749971E+03  0.25500000920E-02 0.  1.
</event>
<event>
 5   0  0.4306214E-03  0.1286484E+04  0.7818609E-02  0.9040353E-01
       -2   -1    0    0    0  501  0.00000000000E+00  0.00000000000E+00  0.29776147493E+03  0.29776147494E+03  0.25500000920E-02 0.  1.
        2   -1    0    0  501    0  0.00000000000E+00  0.00000000000E+00 -0.13895696736E+04  0.13895696736E+04  0.25500000920E-02 0. -1.
    10030    2    1    2    0    0  0.00000000000E+00  0.00000000000E+00 -0.10918081987E+04  0.16873311485E+04  0.12864840699E+04 0.  0.
        3    1    3    3  502    0 -0.40402760456E+03  0.22475812054E+03 -0.11324705132E+04  0.12232105262E+04  0.10100000352E+00 0. -1.
       -3    1    3    3    0  502  0.40402760456E+03 -0.22475812054E+03  0.40662314565E+02  0.46412062228E+03  0.10100000352E+00 0.  1.
</event>
<event>
 5   0  0.4388937E-03  0.1245014E+04  0.7818609E-02  0.9074343E-01
        2   -1    0    0  501    0  0.00000000000E+00  0.00000000000E+00  0.15078472007E+04  0.15078472007E+04  0.25500000920E-02 0. -1.
       -2   -1    0    0    0  501  0.00000000000E+00  0.00000000000E+00 -0.25699877566E+03  0.25699877567E+03  0.25500000920E-02 0.  1.
    10030    2    1    2    0    0  0.00000000000E+00  0.00000000000E+00  0.12508484250E+04  0.17648459764E+04  0.12450138706E+04 0.  0.
        5    1    3    3  502    0 -0.28684248709E+02  0.61654289057E+03  0.51074539337E+03  0.80114347585E+03  0.46999998093E+01 0.  1.
       -5    1    3    3    0  502  0.28684248709E+02 -0.61654289057E+03  0.74010303167E+03  0.96370250053E+03  0.46999998093E+01 0. -1.
</event>
<event>
 5   0  0.4388937E-03  0.1239780E+04  0.7818609E-02  0.9078733E-01
        2   -1    0    0  501    0  0.00000000000E+00  0.00000000000E+00  0.97443769305E+03  0.97443769306E+03  0.25500000920E-02 0.  1.
       -2   -1    0    0    0  501  0.00000000000E+00  0.00000000000E+00 -0.39434365680E+03  0.39434365681E+03  0.25500000920E-02 0. -1.
    10030    2    1    2    0    0  0.00000000000E+00  0.00000000000E+00  0.58009403625E+03  0.13687813499E+04  0.12397795340E+04 0.  0.
        5    1    3    3  502    0 -0.58888020977E+03 -0.76228068667E+02  0.48646474527E+03  0.76763315346E+03  0.46999998093E+01 0.  1.
       -5    1    3    3    0  502  0.58888020977E+03  0.76228068667E+02  0.93629290985E+02  0.60114819640E+03  0.46999998093E+01 0. -1.
</event>
<event>
 5   0  0.4388937E-03  0.1289049E+04  0.7818609E-02  0.9038295E-01
        2   -1    0    0  501    0  0.00000000000E+00  0.00000000000E+00  0.17077990721E+04  0.17077990721E+04  0.25500000920E-02 0.  1.
       -2   -1    0    0    0  501  0.00000000000E+00  0.00000000000E+00 -0.24324398754E+03  0.24324398755E+03  0.25500000920E-02 0. -1.
    10030    2    1    2    0    0  0.00000000000E+00  0.00000000000E+00  0.14645550845E+04  0.19510430596E+04  0.12890490390E+04 0.  0.
        5    1    3    3  502    0 -0.58436131448E+03 -0.22337666775E+03  0.49772829117E+03  0.79945658005E+03  0.46999998093E+01 0. -1.
       -5    1    3    3    0  502  0.58436131448E+03  0.22337666775E+03  0.96682679335E+03  0.11515864796E+04  0.46999998093E+01 0.  1.
</event>
<event>
 5   0  0.4263540E-03  0.1318703E+04  0.7818609E-02  0.9014864E-01
        2   -1    0    0  501    0  0.00000000000E+00  0.00000000000E+00  0.48700438903E+03  0.48700438903E+03  0.25500000920E-02 0.  1.
       -2   -1    0    0    0  501  0.00000000000E+00  0.00000000000E+00 -0.89269088444E+03  0.89269088444E+03  0.25500000920E-02 0. -1.
    10030    2    1    2    0    0  0.00000000000E+00  0.00000000000E+00 -0.40568649541E+03  0.13796952735E+04  0.13187029670E+04 0.  0.
        2    1    3    3  502    0 -0.42291862798E+03  0.29667726230E+03  0.22582233760E+03  0.56380252928E+03  0.25500000920E-02 0.  1.
       -2    1    3    3    0  502  0.42291862798E+03 -0.29667726230E+03 -0.63150883301E+03  0.81589274420E+03  0.25500000920E-02 0. -1.
</event>
<event>
 5   0  0.4310889E-03  0.1338140E+04  0.7818609E-02  0.8999855E-01
       -2   -1    0    0    0  501  0.00000000000E+00  0.00000000000E+00  0.76686460508E+03  0.76686460508E+03  0.25500000920E-02 0.  1.
        2   -1    0    0  501    0  0.00000000000E+00  0.00000000000E+00 -0.58374648435E+03  0.58374648436E+03  0.25500000920E-02 0. -1.
    10030    2    1    2    0    0  0.00000000000E+00  0.00000000000E+00  0.18311812073E+03  0.13506110894E+04  0.13381397792E+04 0.  0.
        4    1    3    3  502    0  0.27051949370E+03 -0.32267457902E+03 -0.43324188217E+03  0.60415215119E+03  0.12699999809E+01 0. -1.
       -4    1    3    3    0  502 -0.27051949370E+03  0.32267457902E+03  0.61636000290E+03  0.74645893825E+03  0.12699999809E+01 0.  1.
</event>
<event>
 5   0  0.4306214E-03  0.7145339E+03  0.7818609E-02  0.9692695E-01
       -2   -1    0    0    0  501  0.00000000000E+00  0.00000000000E+00  0.52682245259E+03  0.52682245259E+03  0.25500000920E-02 0. -1.
        2   -1    0    0  501    0  0.00000000000E+00  0.00000000000E+00 -0.24228213452E+03  0.24228213453E+03  0.25500000920E-02 0.  1.
    10030    2    1    2    0    0  0.00000000000E+00  0.00000000000E+00  0.28454031807E+03  0.76910458712E+03  0.71453388536E+03 0.  0.
        3    1    3    3  502    0 -0.12132752051E+03  0.19050151798E+03 -0.15568960966E+03  0.27431817355E+03  0.10100000352E+00 0.  1.
       -3    1    3    3    0  502  0.12132752051E+03 -0.19050151798E+03  0.44022992773E+03  0.49478641357E+03  0.10100000352E+00 0. -1.
</event>
<event>
 5   0  0.4388937E-03  0.9912009E+03  0.7818609E-02  0.9318248E-01
       -2   -1    0    0    0  501  0.00000000000E+00  0.00000000000E+00  0.18124079758E+03  0.18124079760E+03  0.25500000920E-02 0. -1.
        2   -1    0    0  501    0  0.00000000000E+00  0.00000000000E+00 -0.13552126965E+04  0.13552126965E+04  0.25500000920E-02 0.  1.
    10030    2    1    2    0    0  0.00000000000E+00  0.00000000000E+00 -0.11739718989E+04  0.15364534941E+04  0.99120094838E+03 0.  0.
        5    1    3    3  502    0 -0.31045432438E+03 -0.19219772075E+03 -0.11063847723E+04  0.11650884970E+04  0.46999998093E+01 0.  1.
       -5    1    3    3    0  502  0.31045432438E+03  0.19219772075E+03 -0.67587126570E+02  0.37136499709E+03  0.46999998093E+01 0. -1.
</event>
<event>
 5   0  0.4310889E-03  0.1304988E+04  0.7818609E-02  0.9025619E-01
       -2   -1    0    0    0  501  0.00000000000E+00  0.00000000000E+00  0.44288949962E+03  0.44288949963E+03  0.25500000920E-02 0. -1.
        2   -1    0    0  501    0  0.00000000000E+00  0.00000000000E+00 -0.96129728112E+03  0.96129728112E+03  0.25500000920E-02 0.  1.
    10030    2    1    2    0    0  0.00000000000E+00  0.00000000000E+00 -0.51840778150E+03  0.14041867807E+04  0.13049880794E+04 0.  0.
        4    1    3    3  502    0 -0.36038068087E+03 -0.53694197118E+03 -0.16560948767E+03  0.66753953505E+03  0.12699999809E+01 0. -1.
       -4    1    3    3    0  502  0.36038068087E+03  0.53694197118E+03 -0.35279829383E+03  0.73664724569E+03  0.12699999809E+01 0.  1.
</event>
<event>
 5   0  0.1661750E-03  0.1185964E+04  0.7818609E-02  0.9125232E-01
        3   -1    0    0  501    0  0.00000000000E+00  0.00000000000E+00  0.93916631809E+02  0.93916686117E+02  0.10100000352E+00 0.  1.
       -3   -1    0    0    0  501  0.00000000000E+00  0.00000000000E+00 -0.37440395587E+04  0.37440395601E+04  0.10100000352E+00 0. -1.
    10030    2    1    2    0    0  0.00000000000E+00  0.00000000000E+00 -0.36501229269E+04  0.38379562462E+04  0.11859640661E+04 0.  0.
        2    1    3    3  502    0  0.36361978123E+03  0.34280403486E+03 -0.79205689926E+03  0.93652980907E+03  0.25500000920E-02 0.  1.
       -2    1    3    3    0  502 -0.36361978123E+03 -0.34280403486E+03 -0.28580660276E+04  0.29014264371E+04  0.25500000920E-02 0. -1.
</event>
<event>
 5   0  0.4453011E-03  0.1296296E+04  0.7818609E-02  0.9032507E-01
       -2   -1    0    0    0  501  0.00000000000E+00  0.00000000000E+00  0.82019888427E+03  0.82019888427E+03  0.25500000920E-02 0.  1.
        2   -1    0    0  501    0  0.00000000000E+00  0.00000000000E+00 -0.51218806465E+03  0.51218806466E+03  0.25500000920E-02 0. -1.
    10030    2    1    2    0    0  0.00000000000E+00  0.00000000000E+00  0.30801081962E+03  0.13323869489E+04  0.12962963846E+04 0.  0.
        1    1    3    3  502    0 -0.27397432400E+03  0.28720247400E+03 -0.37265558088E+03  0.54444409563E+03  0.50400001928E-02 0. -1.
       -1    1    3    3    0  502  0.27397432400E+03 -0.28720247400E+03  0.68066640050E+03  0.78794285330E+03  0.50400001928E-02 0.  1.
</event>
<event>
 5   0  0.2462055E-03  0.1302509E+04  0.7818609E-02  0.9027578E-01
       -1   -1    0    0    0  501  0.00000000000E+00  0.00000000000E+00  0.34448768403E+03  0.34448768407E+03  0.50400001928E-02 0.  1.
        1   -1    0    0  501    0  0.00000000000E+00  0.00000000000E+00 -0.12311972921E+04  0.12311972921E+04  0.50400001928E-02 0. -1.
    10030    2    1    2    0    0  0.00000000000E+00  0.00000000000E+00 -0.88670960807E+03  0.15756849762E+04  0.13025088158E+04 0.  0.
        2    1    3    3  502    0  0.42008461915E+03  0.47760921428E+03 -0.27420582598E+03  0.69265466419E+03  0.25500000920E-02 0.  1.
       -2    1    3    3    0  502 -0.42008461915E+03 -0.47760921428E+03 -0.61250378209E+03  0.88303031199E+03  0.25500000920E-02 0. -1.
</event>
<event>
 5   0  0.4306214E-03  0.1288488E+04  0.7818609E-02  0.9038745E-01
        2   -1    0    0  501    0  0.00000000000E+00  0.00000000000E+00  0.59215216626E+03  0.59215216626E+03  0.25500000920E-02 0. -1.
       -2   -1    0    0    0  501  0.00000000000E+00  0.00000000000E+00 -0.70091801626E+03  0.70091801626E+03  0.25500000920E-02 0.  1.
    10030    2    1    2    0    0  0.00000000000E+00  0.00000000000E+00 -0.10876585000E+03  0.12930701825E+04  0.12884876743E+04 0.  0.
        3    1    3    3  502    0  0.16363383342E+03 -0.49935856129E+03  0.31965580022E+03  0.61507304037E+03  0.10100000352E+00 0. -1.
       -3    1    3    3    0  502 -0.16363383342E+03  0.49935856129E+03 -0.42842165022E+03  0.67799714215E+03  0.10100000352E+00 0.  1.
</event>
<event>
 5   0  0.2511542E-03  0.1260638E+04  0.7818609E-02  0.9061376E-01
        1   -1    0    0  501    0  0.00000000000E+00  0.00000000000E+00  0.75244013355E+03  0.75244013357E+03  0.50400001928E-02 0.  1.
       -1   -1    0    0    0  501  0.00000000000E+00  0.00000000000E+00 -0.52801772655E+03  0.52801772657E+03  0.50400001928E-02 0. -1.
    10030    2    1    2    0    0  0.00000000000E+00  0.00000000000E+00  0.22442240700E+03  0.12804578601E+04  0.12606375033E+04 0.  0.
        4    1    3    3  502    0 -0.59100233334E+03  0.21898073844E+03  0.10409851226E+03  0.63880704049E+03  0.12699999809E+01 0.  1.
       -4    1    3    3    0  502  0.59100233334E+03 -0.21898073844E+03  0.12032389474E+03  0.64165081966E+03  0.12699999809E+01 0. -1.
</event>
<event>
 5   0  0.2356769E-03  0.1353693E+04  0.7818609E-02  0.8988037E-01
        1   -1    0    0  501    0  0.00000000000E+00  0.00000000000E+00  0.73959633686E+03  0.73959633687E+03  0.50400001928E-02 0. -1.
       -1   -1    0    0    0  501  0.00000000000E+00  0.00000000000E+00 -0.61942081737E+03  0.61942081739E+03  0.50400001928E-02 0.  1.
    10030    2    1    2    0    0  0.00000000000E+00  0.00000000000E+00  0.12017551949E+03  0.13590171543E+04  0.13536932703E+04 0.  0.
        1    1    3    3  502    0  0.98220982115E+02  0.61814049010E+03 -0.19856154885E+03  0.65663666935E+03  0.50400001928E-02 0.  1.
       -1    1    3    3    0  502 -0.98220982115E+02 -0.61814049010E+03  0.31873706834E+03  0.70238048491E+03  0.50400001928E-02 0. -1.
</event>
<event>
 5   0  0.2458456E-03  0.1305488E+04  0.7818609E-02  0.9025225E-01
       -1   -1    0    0    0  501  0.00000000000E+00  0.00000000000E+00  0.40551247211E+03  0.40551247214E+03  0.50400001928E-02 0. -1.
        1   -1    0    0  501    0  0.00000000000E+00  0.00000000000E+00 -0.10507066379E+04  0.10507066379E+04  0.50400001928E-02 0.  1.
    10030    2    1    2    0    0  0.00000000000E+00  0.00000000000E+00 -0.64519416580E+03  0.14562191101E+04  0.13054878724E+04 0.  0.
        5    1    3    3  502    0 -0.68726725213E+02  0.29121831940E+03 -0.96968013292E+03  0.10148069385E+04  0.46999998093E+01 0.  1.
       -5    1    3    3    0  502  0.68726725213E+02 -0.29121831940E+03  0.32448596712E+03  0.44141217152E+03  0.46999998093E+01 0. -1.
</event>
<event>
 5   0  0.4310889E-03  0.1308331E+04  0.7818609E-02  0.9022984E-01
       -2   -1    0    0    0  501  0.00000000000E+00  0.00000000000E+00  0.87140569654E+03  0.87140569654E+03  0.25500000920E-02 0.  1.
        2   -1    0    0  501    0  0.00000000000E+00  0.00000000000E+00 -0.49108319044E+03  0.49108319045E+03  0.25500000920E-02 0. -1.
    10030    2    1    2    0    0  0.00000000000E+00  0.00000000000E+00  0.38032250610E+03  0.13624888870E+04  0.13083312878E+04 0.  0.
        4    1    3    3  502    0  0.32576520550E+03  0.15440215721E+03 -0.37829901259E+03  0.52256554717E+03  0.12699999809E+01 0. -1.
       -4    1    3    3    0  502 -0.32576520550E+03 -0.15440215721E+03  0.75862151868E+03  0.83992333982E+03  0.12699999809E+01 0.  1.
</event>
<event>
 5   0  0.2462055E-03  0.1287062E+04  0.7818609E-02  0.9039888E-01
       -1   -1    0    0    0  501  0.00000000000E+00  0.00000000000E+00  0.37298945646E+03  0.37298945650E+03  0.50400001928E-02 0.  1.
        1   -1    0    0  501    0  0.00000000000E+00  0.00000000000E+00 -0.11103060124E+04  0.11103060124E+04  0.50400001928E-02 0. -1.
    10030    2    1    2    0    0  0.00000000000E+00  0.00000000000E+00 -0.73731655590E+03  0.14832954689E+04  0.12870624477E+04 0.  0.
        2    1    3    3  502    0  0.72281797636E+02 -0.44950475087E+03 -0.89281267374E+03  0.10021944171E+04  0.25500000920E-02 0. -1.
       -2    1    3    3    0  502 -0.72281797636E+02  0.44950475087E+03  0.15549611783E+03  0.48110105175E+03  0.25500000920E-02 0.  1.
</event>
<event>
 5   0  0.4263540E-03  0.1098288E+04  0.7818609E-02  0.9206862E-01
       -2   -1    0    0    0  501  0.00000000000E+00  0.00000000000E+00  0.38151654175E+03  0.38151654176E+03  0.25500000920E-02 0.  1.
        2   -1    0    0  501    0  0.00000000000E+00  0.00000000000E+00 -0.79042193908E+03  0.79042193909E+03  0.25500000920E-02 0. -1.
    10030    2    1    2    0    0  0.00000000000E+00  0.00000000000E+00 -0.40890539733E+03  0.11719384808E+04  0.10982878397E+04 0.  0.
        2    1    3    3  502    0  0.15324044278E+03  0.51756422781E+03 -0.31223987294E+03  0.62357766275E+03  0.25500000920E-02 0. -1.
       -2    1    3    3    0  502 -0.15324044278E+03 -0.51756422781E+03 -0.96665524391E+02  0.54836081810E+03  0.25500000920E-02 0.  1.
</event>
<event>
 5   0  0.4453011E-03  0.1377063E+04  0.7818609E-02  0.8970591E-01
       -2   -1    0    0    0  501  0.00000000000E+00  0.00000000000E+00  0.30029287715E+03  0.30029287716E+03  0.25500000920E-02 0. -1.
        2   -1    0    0  501    0  0.00000000000E+00  0.00000000000E+00 -0.15787105341E+04  0.15787105341E+04  0.25500000920E-02 0.  1.
    10030    2    1    2    0    0  0.00000000000E+00  0.00000000000E+00 -0.12784176569E+04  0.18790034112E+04  0.13770628576E+04 0.  0.
        1    1    3    3  502    0  0.19621009983E+03  0.50058530158E+03 -0.12260893135E+04  0.13387976144E+04  0.50400001928E-02 0.  1.
       -1    1    3    3    0  502 -0.19621009983E+03 -0.50058530158E+03 -0.52328343401E+02  0.54020579688E+03  0.50400001928E-02 0. -1.
</event>
<event>
 5   0  0.4388937E-03  0.1307059E+04  0.7818609E-02  0.9023986E-01
        2   -1    0    0  501    0  0.00000000000E+00  0.00000000000E+00  0.12376972313E+04  0.12376972313E+04  0.25500000920E-02 0.  1.
       -2   -1    0    0    0  501  0.00000000000E+00  0.00000000000E+00 -0.34507689179E+03  0.34507689180E+03  0.25500000920E-02 0. -1.
    10030    2    1    2    0    0  0.00000000000E+00  0.00000000000E+00  0.89262033949E+03  0.15827741231E+04  0.13070588564E+04 0.  0.
        5    1    3    3  502    0 -0.11479223929E+03  0.25377381706E+03  0.11622021889E+04  0.11951210927E+04  0.46999998093E+01 0.  1.
       -5    1    3    3    0  502  0.11479223929E+03 -0.25377381706E+03 -0.26958184939E+03  0.38765303036E+03  0.46999998093E+01 0. -1.
</event>
<event>
 5   0  0.2462055E-03  0.1167062E+04  0.7818609E-02  0.9142186E-01
       -1   -1    0    0    0  501  0.00000000000E+00  0.00000000000E+00  0.39014608334E+03  0.39014608338E+03  0.50400001928E-02 0. -1.
        1   -1    0    0  501    0  0.00000000000E+00  0.00000000000E+00 -0.87277210724E+03  0.87277210725E+03  0.50400001928E-02 0.  1.
    10030    2    1    2    0    0  0.00000000000E+00  0.00000000000E+00 -0.48262602390E+03  0.12629181906E+04  0.11670623279E+04 0.  0.
        2    1    3    3  502    0  0.17684955171E+03  0.27255211414E+03 -0.76583926469E+03  0.83190756590E+03  0.25500000920E-02 0.  1.
       -2    1    3    3    0  502 -0.17684955171E+03 -0.27255211414E+03  0.28321324079E+03  0.43101062473E+03  0.25500000920E-02 0. -1.
</event>
<event>
 5   0  0.2511542E-03  0.1305502E+04  0.7818609E-02  0.9025214E-01
       -1   -1    0    0    0  501  0.00000000000E+00  0.00000000000E+00  0.53713326696E+03  0.53713326698E+03  0.50400001928E-02 0.  1.
        1   -1    0    0  501    0  0.00000000000E+00  0.00000000000E+00 -0.79325484104E+03  0.79325484106E+03  0.50400001928E-02 0. -1.
    10030    2    1    2    0    0  0.00000000000E+00  0.00000000000E+00 -0.25612157409E+03  0.13303881080E+04  0.13055015348E+04 0.  0.
        4    1    3    3  502    0  0.32208272093E+03 -0.54030197712E+03 -0.30579436260E+03  0.69941068815E+03  0.12699999809E+01 0. -1.
       -4    1    3    3    0  502 -0.32208272093E+03  0.54030197712E+03  0.49672788515E+02  0.63097741989E+03  0.12699999809E+01 0.  1.
</event>
<event>
 5   0  0.4310889E-03  0.1275469E+04  0.7818609E-02  0.9049248E-01
        2   -1    0    0  501    0  0.00000000000E+00  0.00000000000E+00  0.16918667020E+04  0.16918667020E+04  0.25500000920E-02 0.  1.
       -2   -1    0    0    0  501  0.00000000000E+00  0.00000000000E+00 -0.24038841992E+03  0.24038841993E+03  0.25500000920E-02 0. -1.
    10030    2    1    2    0    0  0.00000000000E+00  0.00000000000E+00  0.14514782821E+04  0.19322551220E+04  0.12754687973E+04 0.  0.
        4    1    3    3  502    0  0.28848573807E+03  0.45441540552E+03  0.20758152352E+03  0.57689607700E+03  0.12699999809E+01 0. -1.
       -4    1    3    3    0  502 -0.28848573807E+03 -0.45441540552E+03  0.12438967586E+04  0.13553590450E+04  0.12699999809E+01 0.  1.
</event>
<event>
 5   0  0.4306214E-03  0.1355881E+04  0.7818609E-02  0.8986388E-01
       -2   -1    0    0    0  501  0.00000000000E+00  0.00000000000E+00  0.51405455368E+03  0.51405455369E+03  0.25500000920E-02 0. -1.
        2   -1    0    0  501    0  0.00000000000E+00  0.00000000000E+00 -0.89407525685E+03  0.89407525686E+03  0.25500000920E-02 0.  1.
    10030    2    1    2    0    0  0.00000000000E+00  0.00000000000E+00 -0.38002070317E+03  0.14081298105E+04  0.13558812000E+04 0.  0.
        3    1    3    3  502    0  0.33873855409E+03 -0.41430944791E+03 -0.62222967087E+03  0.82071060683E+03  0.10100000352E+00 0.  1.
       -3    1    3    3    0  502 -0.33873855409E+03  0.41430944791E+03  0.24220896770E+03  0.58741920371E+03  0.10100000352E+00 0. -1.
</event>
<event>
 5   0  0.2356769E-03  0.8321213E+03  0.7818609E-02  0.9514652E-01
       -1   -1    0    0    0  501  0.00000000000E+00  0.00000000000E+00  0.18424275864E+03  0.18424275871E+03  0.50400001928E-02 0. -1.
        1   -1    0    0  501    0  0.00000000000E+00  0.00000000000E+00 -0.93955645435E+03  0.93955645436E+03  0.50400001928E-02 0.  1.
    10030    2    1    2    0    0  0.00000000000E+00  0.00000000000E+00 -0.75531369571E+03  0.11237992131E+04  0.83212132070E+03 0.  0.
        1    1    3    3  502    0 -0.23968881048E+03  0.11772553253E+03 -0.80854879951E+03  0.85150524842E+03  0.50400001928E-02 0.  1.
       -1    1    3    3    0  502  0.23968881048E+03 -0.11772553253E+03  0.53235103801E+02  0.27229396465E+03  0.50400001928E-02 0. -1.
</event>
<event>
 5   0  0.2356769E-03  0.1259052E+04  0.7818609E-02  0.9062682E-01
       -1   -1    0    0    0  501  0.00000000000E+00  0.00000000000E+00  0.95928856527E+03  0.95928856528E+03  0.50400001928E-02 0. -1.
        1   -1    0    0  501    0  0.00000000000E+00  0.00000000000E+00 -0.41312199998E+03  0.41312200001E+03  0.50400001928E-02 0.  1.
    10030    2    1    2    0    0  0.00000000000E+00  0.00000000000E+00  0.54616656529E+03  0.13724105653E+04  0.12590523590E+04 0.  0.
        1    1    3    3  502    0  0.33786975184E+03  0.15248951999E+03  0.82771079872E+03  0.90692568012E+03  0.50400001928E-02 0. -1.
       -1    1    3    3    0  502 -0.33786975184E+03 -0.15248951999E+03 -0.28154423343E+03  0.46548488517E+03  0.50400001928E-02 0.  1.
</event>
<event>
 5   0  0.2462055E-03  0.1279387E+04  0.7818609E-02  0.9046073E-01
       -1   -1    0    0    0  501  0.00000000000E+00  0.00000000000E+00  0.72370465921E+03  0.72370465923E+03  0.50400001928E-02 0.  1.
        1   -1    0    0  501    0  0.00000000000E+00  0.00000000000E+00 -0.56543486094E+03  0.56543486096E+03  0.50400001928E-02 0. -1.
    10030    2    1    2    0    0  0.00000000000E+00  0.00000000000E+00  0.15826979827E+03  0.12891395202E+04  0.12793871085E+04 0.  0.
        2    1    3    3  502    0  0.63303753066E+03  0.68479554795E+02  0.17169143495E+02  0.63696212144E+03  0.25500000920E-02 0.  1.
       -2    1    3    3    0  502 -0.63303753066E+03 -0.68479554795E+02  0.14110065477E+03  0.65217739875E+03  0.25500000920E-02 0. -1.
</event>
<event>
 5   0  0.2462055E-03  0.1344721E+04  0.7818609E-02  0.8994834E-01
        1   -1    0    0  501    0  0.00000000000E+00  0.00000000000E+00  0.63768420777E+03  0.63768420779E+03  0.50400001928E-02 0.  1.
       -1   -1    0    0    0  501  0.00000000000E+00  0.00000000000E+00 -0.70892295145E+03  0.70892295146E+03  0.50400001928E-02 0. -1.
    10030    2    1    2    0    0  0.00000000000E+00  0.00000000000E+00 -0.71238743674E+02  0.13466071593E+04  0.13447214889E+04 0.  0.
        2    1    3    3  502    0  0.46977253211E+03  0.28712715546E+02  0.44521883876E+03  0.64786608674E+03  0.25500000920E-02 0.  1.
       -2    1    3    3    0  502 -0.46977253211E+03 -0.28712715546E+02 -0.51645758243E+03  0.69874107251E+03  0.25500000920E-02 0. -1.
</event>
<event>
 5   0  0.4388937E-03  0.1309348E+04  0.7818609E-02  0.9022184E-01
        2   -1    0    0  501    0  0.00000000000E+00  0.00000000000E+00  0.76870311333E+03  0.76870311334E+03  0.25500000920E-02 0. -1.
       -2   -1    0    0    0  501  0.00000000000E+00  0.00000000000E+00 -0.55756029916E+03  0.55756029917E+03  0.25500000920E-02 0.  1.
    10030    2    1    2    0    0  0.00000000000E+00  0.00000000000E+00  0.21114281417E+03  0.13262634125E+04  0.13093484454E+04 0.  0.
        5    1    3    3  502    0 -0.16488002897E+03 -0.46171933776E+03  0.54500309709E+03  0.73308978757E+03  0.46999998093E+01 0. -1.
       -5    1    3    3    0  502  0.16488002897E+03  0.46171933776E+03 -0.33386028291E+03  0.59317362493E+03  0.46999998093E+01 0.  1.
</event>
<event>
 5   0  0.2458456E-03  0.1282209E+04  0.7818609E-02  0.9043794E-01
       -1   -1    0    0    0  501  0.00000000000E+00  0.00000000000E+00  0.46014549363E+03  0.46014549366E+03  0.50400001928E-02 0.  1.
        1   -1    0    0  501    0  0.00000000000E+00  0.00000000000E+00 -0.89322775547E+03  0.89322775548E+03  0.50400001928E-02 0. -1.
    10030    2    1    2    0    0  0.00000000000E+00  0.00000000000E+00 -0.43308226183E+03  0.13533732491E+04  0.12822086047E+04 0.  0.
        5    1    3    3  502    0  0.44599392803E+03 -0.38049840317E+03 -0.49036806889E+03  0.76431181572E+03  0.46999998093E+01 0. -1.
       -5    1    3    3    0  502 -0.44599392803E+03  0.38049840317E+03  0.57285807061E+02  0.58906143342E+03  0.46999998093E+01 0.  1.
</event>
<event>
 5   0  0.2370801E-03  0.1303065E+04  0.7818609E-02  0.9027138E-01
       -1   -1    0    0    0  501  0.00000000000E+00  0.00000000000E+00  0.13059273984E+04  0.13059273984E+04  0.50400001928E-02 0. -1.
        1   -1    0    0  501    0  0.00000000000E+00  0.00000000000E+00 -0.32505242624E+03  0.32505242628E+03  0.50400001928E-02 0.  1.
    10030    2    1    2    0    0  0.00000000000E+00  0.00000000000E+00  0.98087497214E+03  0.16309798247E+04  0.13030654157E+04 0.  0.
        3    1    3    3  502    0  0.65080044133E+03  0.17163157879E+02  0.52257027277E+03  0.83481464326E+03  0.10100000352E+00 0.  1.
       -3    1    3    3    0  502 -0.65080044133E+03 -0.17163157879E+02  0.45830469937E+03  0.79616518141E+03  0.10100000352E+00 0. -1.
</event>
<event>
 5   0  0.2370801E-03  0.1426101E+04  0.7818609E-02  0.8935139E-01
       -1   -1    0    0    0  501  0.00000000000E+00  0.00000000000E+00  0.89273546211E+03  0.89273546213E+03  0.50400001928E-02 0.  1.
        1   -1    0    0  501    0  0.00000000000E+00  0.00000000000E+00 -0.56953133620E+03  0.56953133623E+03  0.50400001928E-02 0. -1.
    10030    2    1    2    0    0  0.00000000000E+00  0.00000000000E+00  0.32320412591E+03  0.14622667984E+04  0.14261007267E+04 0.  0.
        3    1    3    3  502    0  0.61265533312E+03  0.18694222736E+03  0.48283096700E+03  0.80213446907E+03  0.10100000352E+00 0.  1.
       -3    1    3    3    0  502 -0.61265533312E+03 -0.18694222736E+03 -0.15962684109E+03  0.66013232929E+03  0.10100000352E+00 0. -1.
</event>
<event>
 5   0  0.2511542E-03  0.1284705E+04  0.7818609E-02  0.9041783E-01
        1   -1    0    0  501    0  0.00000000000E+00  0.00000000000E+00  0.13191040349E+04  0.13191040349E+04  0.50400001928E-02 0.  1.
       -1   -1    0    0    0  501  0.00000000000E+00  0.00000000000E+00 -0.31280085345E+03  0.31280085349E+03  0.50400001928E-02 0. -1.
    10030    2    1    2    0    0  0.00000000000E+00  0.00000000000E+00  0.10063031815E+04  0.16319048884E+04  0.12847052081E+04 0.  0.
        4    1    3    3  502    0 -0.28491814231E+03 -0.11617012564E+02 -0.22799314289E+03  0.36509695822E+03  0.12699999809E+01 0. -1.
       -4    1    3    3    0  502  0.28491814231E+03  0.11617012564E+02  0.12342963244E+04  0.12668079302E+04  0.12699999809E+01 0.  1.
</event>
<event>
 5   0  0.4263540E-03  0.1261226E+04  0.7818609E-02  0.9060892E-01
       -2   -1    0    0    0  501  0.00000000000E+00  0.00000000000E+00  0.37766649737E+03  0.37766649737E+03  0.25500000920E-02 0. -1.
        2   -1    0    0  501    0  0.00000000000E+00  0.00000000000E+00 -0.10529725492E+04  0.10529725492E+04  0.25500000920E-02 0.  1.
    10030    2    1    2    0    0  0.00000000000E+00  0.00000000000E+00 -0.67530605187E+03  0.14306390466E+04  0.12612255223E+04 0.  0.
        2    1    3    3  502    0  0.35158347210E+03  0.27021245597E+03 -0.84626414101E+03  0.95539976219E+03  0.25500000920E-02 0.  1.
       -2    1    3    3    0  502 -0.35158347210E+03 -0.27021245597E+03  0.17095808914E+03  0.47523928443E+03  0.25500000920E-02 0. -1.
</event>
<event>
 5   0  0.4453011E-03  0.1249355E+04  0.7818609E-02  0.9070720E-01
       -2   -1    0    0    0  501  0.00000000000E+00  0.00000000000E+00  0.84250681994E+03  0.84250681994E+03  0.25500000920E-02 0.  1.
        2   -1    0    0  501    0  0.00000000000E+00  0.00000000000E+00 -0.46316807233E+03  0.46316807234E+03  0.25500000920E-02 0. -1.
    10030    2    1    2    0    0  0.00000000000E+00  0.00000000000E+00  0.37933874761E+03  0.13056748923E+04  0.12493554494E+04 0.  0.
        1    1    3    3  502    0 -0.58227562557E+03 -0.12167345990E+03 -0.96447842144E+01  0.59493054793E+03  0.50400001928E-02 0. -1.
       -1    1    3    3    0  502  0.58227562557E+03  0.12167345990E+03  0.38898353182E+03  0.71074434435E+03  0.50400001928E-02 0.  1.
</event>
<event>
 5   0  0.2458456E-03  0.1308319E+04  0.7818609E-02  0.9022994E-01
        1   -1    0    0  501    0  0.00000000000E+00  0.00000000000E+00  0.53231701525E+03  0.53231701527E+03  0.50400001928E-02 0.  1.
       -1   -1    0    0    0  501  0.00000000000E+00  0.00000000000E+00 -0.80389050653E+03  0.80389050655E+03  0.50400001928E-02 0. -1.
    10030    2    1    2    0    0  0.00000000000E+00  0.00000000000E+00 -0.27157349129E+03  0.13362075218E+04  0.13083189138E+04 0.  0.
        5    1    3    3  502    0  0.17199223316E+03  0.25651138706E+03  0.45315344542E+03  0.54840637766E+03  0.46999998093E+01 0.  1.
       -5    1    3    3    0  502 -0.17199223316E+03 -0.25651138706E+03 -0.72472693670E+03  0.78780114416E+03  0.46999998093E+01 0. -1.
</event>
<event>
 5   0  0.2462055E-03  0.1178180E+04  0.7818609E-02  0.9132173E-01
       -1   -1    0    0    0  501  0.00000000000E+00  0.00000000000E+00  0.10479057951E+04  0.10479057951E+04  0.50400001928E-02 0. -1.
        1   -1    0    0  501    0  0.00000000000E+00  0.00000000000E+00 -0.33116223921E+03  0.33116223925E+03  0.50400001928E-02 0.  1.
    10030    2    1    2    0    0  0.00000000000E+00  0.00000000000E+00  0.71674355592E+03  0.13790680344E+04  0.11781796631E+04 0.  0.
        2    1    3    3  502    0  0.29774987863E+03 -0.32193411925E+03  0.81879985679E+03  0.92883247836E+03  0.25500000920E-02 0. -1.
       -2    1    3    3    0  502 -0.29774987863E+03  0.32193411925E+03 -0.10205630088E+03  0.45023555604E+03  0.25500000920E-02 0.  1.
</event>
<event>
 5   0  0.2370801E-03  0.1284299E+04  0.7818609E-02  0.9042109E-01
       -1   -1    0    0    0  501  0.00000000000E+00  0.00000000000E+00  0.85479148750E+03  0.85479148752E+03  0.50400001928E-02 0. -1.
        1   -1    0    0  501    0  0.00000000000E+00  0.00000000000E+00 -0.48240552380E+03  0.48240552382E+03  0.50400001928E-02 0.  1.
    10030    2    1    2    0    0  0.00000000000E+00  0.00000000000E+00  0.37238596371E+03  0.13371970113E+04  0.12842992413E+04 0.  0.
        3    1    3    3  502    0  0.40860430033E+03  0.30965063771E+03  0.58879110655E+03  0.78071503703E+03  0.10100000352E+00 0. -1.
       -3    1    3    3    0  502 -0.40860430033E+03 -0.30965063771E+03 -0.21640514285E+03  0.55648197431E+03  0.10100000352E+00 0.  1.
</event>
<event>
 5   0  0.4263540E-03  0.1317749E+04  0.7818609E-02  0.9015607E-01
        2   -1    0    0  501    0  0.00000000000E+00  0.00000000000E+00  0.69752191995E+03  0.69752191995E+03  0.25500000920E-02 0. -1.
       -2   -1    0    0    0  501  0.00000000000E+00  0.00000000000E+00 -0.62236885141E+03  0.62236885142E+03  0.25500000920E-02 0.  1.
    10030    2    1    2    0    0  0.00000000000E+00  0.00000000000E+00  0.75153068533E+02  0.13198907714E+04  0.13177494696E+04 0.  0.
        2    1    3    3  502    0  0.56387515454E+03 -0.10247820311E+03  0.36315695152E+03  0.67848356168E+03  0.25500000920E-02 0. -1.
       -2    1    3    3    0  502 -0.56387515454E+03  0.10247820311E+03 -0.28800388298E+03  0.64140720969E+03  0.25500000920E-02 0.  1.
</event>
<event>
 5   0  0.4453011E-03  0.1285907E+04  0.7818609E-02  0.9040817E-01
        2   -1    0    0  501    0  0.00000000000E+00  0.00000000000E+00  0.11158490796E+04  0.11158490796E+04  0.25500000920E-02 0. -1.
       -2   -1    0    0    0  501  0.00000000000E+00  0.00000000000E+00 -0.37047024875E+03  0.37047024876E+03  0.25500000920E-02 0.  1.
    10030    2    1    2    0    0  0.00000000000E+00  0.00000000000E+00  0.74537883081E+03  0.14863193283E+04  0.12859065068E+04 0.  0.
        1    1    3    3  502    0  0.51362436731E+03 -0.16818844072E+03 -0.29858881344E+02  0.54128448629E+03  0.50400001928E-02 0.  1.
       -1    1    3    3    0  502 -0.51362436731E+03  0.16818844072E+03  0.77523771216E+03  0.94503484203E+03  0.50400001928E-02 0. -1.
</event>
<event>
 5   0  0.2356769E-03  0.1061774E+04  0.7818609E-02  0.9243272E-01
        1   -1    0    0  501    0  0.00000000000E+00  0.00000000000E+00  0.42812602462E+03  0.42812602465E+03  0.50400001928E-02 0.  1.
       -1   -1    0    0    0  501  0.00000000000E+00  0.00000000000E+00 -0.65831267621E+03  0.65831267623E+03  0.50400001928E-02 0. -1.
    10030    2    1    2    0    0  0.00000000000E+00  0.00000000000E+00 -0.23018665159E+03  0.10864387009E+04  0.10617735899E+04 0.  0.
        1    1    3    3  502    0 -0.39100660874E+03 -0.22248074794E+02  0.25164531082E+03  0.46551746196E+03  0.50400001928E-02 0.  1.
       -1    1    3    3    0  502  0.39100660874E+03  0.22248074794E+02 -0.48183196241E+03  0.62092123891E+03  0.50400001928E-02 0. -1.
</event>
<event>
 5   0  0.4263540E-03  0.1323207E+04  0.7818609E-02  0.9011361E-01
       -2   -1    0    0    0  501  0.00000000000E+00  0.00000000000E+00  0.98575345201E+03  0.98575345202E+03  0.25500000920E-02 0. -1.
        2   -1    0    0  501    0  0.00000000000E+00  0.00000000000E+00 -0.44404543659E+03  0.44404543660E+03  0.25500000920E-02 0.  1.
    10030    2    1    2    0    0  0.00000000000E+00  0.00000000000E+00  0.54170801542E+03  0.14297988886E+04  0.13232071976E+04 0.  0.
        2    1    3    3  502    0 -0.19536918397E+03 -0.24398291135E+03 -0.35923362592E+03  0.47617809386E+03  0.25500000920E-02 0.  1.
       -2    1    3    3    0  502  0.19536918397E+03  0.24398291135E+03  0.90094164134E+03  0.95362079475E+03  0.25500000920E-02 0. -1.
</event>
<event>
 5   0  0.2511542E-03  0.1310168E+04  0.7818609E-02  0.9021540E-01
       -1   -1    0    0    0  501  0.00000000000E+00  0.00000000000E+00  0.53140232793E+03  0.53140232796E+03  0.50400001928E-02 0.  1.
        1   -1    0    0  501    0  0.00000000000E+00  0.00000000000E+00 -0.80755210760E+03  0.80755210762E+03  0.50400001928E-02 0. -1.
    10030    2    1    2    0    0  0.00000000000E+00  0.00000000000E+00 -0.27614977967E+03  0.13389544356E+04  0.13101680349E+04 0.  0.
        4    1    3    3  502    0  0.10501984364E+03  0.75966855131E+02  0.51816559234E+03  0.53413231004E+03  0.12699999809E+01 0.  1.
       -4    1    3    3    0  502 -0.10501984364E+03 -0.75966855131E+02 -0.79431537201E+03  0.80482212554E+03  0.12699999809E+01 0. -1.
</event>
<event>
 5   0  0.1661750E-03  0.1297030E+04  0.7818609E-02  0.9031924E-01
       -3   -1    0    0    0  501  0.00000000000E+00  0.00000000000E+00  0.20474642284E+04  0.20474642309E+04  0.10100000352E+00 0. -1.
        3   -1    0    0  501    0  0.00000000000E+00  0.00000000000E+00 -0.20541104542E+03  0.20541107025E+03  0.10100000352E+00 0.  1.
    10030    2    1    2    0    0  0.00000000000E+00  0.00000000000E+00  0.18420531830E+04  0.22528753012E+04  0.12970301437E+04 0.  0.
        1    1    3    3  502    0 -0.30990173370E+03 -0.51779561024E+03  0.50844937539E+03  0.78909577739E+03  0.50400001928E-02 0. -1.
       -1    1    3    3    0  502  0.30990173370E+03  0.51779561024E+03  0.13336038076E+04  0.14637795238E+04  0.50400001928E-02 0.  1.
</event>
<event>
 5   0  0.2370801E-03  0.1228494E+04  0.7818609E-02  0.9088275E-01
        1   -1    0    0  501    0  0.00000000000E+00  0.00000000000E+00  0.43284044104E+03  0.43284044107E+03  0.50400001928E-02 0. -1.
       -1   -1    0    0    0  501  0.00000000000E+00  0.00000000000E+00 -0.87168179228E+03  0.87168179230E+03  0.50400001928E-02 0.  1.
    10030    2    1    2    0    0  0.00000000000E+00  0.00000000000E+00 -0.43884135124E+03  0.13045222334E+04  0.12284936002E+04 0.  0.
        3    1    3    3  502    0  0.52715683263E+02  0.57241840462E+03  0.10441461181E+02  0.57493548118E+03  0.10100000352E+00 0. -1.
       -3    1    3    3    0  502 -0.52715683263E+02 -0.57241840462E+03 -0.44928281243E+03  0.72958675218E+03  0.10100000352E+00 0.  1.
</event>
<event>
 5   0  0.4388937E-03  0.1063007E+04  0.7818609E-02  0.9242017E-01
        2   -1    0    0  501    0  0.00000000000E+00  0.00000000000E+00  0.98187376315E+03  0.98187376316E+03  0.25500000920E-02 0.  1.
       -2   -1    0    0    0  501  0.00000000000E+00  0.00000000000E+00 -0.28771120729E+03  0.28771120731E+03  0.25500000920E-02 0. -1.
    10030    2    1    2    0    0  0.00000000000E+00  0.00000000000E+00  0.69416255586E+03  0.12695849705E+04  0.10630072169E+04 0.  0.
        5    1    3    3  502    0 -0.38113355773E+03  0.11016446547E+03  0.76946853835E+03  0.86573836682E+03  0.46999998093E+01 0.  1.
       -5    1    3    3    0  502  0.38113355773E+03 -0.11016446547E+03 -0.75305982490E+02  0.40384660364E+03  0.46999998093E+01 0. -1.
</event>
<event>
 5   0  0.4263540E-03  0.1287056E+04  0.7818609E-02  0.9039894E-01
       -2   -1    0    0    0  501  0.00000000000E+00  0.00000000000E+00  0.12907905476E+04  0.12907905476E+04  0.25500000920E-02 0. -1.
        2   -1    0    0  501    0  0.00000000000E+00  0.00000000000E+00 -0.32083285292E+03  0.32083285293E+03  0.25500000920E-02 0.  1.
    10030    2    1    2    0    0  0.00000000000E+00  0.00000000000E+00  0.96995769471E+03  0.16116234006E+04  0.12870555760E+04 0.  0.
        2    1    3    3  502    0  0.58190273956E+03  0.27418178943E+03  0.46183684070E+03  0.79188365269E+03  0.25500000920E-02 0. -1.
       -2    1    3    3    0  502 -0.58190273956E+03 -0.27418178943E+03  0.50812085402E+03  0.81973974788E+03  0.25500000920E-02 0.  1.
</event>
<event>
 5   0  0.2458456E-03  0.1291977E+04  0.7818609E-02  0.9035952E-01
        1   -1    0    0  501    0  0.00000000000E+00  0.00000000000E+00  0.74788655995E+03  0.74788655996E+03  0.50400001928E-02 0. -1.
       -1   -1    0    0    0  501  0.00000000000E+00  0.00000000000E+00 -0.55797364330E+03  0.55797364332E+03  0.50400001928E-02 0.  1.
    10030    2    1    2    0    0  0.00000000000E+00  0.00000000000E+00  0.18991291665E+03  0.13058602033E+04  0.12919767624E+04 0.  0.
        5    1    3    3  502    0 -0.63140744028E+03 -0.73202760503E+02  0.21127964939E+03  0.66984713184E+03  0.46999998093E+01 0. -1.
       -5    1    3    3    0  502  0.63140744028E+03  0.73202760503E+02 -0.21366732740E+02  0.63601307145E+03  0.46999998093E+01 0.  1.
</event>
<event>
 5   0  0.2458456E-03  0.1286010E+04  0.7818609E-02  0.9040733E-01
        1   -1    0    0  501    0  0.00000000000E+00  0.00000000000E+00  0.91389047749E+03  0.91389047751E+03  0.50400001928E-02 0. -1.
       -1   -1    0    0    0  501  0.00000000000E+00  0.00000000000E+00 -0.45241269843E+03  0.45241269846E+03  0.50400001928E-02 0.  1.
    10030    2    1    2    0    0  0.00000000000E+00  0.00000000000E+00  0.46147777906E+03  0.13663031760E+04  0.12860103530E+04 0.  0.
        5    1    3    3  502    0 -0.51348953171E+02  0.52925974013E+03 -0.15332971148E+03  0.55342992143E+03  0.46999998093E+01 0.  1.
       -5    1    3    3    0  502  0.51348953171E+02 -0.52925974013E+03  0.61480749054E+03  0.81287325454E+03  0.46999998093E+01 0. -1.
</event>
<event>
 5   0  0.2462055E-03  0.1153165E+04  0.7818609E-02  0.9154868E-01
        1   -1    0    0  501    0  0.00000000000E+00  0.00000000000E+00  0.60089083958E+03  0.60089083960E+03  0.50400001928E-02 0. -1.
       -1   -1    0    0    0  501  0.00000000000E+00  0.00000000000E+00 -0.55325778999E+03  0.55325779001E+03  0.50400001928E-02 0.  1.
    10030    2    1    2    0    0  0.00000000000E+00  0.00000000000E+00  0.47633049588E+02  0.11541486296E+04  0.11531652751E+04 0.  0.
        2    1    3    3  502    0  0.18371944558E+03 -0.16168957468E+02  0.57057283183E+03  0.59963958033E+03  0.25500000920E-02 0. -1.
       -2    1    3    3    0  502 -0.18371944558E+03  0.16168957468E+02 -0.52293978224E+03  0.55450904928E+03  0.25500000920E-02 0.  1.
</event>
<event>
 5   0  0.2356769E-03  0.1292107E+04  0.7818609E-02  0.9035848E-01
       -1   -1    0    0    0  501  0.00000000000E+00  0.00000000000E+00  0.20265267294E+03  0.20265267300E+03  0.50400001928E-02 0. -1.
        1   -1    0    0  501    0  0.00000000000E+00  0.00000000000E+00 -0.20596070557E+04  0.20596070557E+04  0.50400001928E-02 0.  1.
    10030    2    1    2    0    0  0.00000000000E+00  0.00000000000E+00 -0.18569543828E+04  0.22622597287E+04  0.12921066134E+04 0.  0.
        1    1    3    3  502    0 -0.31809425439E+02 -0.62742079959E+03 -0.66459400131E+03  0.91452385749E+03  0.50400001928E-02 0.  1.
       -1    1    3    3    0  502  0.31809425439E+02  0.62742079959E+03 -0.11923603815E+04  0.13477358712E+04  0.50400001928E-02 0. -1.
</event>
<event>
 5   0  0.4263540E-03  0.1305702E+04  0.7818609E-02  0.9025056E-01
       -2   -1    0    0    0  501  0.00000000000E+00  0.00000000000E+00  0.28612374459E+03  0.28612374460E+03  0.25500000920E-02 0.  1.
        2   -1    0    0  501    0  0.00000000000E+00  0.00000000000E+00 -0.14896156749E+04  0.14896156749E+04  0.25500000920E-02 0. -1.
    10030    2    1    2    0    0  0.00000000000E+00  0.00000000000E+00 -0.12034919303E+04  0.17757394195E+04  0.13057019797E+04 0.  0.
        2    1    3    3  502    0 -0.42905320827E+03 -0.16307230711E+03 -0.12331309628E+04  0.13157853945E+04  0.25500000920E-02 0. -1.
       -2    1    3    3    0  502  0.42905320827E+03  0.16307230711E+03  0.29639032514E+02  0.45995402502E+03  0.25500000920E-02 0.  1.
</event>
<event>
 5   0  0.2356769E-03  0.1304924E+04  0.7818609E-02  0.9025669E-01
       -1   -1    0    0    0  501  0.00000000000E+00  0.00000000000E+00  0.47292255829E+03  0.47292255832E+03  0.50400001928E-02 0. -1.
        1   -1    0    0  501    0  0.00000000000E+00  0.00000000000E+00 -0.90016178321E+03  0.90016178323E+03  0.50400001928E-02 0.  1.
    10030    2    1    2    0    0  0.00000000000E+00  0.00000000000E+00 -0.42723922492E+03  0.13730843416E+04  0.13049242329E+04 0.  0.
        1    1    3    3  502    0 -0.44659673241E+03 -0.17370511808E+03  0.25232444450E+03  0.54156230921E+03  0.50400001928E-02 0. -1.
       -1    1    3    3    0  502  0.44659673241E+03  0.17370511808E+03 -0.67956366942E+03  0.83152203234E+03  0.50400001928E-02 0.  1.
</event>
<event>
 5   0  0.4388937E-03  0.1306123E+04  0.7818609E-02  0.9024723E-01
        2   -1    0    0  501    0  0.00000000000E+00  0.00000000000E+00  0.93491493061E+03  0.93491493061E+03  0.25500000920E-02 0.  1.
       -2   -1    0    0    0  501  0.00000000000E+00  0.00000000000E+00 -0.45617999400E+03  0.45617999401E+03  0.25500000920E-02 0. -1.
    10030    2    1    2    0    0  0.00000000000E+00  0.00000000000E+00  0.47873493661E+03  0.13910949246E+04  0.13061232521E+04 0.  0.
        5    1    3    3  502    0  0.50297290316E+03  0.38990854876E+03  0.39537907179E+03  0.74923769134E+03  0.46999998093E+01 0.  1.
       -5    1    3    3    0  502 -0.50297290316E+03 -0.38990854876E+03  0.83355864816E+02  0.64185723328E+03  0.46999998093E+01 0. -1.
</event>
<event>
 5   0  0.2370801E-03  0.1312948E+04  0.7818609E-02  0.9019359E-01
        1   -1    0    0  501    0  0.00000000000E+00  0.00000000000E+00  0.10517861298E+04  0.10517861298E+04  0.50400001928E-02 0. -1.
       -1   -1    0    0    0  501  0.00000000000E+00  0.00000000000E+00 -0.40973960199E+03  0.40973960202E+03  0.50400001928E-02 0.  1.
    10030    2    1    2    0    0  0.00000000000E+00  0.00000000000E+00  0.64204652780E+03  0.14615257318E+04  0.13129484837E+04 0.  0.
        3    1    3    3  502    0 -0.35916426538E+03  0.49063277696E+03  0.59649216231E+03  0.85177602763E+03  0.10100000352E+00 0.  1.
       -3    1    3    3    0  502  0.35916426538E+03 -0.49063277696E+03  0.45554365499E+02  0.60974970419E+03  0.10100000352E+00 0. -1.
</event>
<event>
 5   0  0.2458456E-03  0.1353216E+04  0.7818609E-02  0.8988397E-01
        1   -1    0    0  501    0  0.00000000000E+00  0.00000000000E+00  0.33499664931E+03  0.33499664935E+03  0.50400001928E-02 0.  1.
       -1   -1    0    0    0  501  0.00000000000E+00  0.00000000000E+00 -0.13665760127E+04  0.13665760127E+04  0.50400001928E-02 0. -1.
    10030    2    1    2    0    0  0.00000000000E+00  0.00000000000E+00 -0.10315793634E+04  0.17015726621E+04  0.13532159995E+04 0.  0.
        5    1    3    3  502    0 -0.59526993737E+03  0.31922926680E+03 -0.46672301162E+03  0.82103963528E+03  0.46999998093E+01 0.  1.
       -5    1    3    3    0  502  0.59526993737E+03 -0.31922926680E+03 -0.56485635176E+03  0.88053302678E+03  0.46999998093E+01 0. -1.
</event>
<event>
 5   0  0.2458456E-03  0.1312840E+04  0.7818609E-02  0.9019444E-01
        1   -1    0    0  501    0  0.00000000000E+00  0.00000000000E+00  0.72115269960E+03  0.72115269961E+03  0.50400001928E-02 0.  1.
       -1   -1    0    0    0  501  0.00000000000E+00  0.00000000000E+00 -0.59749796502E+03  0.59749796504E+03  0.50400001928E-02 0. -1.
    10030    2    1    2    0    0  0.00000000000E+00  0.00000000000E+00  0.12365473458E+03  0.13186506647E+04  0.13128400824E+04 0.  0.
        5    1    3    3  502    0 -0.53442988914E+03 -0.10797227262E+03  0.42894727249E+03  0.69375151938E+03  0.46999998093E+01 0.  1.
       -5    1    3    3    0  502  0.53442988914E+03  0.10797227262E+03 -0.30529253791E+03  0.62489914528E+03  0.46999998093E+01 0. -1.
</event>
<event>
 5   0  0.4263540E-03  0.1376466E+04  0.7818609E-02  0.8971032E-01
        2   -1    0    0  501    0  0.00000000000E+00  0.00000000000E+00  0.10613356935E+04  0.10613356935E+04  0.25500000920E-02 0. -1.
       -2   -1    0    0    0  501  0.00000000000E+00  0.00000000000E+00 -0.44629088711E+03  0.44629088712E+03  0.25500000920E-02 0.  1.
    10030    2    1    2    0    0  0.00000000000E+00  0.00000000000E+00  0.61504480635E+03  0.15076265806E+04  0.13764656889E+04 0.  0.
        2    1    3    3  502    0  0.17486281706E+03 -0.14549760235E+03  0.10189690985E+04  0.10440520010E+04  0.25500000920E-02 0. -1.
       -2    1    3    3    0  502 -0.17486281706E+03  0.14549760235E+03 -0.40392429213E+03  0.46357457961E+03  0.25500000920E-02 0.  1.
</event>
<event>
 5   0  0.2458456E-03  0.1255057E+04  0.7818609E-02  0.9065985E-01
       -1   -1    0    0    0  501  0.00000000000E+00  0.00000000000E+00  0.51671614045E+03  0.51671614047E+03  0.50400001928E-02 0. -1.
        1   -1    0    0  501    0  0.00000000000E+00  0.00000000000E+00 -0.76210480578E+03  0.76210480580E+03  0.50400001928E-02 0.  1.
    10030    2    1    2    0    0  0.00000000000E+00  0.00000000000E+00 -0.24538866534E+03  0.12788209463E+04  0.12550567380E+04 0.  0.
        5    1    3    3  502    0  0.50499815002E+03  0.36029079271E+03 -0.21902100611E+03  0.65789427566E+03  0.46999998093E+01 0. -1.
       -5    1    3    3    0  502 -0.50499815002E+03 -0.36029079271E+03 -0.26367659224E+02  0.62092667061E+03  0.46999998093E+01 0.  1.
</event>
<event>
 5   0  0.2356769E-03  0.1303576E+04  0.7818609E-02  0.9026734E-01
        1   -1    0    0  501    0  0.00000000000E+00  0.00000000000E+00  0.83154816796E+03  0.83154816798E+03  0.50400001928E-02 0.  1.
       -1   -1    0    0    0  501  0.00000000000E+00  0.00000000000E+00 -0.51088780636E+03  0.51088780638E+03  0.50400001928E-02 0. -1.
    10030    2    1    2    0    0  0.00000000000E+00  0.00000000000E+00  0.32066036160E+03  0.13424359744E+04  0.13035763414E+04 0.  0.
        1    1    3    3  502    0 -0.35711224234E+03 -0.10082667730E+03 -0.39149104195E+03  0.53940746049E+03  0.50400001928E-02 0. -1.
       -1    1    3    3    0  502  0.35711224234E+03  0.10082667730E+03  0.71215140355E+03  0.80302851387E+03  0.50400001928E-02 0.  1.
</event>
<event>
 5   0  0.4263540E-03  0.1276173E+04  0.7818609E-02  0.9048676E-01
        2   -1    0    0  501    0  0.00000000000E+00  0.00000000000E+00  0.26632871927E+04  0.26632871927E+04  0.25500000920E-02 0.  1.
       -2   -1    0    0    0  501  0.00000000000E+00  0.00000000000E+00 -0.15287665773E+03  0.15287665775E+03  0.25500000920E-02 0. -1.
    10030    2    1    2    0    0  0.00000000000E+00  0.00000000000E+00  0.25104105350E+04  0.28161638505E+04  0.12761730990E+04 0.  0.
        2    1    3    3  502    0 -0.56567482588E+03 -0.10517964281E+03  0.64643818805E+03  0.86540920775E+03  0.25500000920E-02 0. -1.
       -2    1    3    3    0  502  0.56567482588E+03  0.10517964281E+03  0.18639723469E+04  0.19507546427E+04  0.25500000920E-02 0.  1.
</event>
<event>
 5   0  0.1661750E-03  0.1305765E+04  0.7818609E-02  0.9025006E-01
        4   -1    0    0  501    0  0.00000000000E+00  0.00000000000E+00  0.88255463073E+03  0.88255554450E+03  0.12699999809E+01 0. -1.
       -4   -1    0    0    0  501  0.00000000000E+00  0.00000000000E+00 -0.48297741039E+03  0.48297908013E+03  0.12699999809E+01 0.  1.
    10030    2    1    2    0    0  0.00000000000E+00  0.00000000000E+00  0.39957722034E+03  0.13655346246E+04  0.13057652377E+04 0.  0.
        5    1    3    3  502    0 -0.17509222301E+03  0.61836813087E+03  0.79651167098E+02  0.64761317949E+03  0.46999998093E+01 0.  1.
       -5    1    3    3    0  502  0.17509222301E+03 -0.61836813087E+03  0.31992605324E+03  0.71792144513E+03  0.46999998093E+01 0. -1.
</event>
<event>
 5   0  0.2462055E-03  0.1284323E+04  0.7818609E-02  0.9042090E-01
        1   -1    0    0  501    0  0.00000000000E+00  0.00000000000E+00  0.15042382891E+04  0.15042382892E+04  0.50400001928E-02 0.  1.
       -1   -1    0    0    0  501  0.00000000000E+00  0.00000000000E+00 -0.27413962229E+03  0.27413962234E+03  0.50400001928E-02 0. -1.
    10030    2    1    2    0    0  0.00000000000E+00  0.00000000000E+00  0.12300986669E+04  0.17783779115E+04  0.12843228823E+04 0.  0.
        2    1    3    3  502    0  0.25931166460E+03  0.47239757672E+03  0.13146178201E+03  0.55469289703E+03  0.25500000920E-02 0. -1.
       -2    1    3    3    0  502 -0.25931166460E+03 -0.47239757672E+03  0.10986368848E+04  0.12236850145E+04  0.25500000920E-02 0.  1.
</event>
<event>
 5   0  0.2511542E-03  0.1267719E+04  0.7818609E-02  0.9055563E-01
        1   -1    0    0  501    0  0.00000000000E+00  0.00000000000E+00  0.45651757925E+03  0.45651757927E+03  0.50400001928E-02 0.  1.
       -1   -1    0    0    0  501  0.00000000000E+00  0.00000000000E+00 -0.88009269507E+03  0.88009269508E+03  0.50400001928E-02 0. -1.
    10030    2    1    2    0    0  0.00000000000E+00  0.00000000000E+00 -0.42357511582E+03  0.13366102744E+04  0.12677188753E+04 0.  0.
        4    1    3    3  502    0  0.30236938324E+03 -0.54098185307E+03 -0.35200946097E+03  0.71274180654E+03  0.12699999809E+01 0. -1.
       -4    1    3    3    0  502 -0.30236938324E+03  0.54098185307E+03 -0.71565654849E+02  0.62386846781E+03  0.12699999809E+01 0.  1.
</event>
<event>
 5   0  0.2511542E-03  0.1292291E+04  0.7818609E-02  0.9035701E-01
       -1   -1    0    0    0  501  0.00000000000E+00  0.00000000000E+00  0.63639301119E+03  0.63639301121E+03  0.50400001928E-02 0.  1.
        1   -1    0    0  501    0  0.00000000000E+00  0.00000000000E+00 -0.65604765629E+03  0.65604765631E+03  0.50400001928E-02 0. -1.
    10030    2    1    2    0    0  0.00000000000E+00  0.00000000000E+00 -0.19654645105E+02  0.12924406675E+04  0.12922912110E+04 0.  0.
        4    1    3    3  502    0 -0.47912921612E+03 -0.38952336920E+02  0.42198694623E+03  0.63965356716E+03  0.12699999809E+01 0.  1.
       -4    1    3    3    0  502  0.47912921612E+03  0.38952336920E+02 -0.44164159133E+03  0.65278710036E+03  0.12699999809E+01 0. -1.
</event>
<event>
 5   0  0.2458456E-03  0.1283749E+04  0.7818609E-02  0.9042553E-01
       -1   -1    0    0    0  501  0.00000000000E+00  0.00000000000E+00  0.76380477715E+03  0.76380477716E+03  0.50400001928E-02 0.  1.
        1   -1    0    0  501    0  0.00000000000E+00  0.00000000000E+00 -0.53940863839E+03  0.53940863841E+03  0.50400001928E-02 0. -1.
    10030    2    1    2    0    0  0.00000000000E+00  0.00000000000E+00  0.22439613876E+03  0.13032134156E+04  0.12837490329E+04 0.  0.
        5    1    3    3  502    0 -0.43864707689E+03  0.29812780429E+03 -0.25479302600E+03  0.58841568798E+03  0.46999998093E+01 0. -1.
       -5    1    3    3    0  502  0.43864707689E+03 -0.29812780429E+03  0.47918916476E+03  0.71479772760E+03  0.46999998093E+01 0.  1.
</event>
<event>
 5   0  0.2370801E-03  0.1293683E+04  0.7818609E-02  0.9034590E-01
       -1   -1    0    0    0  501  0.00000000000E+00  0.00000000000E+00  0.19122605420E+03  0.19122605426E+03  0.50400001928E-02 0. -1.
        1   -1    0    0  501    0  0.00000000000E+00  0.00000000000E+00 -0.21880061282E+04  0.21880061282E+04  0.50400001928E-02 0.  1.
    10030    2    1    2    0    0  0.00000000000E+00  0.00000000000E+00 -0.19967800740E+04  0.23792321825E+04  0.12936827719E+04 0.  0.
        3    1    3    3  502    0 -0.43129805354E+03 -0.31406349836E+03 -0.16709882756E+04  0.17540968387E+04  0.10100000352E+00 0. -1.
       -3    1    3    3    0  502  0.43129805354E+03  0.31406349836E+03 -0.32579179841E+03  0.62513534383E+03  0.10100000352E+00 0.  1.
</event>
<event>
 5   0  0.4388937E-03  0.1176420E+04  0.7818609E-02  0.9133750E-01
        2   -1    0    0  501    0  0.00000000000E+00  0.00000000000E+00  0.44387647168E+03  0.44387647169E+03  0.25500000920E-02 0. -1.
       -2   -1    0    0    0  501  0.00000000000E+00  0.00000000000E+00 -0.77947541651E+03  0.77947541652E+03  0.25500000920E-02 0.  1.
    10030    2    1    2    0    0  0.00000000000E+00  0.00000000000E+00 -0.33559894483E+03  0.12233518882E+04  0.11764196490E+04 0.  0.
        5    1    3    3  502    0 -0.14146744312E+03  0.38638232770E+03 -0.60488216301E+03  0.73157970293E+03  0.46999998093E+01 0.  1.
       -5    1    3    3    0  502  0.14146744312E+03 -0.38638232770E+03  0.26928321818E+03  0.49177218527E+03  0.46999998093E+01 0. -1.
</event>
<event>
 5   0  0.2458456E-03  0.1420783E+04  0.7818609E-02  0.8938911E-01
        1   -1    0    0  501    0  0.00000000000E+00  0.00000000000E+00  0.14222436741E+04  0.14222436741E+04  0.50400001928E-02 0.  1.
       -1   -1    0    0    0  501  0.00000000000E+00  0.00000000000E+00 -0.35483094107E+03  0.35483094111E+03  0.50400001928E-02 0. -1.
    10030    2    1    2    0    0  0.00000000000E+00  0.00000000000E+00  0.10674127330E+04  0.17770746152E+04  0.14207829691E+04 0.  0.
        5    1    3    3  502    0 -0.39003375105E+03  0.40839879949E+03 -0.53137773356E+01  0.56477095589E+03  0.46999998093E+01 0. -1.
       -5    1    3    3    0  502  0.39003375105E+03 -0.40839879949E+03  0.10727265103E+04  0.12123036593E+04  0.46999998093E+01 0.  1.
</event>
<event>
 5   0  0.4453011E-03  0.1306484E+04  0.7818609E-02  0.9024439E-01
       -2   -1    0    0    0  501  0.00000000000E+00  0.00000000000E+00  0.33823190401E+03  0.33823190402E+03  0.25500000920E-02 0.  1.
        2   -1    0    0  501    0  0.00000000000E+00  0.00000000000E+00 -0.12616345578E+04  0.12616345578E+04  0.25500000920E-02 0. -1.
    10030    2    1    2    0    0  0.00000000000E+00  0.00000000000E+00 -0.92340265380E+03  0.15998664618E+04  0.13064839205E+04 0.  0.
        1    1    3    3  502    0  0.62430933394E+02  0.38261123368E+03  0.18213730079E+03  0.42832578016E+03  0.50400001928E-02 0.  1.
       -1    1    3    3    0  502 -0.62430933394E+02 -0.38261123368E+03 -0.11055399546E+04  0.11715406817E+04  0.50400001928E-02 0. -1.
</event>
<event>
 5   0  0.2370801E-03  0.1319565E+04  0.7818609E-02  0.9014192E-01
       -1   -1    0    0    0  501  0.00000000000E+00  0.00000000000E+00  0.53705762161E+03  0.53705762163E+03  0.50400001928E-02 0.  1.
        1   -1    0    0  501    0  0.00000000000E+00  0.00000000000E+00 -0.81055127367E+03  0.81055127368E+03  0.50400001928E-02 0. -1.
    10030    2    1    2    0    0  0.00000000000E+00  0.00000000000E+00 -0.27349365206E+03  0.13476088953E+04  0.13195646847E+04 0.  0.
        3    1    3    3  502    0  0.28709995112E+03  0.59184642121E+03 -0.18886234720E+03  0.68438115449E+03  0.10100000352E+00 0. -1.
       -3    1    3    3    0  502 -0.28709995112E+03 -0.59184642121E+03 -0.84631304858E+02  0.66322774082E+03  0.10100000352E+00 0.  1.
</event>
<event>
 5   0  0.2462055E-03  0.9708203E+03  0.7818609E-02  0.9341141E-01
        1   -1    0    0  501    0  0.00000000000E+00  0.00000000000E+00  0.50278935851E+03  0.50278935854E+03  0.50400001928E-02 0. -1.
       -1   -1    0    0    0  501  0.00000000000E+00  0.00000000000E+00 -0.46863167392E+03  0.46863167395E+03  0.50400001928E-02 0.  1.
    10030    2    1    2    0    0  0.00000000000E+00  0.00000000000E+00  0.34157684593E+02  0.97142103249E+03  0.97082031033E+03 0.  0.
        2    1    3    3  502    0 -0.35692772572E+02  0.27668365778E+03  0.41455907956E+03  0.49968695295E+03  0.25500000920E-02 0. -1.
       -2    1    3    3    0  502  0.35692772572E+02 -0.27668365778E+03 -0.38040139497E+03  0.47173407954E+03  0.25500000920E-02 0.  1.
</event>
<event>
 5   0  0.1661750E-03  0.1307297E+04  0.7818609E-02  0.9023798E-01
        3   -1    0    0  501    0  0.00000000000E+00  0.00000000000E+00  0.10120917738E+04  0.10120917788E+04  0.10100000352E+00 0.  1.
       -3   -1    0    0    0  501  0.00000000000E+00  0.00000000000E+00 -0.42215206823E+03  0.42215208031E+03  0.10100000352E+00 0. -1.
    10030    2    1    2    0    0  0.00000000000E+00  0.00000000000E+00  0.58993970555E+03  0.14342438591E+04  0.13072974380E+04 0.  0.
        1    1    3    3  502    0  0.16268567459E+03 -0.55684017082E+01  0.98949861813E+03  0.10027986593E+04  0.50400001928E-02 0.  1.
       -1    1    3    3    0  502 -0.16268567459E+03  0.55684017082E+01 -0.39955891257E+03  0.43144519983E+03  0.50400001928E-02 0. -1.
</event>
<event>
 5   0  0.4453011E-03  0.1303873E+04  0.7818609E-02  0.9026500E-01
       -2   -1    0    0    0  501  0.00000000000E+00  0.00000000000E+00  0.84053743901E+03  0.84053743902E+03  0.25500000920E-02 0.  1.
        2   -1    0    0  501    0  0.00000000000E+00  0.00000000000E+00 -0.50565375742E+03  0.50565375743E+03  0.25500000920E-02 0. -1.
    10030    2    1    2    0    0  0.00000000000E+00  0.00000000000E+00  0.33488368159E+03  0.13461911964E+04  0.13038725617E+04 0.  0.
        1    1    3    3  502    0  0.89663799241E+02 -0.51806690248E+03 -0.23054019683E+03  0.57409206119E+03  0.50400001928E-02 0. -1.
       -1    1    3    3    0  502 -0.89663799241E+02  0.51806690248E+03  0.56542387842E+03  0.77209913525E+03  0.50400001928E-02 0.  1.
</event>
<event>
 5   0  0.4306214E-03  0.1240013E+04  0.7818609E-02  0.9078536E-01
       -2   -1    0    0    0  501  0.00000000000E+00  0.00000000000E+00  0.24569762423E+03  0.24569762424E+03  0.25500000920E-02 0.  1.
        2   -1    0    0  501    0  0.00000000000E+00  0.00000000000E+00 -0.15645580904E+04  0.15645580904E+04  0.25500000920E-02 0. -1.
    10030    2    1    2    0    0  0.00000000000E+00  0.00000000000E+00 -0.13188604661E+04  0.18102557146E+04  0.12400132351E+04 0.  0.
        3    1    3    3  502    0  0.31354981527E+02  0.25049439670E+03 -0.14861302205E+04  0.15074195236E+04  0.10100000352E+00 0. -1.
       -3    1    3    3    0  502 -0.31354981527E+02 -0.25049439670E+03  0.16726975438E+03  0.30283619099E+03  0.10100000352E+00 0.  1.
</event>
<event>
 5   0  0.4453011E-03  0.8836205E+03  0.7818609E-02  0.9446291E-01
        2   -1    0    0  501    0  0.00000000000E+00  0.00000000000E+00  0.59036693011E+03  0.59036693012E+03  0.25500000920E-02 0.  1.
       -2   -1    0    0    0  501  0.00000000000E+00  0.00000000000E+00 -0.33063557399E+03  0.33063557400E+03  0.25500000920E-02 0. -1.
    10030    2    1    2    0    0  0.00000000000E+00  0.00000000000E+00  0.25973135612E+03  0.92100250412E+03  0.88362052672E+03 0.  0.
        1    1    3    3  502    0  0.32541806503E+03  0.11152149513E+03 -0.15910370992E+03  0.37900917068E+03  0.50400001928E-02 0. -1.
       -1    1    3    3    0  502 -0.32541806503E+03 -0.11152149513E+03  0.41883506604E+03  0.54199333344E+03  0.50400001928E-02 0.  1.
</event>
<event>
 5   0  0.4306214E-03  0.1306937E+04  0.7818609E-02  0.9024082E-01
        2   -1    0    0  501    0  0.00000000000E+00  0.00000000000E+00  0.22037737997E+04  0.22037737997E+04  0.25500000920E-02 0. -1.
       -2   -1    0    0    0  501  0.00000000000E+00  0.00000000000E+00 -0.19376815097E+03  0.19376815098E+03  0.25500000920E-02 0.  1.
    10030    2    1    2    0    0  0.00000000000E+00  0.00000000000E+00  0.20100056487E+04  0.23975419507E+04  0.13069371436E+04 0.  0.
        3    1    3    3  502    0  0.16980444281E+03 -0.15777649497E+03  0.21258260737E+04  0.21384254668E+04  0.10100000352E+00 0. -1.
       -3    1    3    3    0  502 -0.16980444281E+03  0.15777649497E+03 -0.11582042500E+03  0.25911648387E+03  0.10100000352E+00 0.  1.
</event>
<event>
 5   0  0.4263540E-03  0.1319942E+04  0.7818609E-02  0.9013899E-01
       -2   -1    0    0    0  501  0.00000000000E+00  0.00000000000E+00  0.23552450562E+03  0.23552450563E+03  0.25500000920E-02 0.  1.
        2   -1    0    0  501    0  0.00000000000E+00  0.00000000000E+00 -0.18493260622E+04  0.18493260622E+04  0.25500000920E-02 0. -1.
    10030    2    1    2    0    0  0.00000000000E+00  0.00000000000E+00 -0.16138015566E+04  0.20848505678E+04  0.13199418268E+04 0.  0.
        2    1    3    3  502    0 -0.40653712990E+03  0.45588202058E+03 -0.12016522383E+04  0.13479870016E+04  0.25500000920E-02 0.  1.
       -2    1    3    3    0  502  0.40653712990E+03 -0.45588202058E+03 -0.41214931830E+03  0.73686356624E+03  0.25500000920E-02 0. -1.
</event>
<event>
 5   0  0.4453011E-03  0.1336578E+04  0.7818609E-02  0.9001051E-01
        2   -1    0    0  501    0  0.00000000000E+00  0.00000000000E+00  0.81694353565E+03  0.81694353566E+03  0.25500000920E-02 0. -1.
       -2   -1    0    0    0  501  0.00000000000E+00  0.00000000000E+00 -0.54668405080E+03  0.54668405080E+03  0.25500000920E-02 0.  1.
    10030    2    1    2    0    0  0.00000000000E+00  0.00000000000E+00  0.27025948486E+03  0.13636275865E+04  0.13365777214E+04 0.  0.
        1    1    3    3  502    0  0.14416180869E+03  0.88885777184E+02  0.79468565177E+03  0.81253221083E+03  0.50400001928E-02 0. -1.
       -1    1    3    3    0  502 -0.14416180869E+03 -0.88885777184E+02 -0.52442616692E+03  0.55109537563E+03  0.50400001928E-02 0.  1.
</event>
<event>
 5   0  0.2458456E-03  0.1264356E+04  0.7818609E-02  0.9058319E-01
        1   -1    0    0  501    0  0.00000000000E+00  0.00000000000E+00  0.77118434347E+03  0.77118434349E+03  0.50400001928E-02 0.  1.
       -1   -1    0    0    0  501  0.00000000000E+00  0.00000000000E+00 -0.51822728471E+03  0.51822728473E+03  0.50400001928E-02 0. -1.
    10030    2    1    2    0    0  0.00000000000E+00  0.00000000000E+00  0.25295705876E+03  0.12894116282E+04  0.12643555961E+04 0.  0.
        5    1    3    3  502    0 -0.39644584442E+03  0.33900620535E+02  0.62744460146E+03  0.74298544907E+03  0.46999998093E+01 0.  1.
       -5    1    3    3    0  502  0.39644584442E+03 -0.33900620535E+02 -0.37448754270E+03  0.54642617915E+03  0.46999998093E+01 0. -1.
</event>
<event>
 5   0  0.2458456E-03  0.1027141E+04  0.7818609E-02  0.9279268E-01
        1   -1    0    0  501    0  0.00000000000E+00  0.00000000000E+00  0.10077224069E+04  0.10077224070E+04  0.50400001928E-02 0. -1.
       -1   -1    0    0    0  501  0.00000000000E+00  0.00000000000E+00 -0.26173327912E+03  0.26173327917E+03  0.50400001928E-02 0.  1.
    10030    2    1    2    0    0  0.00000000000E+00  0.00000000000E+00  0.74598912782E+03  0.12694556861E+04  0.10271406721E+04 0.  0.
        5    1    3    3  502    0 -0.26371691743E+03  0.10867279300E+03 -0.15480797578E+03  0.32456738567E+03  0.46999998093E+01 0.  1.
       -5    1    3    3    0  502  0.26371691743E+03 -0.10867279300E+03  0.90079710360E+03  0.94488830045E+03  0.46999998093E+01 0. -1.
</event>
<event>
 5   0  0.4263540E-03  0.1286427E+04  0.7818609E-02  0.9040398E-01
       -2   -1    0    0    0  501  0.00000000000E+00  0.00000000000E+00  0.67983363072E+03  0.67983363072E+03  0.25500000920E-02 0.  1.
        2   -1    0    0  501    0  0.00000000000E+00  0.00000000000E+00 -0.60856631076E+03  0.60856631076E+03  0.25500000920E-02 0. -1.
    10030    2    1    2    0    0  0.00000000000E+00  0.00000000000E+00  0.71267319963E+02  0.12883999415E+04  0.12864273700E+04 0.  0.
        2    1    3    3  502    0  0.30944969218E+03 -0.28009468437E+03 -0.45451609724E+03  0.61708753581E+03  0.25500000920E-02 0. -1.
       -2    1    3    3    0  502 -0.30944969218E+03  0.28009468437E+03  0.52578341720E+03  0.67131240567E+03  0.25500000920E-02 0.  1.
</event>
<event>
 5   0  0.2370801E-03  0.1295805E+04  0.7818609E-02  0.9032898E-01
        1   -1    0    0  501    0  0.00000000000E+00  0.00000000000E+00  0.34499589986E+03  0.34499589990E+03  0.50400001928E-02 0.  1.
       -1   -1    0    0    0  501  0.00000000000E+00  0.00000000000E+00 -0.12167611768E+04  0.12167611769E+04  0.50400001928E-02 0. -1.
    10030    2    1    2    0    0  0.00000000000E+00  0.00000000000E+00 -0.87176527698E+03  0.15617570767E+04  0.12958049501E+04 0.  0.
        3    1    3    3  502    0  0.31745933521E+02 -0.65864440314E+02  0.34000765730E+03  0.34778031286E+03  0.10100000352E+00 0.  1.
       -3    1    3    3    0  502 -0.31745933521E+02  0.65864440314E+02 -0.12117729343E+04  0.12139767639E+04  0.10100000352E+00 0. -1.
</event>
<event>
 5   0  0.2458456E-03  0.1309055E+04  0.7818609E-02  0.9022415E-01
        1   -1    0    0  501    0  0.00000000000E+00  0.00000000000E+00  0.15537681889E+04  0.15537681889E+04  0.50400001928E-02 0.  1.
       -1   -1    0    0    0  501  0.00000000000E+00  0.00000000000E+00 -0.27572076499E+03  0.27572076504E+03  0.50400001928E-02 0. -1.
    10030    2    1    2    0    0  0.00000000000E+00  0.00000000000E+00  0.12780474239E+04  0.18294889539E+04  0.13090548556E+04 0.  0.
        5    1    3    3  502    0 -0.43605315919E+03 -0.34059395328E+03  0.11276469453E+04  0.12560877047E+04  0.46999998093E+01 0.  1.
       -5    1    3    3    0  502  0.43605315919E+03  0.34059395328E+03  0.15040047858E+03  0.57340124922E+03  0.46999998093E+01 0. -1.
</event>
<event>
 5   0  0.4388937E-03  0.1316285E+04  0.7818609E-02  0.9016750E-01
        2   -1    0    0  501    0  0.00000000000E+00  0.00000000000E+00  0.65574040134E+03  0.65574040134E+03  0.25500000920E-02 0.  1.
       -2   -1    0    0    0  501  0.00000000000E+00  0.00000000000E+00 -0.66055299968E+03  0.66055299968E+03  0.25500000920E-02 0. -1.
    10030    2    1    2    0    0  0.00000000000E+00  0.00000000000E+00 -0.48125983386E+01  0.13162934010E+04  0.13162846031E+04 0.  0.
        5    1    3    3  502    0 -0.22444207372E+03  0.40927321948E+03 -0.46636024506E+03  0.65984299709E+03  0.46999998093E+01 0. -1.
       -5    1    3    3    0  502  0.22444207372E+03 -0.40927321948E+03  0.46154764672E+03  0.65645040393E+03  0.46999998093E+01 0.  1.
</event>
<event>
 5   0  0.4306214E-03  0.1259968E+04  0.7818609E-02  0.9061928E-01
       -2   -1    0    0    0  501  0.00000000000E+00  0.00000000000E+00  0.53612151824E+03  0.53612151825E+03  0.25500000920E-02 0. -1.
        2   -1    0    0  501    0  0.00000000000E+00  0.00000000000E+00 -0.74027918622E+03  0.74027918623E+03  0.25500000920E-02 0.  1.
    10030    2    1    2    0    0  0.00000000000E+00  0.00000000000E+00 -0.20415766798E+03  0.12764007045E+04  0.12599676206E+04 0.  0.
        3    1    3    3  502    0 -0.50270115061E+03 -0.37192571188E+03 -0.24646271543E+02  0.62581517310E+03  0.10100000352E+00 0.  1.
       -3    1    3    3    0  502  0.50270115061E+03  0.37192571188E+03 -0.17951139644E+03  0.65058553137E+03  0.10100000352E+00 0. -1.
</event>
<event>
 5   0  0.2458456E-03  0.1304041E+04  0.7818609E-02  0.9026367E-01
       -1   -1    0    0    0  501  0.00000000000E+00  0.00000000000E+00  0.35129089186E+03  0.35129089189E+03  0.50400001928E-02 0.  1.
        1   -1    0    0  501    0  0.00000000000E+00  0.00000000000E+00 -0.12101951145E+04  0.12101951146E+04  0.50400001928E-02 0. -1.
    10030    2    1    2    0    0  0.00000000000E+00  0.00000000000E+00 -0.85890422268E+03  0.15614860064E+04  0.13040406760E+04 0.  0.
        5    1    3    3  502    0  0.57970490882E+03  0.29840772032E+03 -0.42721761556E+03  0.77951390616E+03  0.46999998093E+01 0.  1.
       -5    1    3    3    0  502 -0.57970490882E+03 -0.29840772032E+03 -0.43168660712E+03  0.78197210028E+03  0.46999998093E+01 0. -1.
</event>
<event>
 5   0  0.4263540E-03  0.1291330E+04  0.7818609E-02  0.9036469E-01
       -2   -1    0    0    0  501  0.00000000000E+00  0.00000000000E+00  0.45371148697E+03  0.45371148698E+03  0.25500000920E-02 0. -1.
        2   -1    0    0  501    0  0.00000000000E+00  0.00000000000E+00 -0.91882905404E+03  0.91882905404E+03  0.25500000920E-02 0.  1.
    10030    2    1    2    0    0  0.00000000000E+00  0.00000000000E+00 -0.46511756706E+03  0.13725405410E+04  0.12913300065E+04 0.  0.
        2    1    3    3  502    0 -0.10699838828E+03  0.63673078818E+03 -0.22945182374E+03  0.68521740428E+03  0.25500000920E-02 0. -1.
       -2    1    3    3    0  502  0.10699838828E+03 -0.63673078818E+03 -0.23566574333E+03  0.68732313674E+03  0.25500000920E-02 0.  1.
</event>
<event>
 5   0  0.2356769E-03  0.1280998E+04  0.7818609E-02  0.9044771E-01
       -1   -1    0    0    0  501  0.00000000000E+00  0.00000000000E+00  0.38701418156E+03  0.38701418159E+03  0.50400001928E-02 0. -1.
        1   -1    0    0  501    0  0.00000000000E+00  0.00000000000E+00 -0.10600108694E+04  0.10600108694E+04  0.50400001928E-02 0.  1.
    10030    2    1    2    0    0  0.00000000000E+00  0.00000000000E+00 -0.67299668786E+03  0.14470250510E+04  0.12809984217E+04 0.  0.
        1    1    3    3  502    0  0.23919488815E+02  0.13778384650E+03  0.36955830995E+03  0.39513273059E+03  0.50400001928E-02 0. -1.
       -1    1    3    3    0  502 -0.23919488815E+02 -0.13778384650E+03 -0.10425549978E+04  0.10518923204E+04  0.50400001928E-02 0.  1.
</event>
<event>
 5   0  0.1661750E-03  0.1220211E+04  0.7818609E-02  0.9095348E-01
        3   -1    0    0  501    0  0.00000000000E+00  0.00000000000E+00  0.21345609474E+04  0.21345609497E+04  0.10100000352E+00 0. -1.
       -3   -1    0    0    0  501  0.00000000000E+00  0.00000000000E+00 -0.17438182813E+03  0.17438185738E+03  0.10100000352E+00 0.  1.
    10030    2    1    2    0    0  0.00000000000E+00  0.00000000000E+00  0.19601791192E+04  0.23089428071E+04  0.12202109273E+04 0.  0.
        4    1    3    3  502    0  0.57205045926E+03 -0.13373269755E+03  0.66858089227E+03  0.89001583398E+03  0.12699999809E+01 0.  1.
       -4    1    3    3    0  502 -0.57205045926E+03  0.13373269755E+03  0.12915982270E+04  0.14189269731E+04  0.12699999809E+01 0. -1.
</event>
<event>
 5   0  0.4453011E-03  0.1303093E+04  0.7818609E-02  0.9027116E-01
       -2   -1    0    0    0  501  0.00000000000E+00  0.00000000000E+00  0.54230011394E+03  0.54230011395E+03  0.25500000920E-02 0.  1.
        2   -1    0    0  501    0  0.00000000000E+00  0.00000000000E+00 -0.78280115817E+03  0.78280115817E+03  0.25500000920E-02 0. -1.
    10030    2    1    2    0    0  0.00000000000E+00  0.00000000000E+00 -0.24050104422E+03  0.13251012721E+04  0.13030934844E+04 0.  0.
        1    1    3    3  502    0 -0.15434983840E+03  0.78565291788E+02  0.51846318627E+03  0.54662642932E+03  0.50400001928E-02 0.  1.
       -1    1    3    3    0  502  0.15434983840E+03 -0.78565291788E+02 -0.75896423049E+03  0.77847484280E+03  0.50400001928E-02 0. -1.
</event>
<event>
 5   0  0.2462055E-03  0.1348017E+04  0.7818609E-02  0.8992330E-01
        1   -1    0    0  501    0  0.00000000000E+00  0.00000000000E+00  0.88115715767E+03  0.88115715768E+03  0.50400001928E-02 0. -1.
       -1   -1    0    0    0  501  0.00000000000E+00  0.00000000000E+00 -0.51555789231E+03  0.51555789233E+03  0.50400001928E-02 0.  1.
    10030    2    1    2    0    0  0.00000000000E+00  0.00000000000E+00  0.36559926536E+03  0.13967150500E+04  0.13480171023E+04 0.  0.
        2    1    3    3  502    0 -0.60184687945E+03 -0.79053527170E+02 -0.12073106402E+03  0.61890638733E+03  0.25500000920E-02 0.  1.
       -2    1    3    3    0  502  0.60184687945E+03  0.79053527170E+02  0.48633032938E+03  0.77780866268E+03  0.25500000920E-02 0. -1.
</event>
<event>
 5   0  0.2370801E-03  0.1327671E+04  0.7818609E-02  0.9007905E-01
        1   -1    0    0  501    0  0.00000000000E+00  0.00000000000E+00  0.15313102141E+04  0.15313102141E+04  0.50400001928E-02 0. -1.
       -1   -1    0    0    0  501  0.00000000000E+00  0.00000000000E+00 -0.28777832302E+03  0.28777832307E+03  0.50400001928E-02 0.  1.
    10030    2    1    2    0    0  0.00000000000E+00  0.00000000000E+00  0.12435318910E+04  0.18190885371E+04  0.13276714736E+04 0.  0.
        3    1    3    3  502    0  0.13875762604E+03 -0.59842788745E+03  0.96650731442E+03  0.11452100306E+04  0.10100000352E+00 0. -1.
       -3    1    3    3    0  502 -0.13875762604E+03  0.59842788745E+03  0.27702457661E+03  0.67387850648E+03  0.10100000352E+00 0.  1.
</event>
<event>
 5   0  0.2458456E-03  0.1181477E+04  0.7818609E-02  0.9129226E-01
        1   -1    0    0  501    0  0.00000000000E+00  0.00000000000E+00  0.64246153772E+03  0.64246153774E+03  0.50400001928E-02 0. -1.
       -1   -1    0    0    0  501  0.00000000000E+00  0.00000000000E+00 -0.54317945533E+03  0.54317945536E+03  0.50400001928E-02 0.  1.
    10030    2    1    2    0    0  0.00000000000E+00  0.00000000000E+00  0.99282082389E+02  0.11856409931E+04  0.11814768862E+04 0.  0.
        5    1    3    3  502    0 -0.10424473226E+03  0.14427569174E+03  0.61489119209E+03  0.64015287825E+03  0.46999998093E+01 0. -1.
       -5    1    3    3    0  502  0.10424473226E+03 -0.14427569174E+03 -0.51560910970E+03  0.54548811484E+03  0.46999998093E+01 0.  1.
</event>
<event>
 5   0  0.2462055E-03  0.1255012E+04  0.7818609E-02  0.9066022E-01
        1   -1    0    0  501    0  0.00000000000E+00  0.00000000000E+00  0.78421980242E+03  0.78421980244E+03  0.50400001928E-02 0.  1.
       -1   -1    0    0    0  501  0.00000000000E+00  0.00000000000E+00 -0.50210901056E+03  0.50210901058E+03  0.50400001928E-02 0. -1.
    10030    2    1    2    0    0  0.00000000000E+00  0.00000000000E+00  0.28211079187E+03  0.12863288130E+04  0.12550120782E+04 0.  0.
        2    1    3    3  502    0  0.53287227300E+03 -0.33132363455E+03  0.13493831117E+03  0.64182284002E+03  0.25500000920E-02 0. -1.
       -2    1    3    3    0  502 -0.53287227300E+03  0.33132363455E+03  0.14717248070E+03  0.64450597300E+03  0.25500000920E-02 0.  1.
</event>
<event>
 5   0  0.4310889E-03  0.1279989E+04  0.7818609E-02  0.9045587E-01
       -2   -1    0    0    0  501  0.00000000000E+00  0.00000000000E+00  0.51205943709E+03  0.51205943710E+03  0.25500000920E-02 0.  1.
        2   -1    0    0  501    0  0.00000000000E+00  0.00000000000E+00 -0.79989279110E+03  0.79989279111E+03  0.25500000920E-02 0. -1.
    10030    2    1    2    0    0  0.00000000000E+00  0.00000000000E+00 -0.28783335401E+03  0.13119522282E+04  0.12799885192E+04 0.  0.
        4    1    3    3  502    0  0.59854907543E+03  0.12750552293E+03 -0.33586954238E+03  0.69808926111E+03  0.12699999809E+01 0. -1.
       -4    1    3    3    0  502 -0.59854907543E+03 -0.12750552293E+03  0.48036188366E+02  0.61386296709E+03  0.12699999809E+01 0.  1.
</event>
<event>
 5   0  0.2511542E-03  0.1259447E+04  0.7818609E-02  0.9062357E-01
        1   -1    0    0  501    0  0.00000000000E+00  0.00000000000E+00  0.20072823220E+04  0.20072823220E+04  0.50400001928E-02 0.  1.
       -1   -1    0    0    0  501  0.00000000000E+00  0.00000000000E+00 -0.19755638471E+03  0.19755638477E+03  0.50400001928E-02 0. -1.
    10030    2    1    2    0    0  0.00000000000E+00  0.00000000000E+00  0.18097259373E+04  0.22048387068E+04  0.12594466066E+04 0.  0.
        4    1    3    3  502    0  0.87487848534E+02  0.60969881627E+03  0.67551527949E+03  0.91417136026E+03  0.12699999809E+01 0. -1.
       -4    1    3    3    0  502 -0.87487848534E+02 -0.60969881627E+03  0.11342106578E+04  0.12906673466E+04  0.12699999809E+01 0.  1.
</event>
<event>
 5   0  0.2370801E-03  0.1301773E+04  0.7818609E-02  0.9028160E-01
       -1   -1    0    0    0  501  0.00000000000E+00  0.00000000000E+00  0.66387628250E+03  0.66387628252E+03  0.50400001928E-02 0.  1.
        1   -1    0    0  501    0  0.00000000000E+00  0.00000000000E+00 -0.63815112928E+03  0.63815112930E+03  0.50400001928E-02 0. -1.
    10030    2    1    2    0    0  0.00000000000E+00  0.00000000000E+00  0.25725153222E+02  0.13020274118E+04  0.13017732512E+04 0.  0.
        3    1    3    3  502    0 -0.38368402121E+03  0.37956026053E+03  0.37676594925E+03  0.65820362367E+03  0.10100000352E+00 0.  1.
       -3    1    3    3    0  502  0.38368402121E+03 -0.37956026053E+03 -0.35104079602E+03  0.64382378814E+03  0.10100000352E+00 0. -1.
</event>
<event>
 5   0  0.1661750E-03  0.1304835E+04  0.7818609E-02  0.9025739E-01
       -4   -1    0    0    0  501  0.00000000000E+00  0.00000000000E+00  0.32922403160E+03  0.32922648114E+03  0.12699999809E+01 0.  1.
        4   -1    0    0  501    0  0.00000000000E+00  0.00000000000E+00 -0.12928773818E+04  0.12928780056E+04  0.12699999809E+01 0. -1.
    10030    2    1    2    0    0  0.00000000000E+00  0.00000000000E+00 -0.96365335023E+03  0.16221044867E+04  0.13048353101E+04 0.  0.
        4    1    3    3  502    0  0.48485540496E+03 -0.35057350443E+03 -0.80519030342E+03  0.10031548152E+04  0.12699999809E+01 0. -1.
       -4    1    3    3    0  502 -0.48485540496E+03  0.35057350443E+03 -0.15846304681E+03  0.61894967148E+03  0.12699999809E+01 0.  1.
</event>
<event>
 5   0  0.4453011E-03  0.1308444E+04  0.7818609E-02  0.9022896E-01
        2   -1    0    0  501    0  0.00000000000E+00  0.00000000000E+00  0.13797352731E+04  0.13797352731E+04  0.25500000920E-02 0. -1.
       -2   -1    0    0    0  501  0.00000000000E+00  0.00000000000E+00 -0.31020909605E+03  0.31020909606E+03  0.25500000920E-02 0.  1.
    10030    2    1    2    0    0  0.00000000000E+00  0.00000000000E+00  0.10695261771E+04  0.16899443692E+04  0.13084440101E+04 0.  0.
        1    1    3    3  502    0 -0.40746862054E+03  0.28879130672E+03  0.10805561413E+04  0.11903918137E+04  0.50400001928E-02 0. -1.
       -1    1    3    3    0  502  0.40746862054E+03 -0.28879130672E+03 -0.11029964241E+02  0.49955255549E+03  0.50400001928E-02 0.  1.
</event>
<event>
 5   0  0.4306214E-03  0.1555496E+04  0.7818609E-02  0.8848365E-01
       -2   -1    0    0    0  501  0.00000000000E+00  0.00000000000E+00  0.86802662816E+03  0.86802662817E+03  0.25500000920E-02 0. -1.
        2   -1    0    0  501    0  0.00000000000E+00  0.00000000000E+00 -0.69685902045E+03  0.69685902045E+03  0.25500000920E-02 0.  1.
    10030    2    1    2    0    0  0.00000000000E+00  0.00000000000E+00  0.17116760772E+03  0.15648856486E+04  0.15554963013E+04 0.  0.
        3    1    3    3  502    0  0.77242518706E+03  0.84486022157E+02  0.52011452282E+02  0.77877067158E+03  0.10100000352E+00 0. -1.
       -3    1    3    3    0  502 -0.77242518706E+03 -0.84486022157E+02  0.11915615544E+03  0.78611497704E+03  0.10100000352E+00 0.  1.
</event>
<event>
 5   0  0.4306214E-03  0.1310953E+04  0.7818609E-02  0.9020924E-01
       -2   -1    0    0    0  501  0.00000000000E+00  0.00000000000E+00  0.63503033471E+03  0.63503033471E+03  0.25500000920E-02 0.  1.
        2   -1    0    0  501    0  0.00000000000E+00  0.00000000000E+00 -0.67658147715E+03  0.67658147715E+03  0.25500000920E-02 0. -1.
    10030    2    1    2    0    0  0.00000000000E+00  0.00000000000E+00 -0.41551142441E+02  0.13116118119E+04  0.13109534880E+04 0.  0.
        3    1    3    3  502    0  0.38440282032E+03  0.29279304492E+03 -0.46389351741E+03  0.66984363930E+03  0.10100000352E+00 0. -1.
       -3    1    3    3    0  502 -0.38440282032E+03 -0.29279304492E+03  0.42234237497E+03  0.64176817256E+03  0.10100000352E+00 0.  1.
</event>
<event>
 5   0  0.2511542E-03  0.1311344E+04  0.7818609E-02  0.9020618E-01
        1   -1    0    0  501    0  0.00000000000E+00  0.00000000000E+00  0.10410240238E+04  0.10410240238E+04  0.50400001928E-02 0. -1.
       -1   -1    0    0    0  501  0.00000000000E+00  0.00000000000E+00 -0.41296405283E+03  0.41296405286E+03  0.50400001928E-02 0.  1.
    10030    2    1    2    0    0  0.00000000000E+00  0.00000000000E+00  0.62805997100E+03  0.14539880767E+04  0.13113435858E+04 0.  0.
        4    1    3    3  502    0 -0.50533741565E+03 -0.60004375154E+02 -0.14438939509E+03  0.52897669042E+03  0.12699999809E+01 0.  1.
       -4    1    3    3    0  502  0.50533741565E+03  0.60004375154E+02  0.77244936610E+03  0.92501138629E+03  0.12699999809E+01 0. -1.
</event>
<event>
 5   0  0.4453011E-03  0.1287612E+04  0.7818609E-02  0.9039447E-01
       -2   -1    0    0    0  501  0.00000000000E+00  0.00000000000E+00  0.42681793386E+03  0.42681793387E+03  0.25500000920E-02 0.  1.
        2   -1    0    0  501    0  0.00000000000E+00  0.00000000000E+00 -0.97110739462E+03  0.97110739462E+03  0.25500000920E-02 0. -1.
    10030    2    1    2    0    0  0.00000000000E+00  0.00000000000E+00 -0.54428946076E+03  0.13979253285E+04  0.12876118231E+04 0.  0.
        1    1    3    3  502    0 -0.42176091621E+03  0.48192029072E+03 -0.20048526030E+03  0.67106167874E+03  0.50400001928E-02 0.  1.
       -1    1    3    3    0  502  0.42176091621E+03 -0.48192029072E+03 -0.34380420046E+03  0.72686364975E+03  0.50400001928E-02 0. -1.
</event>
<event>
 5   0  0.2462055E-03  0.1375030E+04  0.7818609E-02  0.8972094E-01
       -1   -1    0    0    0  501  0.00000000000E+00  0.00000000000E+00  0.57655572032E+03  0.57655572034E+03  0.50400001928E-02 0. -1.
        1   -1    0    0  501    0  0.00000000000E+00  0.00000000000E+00 -0.81982891274E+03  0.81982891275E+03  0.50400001928E-02 0.  1.
    10030    2    1    2    0    0  0.00000000000E+00  0.00000000000E+00 -0.24327319242E+03  0.13963846331E+04  0.13750302533E+04 0.  0.
        2    1    3    3  502    0  0.22169904547E+03 -0.39712835137E+03 -0.64521663961E+03  0.78940858005E+03  0.25500000920E-02 0.  1.
       -2    1    3    3    0  502 -0.22169904547E+03  0.39712835137E+03  0.40194344719E+03  0.60697605304E+03  0.25500000920E-02 0. -1.
</event>
<event>
 5   0  0.2356769E-03  0.1310461E+04  0.7818609E-02  0.9021311E-01
        1   -1    0    0  501    0  0.00000000000E+00  0.00000000000E+00  0.55172516506E+03  0.55172516508E+03  0.50400001928E-02 0. -1.
       -1   -1    0    0    0  501  0.00000000000E+00  0.00000000000E+00 -0.77815340873E+03  0.77815340874E+03  0.50400001928E-02 0.  1.
    10030    2    1    2    0    0  0.00000000000E+00  0.00000000000E+00 -0.22642824367E+03  0.13298785738E+04  0.13104607097E+04 0.  0.
        1    1    3    3  502    0 -0.53302726033E+03  0.92108023389E+02 -0.48845638236E+03  0.72882891389E+03  0.50400001928E-02 0.  1.
       -1    1    3    3    0  502  0.53302726033E+03 -0.92108023389E+02  0.26202813869E+03  0.60104965994E+03  0.50400001928E-02 0. -1.
</event>
<event>
 5   0  0.2458456E-03  0.1252016E+04  0.7818609E-02  0.9068507E-01
        1   -1    0    0  501    0  0.00000000000E+00  0.00000000000E+00  0.14408515841E+04  0.14408515841E+04  0.50400001928E-02 0.  1.
       -1   -1    0    0    0  501  0.00000000000E+00  0.00000000000E+00 -0.27198219422E+03  0.27198219426E+03  0.50400001928E-02 0. -1.
    10030    2    1    2    0    0  0.00000000000E+00  0.00000000000E+00  0.11688693899E+04  0.17128337784E+04  0.12520159351E+04 0.  0.
        5    1    3    3  502    0 -0.21701127075E+03  0.13056896960E+03  0.13676082009E+04  0.13908689473E+04  0.46999998093E+01 0.  1.
       -5    1    3    3    0  502  0.21701127075E+03 -0.13056896960E+03 -0.19873881099E+03  0.32196483107E+03  0.46999998093E+01 0. -1.
</event>
<event>
 5   0  0.4263540E-03  0.1302626E+04  0.7818609E-02  0.9027485E-01
        2   -1    0    0  501    0  0.00000000000E+00  0.00000000000E+00  0.70963836577E+03  0.70963836578E+03  0.25500000920E-02 0.  1.
       -2   -1    0    0    0  501  0.00000000000E+00  0.00000000000E+00 -0.59778126195E+03  0.59778126196E+03  0.25500000920E-02 0. -1.
    10030    2    1    2    0    0  0.00000000000E+00  0.00000000000E+00  0.11185710382E+03  0.13074196277E+04  0.13026258370E+04 0.  0.
        2    1    3    3  502    0 -0.28649904251E+03  0.39543037846E+03 -0.37665830648E+03  0.61669957469E+03  0.25500000920E-02 0. -1.
       -2    1    3    3    0  502  0.28649904251E+03 -0.39543037846E+03  0.48851541031E+03  0.69072005305E+03  0.25500000920E-02 0.  1.
</event>
<event>
 5   0  0.4453011E-03  0.1216749E+04  0.7818609E-02  0.9098321E-01
        2   -1    0    0  501    0  0.00000000000E+00  0.00000000000E+00  0.95335740676E+03  0.95335740676E+03  0.25500000920E-02 0. -1.
       -2   -1    0    0    0  501  0.00000000000E+00  0.00000000000E+00 -0.38822756645E+03  0.38822756646E+03  0.25500000920E-02 0.  1.
    10030    2    1    2    0    0  0.00000000000E+00  0.00000000000E+00  0.56512984031E+03  0.13415849732E+04  0.12167491541E+04 0.  0.
        1    1    3    3  502    0  0.42423585756E+03 -0.55234871525E+02 -0.19435506424E+03  0.46989450400E+03  0.50400001928E-02 0.  1.
       -1    1    3    3    0  502 -0.42423585756E+03  0.55234871525E+02  0.75948490455E+03  0.87169046922E+03  0.50400001928E-02 0. -1.
</event>
<event>
 5   0  0.4306214E-03  0.1264550E+04  0.7818609E-02  0.9058159E-01
       -2   -1    0    0    0  501  0.00000000000E+00  0.00000000000E+00  0.99919980878E+03  0.99919980879E+03  0.25500000920E-02 0. -1.
        2   -1    0    0  501    0  0.00000000000E+00  0.00000000000E+00 -0.40009192794E+03  0.40009192795E+03  0.25500000920E-02 0.  1.
    10030    2    1    2    0    0  0.00000000000E+00  0.00000000000E+00  0.59910788084E+03  0.13992917367E+04  0.12645501618E+04 0.  0.
        3    1    3    3  502    0 -0.33071037503E+03 -0.21324827564E+03 -0.24808088892E+03  0.46517557639E+03  0.10100000352E+00 0.  1.
       -3    1    3    3    0  502  0.33071037503E+03  0.21324827564E+03  0.84718876976E+03  0.93411616035E+03  0.10100000352E+00 0. -1.
</event>
<event>
 5   0  0.1661750E-03  0.1294738E+04  0.7818609E-02  0.9033749E-01
        3   -1    0    0  501    0  0.00000000000E+00  0.00000000000E+00  0.75883134656E+03  0.75883135328E+03  0.10100000352E+00 0.  1.
       -3   -1    0    0    0  501  0.00000000000E+00  0.00000000000E+00 -0.55227873274E+03  0.55227874198E+03  0.10100000352E+00 0. -1.
    10030    2    1    2    0    0  0.00000000000E+00  0.00000000000E+00  0.20655261382E+03  0.13111100953E+04  0.12947376953E+04 0.  0.
        2    1    3    3  502    0  0.16013743956E+02 -0.63797604640E+03  0.21335485720E+03  0.67289685010E+03  0.25500000920E-02 0.  1.
       -2    1    3    3    0  502 -0.16013743956E+02  0.63797604640E+03 -0.68022433835E+01  0.63821324516E+03  0.25500000920E-02 0. -1.
</event>
<event>
 5   0  0.1661750E-03  0.1128520E+04  0.7818609E-02  0.9177832E-01
        4   -1    0    0  501    0  0.00000000000E+00  0.00000000000E+00  0.39931605872E+03  0.39931807830E+03  0.12699999809E+01 0.  1.
       -4   -1    0    0    0  501  0.00000000000E+00  0.00000000000E+00 -0.79733222543E+03  0.79733323686E+03  0.12699999809E+01 0. -1.
    10030    2    1    2    0    0  0.00000000000E+00  0.00000000000E+00 -0.39801616670E+03  0.11966513152E+04  0.11285200491E+04 0.  0.
        4    1    3    3  502    0  0.48072350416E+03  0.29448489675E+03 -0.17366273567E+03  0.58989558443E+03  0.12699999809E+01 0.  1.
       -4    1    3    3    0  502 -0.48072350416E+03 -0.29448489675E+03 -0.22435343103E+03  0.60675573073E+03  0.12699999809E+01 0. -1.
</event>
<event>
 5   0  0.4310889E-03  0.1247483E+04  0.7818609E-02  0.9072280E-01
       -2   -1    0    0    0  501  0.00000000000E+00  0.00000000000E+00  0.37849743026E+03  0.37849743026E+03  0.25500000920E-02 0. -1.
        2   -1    0    0  501    0  0.00000000000E+00  0.00000000000E+00 -0.10278900808E+04  0.10278900808E+04  0.25500000920E-02 0.  1.
    10030    2    1    2    0    0  0.00000000000E+00  0.00000000000E+00 -0.64939265053E+03  0.14063875111E+04  0.12474834735E+04 0.  0.
        4    1    3    3  502    0  0.58167557680E+03 -0.18085522001E+03 -0.47593780245E+03  0.77302877821E+03  0.12699999809E+01 0.  1.
       -4    1    3    3    0  502 -0.58167557680E+03  0.18085522001E+03 -0.17345484808E+03  0.63335873284E+03  0.12699999809E+01 0. -1.
</event>
<event>
 5   0  0.4453011E-03  0.1288577E+04  0.7818609E-02  0.9038673E-01
       -2   -1    0    0    0  501  0.00000000000E+00  0.00000000000E+00  0.65951679577E+03  0.65951679577E+03  0.25500000920E-02 0. -1.
        2   -1    0    0  501    0  0.00000000000E+00  0.00000000000E+00 -0.62941222158E+03  0.62941222158E+03  0.25500000920E-02 0.  1.
    10030    2    1    2    0    0  0.00000000000E+00  0.00000000000E+00  0.30104574191E+02  0.12889290174E+04  0.12885774041E+04 0.  0.
        1    1    3    3  502    0 -0.38575006089E+03  0.49708872336E+03 -0.12357710002E+03  0.64122664328E+03  0.50400001928E-02 0.  1.
       -1    1    3    3    0  502  0.38575006089E+03 -0.49708872336E+03  0.15368167422E+03  0.64770237408E+03  0.50400001928E-02 0. -1.
</event>
<event>
 5   0  0.2356769E-03  0.1344251E+04  0.7818609E-02  0.8995192E-01
        1   -1    0    0  501    0  0.00000000000E+00  0.00000000000E+00  0.37680014835E+03  0.37680014839E+03  0.50400001928E-02 0.  1.
       -1   -1    0    0    0  501  0.00000000000E+00  0.00000000000E+00 -0.11989183494E+04  0.11989183494E+04  0.50400001928E-02 0. -1.
    10030    2    1    2    0    0  0.00000000000E+00  0.00000000000E+00 -0.82211820107E+03  0.15757184978E+04  0.13442508872E+04 0.  0.
        1    1    3    3  502    0  0.24015142608E+03  0.52978397207E+03 -0.80580876535E+03  0.99381664851E+03  0.50400001928E-02 0. -1.
       -1    1    3    3    0  502 -0.24015142608E+03 -0.52978397207E+03 -0.16309435716E+02  0.58190184931E+03  0.50400001928E-02 0.  1.
</event>
<event>
 5   0  0.2458456E-03  0.1305864E+04  0.7818609E-02  0.9024928E-01
        1   -1    0    0  501    0  0.00000000000E+00  0.00000000000E+00  0.18114577030E+04  0.18114577030E+04  0.50400001928E-02 0.  1.
       -1   -1    0    0    0  501  0.00000000000E+00  0.00000000000E+00 -0.23534646512E+03  0.23534646517E+03  0.50400001928E-02 0. -1.
    10030    2    1    2    0    0  0.00000000000E+00  0.00000000000E+00  0.15761112379E+04  0.20468041682E+04  0.13058639549E+04 0.  0.
        5    1    3    3  502    0 -0.29312802274E+03 -0.14351119571E+03  0.16744011116E+04  0.17059193045E+04  0.46999998093E+01 0.  1.
       -5    1    3    3    0  502  0.29312802274E+03  0.14351119571E+03 -0.98289873701E+02  0.34088486367E+03  0.46999998093E+01 0. -1.
</event>
<event>
 5   0  0.4388937E-03  0.1247869E+04  0.7818609E-02  0.9071959E-01
       -2   -1    0    0    0  501  0.00000000000E+00  0.00000000000E+00  0.24668969588E+03  0.24668969589E+03  0.25500000920E-02 0. -1.
        2   -1    0    0  501    0  0.00000000000E+00  0.00000000000E+00 -0.15780721401E+04  0.15780721401E+04  0.25500000920E-02 0.  1.
    10030    2    1    2    0    0  0.00000000000E+00  0.00000000000E+00 -0.13313824443E+04  0.18247618360E+04  0.12478688013E+04 0.  0.
        5    1    3    3  502    0  0.33180271047E+03  0.21030032129E+03 -0.13744975056E+04  0.14295400473E+04  0.46999998093E+01 0.  1.
       -5    1    3    3    0  502 -0.33180271047E+03 -0.21030032129E+03  0.43115061335E+02  0.39522178878E+03  0.46999998093E+01 0. -1.
</event>
<event>
 5   0  0.4388937E-03  0.1420377E+04  0.7818609E-02  0.8939199E-01
        2   -1    0    0  501    0  0.00000000000E+00  0.00000000000E+00  0.12874809386E+04  0.12874809386E+04  0.25500000920E-02 0.  1.
       -2   -1    0    0    0  501  0.00000000000E+00  0.00000000000E+00 -0.39174783328E+03  0.39174783329E+03  0.25500000920E-02 0. -1.
    10030    2    1    2    0    0  0.00000000000E+00  0.00000000000E+00  0.89573310529E+03  0.16792287719E+04  0.14203772289E+04 0.  0.
        5    1    3    3  502    0 -0.38639805630E+03  0.29780606826E+03 -0.16228211592E+03  0.51414928508E+03  0.46999998093E+01 0. -1.
       -5    1    3    3    0  502  0.38639805630E+03 -0.29780606826E+03  0.10580152212E+04  0.11650794868E+04  0.46999998093E+01 0.  1.
</event>
<event>
 5   0  0.4388937E-03  0.1289557E+04  0.7818609E-02  0.9037888E-01
        2   -1    0    0  501    0  0.00000000000E+00  0.00000000000E+00  0.15090346850E+04  0.15090346850E+04  0.25500000920E-02 0. -1.
       -2   -1    0    0    0  501  0.00000000000E+00  0.00000000000E+00 -0.27549999875E+03  0.27549999876E+03  0.25500000920E-02 0.  1.
    10030    2    1    2    0    0  0.00000000000E+00  0.00000000000E+00  0.12335346862E+04  0.17845346838E+04  0.12895565964E+04 0.  0.
        5    1    3    3  502    0 -0.12909661430E+03  0.58644413088E+03  0.29183304497E+03  0.66766104469E+03  0.46999998093E+01 0. -1.
       -5    1    3    3    0  502  0.12909661430E+03 -0.58644413088E+03  0.94170164127E+03  0.11168736391E+04  0.46999998093E+01 0.  1.
</event>
<event>
 5   0  0.4310889E-03  0.1268766E+04  0.7818609E-02  0.9054708E-01
       -2   -1    0    0    0  501  0.00000000000E+00  0.00000000000E+00  0.11274642092E+04  0.11274642092E+04  0.25500000920E-02 0.  1.
        2   -1    0    0  501    0  0.00000000000E+00  0.00000000000E+00 -0.35694403243E+03  0.35694403244E+03  0.25500000920E-02 0. -1.
    10030    2    1    2    0    0  0.00000000000E+00  0.00000000000E+00  0.77052017679E+03  0.14844082417E+04  0.12687657329E+04 0.  0.
        4    1    3    3  502    0 -0.61539032338E+03 -0.13295072831E+03  0.47632843474E+03  0.78947548214E+03  0.12699999809E+01 0.  1.
       -4    1    3    3    0  502  0.61539032338E+03  0.13295072831E+03  0.29419174206E+03  0.69493275952E+03  0.12699999809E+01 0. -1.
</event>
<event>
 5   0  0.4310889E-03  0.1359891E+04  0.7818609E-02  0.8983374E-01
       -2   -1    0    0    0  501  0.00000000000E+00  0.00000000000E+00  0.58973818119E+03  0.58973818119E+03  0.25500000920E-02 0.  1.
        2   -1    0    0  501    0  0.00000000000E+00  0.00000000000E+00 -0.78395102056E+03  0.78395102057E+03  0.25500000920E-02 0. -1.
    10030    2    1    2    0    0  0.00000000000E+00  0.00000000000E+00 -0.19421283938E+03  0.13736892018E+04  0.13598909501E+04 0.  0.
        4    1    3    3  502    0  0.37120741083E+03 -0.26302571647E+03  0.41333931869E+03  0.61467753713E+03  0.12699999809E+01 0.  1.
       -4    1    3    3    0  502 -0.37120741083E+03  0.26302571647E+03 -0.60755215806E+03  0.75901166463E+03  0.12699999809E+01 0. -1.
</event>
<event>
 5   0  0.2458456E-03  0.1304696E+04  0.7818609E-02  0.9025849E-01
       -1   -1    0    0    0  501  0.00000000000E+00  0.00000000000E+00  0.47885230351E+03  0.47885230353E+03  0.50400001928E-02 0. -1.
        1   -1    0    0  501    0  0.00000000000E+00  0.00000000000E+00 -0.88870452338E+03  0.88870452339E+03  0.50400001928E-02 0.  1.
    10030    2    1    2    0    0  0.00000000000E+00  0.00000000000E+00 -0.40985221987E+03  0.13675568269E+04  0.13046964523E+04 0.  0.
        5    1    3    3  502    0  0.16267408905E+03  0.36028020920E+03 -0.74884111335E+03  0.84678792589E+03  0.46999998093E+01 0.  1.
       -5    1    3    3    0  502 -0.16267408905E+03 -0.36028020920E+03  0.33898889348E+03  0.52076890104E+03  0.46999998093E+01 0. -1.
</event>
<event>
 5   0  0.4306214E-03  0.1277009E+04  0.7818609E-02  0.9047998E-01
        2   -1    0    0  501    0  0.00000000000E+00  0.00000000000E+00  0.71654781936E+03  0.71654781937E+03  0.25500000920E-02 0. -1.
       -2   -1    0    0    0  501  0.00000000000E+00  0.00000000000E+00 -0.56896145932E+03  0.56896145932E+03  0.25500000920E-02 0.  1.
    10030    2    1    2    0    0  0.00000000000E+00  0.00000000000E+00  0.14758636005E+03  0.12855092787E+04  0.12770091511E+04 0.  0.
        3    1    3    3  502    0 -0.24327316849E+03  0.16853458103E+03 -0.49574865861E+03  0.57736685238E+03  0.10100000352E+00 0.  1.
       -3    1    3    3    0  502  0.24327316849E+03 -0.16853458103E+03  0.64333501866E+03  0.70814242631E+03  0.10100000352E+00 0. -1.
</event>
<event>
 5   0  0.4263540E-03  0.1276659E+04  0.7818609E-02  0.9048282E-01
       -2   -1    0    0    0  501  0.00000000000E+00  0.00000000000E+00  0.16619810153E+03  0.16619810155E+03  0.25500000920E-02 0.  1.
        2   -1    0    0  501    0  0.00000000000E+00  0.00000000000E+00 -0.24516812522E+04  0.24516812522E+04  0.25500000920E-02 0. -1.
    10030    2    1    2    0    0  0.00000000000E+00  0.00000000000E+00 -0.22854831507E+04  0.26178793538E+04  0.12766593433E+04 0.  0.
        2    1    3    3  502    0  0.88802556344E+02 -0.10985250209E+03  0.13374657496E+03  0.19452920745E+03  0.25500000920E-02 0.  1.
       -2    1    3    3    0  502 -0.88802556344E+02  0.10985250209E+03 -0.24192297257E+04  0.24233501463E+04  0.25500000920E-02 0. -1.
</event>
<event>
 5   0  0.2356769E-03  0.1337594E+04  0.7818609E-02  0.9000272E-01
        1   -1    0    0  501    0  0.00000000000E+00  0.00000000000E+00  0.19741890120E+04  0.19741890120E+04  0.50400001928E-02 0.  1.
       -1   -1    0    0    0  501  0.00000000000E+00  0.00000000000E+00 -0.22656882926E+03  0.22656882931E+03  0.50400001928E-02 0. -1.
    10030    2    1    2    0    0  0.00000000000E+00  0.00000000000E+00  0.17476201827E+04  0.22007578413E+04  0.13375943978E+04 0.  0.
        1    1    3    3  502    0 -0.20107986670E+03 -0.53685640224E+03  0.30709255617E+03  0.65034894288E+03  0.50400001928E-02 0.  1.
       -1    1    3    3    0  502  0.20107986670E+03  0.53685640224E+03  0.14405276266E+04  0.15504088984E+04  0.50400001928E-02 0. -1.
</event>
<event>
 5   0  0.4388937E-03  0.1286532E+04  0.7818609E-02  0.9040314E-01
       -2   -1    0    0    0  501  0.00000000000E+00  0.00000000000E+00  0.45542561604E+03  0.45542561605E+03  0.25500000920E-02 0. -1.
        2   -1    0    0  501    0  0.00000000000E+00  0.00000000000E+00 -0.90858060078E+03  0.90858060079E+03  0.25500000920E-02 0.  1.
    10030    2    1    2    0    0  0.00000000000E+00  0.00000000000E+00 -0.45315498474E+03  0.13640062168E+04  0.12865315851E+04 0.  0.
        5    1    3    3  502    0  0.40552202641E+03  0.20933263721E+03 -0.70719807168E+03  0.84167658248E+03  0.46999998093E+01 0.  1.
       -5    1    3    3    0  502 -0.40552202641E+03 -0.20933263721E+03  0.25404308694E+03  0.52232963435E+03  0.46999998093E+01 0. -1.
</event>
<event>
 5   0  0.4263540E-03  0.1295259E+04  0.7818609E-02  0.9033333E-01
        2   -1    0    0  501    0  0.00000000000E+00  0.00000000000E+00  0.27902993487E+03  0.27902993488E+03  0.25500000920E-02 0.  1.
       -2   -1    0    0    0  501  0.00000000000E+00  0.00000000000E+00 -0.15031512632E+04  0.15031512632E+04  0.25500000920E-02 0. -1.
    10030    2    1    2    0    0  0.00000000000E+00  0.00000000000E+00 -0.12241213283E+04  0.17821811980E+04  0.12952593548E+04 0.  0.
        2    1    3    3  502    0 -0.20113681056E+03 -0.48546203427E+03 -0.91213470023E+02  0.53333788577E+03  0.25500000920E-02 0.  1.
       -2    1    3    3    0  502  0.20113681056E+03  0.48546203427E+03 -0.11329078583E+04  0.12488433123E+04  0.25500000920E-02 0. -1.
</event>
<event>
 5   0  0.2356769E-03  0.1260571E+04  0.7818609E-02  0.9061431E-01
       -1   -1    0    0    0  501  0.00000000000E+00  0.00000000000E+00  0.86392971335E+03  0.86392971336E+03  0.50400001928E-02 0. -1.
        1   -1    0    0  501    0  0.00000000000E+00  0.00000000000E+00 -0.45982887668E+03  0.45982887671E+03  0.50400001928E-02 0.  1.
    10030    2    1    2    0    0  0.00000000000E+00  0.00000000000E+00  0.40410083666E+03  0.13237585901E+04  0.12605710288E+04 0.  0.
        1    1    3    3  502    0  0.33231456645E+03  0.53349742133E+03  0.15271281463E+03  0.64681811463E+03  0.50400001928E-02 0.  1.
       -1    1    3    3    0  502 -0.33231456645E+03 -0.53349742133E+03  0.25138802203E+03  0.67694047544E+03  0.50400001928E-02 0. -1.
</event>
<event>
 5   0  0.4388937E-03  0.1265849E+04  0.7818609E-02  0.9057094E-01
       -2   -1    0    0    0  501  0.00000000000E+00  0.00000000000E+00  0.45832549670E+03  0.45832549670E+03  0.25500000920E-02 0.  1.
        2   -1    0    0  501    0  0.00000000000E+00  0.00000000000E+00 -0.87403718202E+03  0.87403718203E+03  0.25500000920E-02 0. -1.
    10030    2    1    2    0    0  0.00000000000E+00  0.00000000000E+00 -0.41571168533E+03  0.13323626787E+04  0.12658491626E+04 0.  0.
        5    1    3    3  502    0 -0.28282390193E+03 -0.56451568898E+03 -0.16192685659E+03  0.65185099485E+03  0.46999998093E+01 0.  1.
       -5    1    3    3    0  502  0.28282390193E+03  0.56451568898E+03 -0.25378482873E+03  0.68051168388E+03  0.46999998093E+01 0. -1.
</event>
<event>
 5   0  0.4388937E-03  0.1381961E+04  0.7818609E-02  0.8966980E-01
        2   -1    0    0  501    0  0.00000000000E+00  0.00000000000E+00  0.95370034799E+03  0.95370034799E+03  0.25500000920E-02 0.  1.
       -2   -1    0    0    0  501  0.00000000000E+00  0.00000000000E+00 -0.50063352680E+03  0.50063352680E+03  0.25500000920E-02 0. -1.
    10030    2    1    2    0    0  0.00000000000E+00  0.00000000000E+00  0.45306682119E+03  0.14543338748E+04  0.13819614593E+04 0.  0.
        5    1    3    3  502    0  0.58957085115E+03  0.14884717408E+03  0.57186935134E+03  0.83474901303E+03  0.46999998093E+01 0.  1.
       -5    1    3    3    0  502 -0.58957085115E+03 -0.14884717408E+03 -0.11880253015E+03  0.61958486176E+03  0.46999998093E+01 0. -1.
</event>
<event>
 5   0  0.4306214E-03  0.1375001E+04  0.7818609E-02  0.8972116E-01
        2   -1    0    0  501    0  0.00000000000E+00  0.00000000000E+00  0.15609345555E+04  0.15609345555E+04  0.25500000920E-02 0.  1.
       -2   -1    0    0    0  501  0.00000000000E+00  0.00000000000E+00 -0.30280380807E+03  0.30280380808E+03  0.25500000920E-02 0. -1.
    10030    2    1    2    0    0  0.00000000000E+00  0.00000000000E+00  0.12581307475E+04  0.18637383636E+04  0.13750009856E+04 0.  0.
        3    1    3    3  502    0  0.21816601119E+03  0.46756708678E+03  0.12449232049E+04  0.13476086915E+04  0.10100000352E+00 0.  1.
       -3    1    3    3    0  502 -0.21816601119E+03 -0.46756708678E+03  0.13207542575E+02  0.51612967214E+03  0.10100000352E+00 0. -1.
</event>
<event>
 5   0  0.1661750E-03  0.1247771E+04  0.7818609E-02  0.9072040E-01
       -4   -1    0    0    0  501  0.00000000000E+00  0.00000000000E+00  0.22530983328E+03  0.22531341254E+03  0.12699999809E+01 0.  1.
        4   -1    0    0  501    0  0.00000000000E+00  0.00000000000E+00 -0.17275286279E+04  0.17275290947E+04  0.12699999809E+01 0. -1.
    10030    2    1    2    0    0  0.00000000000E+00  0.00000000000E+00 -0.15022187946E+04  0.19528425073E+04  0.12477710332E+04 0.  0.
        5    1    3    3  502    0  0.16594064431E+03  0.10318230877E+03  0.17615439145E+03  0.26312610266E+03  0.46999998093E+01 0.  1.
       -5    1    3    3    0  502 -0.16594064431E+03 -0.10318230877E+03 -0.16783731861E+04  0.16897164046E+04  0.46999998093E+01 0. -1.
</event>
<event>
 5   0  0.2458456E-03  0.1173026E+04  0.7818609E-02  0.9136800E-01
       -1   -1    0    0    0  501  0.00000000000E+00  0.00000000000E+00  0.75554749681E+03  0.75554749683E+03  0.50400001928E-02 0.  1.
        1   -1    0    0  501    0  0.00000000000E+00  0.00000000000E+00 -0.45529596910E+03  0.45529596913E+03  0.50400001928E-02 0. -1.
    10030    2    1    2    0    0  0.00000000000E+00  0.00000000000E+00  0.30025152771E+03  0.12108434660E+04  0.11730263932E+04 0.  0.
        5    1    3    3  502    0  0.38300110534E+03 -0.83115116867E+02  0.60051522818E+03  0.71710431502E+03  0.46999998093E+01 0.  1.
       -5    1    3    3    0  502 -0.38300110534E+03  0.83115116867E+02 -0.30026370047E+03  0.49373915094E+03  0.46999998093E+01 0. -1.
</event>
<event>
 5   0  0.4263540E-03  0.1272675E+04  0.7818609E-02  0.9051519E-01
        2   -1    0    0  501    0  0.00000000000E+00  0.00000000000E+00  0.98139852322E+03  0.98139852322E+03  0.25500000920E-02 0.  1.
       -2   -1    0    0    0  501  0.00000000000E+00  0.00000000000E+00 -0.41260028810E+03  0.41260028810E+03  0.25500000920E-02 0. -1.
    10030    2    1    2    0    0  0.00000000000E+00  0.00000000000E+00  0.56879823512E+03  0.13939988113E+04  0.12726748421E+04 0.  0.
        2    1    3    3  502    0 -0.20251286769E+03  0.50263844836E+03  0.64976748773E+03  0.84608194608E+03  0.25500000920E-02 0.  1.
       -2    1    3    3    0  502  0.20251286769E+03 -0.50263844836E+03 -0.80969252607E+02  0.54791686525E+03  0.25500000920E-02 0. -1.
</event>
<event>
 5   0  0.4453011E-03  0.1304924E+04  0.7818609E-02  0.9025670E-01
       -2   -1    0    0    0  501  0.00000000000E+00  0.00000000000E+00  0.10642414544E+04  0.10642414544E+04  0.25500000920E-02 0.  1.
        2   -1    0    0  501    0  0.00000000000E+00  0.00000000000E+00 -0.40000921064E+03  0.40000921064E+03  0.25500000920E-02 0. -1.
    10030    2    1    2    0    0  0.00000000000E+00  0.00000000000E+00  0.66423224378E+03  0.14642506651E+04  0.13049235749E+04 0.  0.
        1    1    3    3  502    0  0.22677404052E+02 -0.34838682761E+03 -0.28638092489E+03  0.45155473696E+03  0.50400001928E-02 0. -1.
       -1    1    3    3    0  502 -0.22677404052E+02  0.34838682761E+03  0.95061316867E+03  0.10126959281E+04  0.50400001928E-02 0.  1.
</event>
<event>
 5   0  0.2462055E-03  0.1312321E+04  0.7818609E-02  0.9019851E-01
       -1   -1    0    0    0  501  0.00000000000E+00  0.00000000000E+00  0.86778876024E+03  0.86778876025E+03  0.50400001928E-02 0. -1.
        1   -1    0    0  501    0  0.00000000000E+00  0.00000000000E+00 -0.49614253382E+03  0.49614253385E+03  0.50400001928E-02 0.  1.
    10030    2    1    2    0    0  0.00000000000E+00  0.00000000000E+00  0.37164622642E+03  0.13639312941E+04  0.13123214764E+04 0.  0.
        2    1    3    3  502    0  0.12673244370E+03 -0.43353030742E+03 -0.30885431408E+03  0.54717513382E+03  0.25500000920E-02 0.  1.
       -2    1    3    3    0  502 -0.12673244370E+03  0.43353030742E+03  0.68050054050E+03  0.81675616028E+03  0.25500000920E-02 0. -1.
</event>
<event>
 5   0  0.2370801E-03  0.1294336E+04  0.7818609E-02  0.9034069E-01
       -1   -1    0    0    0  501  0.00000000000E+00  0.00000000000E+00  0.27645936360E+03  0.27645936365E+03  0.50400001928E-02 0.  1.
        1   -1    0    0  501    0  0.00000000000E+00  0.00000000000E+00 -0.15149661438E+04  0.15149661438E+04  0.50400001928E-02 0. -1.
    10030    2    1    2    0    0  0.00000000000E+00  0.00000000000E+00 -0.12385067802E+04  0.17914255075E+04  0.12943362408E+04 0.  0.
        3    1    3    3  502    0  0.39788343476E+03  0.31656250830E+03 -0.11733980686E+04  0.12788221483E+04  0.10100000352E+00 0. -1.
       -3    1    3    3    0  502 -0.39788343476E+03 -0.31656250830E+03 -0.65108711590E+02  0.51260335918E+03  0.10100000352E+00 0.  1.
</event>
<event>
 5   0  0.4263540E-03  0.1280568E+04  0.7818609E-02  0.9045118E-01
       -2   -1    0    0    0  501  0.00000000000E+00  0.00000000000E+00  0.40385233171E+03  0.40385233171E+03  0.25500000920E-02 0.  1.
        2   -1    0    0  501    0  0.00000000000E+00  0.00000000000E+00 -0.10151332042E+04  0.10151332042E+04  0.25500000920E-02 0. -1.
    10030    2    1    2    0    0  0.00000000000E+00  0.00000000000E+00 -0.61128087248E+03  0.14189855359E+04  0.12805684855E+04 0.  0.
        2    1    3    3  502    0 -0.87264697019E+02  0.84059636672E+02  0.39103275130E+03  0.40937484346E+03  0.25500000920E-02 0.  1.
       -2    1    3    3    0  502  0.87264697019E+02 -0.84059636672E+02 -0.10023136238E+04  0.10096106924E+04  0.25500000920E-02 0. -1.
</event>
<event>
 5   0  0.2356769E-03  0.1305350E+04  0.7818609E-02  0.9025333E-01
        1   -1    0    0  501    0  0.00000000000E+00  0.00000000000E+00  0.58273883070E+03  0.58273883072E+03  0.50400001928E-02 0. -1.
       -1   -1    0    0    0  501  0.00000000000E+00  0.00000000000E+00 -0.73100471256E+03  0.73100471257E+03  0.50400001928E-02 0.  1.
    10030    2    1    2    0    0  0.00000000000E+00  0.00000000000E+00 -0.14826588185E+03  0.13137435433E+04  0.13053502694E+04 0.  0.
        1    1    3    3  502    0 -0.57611219904E+03 -0.14231690119E+03 -0.34758841878E+03  0.68773328779E+03  0.50400001928E-02 0.  1.
       -1    1    3    3    0  502  0.57611219904E+03  0.14231690119E+03  0.19932253693E+03  0.62601025550E+03  0.50400001928E-02 0. -1.
</event>
<event>
 5   0  0.2356769E-03  0.1310118E+04  0.7818609E-02  0.9021580E-01
       -1   -1    0    0    0  501  0.00000000000E+00  0.00000000000E+00  0.36169058551E+03  0.36169058554E+03  0.50400001928E-02 0.  1.
        1   -1    0    0  501    0  0.00000000000E+00  0.00000000000E+00 -0.11863794631E+04  0.11863794631E+04  0.50400001928E-02 0. -1.
    10030    2    1    2    0    0  0.00000000000E+00  0.00000000000E+00 -0.82468887759E+03  0.15480700486E+04  0.13101179835E+04 0.  0.
        1    1    3    3  502    0  0.17153122037E+03  0.33682417707E+03 -0.10445187770E+04  0.11108073467E+04  0.50400001928E-02 0. -1.
       -1    1    3    3    0  502 -0.17153122037E+03 -0.33682417707E+03  0.21982989945E+03  0.43726270197E+03  0.50400001928E-02 0.  1.
</event>
<event>
 5   0  0.2462055E-03  0.1351079E+04  0.7818609E-02  0.8990011E-01
        1   -1    0    0  501    0  0.00000000000E+00  0.00000000000E+00  0.15013376351E+04  0.15013376351E+04  0.50400001928E-02 0. -1.
       -1   -1    0    0    0  501  0.00000000000E+00  0.00000000000E+00 -0.30396482763E+03  0.30396482767E+03  0.50400001928E-02 0.  1.
    10030    2    1    2    0    0  0.00000000000E+00  0.00000000000E+00  0.11973728075E+04  0.18053024628E+04  0.13510793249E+04 0.  0.
        2    1    3    3  502    0  0.47733379434E+03 -0.18898445491E+02 -0.39545541282E+02  0.47934179069E+03  0.25500000920E-02 0.  1.
       -2    1    3    3    0  502 -0.47733379434E+03  0.18898445491E+02  0.12369183488E+04  0.13259606721E+04  0.25500000920E-02 0. -1.
</event>
<event>
 5   0  0.4310889E-03  0.1267254E+04  0.7818609E-02  0.9055944E-01
       -2   -1    0    0    0  501  0.00000000000E+00  0.00000000000E+00  0.15985502107E+03  0.15985502109E+03  0.25500000920E-02 0.  1.
        2   -1    0    0  501    0  0.00000000000E+00  0.00000000000E+00 -0.25115438489E+04  0.25115438489E+04  0.25500000920E-02 0. -1.
    10030    2    1    2    0    0  0.00000000000E+00  0.00000000000E+00 -0.23516888278E+04  0.26713988700E+04  0.12672535578E+04 0.  0.
        4    1    3    3  502    0 -0.37760258141E+03 -0.48188416937E+03 -0.15202027584E+04  0.16388453562E+04  0.12699999809E+01 0. -1.
       -4    1    3    3    0  502  0.37760258141E+03  0.48188416937E+03 -0.83148606944E+03  0.10325535137E+04  0.12699999809E+01 0.  1.
</event>
<event>
 5   0  0.4388937E-03  0.1282497E+04  0.7818609E-02  0.9043562E-01
        2   -1    0    0  501    0  0.00000000000E+00  0.00000000000E+00  0.85134229584E+03  0.85134229584E+03  0.25500000920E-02 0.  1.
       -2   -1    0    0    0  501  0.00000000000E+00  0.00000000000E+00 -0.48300144636E+03  0.48300144637E+03  0.25500000920E-02 0. -1.
    10030    2    1    2    0    0  0.00000000000E+00  0.00000000000E+00  0.36834084948E+03  0.13343437422E+04  0.12824968776E+04 0.  0.
        5    1    3    3  502    0  0.89819169269E+02 -0.23455330898E+03 -0.42967656777E+03  0.49772158965E+03  0.46999998093E+01 0. -1.
       -5    1    3    3    0  502 -0.89819169269E+02  0.23455330898E+03  0.79801741725E+03  0.83662215256E+03  0.46999998093E+01 0.  1.
</event>
<event>
 5   0  0.4310889E-03  0.1549857E+04  0.7818609E-02  0.8851959E-01
        2   -1    0    0  501    0  0.00000000000E+00  0.00000000000E+00  0.13920128414E+04  0.13920128414E+04  0.25500000920E-02 0. -1.
       -2   -1    0    0    0  501  0.00000000000E+00  0.00000000000E+00 -0.43140008301E+03  0.43140008301E+03  0.25500000920E-02 0.  1.
    10030    2    1    2    0    0  0.00000000000E+00  0.00000000000E+00  0.96061275841E+03  0.18234129244E+04  0.15498573552E+04 0.  0.
        4    1    3    3  502    0 -0.31278832991E+03  0.78348019055E+01 -0.35377992070E+03  0.47229203745E+03  0.12699999809E+01 0.  1.
       -4    1    3    3    0  502  0.31278832991E+03 -0.78348019055E+01  0.13143926791E+04  0.13511208870E+04  0.12699999809E+01 0. -1.
</event>
<event>
 5   0  0.4453011E-03  0.1283800E+04  0.7818609E-02  0.9042511E-01
        2   -1    0    0  501    0  0.00000000000E+00  0.00000000000E+00  0.13342117308E+04  0.13342117308E+04  0.25500000920E-02 0. -1.
       -2   -1    0    0    0  501  0.00000000000E+00  0.00000000000E+00 -0.30882337097E+03  0.30882337098E+03  0.25500000920E-02 0.  1.
    10030    2    1    2    0    0  0.00000000000E+00  0.00000000000E+00  0.10253883598E+04  0.16430351018E+04  0.12838002404E+04 0.  0.
        1    1    3    3  502    0  0.28099122286E+03 -0.60406599038E+01  0.12512778127E+04  0.12824541791E+04  0.50400001928E-02 0. -1.
       -1    1    3    3    0  502 -0.28099122286E+03  0.60406599038E+01 -0.22588945285E+03  0.36058092272E+03  0.50400001928E-02 0.  1.
</event>
<event>
 5   0  0.4388937E-03  0.1238596E+04  0.7818609E-02  0.9079728E-01
       -2   -1    0    0    0  501  0.00000000000E+00  0.00000000000E+00  0.39492193620E+03  0.39492193621E+03  0.25500000920E-02 0.  1.
        2   -1    0    0  501    0  0.00000000000E+00  0.00000000000E+00 -0.97115425717E+03  0.97115425718E+03  0.25500000920E-02 0. -1.
    10030    2    1    2    0    0  0.00000000000E+00  0.00000000000E+00 -0.57623232097E+03  0.13660761934E+04  0.12385961724E+04 0.  0.
        5    1    3    3  502    0  0.26887916426E+03 -0.46665725261E+03 -0.62526265859E+03  0.82525176680E+03  0.46999998093E+01 0. -1.
       -5    1    3    3    0  502 -0.26887916426E+03  0.46665725261E+03  0.49030337618E+02  0.54082442658E+03  0.46999998093E+01 0.  1.
</event>
<event>
 5   0  0.4306214E-03  0.1312943E+04  0.7818609E-02  0.9019364E-01
        2   -1    0    0  501    0  0.00000000000E+00  0.00000000000E+00  0.21661717527E+04  0.21661717527E+04  0.25500000920E-02 0. -1.
       -2   -1    0    0    0  501  0.00000000000E+00  0.00000000000E+00 -0.19894765587E+03  0.19894765588E+03  0.25500000920E-02 0.  1.
    10030    2    1    2    0    0  0.00000000000E+00  0.00000000000E+00  0.19672240968E+04  0.23651194086E+04  0.13129429423E+04 0.  0.
        3    1    3    3  502    0 -0.57102156952E+03  0.57115673807E+01  0.15669294793E+04  0.16677428633E+04  0.10100000352E+00 0. -1.
       -3    1    3    3    0  502  0.57102156952E+03 -0.57115673807E+01  0.40029461755E+03  0.69737654528E+03  0.10100000352E+00 0.  1.
</event>
<event>
 5   0  0.4310889E-03  0.1136857E+04  0.7818609E-02  0.9169995E-01
        2   -1    0    0  501    0  0.00000000000E+00  0.00000000000E+00  0.62947904114E+03  0.62947904115E+03  0.25500000920E-02 0. -1.
       -2   -1    0    0    0  501  0.00000000000E+00  0.00000000000E+00 -0.51329931626E+03  0.51329931627E+03  0.25500000920E-02 0.  1.
    10030    2    1    2    0    0  0.00000000000E+00  0.00000000000E+00  0.11617972488E+03  0.11427783574E+04  0.11368573550E+04 0.  0.
        4    1    3    3  502    0 -0.28126959034E+02  0.50120445590E+03  0.32614803562E+03  0.59864111659E+03  0.12699999809E+01 0. -1.
       -4    1    3    3    0  502  0.28126959034E+02 -0.50120445590E+03 -0.20996831074E+03  0.54413724082E+03  0.12699999809E+01 0.  1.
</event>
<event>
 5   0  0.2370801E-03  0.1278564E+04  0.7818609E-02  0.9046739E-01
        1   -1    0    0  501    0  0.00000000000E+00  0.00000000000E+00  0.58320917656E+03  0.58320917658E+03  0.50400001928E-02 0.  1.
       -1   -1    0    0    0  501  0.00000000000E+00  0.00000000000E+00 -0.70074577252E+03  0.70074577254E+03  0.50400001928E-02 0. -1.
    10030    2    1    2    0    0  0.00000000000E+00  0.00000000000E+00 -0.11753659596E+03  0.12839549491E+04  0.12785638271E+04 0.  0.
        3    1    3    3  502    0  0.22024996564E+03 -0.15472470798E+03  0.52353147128E+03  0.58867222989E+03  0.10100000352E+00 0.  1.
       -3    1    3    3    0  502 -0.22024996564E+03  0.15472470798E+03 -0.64106806724E+03  0.69528271923E+03  0.10100000352E+00 0. -1.
</event>
<event>
 5   0  0.2462055E-03  0.1296325E+04  0.7818609E-02  0.9032484E-01
        1   -1    0    0  501    0  0.00000000000E+00  0.00000000000E+00  0.77667121668E+03  0.77667121669E+03  0.50400001928E-02 0.  1.
       -1   -1    0    0    0  501  0.00000000000E+00  0.00000000000E+00 -0.54091713246E+03  0.54091713248E+03  0.50400001928E-02 0. -1.
    10030    2    1    2    0    0  0.00000000000E+00  0.00000000000E+00  0.23575408421E+03  0.13175883492E+04  0.12963252176E+04 0.  0.
        2    1    3    3  502    0 -0.18479518704E+02  0.21387885631E+03  0.73948773726E+03  0.77001803314E+03  0.25500000920E-02 0.  1.
       -2    1    3    3    0  502  0.18479518704E+02 -0.21387885631E+03 -0.50373365305E+03  0.54757031604E+03  0.25500000920E-02 0. -1.
</event>
<event>
 5   0  0.2370801E-03  0.1301099E+04  0.7818609E-02  0.9028694E-01
       -1   -1    0    0    0  501  0.00000000000E+00  0.00000000000E+00  0.10661149763E+04  0.10661149763E+04  0.50400001928E-02 0.  1.
        1   -1    0    0  501    0  0.00000000000E+00  0.00000000000E+00 -0.39696906032E+03  0.39696906035E+03  0.50400001928E-02 0. -1.
    10030    2    1    2    0    0  0.00000000000E+00  0.00000000000E+00  0.66914591602E+03  0.14630840367E+04  0.13010990130E+04 0.  0.
        3    1    3    3  502    0  0.40258019774E+03  0.19981419935E+03  0.86346772906E+03  0.97343364396E+03  0.10100000352E+00 0.  1.
       -3    1    3    3    0  502 -0.40258019774E+03 -0.19981419935E+03 -0.19432181304E+03  0.48965039273E+03  0.10100000352E+00 0. -1.
</event>
<event>
 5   0  0.4310889E-03  0.9518832E+03  0.7818609E-02  0.9362952E-01
        2   -1    0    0  501    0  0.00000000000E+00  0.00000000000E+00  0.43078551061E+03  0.43078551062E+03  0.25500000920E-02 0. -1.
       -2   -1    0    0    0  501  0.00000000000E+00  0.00000000000E+00 -0.52583102461E+03  0.52583102462E+03  0.25500000920E-02 0.  1.
    10030    2    1    2    0    0  0.00000000000E+00  0.00000000000E+00 -0.95045514002E+02  0.95661653524E+03  0.95188315762E+03 0.  0.
        4    1    3    3  502    0 -0.10914286812E+02  0.29415198682E+02  0.42974339524E+03  0.43088905095E+03  0.12699999809E+01 0. -1.
       -4    1    3    3    0  502  0.10914286812E+02 -0.29415198682E+02 -0.52478890925E+03  0.52572748429E+03  0.12699999809E+01 0.  1.
</event>
<event>
 5   0  0.2356769E-03  0.1308155E+04  0.7818609E-02  0.9023123E-01
       -1   -1    0    0    0  501  0.00000000000E+00  0.00000000000E+00  0.30247914023E+03  0.30247914027E+03  0.50400001928E-02 0. -1.
        1   -1    0    0  501    0  0.00000000000E+00  0.00000000000E+00 -0.14143707957E+04  0.14143707957E+04  0.50400001928E-02 0.  1.
    10030    2    1    2    0    0  0.00000000000E+00  0.00000000000E+00 -0.11118916554E+04  0.17168499359E+04  0.13081554377E+04 0.  0.
        1    1    3    3  502    0  0.52197142610E+02 -0.19097821034E+03 -0.13741012396E+04  0.13882908323E+04  0.50400001928E-02 0.  1.
       -1    1    3    3    0  502 -0.52197142610E+02  0.19097821034E+03  0.26220958414E+03  0.32855910360E+03  0.50400001928E-02 0. -1.
</event>
<event>
 5   0  0.2458456E-03  0.1222907E+04  0.7818609E-02  0.9093039E-01
        1   -1    0    0  501    0  0.00000000000E+00  0.00000000000E+00  0.75615756448E+03  0.75615756449E+03  0.50400001928E-02 0. -1.
       -1   -1    0    0    0  501  0.00000000000E+00  0.00000000000E+00 -0.49444086431E+03  0.49444086433E+03  0.50400001928E-02 0.  1.
    10030    2    1    2    0    0  0.00000000000E+00  0.00000000000E+00  0.26171670017E+03  0.12505984288E+04  0.12229067009E+04 0.  0.
        5    1    3    3  502    0 -0.42582291277E+03  0.36408357052E+03 -0.11957698130E+03  0.57288981822E+03  0.46999998093E+01 0. -1.
       -5    1    3    3    0  502  0.42582291277E+03 -0.36408357052E+03  0.38129368147E+03  0.67770861061E+03  0.46999998093E+01 0.  1.
</event>
<event>
 5   0  0.2356769E-03  0.1137681E+04  0.7818609E-02  0.9169224E-01
        1   -1    0    0  501    0  0.00000000000E+00  0.00000000000E+00  0.13950696010E+04  0.13950696010E+04  0.50400001928E-02 0. -1.
       -1   -1    0    0    0  501  0.00000000000E+00  0.00000000000E+00 -0.23194525129E+03  0.23194525135E+03  0.50400001928E-02 0.  1.
    10030    2    1    2    0    0  0.00000000000E+00  0.00000000000E+00  0.11631243497E+04  0.16270148523E+04  0.11376814479E+04 0.  0.
        1    1    3    3  502    0 -0.33931148935E+02 -0.30446637860E+03 -0.10389202391E+03  0.32348825515E+03  0.50400001928E-02 0.  1.
       -1    1    3    3    0  502  0.33931148935E+02  0.30446637860E+03  0.12670163736E+04  0.13035265972E+04  0.50400001928E-02 0. -1.
</event>
<event>
 5   0  0.2462055E-03  0.6526575E+03  0.7818609E-02  0.9801805E-01
        1   -1    0    0  501    0  0.00000000000E+00  0.00000000000E+00  0.37600749231E+03  0.37600749234E+03  0.50400001928E-02 0. -1.
       -1   -1    0    0    0  501  0.00000000000E+00  0.00000000000E+00 -0.28321365541E+03  0.28321365545E+03  0.50400001928E-02 0.  1.
    10030    2    1    2    0    0  0.00000000000E+00  0.00000000000E+00  0.92793836902E+02  0.65922114780E+03  0.65265751013E+03 0.  0.
        2    1    3    3  502    0  0.41569606470E+01 -0.27502500685E+03  0.22376019158E+03  0.35457673085E+03  0.25500000920E-02 0. -1.
       -2    1    3    3    0  502 -0.41569606470E+01  0.27502500685E+03 -0.13096635467E+03  0.30464441695E+03  0.25500000920E-02 0.  1.
</event>
<event>
 5   0  0.4388937E-03  0.1307654E+04  0.7818609E-02  0.9023518E-01
       -2   -1    0    0    0  501  0.00000000000E+00  0.00000000000E+00  0.69985176685E+03  0.69985176686E+03  0.25500000920E-02 0.  1.
        2   -1    0    0  501    0  0.00000000000E+00  0.00000000000E+00 -0.61082881472E+03  0.61082881473E+03  0.25500000920E-02 0. -1.
    10030    2    1    2    0    0  0.00000000000E+00  0.00000000000E+00  0.89022952131E+02  0.13106805816E+04  0.13076538154E+04 0.  0.
        5    1    3    3  502    0 -0.11108666140E+03 -0.11640756957E+02  0.69020113050E+03  0.69919628439E+03  0.46999998093E+01 0.  1.
       -5    1    3    3    0  502  0.11108666140E+03  0.11640756957E+02 -0.60117817837E+03  0.61148429719E+03  0.46999998093E+01 0. -1.
</event>
<event>
 5   0  0.4310889E-03  0.1304874E+04  0.7818609E-02  0.9025709E-01
        2   -1    0    0  501    0  0.00000000000E+00  0.00000000000E+00  0.95917680026E+03  0.95917680026E+03  0.25500000920E-02 0. -1.
       -2   -1    0    0    0  501  0.00000000000E+00  0.00000000000E+00 -0.44379114229E+03  0.44379114230E+03  0.25500000920E-02 0.  1.
    10030    2    1    2    0    0  0.00000000000E+00  0.00000000000E+00  0.51538565796E+03  0.14029679426E+04  0.13048741975E+04 0.  0.
        4    1    3    3  502    0 -0.52661897642E+03  0.38031348639E+03  0.19223365496E+03  0.67743729249E+03  0.12699999809E+01 0.  1.
       -4    1    3    3    0  502  0.52661897642E+03 -0.38031348639E+03  0.32315200300E+03  0.72553065007E+03  0.12699999809E+01 0. -1.
</event>
<event>
 5   0  0.2370801E-03  0.1397786E+04  0.7818609E-02  0.8955423E-01
       -1   -1    0    0    0  501  0.00000000000E+00  0.00000000000E+00  0.13486089206E+04  0.13486089207E+04  0.50400001928E-02 0.  1.
        1   -1    0    0  501    0  0.00000000000E+00  0.00000000000E+00 -0.36218905506E+03  0.36218905510E+03  0.50400001928E-02 0. -1.
    10030    2    1    2    0    0  0.00000000000E+00  0.00000000000E+00  0.98641986558E+03  0.17107979757E+04  0.13977859502E+04 0.  0.
        3    1    3    3  502    0  0.20027186109E+03  0.71784549768E+02 -0.32159342115E+03  0.38559587479E+03  0.10100000352E+00 0. -1.
       -3    1    3    3    0  502 -0.20027186109E+03 -0.71784549768E+02  0.13080132867E+04  0.13252021010E+04  0.10100000352E+00 0.  1.
</event>
<event>
 5   0  0.2462055E-03  0.1326221E+04  0.7818609E-02  0.9009026E-01
       -1   -1    0    0    0  501  0.00000000000E+00  0.00000000000E+00  0.10053355936E+04  0.10053355936E+04  0.50400001928E-02 0. -1.
        1   -1    0    0  501    0  0.00000000000E+00  0.00000000000E+00 -0.43738201857E+03  0.43738201860E+03  0.50400001928E-02 0.  1.
    10030    2    1    2    0    0  0.00000000000E+00  0.00000000000E+00  0.56795357504E+03  0.14427176122E+04  0.13262212656E+04 0.  0.
        2    1    3    3  502    0 -0.20702215924E+03 -0.51345248655E+03 -0.11308373756E+03  0.56504828296E+03  0.25500000920E-02 0.  1.
       -2    1    3    3    0  502  0.20702215924E+03  0.51345248655E+03  0.68103731260E+03  0.87766932926E+03  0.25500000920E-02 0. -1.
</event>
<event>
 5   0  0.4310889E-03  0.1301451E+04  0.7818609E-02  0.9028416E-01
        2   -1    0    0  501    0  0.00000000000E+00  0.00000000000E+00  0.21504403838E+04  0.21504403838E+04  0.25500000920E-02 0. -1.
       -2   -1    0    0    0  501  0.00000000000E+00  0.00000000000E+00 -0.19691012128E+03  0.19691012129E+03  0.25500000920E-02 0.  1.
    10030    2    1    2    0    0  0.00000000000E+00  0.00000000000E+00  0.19535302626E+04  0.23473505051E+04  0.13014506933E+04 0.  0.
        4    1    3    3  502    0  0.23159195295E+03 -0.24146794585E+03  0.19834172973E+04  0.20114391339E+04  0.12699999809E+01 0. -1.
       -4    1    3    3    0  502 -0.23159195295E+03  0.24146794585E+03 -0.29887034718E+02  0.33591137118E+03  0.12699999809E+01 0.  1.
</event>
<event>
 5   0  0.2356769E-03  0.1328809E+04  0.7818609E-02  0.9007026E-01
        1   -1    0    0  501    0  0.00000000000E+00  0.00000000000E+00  0.55543280662E+03  0.55543280664E+03  0.50400001928E-02 0.  1.
       -1   -1    0    0    0  501  0.00000000000E+00  0.00000000000E+00 -0.79475597104E+03  0.79475597105E+03  0.50400001928E-02 0. -1.
    10030    2    1    2    0    0  0.00000000000E+00  0.00000000000E+00 -0.23932316442E+03  0.13501887777E+04  0.13288093010E+04 0.  0.
        1    1    3    3  502    0  0.12355146086E+02  0.24318403214E+03 -0.74778423676E+03  0.78643015449E+03  0.50400001928E-02 0. -1.
       -1    1    3    3    0  502 -0.12355146086E+02 -0.24318403214E+03  0.50846107234E+03  0.56375862320E+03  0.50400001928E-02 0.  1.
</event>
<event>
 5   0  0.4310889E-03  0.1294658E+04  0.7818609E-02  0.9033812E-01
       -2   -1    0    0    0  501  0.00000000000E+00  0.00000000000E+00  0.15558808036E+03  0.15558808038E+03  0.25500000920E-02 0. -1.
        2   -1    0    0  501    0  0.00000000000E+00  0.00000000000E+00 -0.26932343010E+04  0.26932343010E+04  0.25500000920E-02 0.  1.
    10030    2    1    2    0    0  0.00000000000E+00  0.00000000000E+00 -0.25376462207E+04  0.28488223814E+04  0.12946584953E+04 0.  0.
        4    1    3    3  502    0  0.43262376463E+03 -0.38414883983E+03 -0.62993670219E+03  0.85531018615E+03  0.12699999809E+01 0. -1.
       -4    1    3    3    0  502 -0.43262376463E+03  0.38414883983E+03 -0.19077095185E+04  0.19935121953E+04  0.12699999809E+01 0.  1.
</event>
<event>
 5   0  0.2356769E-03  0.1268546E+04  0.7818609E-02  0.9054887E-01
        1   -1    0    0  501    0  0.00000000000E+00  0.00000000000E+00  0.13075993344E+04  0.13075993344E+04  0.50400001928E-02 0.  1.
       -1   -1    0    0    0  501  0.00000000000E+00  0.00000000000E+00 -0.30766489041E+03  0.30766489045E+03  0.50400001928E-02 0. -1.
    10030    2    1    2    0    0  0.00000000000E+00  0.00000000000E+00  0.99993444396E+03  0.16152642248E+04  0.12685462639E+04 0.  0.
        1    1    3    3  502    0 -0.23780507131E+03 -0.56491316292E+03  0.70773401544E+03  0.93625080519E+03  0.50400001928E-02 0.  1.
       -1    1    3    3    0  502  0.23780507131E+03  0.56491316292E+03  0.29220042851E+03  0.67901341963E+03  0.50400001928E-02 0. -1.
</event>
<event>
 5   0  0.2356769E-03  0.1361414E+04  0.7818609E-02  0.8982232E-01
       -1   -1    0    0    0  501  0.00000000000E+00  0.00000000000E+00  0.33243889846E+03  0.33243889850E+03  0.50400001928E-02 0. -1.
        1   -1    0    0  501    0  0.00000000000E+00  0.00000000000E+00 -0.13938265733E+04  0.13938265733E+04  0.50400001928E-02 0.  1.
    10030    2    1    2    0    0  0.00000000000E+00  0.00000000000E+00 -0.10613876749E+04  0.17262654718E+04  0.13614142217E+04 0.  0.
        1    1    3    3  502    0  0.45146745470E+03  0.15848541710E+03  0.83232391933E+02  0.48566255897E+03  0.50400001928E-02 0. -1.
       -1    1    3    3    0  502 -0.45146745470E+03 -0.15848541710E+03 -0.11446200668E+04  0.12406029129E+04  0.50400001928E-02 0.  1.
</event>
<event>
 5   0  0.4306214E-03  0.1358769E+04  0.7818609E-02  0.8984217E-01
       -2   -1    0    0    0  501  0.00000000000E+00  0.00000000000E+00  0.10235751959E+04  0.10235751959E+04  0.25500000920E-02 0. -1.
        2   -1    0    0  501    0  0.00000000000E+00  0.00000000000E+00 -0.45093240379E+03  0.45093240380E+03  0.25500000920E-02 0.  1.
    10030    2    1    2    0    0  0.00000000000E+00  0.00000000000E+00  0.57264279213E+03  0.14745075997E+04  0.13587688892E+04 0.  0.
        3    1    3    3  502    0 -0.55425259509E+03  0.19681680116E+03 -0.82688041959E+02  0.59394453855E+03  0.10100000352E+00 0.  1.
       -3    1    3    3    0  502  0.55425259509E+03 -0.19681680116E+03  0.65533083409E+03  0.88056306117E+03  0.10100000352E+00 0. -1.
</event>
<event>
 5   0  0.2458456E-03  0.1166757E+04  0.7818609E-02  0.9142462E-01
       -1   -1    0    0    0  501  0.00000000000E+00  0.00000000000E+00  0.55559367807E+03  0.55559367809E+03  0.50400001928E-02 0.  1.
        1   -1    0    0  501    0  0.00000000000E+00  0.00000000000E+00 -0.61255289301E+03  0.61255289303E+03  0.50400001928E-02 0. -1.
    10030    2    1    2    0    0  0.00000000000E+00  0.00000000000E+00 -0.56959214938E+02  0.11681465711E+04  0.11667570696E+04 0.  0.
        5    1    3    3  502    0 -0.57582036168E+03  0.86525887083E+02  0.69547269821E+01  0.58234549564E+03  0.46999998093E+01 0. -1.
       -5    1    3    3    0  502  0.57582036168E+03 -0.86525887083E+02 -0.63913941920E+02  0.58580107548E+03  0.46999998093E+01 0.  1.
</event>
<event>
 5   0  0.4306214E-03  0.1301355E+04  0.7818609E-02  0.9028492E-01
        2   -1    0    0  501    0  0.00000000000E+00  0.00000000000E+00  0.16359881804E+04  0.16359881804E+04  0.25500000920E-02 0.  1.
       -2   -1    0    0    0  501  0.00000000000E+00  0.00000000000E+00 -0.25879222380E+03  0.25879222382E+03  0.25500000920E-02 0. -1.
    10030    2    1    2    0    0  0.00000000000E+00  0.00000000000E+00  0.13771959566E+04  0.18947804042E+04  0.13013547085E+04 0.  0.
        3    1    3    3  502    0 -0.62230803828E+03 -0.12429118667E+03  0.47929024815E+03  0.79525765999E+03  0.10100000352E+00 0. -1.
       -3    1    3    3    0  502  0.62230803828E+03  0.12429118667E+03  0.89790570840E+03  0.10995227442E+04  0.10100000352E+00 0.  1.
</event>
<event>
 5   0  0.4310889E-03  0.1250040E+04  0.7818609E-02  0.9070150E-01
       -2   -1    0    0    0  501  0.00000000000E+00  0.00000000000E+00  0.21016080993E+03  0.21016080995E+03  0.25500000920E-02 0. -1.
        2   -1    0    0  501    0  0.00000000000E+00  0.00000000000E+00 -0.18588146028E+04  0.18588146028E+04  0.25500000920E-02 0.  1.
    10030    2    1    2    0    0  0.00000000000E+00  0.00000000000E+00 -0.16486537928E+04  0.20689754127E+04  0.12500399713E+04 0.  0.
        4    1    3    3  502    0  0.45625408311E+03  0.42717742506E+03 -0.82460732763E+03  0.10347111667E+04  0.12699999809E+01 0.  1.
       -4    1    3    3    0  502 -0.45625408311E+03 -0.42717742506E+03 -0.82404646519E+03  0.10342642460E+04  0.12699999809E+01 0. -1.
</event>
<event>
 5   0  0.4306214E-03  0.1261767E+04  0.7818609E-02  0.9060446E-01
        2   -1    0    0  501    0  0.00000000000E+00  0.00000000000E+00  0.76190679393E+03  0.76190679393E+03  0.25500000920E-02 0. -1.
       -2   -1    0    0    0  501  0.00000000000E+00  0.00000000000E+00 -0.52239214894E+03  0.52239214894E+03  0.25500000920E-02 0.  1.
    10030    2    1    2    0    0  0.00000000000E+00  0.00000000000E+00  0.23951464499E+03  0.12842989429E+04  0.12617672168E+04 0.  0.
        3    1    3    3  502    0  0.20884322616E+03  0.58895892170E+03  0.31455563151E+02  0.62568168202E+03  0.10100000352E+00 0.  1.
       -3    1    3    3    0  502 -0.20884322616E+03 -0.58895892170E+03  0.20805908184E+03  0.65861726086E+03  0.10100000352E+00 0. -1.
</event>
<event>
 5   0  0.4453011E-03  0.1275997E+04  0.7818609E-02  0.9048819E-01
       -2   -1    0    0    0  501  0.00000000000E+00  0.00000000000E+00  0.16249747185E+03  0.16249747187E+03  0.25500000920E-02 0.  1.
        2   -1    0    0  501    0  0.00000000000E+00  0.00000000000E+00 -0.25049145247E+04  0.25049145247E+04  0.25500000920E-02 0. -1.
    10030    2    1    2    0    0  0.00000000000E+00  0.00000000000E+00 -0.23424170529E+04  0.26674119966E+04  0.12759973001E+04 0.  0.
        1    1    3    3  502    0 -0.47000526880E+03 -0.10616400643E+03 -0.29704297359E+03  0.56604794598E+03  0.50400001928E-02 0.  1.
       -1    1    3    3    0  502  0.47000526880E+03  0.10616400643E+03 -0.20453740793E+04  0.21013640506E+04  0.50400001928E-02 0. -1.
</event>
<event>
 5   0  0.2462055E-03  0.1322023E+04  0.7818609E-02  0.9012281E-01
       -1   -1    0    0    0  501  0.00000000000E+00  0.00000000000E+00  0.45874825771E+03  0.45874825774E+03  0.50400001928E-02 0.  1.
        1   -1    0    0  501    0  0.00000000000E+00  0.00000000000E+00 -0.95245348043E+03  0.95245348045E+03  0.50400001928E-02 0. -1.
    10030    2    1    2    0    0  0.00000000000E+00  0.00000000000E+00 -0.49370522272E+03  0.14112017382E+04  0.13220232596E+04 0.  0.
        2    1    3    3  502    0 -0.47870394260E+03 -0.12241360081E+03 -0.71555434645E+03  0.86957494045E+03  0.25500000920E-02 0. -1.
       -2    1    3    3    0  502  0.47870394260E+03  0.12241360081E+03  0.22184912373E+03  0.54162679774E+03  0.25500000920E-02 0.  1.
</event>
<event>
 5   0  0.2511542E-03  0.1337486E+04  0.7818609E-02  0.9000356E-01
       -1   -1    0    0    0  501  0.00000000000E+00  0.00000000000E+00  0.32900241357E+03  0.32900241361E+03  0.50400001928E-02 0.  1.
        1   -1    0    0  501    0  0.00000000000E+00  0.00000000000E+00 -0.13593120201E+04  0.13593120201E+04  0.50400001928E-02 0. -1.
    10030    2    1    2    0    0  0.00000000000E+00  0.00000000000E+00 -0.10303096065E+04  0.16883144337E+04  0.13374856043E+04 0.  0.
        4    1    3    3  502    0 -0.18167282137E+03  0.52840337057E+02  0.29451132405E+03  0.35005092220E+03  0.12699999809E+01 0.  1.
       -4    1    3    3    0  502  0.18167282137E+03 -0.52840337057E+02 -0.13248209305E+04  0.13382635115E+04  0.12699999809E+01 0. -1.
</event>
<event>
 5   0  0.4388937E-03  0.7546720E+03  0.7818609E-02  0.9628049E-01
        2   -1    0    0  501    0  0.00000000000E+00  0.00000000000E+00  0.89954195021E+03  0.89954195022E+03  0.25500000920E-02 0. -1.
       -2   -1    0    0    0  501  0.00000000000E+00  0.00000000000E+00 -0.15828330709E+03  0.15828330711E+03  0.25500000920E-02 0.  1.
    10030    2    1    2    0    0  0.00000000000E+00  0.00000000000E+00  0.74125864312E+03  0.10578252573E+04  0.75467204735E+03 0.  0.
        5    1    3    3  502    0  0.19010799706E+03  0.16783681809E+02  0.82685614912E+03  0.84860822754E+03  0.46999998093E+01 0. -1.
       -5    1    3    3    0  502 -0.19010799706E+03 -0.16783681809E+02 -0.85597505994E+02  0.20921702979E+03  0.46999998093E+01 0.  1.
</event>
<event>
 5   0  0.2356769E-03  0.1318660E+04  0.7818609E-02  0.9014897E-01
       -1   -1    0    0    0  501  0.00000000000E+00  0.00000000000E+00  0.70306884805E+03  0.70306884807E+03  0.50400001928E-02 0.  1.
        1   -1    0    0  501    0  0.00000000000E+00  0.00000000000E+00 -0.61831266313E+03  0.61831266315E+03  0.50400001928E-02 0. -1.
    10030    2    1    2    0    0  0.00000000000E+00  0.00000000000E+00  0.84756184916E+02  0.13213815112E+04  0.13186604898E+04 0.  0.
        1    1    3    3  502    0 -0.77067847447E+02  0.16388195530E+03 -0.59290140196E+03  0.61994259480E+03  0.50400001928E-02 0. -1.
       -1    1    3    3    0  502  0.77067847447E+02 -0.16388195530E+03  0.67765758688E+03  0.70143891641E+03  0.50400001928E-02 0.  1.
</event>
<event>
 5   0  0.2511542E-03  0.1291388E+04  0.7818609E-02  0.9036423E-01
        1   -1    0    0  501    0  0.00000000000E+00  0.00000000000E+00  0.67109341675E+03  0.67109341677E+03  0.50400001928E-02 0.  1.
       -1   -1    0    0    0  501  0.00000000000E+00  0.00000000000E+00 -0.62125550980E+03  0.62125550982E+03  0.50400001928E-02 0. -1.
    10030    2    1    2    0    0  0.00000000000E+00  0.00000000000E+00  0.49837906955E+02  0.12923489266E+04  0.12913875991E+04 0.  0.
        4    1    3    3  502    0 -0.25570614123E+03  0.58616119982E+03 -0.64300579545E+02  0.64273381759E+03  0.12699999809E+01 0. -1.
       -4    1    3    3    0  502  0.25570614123E+03 -0.58616119982E+03  0.11413848650E+03  0.64961510900E+03  0.12699999809E+01 0.  1.
</event>
<event>
 5   0  0.2458456E-03  0.1228962E+04  0.7818609E-02  0.9087878E-01
        1   -1    0    0  501    0  0.00000000000E+00  0.00000000000E+00  0.32014794305E+03  0.32014794309E+03  0.50400001928E-02 0. -1.
       -1   -1    0    0    0  501  0.00000000000E+00  0.00000000000E+00 -0.11794128761E+04  0.11794128761E+04  0.50400001928E-02 0.  1.
    10030    2    1    2    0    0  0.00000000000E+00  0.00000000000E+00 -0.85926493305E+03  0.14995608192E+04  0.12289615231E+04 0.  0.
        5    1    3    3  502    0 -0.55688450855E+03 -0.25174897803E+03 -0.50744368144E+03  0.79436709626E+03  0.46999998093E+01 0.  1.
       -5    1    3    3    0  502  0.55688450855E+03  0.25174897803E+03 -0.35182125161E+03  0.70519372294E+03  0.46999998093E+01 0. -1.
</event>
<event>
 5   0  0.4310889E-03  0.1302943E+04  0.7818609E-02  0.9027235E-01
       -2   -1    0    0    0  501  0.00000000000E+00  0.00000000000E+00  0.21020341622E+03  0.21020341624E+03  0.25500000920E-02 0.  1.
        2   -1    0    0  501    0  0.00000000000E+00  0.00000000000E+00 -0.20190678470E+04  0.20190678470E+04  0.25500000920E-02 0. -1.
    10030    2    1    2    0    0  0.00000000000E+00  0.00000000000E+00 -0.18088644308E+04  0.22292712632E+04  0.13029427601E+04 0.  0.
        4    1    3    3  502    0 -0.44638496657E+03  0.25805976671E+03 -0.15857237321E+04  0.16674458759E+04  0.12699999809E+01 0. -1.
       -4    1    3    3    0  502  0.44638496657E+03 -0.25805976671E+03 -0.22314069870E+03  0.56182538737E+03  0.12699999809E+01 0.  1.
</event>
<event>
 5   0  0.2356769E-03  0.1370204E+04  0.7818609E-02  0.8975673E-01
        1   -1    0    0  501    0  0.00000000000E+00  0.00000000000E+00  0.24866535892E+04  0.24866535892E+04  0.50400001928E-02 0.  1.
       -1   -1    0    0    0  501  0.00000000000E+00  0.00000000000E+00 -0.18875363210E+03  0.18875363216E+03  0.50400001928E-02 0. -1.
    10030    2    1    2    0    0  0.00000000000E+00  0.00000000000E+00  0.22978999571E+04  0.26754072214E+04  0.13702042137E+04 0.  0.
        1    1    3    3  502    0 -0.20362819023E+03  0.28628135075E+03  0.22973869078E+04  0.23240929534E+04  0.50400001928E-02 0.  1.
       -1    1    3    3    0  502  0.20362819023E+03 -0.28628135075E+03  0.51304926359E+00  0.35131426798E+03  0.50400001928E-02 0. -1.
</event>
<event>
 5   0  0.4263540E-03  0.1264039E+04  0.7818609E-02  0.9058579E-01
       -2   -1    0    0    0  501  0.00000000000E+00  0.00000000000E+00  0.96060595462E+03  0.96060595462E+03  0.25500000920E-02 0. -1.
        2   -1    0    0  501    0  0.00000000000E+00  0.00000000000E+00 -0.41583004046E+03  0.41583004047E+03  0.25500000920E-02 0.  1.
    10030    2    1    2    0    0  0.00000000000E+00  0.00000000000E+00  0.54477591415E+03  0.13764359951E+04  0.12640392604E+04 0.  0.
        2    1    3    3  502    0 -0.54405094049E+03 -0.23954035019E+03  0.38643477691E+02  0.59570489640E+03  0.25500000920E-02 0.  1.
       -2    1    3    3    0  502  0.54405094049E+03  0.23954035019E+03  0.50613243646E+03  0.78073109869E+03  0.25500000920E-02 0. -1.
</event>
<event>
 5   0  0.4388937E-03  0.1349180E+04  0.7818609E-02  0.8991449E-01
       -2   -1    0    0    0  501  0.00000000000E+00  0.00000000000E+00  0.28984671910E+03  0.28984671911E+03  0.25500000920E-02 0.  1.
        2   -1    0    0  501    0  0.00000000000E+00  0.00000000000E+00 -0.15700417503E+04  0.15700417503E+04  0.25500000920E-02 0. -1.
    10030    2    1    2    0    0  0.00000000000E+00  0.00000000000E+00 -0.12801950311E+04  0.18598884694E+04  0.13491796770E+04 0.  0.
        5    1    3    3  502    0  0.42248737199E+03  0.44163262096E+03 -0.24651635429E+03  0.65903516926E+03  0.46999998093E+01 0. -1.
       -5    1    3    3    0  502 -0.42248737199E+03 -0.44163262096E+03 -0.10336786769E+04  0.12008533001E+04  0.46999998093E+01 0.  1.
</event>
<event>
 5   0  0.2370801E-03  0.1307862E+04  0.7818609E-02  0.9023353E-01
       -1   -1    0    0    0  501  0.00000000000E+00  0.00000000000E+00  0.39112221143E+03  0.39112221146E+03  0.50400001928E-02 0.  1.
        1   -1    0    0  501    0  0.00000000000E+00  0.00000000000E+00 -0.10933309762E+04  0.10933309762E+04  0.50400001928E-02 0. -1.
    10030    2    1    2    0    0  0.00000000000E+00  0.00000000000E+00 -0.70220876478E+03  0.14844531877E+04  0.13078624228E+04 0.  0.
        3    1    3    3  502    0  0.39847352811E+03 -0.10639400020E+03  0.22488476030E+03  0.46975951454E+03  0.10100000352E+00 0.  1.
       -3    1    3    3    0  502 -0.39847352811E+03  0.10639400020E+03 -0.92709352508E+03  0.10146936731E+04  0.10100000352E+00 0. -1.
</event>
<event>
 5   0  0.1661750E-03  0.1272212E+04  0.7818609E-02  0.9051896E-01
        3   -1    0    0  501    0  0.00000000000E+00  0.00000000000E+00  0.62653893695E+03  0.62653894509E+03  0.10100000352E+00 0. -1.
       -3   -1    0    0    0  501  0.00000000000E+00  0.00000000000E+00 -0.64581907169E+03  0.64581907958E+03  0.10100000352E+00 0.  1.
    10030    2    1    2    0    0  0.00000000000E+00  0.00000000000E+00 -0.19280134740E+02  0.12723580247E+04  0.12722119396E+04 0.  0.
        3    1    3    3  502    0 -0.58566140251E+03 -0.19867187921E+03 -0.15852287479E+03  0.63843504447E+03  0.10100000352E+00 0.  1.
       -3    1    3    3    0  502  0.58566140251E+03  0.19867187921E+03  0.13924274005E+03  0.63392298020E+03  0.10100000352E+00 0. -1.
</event>
<event>
 5   0  0.2458456E-03  0.1241113E+04  0.7818609E-02  0.9077612E-01
        1   -1    0    0  501    0  0.00000000000E+00  0.00000000000E+00  0.11186204352E+04  0.11186204353E+04  0.50400001928E-02 0. -1.
       -1   -1    0    0    0  501  0.00000000000E+00  0.00000000000E+00 -0.34425474450E+03  0.34425474454E+03  0.50400001928E-02 0.  1.
    10030    2    1    2    0    0  0.00000000000E+00  0.00000000000E+00  0.77436569074E+03  0.14628751798E+04  0.12411130362E+04 0.  0.
        5    1    3    3  502    0 -0.16126994939E+03 -0.59790665593E+03  0.43385524743E+03  0.75614339348E+03  0.46999998093E+01 0.  1.
       -5    1    3    3    0  502  0.16126994939E+03  0.59790665593E+03  0.34051044331E+03  0.70673178631E+03  0.46999998093E+01 0. -1.
</event>
<event>
 5   0  0.4263540E-03  0.1294805E+04  0.7818609E-02  0.9033695E-01
        2   -1    0    0  501    0  0.00000000000E+00  0.00000000000E+00  0.14769353788E+04  0.14769353788E+04  0.25500000920E-02 0.  1.
       -2   -1    0    0    0  501  0.00000000000E+00  0.00000000000E+00 -0.28378367088E+03  0.28378367089E+03  0.25500000920E-02 0. -1.
    10030    2    1    2    0    0  0.00000000000E+00  0.00000000000E+00  0.11931517079E+04  0.17607190496E+04  0.12948052262E+04 0.  0.
        2    1    3    3  502    0 -0.45017065454E+03  0.44556941808E+03  0.77873472200E+03  0.10037995277E+04  0.25500000920E-02 0.  1.
       -2    1    3    3    0  502  0.45017065454E+03 -0.44556941808E+03  0.41441698587E+03  0.75691952196E+03  0.25500000920E-02 0. -1.
</event>
<event>
 5   0  0.2511542E-03  0.1311949E+04  0.7818609E-02  0.9020143E-01
       -1   -1    0    0    0  501  0.00000000000E+00  0.00000000000E+00  0.10157919724E+04  0.10157919724E+04  0.50400001928E-02 0.  1.
        1   -1    0    0  501    0  0.00000000000E+00  0.00000000000E+00 -0.42361290104E+03  0.42361290107E+03  0.50400001928E-02 0. -1.
    10030    2    1    2    0    0  0.00000000000E+00  0.00000000000E+00  0.59217907136E+03  0.14394048735E+04  0.13119490605E+04 0.  0.
        4    1    3    3  502    0  0.31269837940E+03 -0.16896255117E+03 -0.30880970216E+03  0.47084356768E+03  0.12699999809E+01 0. -1.
       -4    1    3    3    0  502 -0.31269837940E+03  0.16896255117E+03  0.90098877352E+03  0.96856130579E+03  0.12699999809E+01 0.  1.
</event>
<event>
 5   0  0.4306214E-03  0.1331387E+04  0.7818609E-02  0.9005039E-01
       -2   -1    0    0    0  501  0.00000000000E+00  0.00000000000E+00  0.87978468185E+03  0.87978468185E+03  0.25500000920E-02 0.  1.
        2   -1    0    0  501    0  0.00000000000E+00  0.00000000000E+00 -0.50370026544E+03  0.50370026545E+03  0.25500000920E-02 0. -1.
    10030    2    1    2    0    0  0.00000000000E+00  0.00000000000E+00  0.37608441641E+03  0.13834849473E+04  0.13313869126E+04 0.  0.
        3    1    3    3  502    0 -0.33488626259E+03 -0.74210925852E+02  0.78088577581E+03  0.85290015562E+03  0.10100000352E+00 0.  1.
       -3    1    3    3    0  502  0.33488626259E+03  0.74210925852E+02 -0.40480135940E+03  0.53058479168E+03  0.10100000352E+00 0. -1.
</event>
<event>
 5   0  0.4388937E-03  0.1307759E+04  0.7818609E-02  0.9023435E-01
        2   -1    0    0  501    0  0.00000000000E+00  0.00000000000E+00  0.92280130892E+03  0.92280130892E+03  0.25500000920E-02 0.  1.
       -2   -1    0    0    0  501  0.00000000000E+00  0.00000000000E+00 -0.46332649329E+03  0.46332649329E+03  0.25500000920E-02 0. -1.
    10030    2    1    2    0    0  0.00000000000E+00  0.00000000000E+00  0.45947481563E+03  0.13861278022E+04  0.13077588378E+04 0.  0.
        5    1    3    3  502    0 -0.20213961989E+03  0.37530609776E+03 -0.29577769267E+03  0.51886571136E+03  0.46999998093E+01 0. -1.
       -5    1    3    3    0  502  0.20213961989E+03 -0.37530609776E+03  0.75525250830E+03  0.86726209085E+03  0.46999998093E+01 0.  1.
</event>
<event>
 5   0  0.4310889E-03  0.1226323E+04  0.7818609E-02  0.9090123E-01
        2   -1    0    0  501    0  0.00000000000E+00  0.00000000000E+00  0.93261001012E+03  0.93261001013E+03  0.25500000920E-02 0.  1.
       -2   -1    0    0    0  501  0.00000000000E+00  0.00000000000E+00 -0.40313430193E+03  0.40313430194E+03  0.25500000920E-02 0. -1.
    10030    2    1    2    0    0  0.00000000000E+00  0.00000000000E+00  0.52947570820E+03  0.13357443121E+04  0.12263230984E+04 0.  0.
        4    1    3    3  502    0 -0.30162741665E+03  0.49664052492E+03  0.47799995522E+03  0.75240712354E+03  0.12699999809E+01 0.  1.
       -4    1    3    3    0  502  0.30162741665E+03 -0.49664052492E+03  0.51475752976E+02  0.58333718852E+03  0.12699999809E+01 0. -1.
</event>
<event>
 5   0  0.2511542E-03  0.1388385E+04  0.7818609E-02  0.8962269E-01
       -1   -1    0    0    0  501  0.00000000000E+00  0.00000000000E+00  0.60879039713E+03  0.60879039715E+03  0.50400001928E-02 0. -1.
        1   -1    0    0  501    0  0.00000000000E+00  0.00000000000E+00 -0.79157467125E+03  0.79157467127E+03  0.50400001928E-02 0.  1.
    10030    2    1    2    0    0  0.00000000000E+00  0.00000000000E+00 -0.18278427412E+03  0.14003650684E+04  0.13883847572E+04 0.  0.
        4    1    3    3  502    0  0.21871530464E+03  0.10138660201E+03  0.56521355221E+03  0.61447831536E+03  0.12699999809E+01 0. -1.
       -4    1    3    3    0  502 -0.21871530464E+03 -0.10138660201E+03 -0.74799782633E+03  0.78588675306E+03  0.12699999809E+01 0.  1.
</event>
<event>
 5   0  0.4453011E-03  0.1234545E+04  0.7818609E-02  0.9083145E-01
        2   -1    0    0  501    0  0.00000000000E+00  0.00000000000E+00  0.12590435441E+04  0.12590435441E+04  0.25500000920E-02 0.  1.
       -2   -1    0    0    0  501  0.00000000000E+00  0.00000000000E+00 -0.30263085247E+03  0.30263085248E+03  0.25500000920E-02 0. -1.
    10030    2    1    2    0    0  0.00000000000E+00  0.00000000000E+00  0.95641269163E+03  0.15616743966E+04  0.12345451325E+04 0.  0.
        1    1    3    3  502    0 -0.38795204802E+03 -0.48012352154E+03  0.47797473908E+03  0.78069535590E+03  0.50400001928E-02 0. -1.
       -1    1    3    3    0  502  0.38795204802E+03  0.48012352154E+03  0.47843795255E+03  0.78097904067E+03  0.50400001928E-02 0.  1.
</event>
<event>
 5   0  0.2511542E-03  0.1283276E+04  0.7818609E-02  0.9042934E-01
       -1   -1    0    0    0  501  0.00000000000E+00  0.00000000000E+00  0.22800854266E+03  0.22800854272E+03  0.50400001928E-02 0. -1.
        1   -1    0    0  501    0  0.00000000000E+00  0.00000000000E+00 -0.18056298792E+04  0.18056298792E+04  0.50400001928E-02 0.  1.
    10030    2    1    2    0    0  0.00000000000E+00  0.00000000000E+00 -0.15776213366E+04  0.20336384220E+04  0.12832755548E+04 0.  0.
        4    1    3    3  502    0  0.64425394911E+02  0.58665867197E+03 -0.38985518581E+03  0.70732432993E+03  0.12699999809E+01 0. -1.
       -4    1    3    3    0  502 -0.64425394911E+02 -0.58665867197E+03 -0.11877661508E+04  0.13263140920E+04  0.12699999809E+01 0.  1.
</event>
<event>
 5   0  0.4310889E-03  0.1525685E+04  0.7818609E-02  0.8867550E-01
        2   -1    0    0  501    0  0.00000000000E+00  0.00000000000E+00  0.26881920021E+04  0.26881920021E+04  0.25500000920E-02 0.  1.
       -2   -1    0    0    0  501  0.00000000000E+00  0.00000000000E+00 -0.21647600034E+03  0.21647600035E+03  0.25500000920E-02 0. -1.
    10030    2    1    2    0    0  0.00000000000E+00  0.00000000000E+00  0.24717160018E+04  0.29046680025E+04  0.15256854889E+04 0.  0.
        4    1    3    3  502    0  0.58570038317E+02 -0.52570415677E+03  0.18938038977E+03  0.56183792571E+03  0.12699999809E+01 0. -1.
       -4    1    3    3    0  502 -0.58570038317E+02  0.52570415677E+03  0.22823356120E+04  0.23428300768E+04  0.12699999809E+01 0.  1.
</event>
<event>
 5   0  0.2356769E-03  0.1467748E+04  0.7818609E-02  0.8906188E-01
        1   -1    0    0  501    0  0.00000000000E+00  0.00000000000E+00  0.40037853185E+03  0.40037853188E+03  0.50400001928E-02 0.  1.
       -1   -1    0    0    0  501  0.00000000000E+00  0.00000000000E+00 -0.13451547126E+04  0.13451547126E+04  0.50400001928E-02 0. -1.
    10030    2    1    2    0    0  0.00000000000E+00  0.00000000000E+00 -0.94477618073E+03  0.17455332445E+04  0.14677480287E+04 0.  0.
        1    1    3    3  502    0  0.56405186137E+03  0.45801372102E+03 -0.59506063994E+03  0.93916358329E+03  0.50400001928E-02 0.  1.
       -1    1    3    3    0  502 -0.56405186137E+03 -0.45801372102E+03 -0.34971554079E+03  0.80636966117E+03  0.50400001928E-02 0. -1.
</event>
<event>
 5   0  0.4388937E-03  0.1294993E+04  0.7818609E-02  0.9033545E-01
        2   -1    0    0  501    0  0.00000000000E+00  0.00000000000E+00  0.11342765669E+04  0.11342765669E+04  0.25500000920E-02 0.  1.
       -2   -1    0    0    0  501  0.00000000000E+00  0.00000000000E+00 -0.36962046460E+03  0.36962046461E+03  0.25500000920E-02 0. -1.
    10030    2    1    2    0    0  0.00000000000E+00  0.00000000000E+00  0.76465610227E+03  0.15038970315E+04  0.12949931763E+04 0.  0.
        5    1    3    3  502    0  0.35707406392E+02  0.42711228059E+03  0.94593141241E+03  0.10385125161E+04  0.46999998093E+01 0.  1.
       -5    1    3    3    0  502 -0.35707406392E+02 -0.42711228059E+03 -0.18127531014E+03  0.46538451539E+03  0.46999998093E+01 0. -1.
</event>
<event>
 5   0  0.4388937E-03  0.1264111E+04  0.7818609E-02  0.9058520E-01
        2   -1    0    0  501    0  0.00000000000E+00  0.00000000000E+00  0.16576138811E+04  0.16576138811E+04  0.25500000920E-02 0. -1.
       -2   -1    0    0    0  501  0.00000000000E+00  0.00000000000E+00 -0.24100548966E+03  0.24100548967E+03  0.25500000920E-02 0.  1.
    10030    2    1    2    0    0  0.00000000000E+00  0.00000000000E+00  0.14166083915E+04  0.18986193708E+04  0.12641108260E+04 0.  0.
        5    1    3    3  502    0 -0.46327673932E+02 -0.56712950448E+03  0.29509353973E+03  0.64100266413E+03  0.46999998093E+01 0.  1.
       -5    1    3    3    0  502  0.46327673932E+02  0.56712950448E+03  0.11215148517E+04  0.12576167067E+04  0.46999998093E+01 0. -1.
</event>
<event>
 5   0  0.4263540E-03  0.1284080E+04  0.7818609E-02  0.9042286E-01
       -2   -1    0    0    0  501  0.00000000000E+00  0.00000000000E+00  0.12176878080E+04  0.12176878080E+04  0.25500000920E-02 0.  1.
        2   -1    0    0  501    0  0.00000000000E+00  0.00000000000E+00 -0.33852305692E+03  0.33852305693E+03  0.25500000920E-02 0. -1.
    10030    2    1    2    0    0  0.00000000000E+00  0.00000000000E+00  0.87916475107E+03  0.15562108649E+04  0.12840800585E+04 0.  0.
        2    1    3    3  502    0  0.12462945036E+03 -0.42413643522E+03 -0.12470086245E+03  0.45931962802E+03  0.25500000920E-02 0. -1.
       -2    1    3    3    0  502 -0.12462945036E+03  0.42413643522E+03  0.10038656135E+04  0.10968912369E+04  0.25500000920E-02 0.  1.
</event>
<event>
 5   0  0.4263540E-03  0.1298810E+04  0.7818609E-02  0.9030509E-01
       -2   -1    0    0    0  501  0.00000000000E+00  0.00000000000E+00  0.47877229010E+03  0.47877229011E+03  0.25500000920E-02 0. -1.
        2   -1    0    0  501    0  0.00000000000E+00  0.00000000000E+00 -0.88085087994E+03  0.88085087994E+03  0.25500000920E-02 0.  1.
    10030    2    1    2    0    0  0.00000000000E+00  0.00000000000E+00 -0.40207858984E+03  0.13596231701E+04  0.12988102141E+04 0.  0.
        2    1    3    3  502    0 -0.61758175586E+03 -0.14262064766E+03 -0.53073604316E+02  0.63605399283E+03  0.25500000920E-02 0.  1.
       -2    1    3    3    0  502  0.61758175586E+03  0.14262064766E+03 -0.34900498552E+03  0.72356917723E+03  0.25500000920E-02 0. -1.
</event>
<event>
 5   0  0.4453011E-03  0.1319723E+04  0.7818609E-02  0.9014069E-01
       -2   -1    0    0    0  501  0.00000000000E+00  0.00000000000E+00  0.38389579861E+03  0.38389579862E+03  0.25500000920E-02 0.  1.
        2   -1    0    0  501    0  0.00000000000E+00  0.00000000000E+00 -0.11342071529E+04  0.11342071529E+04  0.25500000920E-02 0. -1.
    10030    2    1    2    0    0  0.00000000000E+00  0.00000000000E+00 -0.75031135428E+03  0.15181029515E+04  0.13197232449E+04 0.  0.
        1    1    3    3  502    0  0.42157528634E+03 -0.44398239061E+03 -0.65826340092E+03  0.89897541137E+03  0.50400001928E-02 0. -1.
       -1    1    3    3    0  502 -0.42157528634E+03  0.44398239061E+03 -0.92047953355E+02  0.61912754014E+03  0.50400001928E-02 0.  1.
</event>
<event>
 5   0  0.2370801E-03  0.1290429E+04  0.7818609E-02  0.9037190E-01
       -1   -1    0    0    0  501  0.00000000000E+00  0.00000000000E+00  0.48719208915E+03  0.48719208918E+03  0.50400001928E-02 0.  1.
        1   -1    0    0  501    0  0.00000000000E+00  0.00000000000E+00 -0.85449147960E+03  0.85449147961E+03  0.50400001928E-02 0. -1.
    10030    2    1    2    0    0  0.00000000000E+00  0.00000000000E+00 -0.36729939044E+03  0.13416835688E+04  0.12904285941E+04 0.  0.
        3    1    3    3  502    0  0.35896371313E+03  0.29860004404E+03 -0.64662791015E+03  0.79758673387E+03  0.10100000352E+00 0. -1.
       -3    1    3    3    0  502 -0.35896371313E+03 -0.29860004404E+03  0.27932851971E+03  0.54409683492E+03  0.10100000352E+00 0.  1.
</event>
<event>
 5   0  0.2370801E-03  0.9085816E+03  0.7818609E-02  0.9414917E-01
        1   -1    0    0  501    0  0.00000000000E+00  0.00000000000E+00  0.44826235700E+03  0.44826235702E+03  0.50400001928E-02 0.  1.
       -1   -1    0    0    0  501  0.00000000000E+00  0.00000000000E+00 -0.46040035475E+03  0.46040035477E+03  0.50400001928E-02 0. -1.
    10030    2    1    2    0    0  0.00000000000E+00  0.00000000000E+00 -0.12137997750E+02  0.90866271180E+03  0.90858163795E+03 0.  0.
        3    1    3    3  502    0  0.30781320192E+03  0.25242619939E+03 -0.22497705147E+03  0.45725554924E+03  0.10100000352E+00 0. -1.
       -3    1    3    3    0  502 -0.30781320192E+03 -0.25242619939E+03  0.21283905372E+03  0.45140716256E+03  0.10100000352E+00 0.  1.
</event>
<event>
 5   0  0.1661750E-03  0.1325773E+04  0.7818609E-02  0.9009373E-01
       -3   -1    0    0    0  501  0.00000000000E+00  0.00000000000E+00  0.45464584991E+03  0.45464586113E+03  0.10100000352E+00 0.  1.
        3   -1    0    0  501    0  0.00000000000E+00  0.00000000000E+00 -0.96650717908E+03  0.96650718435E+03  0.10100000352E+00 0. -1.
    10030    2    1    2    0    0  0.00000000000E+00  0.00000000000E+00 -0.51186132917E+03  0.14211530455E+04  0.13257729664E+04 0.  0.
        4    1    3    3  502    0  0.11636062900E+03 -0.51866815316E+03  0.16861888869E+03  0.55766512497E+03  0.12699999809E+01 0.  1.
       -4    1    3    3    0  502 -0.11636062900E+03  0.51866815316E+03 -0.68048021786E+03  0.86348792051E+03  0.12699999809E+01 0. -1.
</event>
<event>
 5   0  0.4306214E-03  0.1249080E+04  0.7818609E-02  0.9070949E-01
        2   -1    0    0  501    0  0.00000000000E+00  0.00000000000E+00  0.36439879778E+03  0.36439879779E+03  0.25500000920E-02 0.  1.
       -2   -1    0    0    0  501  0.00000000000E+00  0.00000000000E+00 -0.10703937983E+04  0.10703937983E+04  0.25500000920E-02 0. -1.
    10030    2    1    2    0    0  0.00000000000E+00  0.00000000000E+00 -0.70599500049E+03  0.14347925961E+04  0.12490800026E+04 0.  0.
        3    1    3    3  502    0 -0.23339802851E+03 -0.56557108588E+03 -0.20904586606E+03  0.64656436432E+03  0.10100000352E+00 0.  1.
       -3    1    3    3    0  502  0.23339802851E+03  0.56557108588E+03 -0.49694913443E+03  0.78822823174E+03  0.10100000352E+00 0. -1.
</event>
<event>
 5   0  0.2356769E-03  0.1299752E+04  0.7818609E-02  0.9029762E-01
       -1   -1    0    0    0  501  0.00000000000E+00  0.00000000000E+00  0.37538996919E+03  0.37538996922E+03  0.50400001928E-02 0. -1.
        1   -1    0    0  501    0  0.00000000000E+00  0.00000000000E+00 -0.11250673822E+04  0.11250673822E+04  0.50400001928E-02 0.  1.
    10030    2    1    2    0    0  0.00000000000E+00  0.00000000000E+00 -0.74967741297E+03  0.15004573514E+04  0.12997522994E+04 0.  0.
        1    1    3    3  502    0 -0.33893482251E+02  0.18857768821E+02 -0.11237300222E+04  0.11243991935E+04  0.50400001928E-02 0.  1.
       -1    1    3    3    0  502  0.33893482251E+02 -0.18857768821E+02  0.37405260924E+03  0.37605815786E+03  0.50400001928E-02 0. -1.
</event>
<event>
 5   0  0.4263540E-03  0.1292934E+04  0.7818609E-02  0.9035187E-01
       -2   -1    0    0    0  501  0.00000000000E+00  0.00000000000E+00  0.11913317032E+04  0.11913317032E+04  0.25500000920E-02 0.  1.
        2   -1    0    0  501    0  0.00000000000E+00  0.00000000000E+00 -0.35080057169E+03  0.35080057170E+03  0.25500000920E-02 0. -1.
    10030    2    1    2    0    0  0.00000000000E+00  0.00000000000E+00  0.84053113147E+03  0.15421322749E+04  0.12929344029E+04 0.  0.
        2    1    3    3  502    0  0.39473429359E+03  0.15860623753E+03 -0.16032815982E+03  0.45461656366E+03  0.25500000920E-02 0. -1.
       -2    1    3    3    0  502 -0.39473429359E+03 -0.15860623753E+03  0.10008592913E+04  0.10875157112E+04  0.25500000920E-02 0.  1.
</event>
<event>
 5   0  0.2511542E-03  0.1301028E+04  0.7818609E-02  0.9028750E-01
       -1   -1    0    0    0  501  0.00000000000E+00  0.00000000000E+00  0.64630837934E+03  0.64630837936E+03  0.50400001928E-02 0. -1.
        1   -1    0    0  501    0  0.00000000000E+00  0.00000000000E+00 -0.65474727255E+03  0.65474727257E+03  0.50400001928E-02 0.  1.
    10030    2    1    2    0    0  0.00000000000E+00  0.00000000000E+00 -0.84388932109E+01  0.13010556519E+04  0.13010282835E+04 0.  0.
        4    1    3    3  502    0  0.22930245947E+03 -0.53298632273E+03  0.28991765986E+03  0.64861999702E+03  0.12699999809E+01 0. -1.
       -4    1    3    3    0  502 -0.22930245947E+03  0.53298632273E+03 -0.29835655307E+03  0.65243565491E+03  0.12699999809E+01 0.  1.
</event>
<event>
 5   0  0.2356769E-03  0.9922479E+03  0.7818609E-02  0.9317088E-01
        1   -1    0    0  501    0  0.00000000000E+00  0.00000000000E+00  0.78920531982E+03  0.78920531984E+03  0.50400001928E-02 0.  1.
       -1   -1    0    0    0  501  0.00000000000E+00  0.00000000000E+00 -0.31188204462E+03  0.31188204466E+03  0.50400001928E-02 0. -1.
    10030    2    1    2    0    0  0.00000000000E+00  0.00000000000E+00  0.47732327520E+03  0.11010873645E+04  0.99224788999E+03 0.  0.
        1    1    3    3  502    0  0.35075495705E+03 -0.28696228485E+03  0.14618108291E+02  0.45342042514E+03  0.50400001928E-02 0. -1.
       -1    1    3    3    0  502 -0.35075495705E+03  0.28696228485E+03  0.46270516691E+03  0.64766693935E+03  0.50400001928E-02 0.  1.
</event>
<event>
 5   0  0.2462055E-03  0.1322431E+04  0.7818609E-02  0.9011964E-01
        1   -1    0    0  501    0  0.00000000000E+00  0.00000000000E+00  0.81065184240E+03  0.81065184242E+03  0.50400001928E-02 0. -1.
       -1   -1    0    0    0  501  0.00000000000E+00  0.00000000000E+00 -0.53932657152E+03  0.53932657155E+03  0.50400001928E-02 0.  1.
    10030    2    1    2    0    0  0.00000000000E+00  0.00000000000E+00  0.27132527088E+03  0.13499784140E+04  0.13224312139E+04 0.  0.
        2    1    3    3  502    0 -0.18566522176E+03  0.14347434785E+03 -0.49539706413E+03  0.54815573901E+03  0.25500000920E-02 0.  1.
       -2    1    3    3    0  502  0.18566522176E+03 -0.14347434785E+03  0.76672233500E+03  0.80182267495E+03  0.25500000920E-02 0. -1.
</event>
<event>
 5   0  0.2370801E-03  0.1280521E+04  0.7818609E-02  0.9045156E-01
        1   -1    0    0  501    0  0.00000000000E+00  0.00000000000E+00  0.11544301200E+04  0.11544301200E+04  0.50400001928E-02 0.  1.
       -1   -1    0    0    0  501  0.00000000000E+00  0.00000000000E+00 -0.35509592093E+03  0.35509592097E+03  0.50400001928E-02 0. -1.
    10030    2    1    2    0    0  0.00000000000E+00  0.00000000000E+00  0.79933419910E+03  0.15095260410E+04  0.12805208732E+04 0.  0.
        3    1    3    3  502    0 -0.54797476111E+03  0.16316612802E+03  0.59977972756E+02  0.57488859056E+03  0.10100000352E+00 0. -1.
       -3    1    3    3    0  502  0.54797476111E+03 -0.16316612802E+03  0.73935622634E+03  0.93463745045E+03  0.10100000352E+00 0.  1.
</event>
<event>
 5   0  0.4310889E-03  0.1305635E+04  0.7818609E-02  0.9025109E-01
        2   -1    0    0  501    0  0.00000000000E+00  0.00000000000E+00  0.47936072728E+03  0.47936072728E+03  0.25500000920E-02 0.  1.
       -2   -1    0    0    0  501  0.00000000000E+00  0.00000000000E+00 -0.88903897987E+03  0.88903897987E+03  0.25500000920E-02 0. -1.
    10030    2    1    2    0    0  0.00000000000E+00  0.00000000000E+00 -0.40967825259E+03  0.13683997072E+04  0.13056345154E+04 0.  0.
        4    1    3    3  502    0  0.50886999889E+03  0.28716542420E+03  0.10028520365E+03  0.59285022696E+03  0.12699999809E+01 0.  1.
       -4    1    3    3    0  502 -0.50886999889E+03 -0.28716542420E+03 -0.50996345625E+03  0.77554948020E+03  0.12699999809E+01 0. -1.
</event>
<event>
 5   0  0.4310889E-03  0.1321647E+04  0.7818609E-02  0.9012573E-01
       -2   -1    0    0    0  501  0.00000000000E+00  0.00000000000E+00  0.35401680354E+03  0.35401680355E+03  0.25500000920E-02 0.  1.
        2   -1    0    0  501    0  0.00000000000E+00  0.00000000000E+00 -0.12335221646E+04  0.12335221646E+04  0.25500000920E-02 0. -1.
    10030    2    1    2    0    0  0.00000000000E+00  0.00000000000E+00 -0.87950536103E+03  0.15875389681E+04  0.13216468118E+04 0.  0.
        4    1    3    3  502    0  0.45621756763E+03 -0.35594719944E+02  0.13290342957E+03  0.47651483460E+03  0.12699999809E+01 0.  1.
       -4    1    3    3    0  502 -0.45621756763E+03  0.35594719944E+02 -0.10124087906E+04  0.11110241335E+04  0.12699999809E+01 0. -1.
</event>
<event>
 5   0  0.2462055E-03  0.1300333E+04  0.7818609E-02  0.9029301E-01
        1   -1    0    0  501    0  0.00000000000E+00  0.00000000000E+00  0.53874733925E+03  0.53874733927E+03  0.50400001928E-02 0. -1.
       -1   -1    0    0    0  501  0.00000000000E+00  0.00000000000E+00 -0.78462803044E+03  0.78462803046E+03  0.50400001928E-02 0.  1.
    10030    2    1    2    0    0  0.00000000000E+00  0.00000000000E+00 -0.24588069119E+03  0.13233753697E+04  0.13003326709E+04 0.  0.
        2    1    3    3  502    0 -0.36480689835E+03 -0.49196836033E+03 -0.34497919150E+03  0.70294209095E+03  0.25500000920E-02 0.  1.
       -2    1    3    3    0  502  0.36480689835E+03  0.49196836033E+03  0.99098500307E+02  0.62043327878E+03  0.25500000920E-02 0. -1.
</event>
<event>
 5   0  0.4310889E-03  0.8137335E+03  0.7818609E-02  0.9540348E-01
        2   -1    0    0  501    0  0.00000000000E+00  0.00000000000E+00  0.16971747708E+04  0.16971747708E+04  0.25500000920E-02 0.  1.
       -2   -1    0    0    0  501  0.00000000000E+00  0.00000000000E+00 -0.97538895041E+02  0.97538895075E+02  0.25500000920E-02 0. -1.
    10030    2    1    2    0    0  0.00000000000E+00  0.00000000000E+00  0.15996358758E+04  0.17947136659E+04  0.81373349905E+03 0.  0.
        4    1    3    3  502    0 -0.29943052978E+02  0.27320622827E+03  0.14614795535E+04  0.14870986275E+04  0.12699999809E+01 0.  1.
       -4    1    3    3    0  502  0.29943052978E+02 -0.27320622827E+03  0.13815632227E+03  0.30761503843E+03  0.12699999809E+01 0. -1.
</event>
<event>
 5   0  0.4453011E-03  0.1312599E+04  0.7818609E-02  0.9019634E-01
        2   -1    0    0  501    0  0.00000000000E+00  0.00000000000E+00  0.64581121990E+03  0.64581121991E+03  0.25500000920E-02 0. -1.
       -2   -1    0    0    0  501  0.00000000000E+00  0.00000000000E+00 -0.66695765169E+03  0.66695765169E+03  0.25500000920E-02 0.  1.
    10030    2    1    2    0    0  0.00000000000E+00  0.00000000000E+00 -0.21146431784E+02  0.13127688716E+04  0.13125985444E+04 0.  0.
        1    1    3    3  502    0 -0.55038758834E+03 -0.17325811937E+03 -0.32331790487E+03  0.66142221082E+03  0.50400001928E-02 0.  1.
       -1    1    3    3    0  502  0.55038758834E+03  0.17325811937E+03  0.30217147309E+03  0.65134666078E+03  0.50400001928E-02 0. -1.
</event>
<event>
 5   0  0.4310889E-03  0.1329815E+04  0.7818609E-02  0.9006250E-01
        2   -1    0    0  501    0  0.00000000000E+00  0.00000000000E+00  0.77686558957E+03  0.77686558957E+03  0.25500000920E-02 0. -1.
       -2   -1    0    0    0  501  0.00000000000E+00  0.00000000000E+00 -0.56908447704E+03  0.56908447704E+03  0.25500000920E-02 0.  1.
    10030    2    1    2    0    0  0.00000000000E+00  0.00000000000E+00  0.20778111253E+03  0.13459500666E+04  0.13298152470E+04 0.  0.
        4    1    3    3  502    0 -0.29880371810E+03 -0.36336029842E+03 -0.37168942963E+03  0.59955734790E+03  0.12699999809E+01 0.  1.
       -4    1    3    3    0  502  0.29880371810E+03  0.36336029842E+03  0.57947054216E+03  0.74639271871E+03  0.12699999809E+01 0. -1.
</event>
<event>
 5   0  0.2370801E-03  0.1301283E+04  0.7818609E-02  0.9028548E-01
        1   -1    0    0  501    0  0.00000000000E+00  0.00000000000E+00  0.44368184073E+03  0.44368184076E+03  0.50400001928E-02 0. -1.
       -1   -1    0    0    0  501  0.00000000000E+00  0.00000000000E+00 -0.95413962276E+03  0.95413962278E+03  0.50400001928E-02 0.  1.
    10030    2    1    2    0    0  0.00000000000E+00  0.00000000000E+00 -0.51045778203E+03  0.13978214635E+04  0.13012830963E+04 0.  0.
        3    1    3    3  502    0  0.24501793226E+03 -0.13833037074E+03  0.37494945976E+03  0.46878159752E+03  0.10100000352E+00 0. -1.
       -3    1    3    3    0  502 -0.24501793226E+03  0.13833037074E+03 -0.88540724180E+03  0.92903986601E+03  0.10100000352E+00 0.  1.
</event>
<event>
 5   0  0.4388937E-03  0.1281441E+04  0.7818609E-02  0.9044413E-01
       -2   -1    0    0    0  501  0.00000000000E+00  0.00000000000E+00  0.47631680062E+03  0.47631680063E+03  0.25500000920E-02 0. -1.
        2   -1    0    0  501    0  0.00000000000E+00  0.00000000000E+00 -0.86186972229E+03  0.86186972229E+03  0.25500000920E-02 0.  1.
    10030    2    1    2    0    0  0.00000000000E+00  0.00000000000E+00 -0.38555292166E+03  0.13381865229E+04  0.12814414207E+04 0.  0.
        5    1    3    3  502    0  0.35550715198E+03  0.17698847888E+03  0.33227083326E+03  0.51781874570E+03  0.46999998093E+01 0. -1.
       -5    1    3    3    0  502 -0.35550715198E+03 -0.17698847888E+03 -0.71782375493E+03  0.82036777722E+03  0.46999998093E+01 0.  1.
</event>
<event>
 5   0  0.2370801E-03  0.1305605E+04  0.7818609E-02  0.9025132E-01
       -1   -1    0    0    0  501  0.00000000000E+00  0.00000000000E+00  0.26046126767E+03  0.26046126772E+03  0.50400001928E-02 0.  1.
        1   -1    0    0  501    0  0.00000000000E+00  0.00000000000E+00 -0.16361388218E+04  0.16361388218E+04  0.50400001928E-02 0. -1.
    10030    2    1    2    0    0  0.00000000000E+00  0.00000000000E+00 -0.13756775541E+04  0.18966000895E+04  0.13056045215E+04 0.  0.
        3    1    3    3  502    0 -0.52566419070E+03  0.38610411306E+03 -0.72766271487E+03  0.97718589036E+03  0.10100000352E+00 0. -1.
       -3    1    3    3    0  502  0.52566419070E+03 -0.38610411306E+03 -0.64801483923E+03  0.91941419913E+03  0.10100000352E+00 0.  1.
</event>
<event>
 5   0  0.2370801E-03  0.1301608E+04  0.7818609E-02  0.9028291E-01
        1   -1    0    0  501    0  0.00000000000E+00  0.00000000000E+00  0.21831030281E+04  0.21831030281E+04  0.50400001928E-02 0. -1.
       -1   -1    0    0    0  501  0.00000000000E+00  0.00000000000E+00 -0.19401088461E+03  0.19401088467E+03  0.50400001928E-02 0.  1.
    10030    2    1    2    0    0  0.00000000000E+00  0.00000000000E+00  0.19890921435E+04  0.23771139128E+04  0.13016078515E+04 0.  0.
        3    1    3    3  502    0  0.26120242495E+03  0.51964343866E+03  0.46118882222E+03  0.74226083696E+03  0.10100000352E+00 0.  1.
       -3    1    3    3    0  502 -0.26120242495E+03 -0.51964343866E+03  0.15279033213E+04  0.16348530758E+04  0.10100000352E+00 0. -1.
</event>
<event>
 5   0  0.4306214E-03  0.1355885E+04  0.7818609E-02  0.8986385E-01
       -2   -1    0    0    0  501  0.00000000000E+00  0.00000000000E+00  0.34539326994E+03  0.34539326995E+03  0.25500000920E-02 0. -1.
        2   -1    0    0  501    0  0.00000000000E+00  0.00000000000E+00 -0.13306750059E+04  0.13306750059E+04  0.25500000920E-02 0.  1.
    10030    2    1    2    0    0  0.00000000000E+00  0.00000000000E+00 -0.98528173591E+03  0.16760682758E+04  0.13558852334E+04 0.  0.
        3    1    3    3  502    0  0.47889988040E+02  0.43919639919E+02  0.34153488357E+03  0.34766143390E+03  0.10100000352E+00 0. -1.
       -3    1    3    3    0  502 -0.47889988040E+02 -0.43919639919E+02 -0.13268166195E+04  0.13284068419E+04  0.10100000352E+00 0.  1.
</event>
<event>
 5   0  0.2356769E-03  0.1318684E+04  0.7818609E-02  0.9014879E-01
       -1   -1    0    0    0  501  0.00000000000E+00  0.00000000000E+00  0.37701254644E+03  0.37701254647E+03  0.50400001928E-02 0. -1.
        1   -1    0    0  501    0  0.00000000000E+00  0.00000000000E+00 -0.11530959848E+04  0.11530959848E+04  0.50400001928E-02 0.  1.
    10030    2    1    2    0    0  0.00000000000E+00  0.00000000000E+00 -0.77608343836E+03  0.15301085313E+04  0.13186836672E+04 0.  0.
        1    1    3    3  502    0  0.33130484070E+03  0.19352446321E+03  0.23413449272E+03  0.44948145238E+03  0.50400001928E-02 0. -1.
       -1    1    3    3    0  502 -0.33130484070E+03 -0.19352446321E+03 -0.10102179311E+04  0.10806270789E+04  0.50400001928E-02 0.  1.
</event>
<event>
 5   0  0.2511542E-03  0.1316833E+04  0.7818609E-02  0.9016322E-01
        1   -1    0    0  501    0  0.00000000000E+00  0.00000000000E+00  0.11090570076E+04  0.11090570077E+04  0.50400001928E-02 0. -1.
       -1   -1    0    0    0  501  0.00000000000E+00  0.00000000000E+00 -0.39088372984E+03  0.39088372988E+03  0.50400001928E-02 0.  1.
    10030    2    1    2    0    0  0.00000000000E+00  0.00000000000E+00  0.71817327780E+03  0.14999407375E+04  0.13168330795E+04 0.  0.
        4    1    3    3  502    0 -0.15830466188E+03  0.63830335261E+03  0.32272268012E+03  0.73255926523E+03  0.12699999809E+01 0.  1.
       -4    1    3    3    0  502  0.15830466188E+03 -0.63830335261E+03  0.39545059769E+03  0.76738147230E+03  0.12699999809E+01 0. -1.
</event>
<event>
 5   0  0.2458456E-03  0.1069832E+04  0.7818609E-02  0.9235104E-01
       -1   -1    0    0    0  501  0.00000000000E+00  0.00000000000E+00  0.28666775560E+03  0.28666775564E+03  0.50400001928E-02 0.  1.
        1   -1    0    0  501    0  0.00000000000E+00  0.00000000000E+00 -0.99814277404E+03  0.99814277405E+03  0.50400001928E-02 0. -1.
    10030    2    1    2    0    0  0.00000000000E+00  0.00000000000E+00 -0.71147501844E+03  0.12848105297E+04  0.10698324146E+04 0.  0.
        5    1    3    3  502    0 -0.36200066259E+03  0.39212270871E+03 -0.31229446721E+03  0.61834830205E+03  0.46999998093E+01 0.  1.
       -5    1    3    3    0  502  0.36200066259E+03 -0.39212270871E+03 -0.39918055123E+03  0.66646222764E+03  0.46999998093E+01 0. -1.
</event>
<event>
 5   0  0.2511542E-03  0.1296567E+04  0.7818609E-02  0.9032292E-01
        1   -1    0    0  501    0  0.00000000000E+00  0.00000000000E+00  0.86949377496E+03  0.86949377497E+03  0.50400001928E-02 0.  1.
       -1   -1    0    0    0  501  0.00000000000E+00  0.00000000000E+00 -0.48335183958E+03  0.48335183960E+03  0.50400001928E-02 0. -1.
    10030    2    1    2    0    0  0.00000000000E+00  0.00000000000E+00  0.38614193538E+03  0.13528456146E+04  0.12965668755E+04 0.  0.
        4    1    3    3  502    0 -0.55503948472E+03 -0.26878251500E+03 -0.15497854000E+02  0.61689113006E+03  0.12699999809E+01 0. -1.
       -4    1    3    3    0  502  0.55503948472E+03  0.26878251500E+03  0.40163978938E+03  0.73595448452E+03  0.12699999809E+01 0.  1.
</event>
<event>
 5   0  0.2356769E-03  0.1261719E+04  0.7818609E-02  0.9060485E-01
       -1   -1    0    0    0  501  0.00000000000E+00  0.00000000000E+00  0.60731620191E+03  0.60731620193E+03  0.50400001928E-02 0.  1.
        1   -1    0    0  501    0  0.00000000000E+00  0.00000000000E+00 -0.65531581646E+03  0.65531581648E+03  0.50400001928E-02 0. -1.
    10030    2    1    2    0    0  0.00000000000E+00  0.00000000000E+00 -0.47999614545E+02  0.12626320184E+04  0.12617193234E+04 0.  0.
        1    1    3    3  502    0 -0.91434247404E+02 -0.60963712468E+03 -0.15813507251E+03  0.63641523126E+03  0.50400001928E-02 0. -1.
       -1    1    3    3    0  502  0.91434247404E+02  0.60963712468E+03  0.11013545796E+03  0.62621678716E+03  0.50400001928E-02 0.  1.
</event>
<event>
 5   0  0.4310889E-03  0.1306500E+04  0.7818609E-02  0.9024426E-01
        2   -1    0    0  501    0  0.00000000000E+00  0.00000000000E+00  0.38394110831E+03  0.38394110832E+03  0.25500000920E-02 0. -1.
       -2   -1    0    0    0  501  0.00000000000E+00  0.00000000000E+00 -0.11114614231E+04  0.11114614231E+04  0.25500000920E-02 0.  1.
    10030    2    1    2    0    0  0.00000000000E+00  0.00000000000E+00 -0.72752031479E+03  0.14954025314E+04  0.13065002574E+04 0.  0.
        4    1    3    3  502    0 -0.60395372197E+03  0.59077825750E+02 -0.86959883986E+02  0.61303664009E+03  0.12699999809E+01 0. -1.
       -4    1    3    3    0  502  0.60395372197E+03 -0.59077825750E+02 -0.64056043081E+03  0.88236589133E+03  0.12699999809E+01 0.  1.
</event>
<event>
 5   0  0.2511542E-03  0.1275230E+04  0.7818609E-02  0.9049442E-01
        1   -1    0    0  501    0  0.00000000000E+00  0.00000000000E+00  0.26088541679E+03  0.26088541684E+03  0.50400001928E-02 0. -1.
       -1   -1    0    0    0  501  0.00000000000E+00  0.00000000000E+00 -0.15583582340E+04  0.15583582340E+04  0.50400001928E-02 0.  1.
    10030    2    1    2    0    0  0.00000000000E+00  0.00000000000E+00 -0.12974728172E+04  0.18192436509E+04  0.12752300772E+04 0.  0.
        4    1    3    3  502    0  0.60474923416E+03 -0.13971369518E+03 -0.44048319148E+03  0.76109697655E+03  0.12699999809E+01 0. -1.
       -4    1    3    3    0  502 -0.60474923416E+03  0.13971369518E+03 -0.85698962574E+03  0.10581466743E+04  0.12699999809E+01 0.  1.
</event>
<event>
 5   0  0.2511542E-03  0.1196808E+04  0.7818609E-02  0.9115655E-01
        1   -1    0    0  501    0  0.00000000000E+00  0.00000000000E+00  0.19538933712E+04  0.19538933712E+04  0.50400001928E-02 0. -1.
       -1   -1    0    0    0  501  0.00000000000E+00  0.00000000000E+00 -0.18326858504E+03  0.18326858511E+03  0.50400001928E-02 0.  1.
    10030    2    1    2    0    0  0.00000000000E+00  0.00000000000E+00  0.17706247861E+04  0.21371619563E+04  0.11968078769E+04 0.  0.
        4    1    3    3  502    0 -0.24596320015E+02 -0.20661710327E+03 -0.11658557789E+03  0.23851502299E+03  0.12699999809E+01 0.  1.
       -4    1    3    3    0  502  0.24596320015E+02  0.20661710327E+03  0.18872103640E+04  0.18986469333E+04  0.12699999809E+01 0. -1.
</event>
<event>
 5   0  0.2370801E-03  0.1333883E+04  0.7818609E-02  0.9003119E-01
        1   -1    0    0  501    0  0.00000000000E+00  0.00000000000E+00  0.64917429492E+03  0.64917429494E+03  0.50400001928E-02 0. -1.
       -1   -1    0    0    0  501  0.00000000000E+00  0.00000000000E+00 -0.68519468149E+03  0.68519468151E+03  0.50400001928E-02 0.  1.
    10030    2    1    2    0    0  0.00000000000E+00  0.00000000000E+00 -0.36020386568E+02  0.13343689764E+04  0.13338827149E+04 0.  0.
        3    1    3    3  502    0 -0.17780324005E+03  0.63016081156E+03 -0.14491905704E+03  0.67061030703E+03  0.10100000352E+00 0. -1.
       -3    1    3    3    0  502  0.17780324005E+03 -0.63016081156E+03  0.10889867047E+03  0.66375866942E+03  0.10100000352E+00 0.  1.
</event>
<event>
 5   0  0.2370801E-03  0.1310446E+04  0.7818609E-02  0.9021323E-01
        1   -1    0    0  501    0  0.00000000000E+00  0.00000000000E+00  0.64648235415E+03  0.64648235417E+03  0.50400001928E-02 0. -1.
       -1   -1    0    0    0  501  0.00000000000E+00  0.00000000000E+00 -0.66408136967E+03  0.66408136969E+03  0.50400001928E-02 0.  1.
    10030    2    1    2    0    0  0.00000000000E+00  0.00000000000E+00 -0.17599015518E+02  0.13105637239E+04  0.13104455536E+04 0.  0.
        3    1    3    3  502    0  0.89204121281E+01 -0.11924567549E+03  0.63547731513E+03  0.64663013627E+03  0.10100000352E+00 0. -1.
       -3    1    3    3    0  502 -0.89204121281E+01  0.11924567549E+03 -0.65307633065E+03  0.66393358759E+03  0.10100000352E+00 0.  1.
</event>
<event>
 5   0  0.4310889E-03  0.1294646E+04  0.7818609E-02  0.9033821E-01
       -2   -1    0    0    0  501  0.00000000000E+00  0.00000000000E+00  0.10399368309E+04  0.10399368309E+04  0.25500000920E-02 0.  1.
        2   -1    0    0  501    0  0.00000000000E+00  0.00000000000E+00 -0.40293531124E+03  0.40293531124E+03  0.25500000920E-02 0. -1.
    10030    2    1    2    0    0  0.00000000000E+00  0.00000000000E+00  0.63700151963E+03  0.14428721421E+04  0.12946463156E+04 0.  0.
        4    1    3    3  502    0 -0.46381041291E+03  0.32114779510E+03 -0.35286010596E+02  0.56524571725E+03  0.12699999809E+01 0. -1.
       -4    1    3    3    0  502  0.46381041291E+03 -0.32114779510E+03  0.67228753023E+03  0.87762642487E+03  0.12699999809E+01 0.  1.
</event>
<event>
 5   0  0.2462055E-03  0.1286543E+04  0.7818609E-02  0.9040305E-01
        1   -1    0    0  501    0  0.00000000000E+00  0.00000000000E+00  0.49203742036E+03  0.49203742039E+03  0.50400001928E-02 0. -1.
       -1   -1    0    0    0  501  0.00000000000E+00  0.00000000000E+00 -0.84098966901E+03  0.84098966903E+03  0.50400001928E-02 0.  1.
    10030    2    1    2    0    0  0.00000000000E+00  0.00000000000E+00 -0.34895224865E+03  0.13330270894E+04  0.12865432559E+04 0.  0.
        2    1    3    3  502    0 -0.16578621168E+03 -0.36338870708E+03  0.34798656753E+03  0.52974623322E+03  0.25500000920E-02 0. -1.
       -2    1    3    3    0  502  0.16578621168E+03  0.36338870708E+03 -0.69693881619E+03  0.80328085620E+03  0.25500000920E-02 0.  1.
</event>
<event>
 5   0  0.2511542E-03  0.1239452E+04  0.7818609E-02  0.9079008E-01
        1   -1    0    0  501    0  0.00000000000E+00  0.00000000000E+00  0.14718018924E+04  0.14718018924E+04  0.50400001928E-02 0. -1.
       -1   -1    0    0    0  501  0.00000000000E+00  0.00000000000E+00 -0.26094559503E+03  0.26094559508E+03  0.50400001928E-02 0.  1.
    10030    2    1    2    0    0  0.00000000000E+00  0.00000000000E+00  0.12108562973E+04  0.17327474874E+04  0.12394518476E+04 0.  0.
        4    1    3    3  502    0 -0.42252520986E+02 -0.17098676378E+03 -0.22521721186E+03  0.28591284395E+03  0.12699999809E+01 0.  1.
       -4    1    3    3    0  502  0.42252520986E+02  0.17098676378E+03  0.14360735092E+04  0.14468346435E+04  0.12699999809E+01 0. -1.
</event>
<event>
 5   0  0.4310889E-03  0.1324980E+04  0.7818609E-02  0.9009987E-01
        2   -1    0    0  501    0  0.00000000000E+00  0.00000000000E+00  0.90758800056E+03  0.90758800056E+03  0.25500000920E-02 0.  1.
       -2   -1    0    0    0  501  0.00000000000E+00  0.00000000000E+00 -0.48358204615E+03  0.48358204616E+03  0.25500000920E-02 0. -1.
    10030    2    1    2    0    0  0.00000000000E+00  0.00000000000E+00  0.42400595441E+03  0.13911700467E+04  0.13249803959E+04 0.  0.
        4    1    3    3  502    0  0.13118264053E+02 -0.35354231686E+03 -0.37609134231E+03  0.51634346061E+03  0.12699999809E+01 0. -1.
       -4    1    3    3    0  502 -0.13118264053E+02  0.35354231686E+03  0.80009729671E+03  0.87482658611E+03  0.12699999809E+01 0.  1.
</event>
<event>
 5   0  0.4388937E-03  0.1293350E+04  0.7818609E-02  0.9034855E-01
        2   -1    0    0  501    0  0.00000000000E+00  0.00000000000E+00  0.14333507886E+04  0.14333507886E+04  0.25500000920E-02 0.  1.
       -2   -1    0    0    0  501  0.00000000000E+00  0.00000000000E+00 -0.29175584901E+03  0.29175584902E+03  0.25500000920E-02 0. -1.
    10030    2    1    2    0    0  0.00000000000E+00  0.00000000000E+00  0.11415949396E+04  0.17251066376E+04  0.12933498773E+04 0.  0.
        5    1    3    3  502    0  0.22247572283E+03 -0.34987048893E+03  0.12327064157E+04  0.13005737209E+04  0.46999998093E+01 0.  1.
       -5    1    3    3    0  502 -0.22247572283E+03  0.34987048893E+03 -0.91111476123E+02  0.42453291669E+03  0.46999998093E+01 0. -1.
</event>
<event>
 5   0  0.2511542E-03  0.1319794E+04  0.7818609E-02  0.9014014E-01
       -1   -1    0    0    0  501  0.00000000000E+00  0.00000000000E+00  0.57318919513E+03  0.57318919515E+03  0.50400001928E-02 0. -1.
        1   -1    0    0  501    0  0.00000000000E+00  0.00000000000E+00 -0.75972183750E+03  0.75972183751E+03  0.50400001928E-02 0.  1.
    10030    2    1    2    0    0  0.00000000000E+00  0.00000000000E+00 -0.18653264237E+03  0.13329110327E+04  0.13197944515E+04 0.  0.
        4    1    3    3  502    0  0.13979930628E+03 -0.79297974689E+01 -0.74454424092E+03  0.75759782689E+03  0.12699999809E+01 0.  1.
       -4    1    3    3    0  502 -0.13979930628E+03  0.79297974689E+01  0.55801159855E+03  0.57531320578E+03  0.12699999809E+01 0. -1.
</event>
<event>
 5   0  0.4310889E-03  0.1358928E+04  0.7818609E-02  0.8984097E-01
       -2   -1    0    0    0  501  0.00000000000E+00  0.00000000000E+00  0.34910419862E+03  0.34910419863E+03  0.25500000920E-02 0.  1.
        2   -1    0    0  501    0  0.00000000000E+00  0.00000000000E+00 -0.13224460725E+04  0.13224460725E+04  0.25500000920E-02 0. -1.
    10030    2    1    2    0    0  0.00000000000E+00  0.00000000000E+00 -0.97334187391E+03  0.16715502712E+04  0.13589282194E+04 0.  0.
        4    1    3    3  502    0 -0.65037697289E+03 -0.10241377171E+03 -0.28014302650E+03  0.71551416177E+03  0.12699999809E+01 0. -1.
       -4    1    3    3    0  502  0.65037697289E+03  0.10241377171E+03 -0.69319884742E+03  0.95603610939E+03  0.12699999809E+01 0.  1.
</event>
<event>
 5   0  0.4306214E-03  0.1284493E+04  0.7818609E-02  0.9041953E-01
       -2   -1    0    0    0  501  0.00000000000E+00  0.00000000000E+00  0.55780562982E+03  0.55780562983E+03  0.25500000920E-02 0. -1.
        2   -1    0    0  501    0  0.00000000000E+00  0.00000000000E+00 -0.73947033943E+03  0.73947033944E+03  0.25500000920E-02 0.  1.
    10030    2    1    2    0    0  0.00000000000E+00  0.00000000000E+00 -0.18166470961E+03  0.12972759693E+04  0.12844932362E+04 0.  0.
        3    1    3    3  502    0 -0.61375902571E+03 -0.16515356659E+03 -0.18397193801E+03  0.66168083422E+03  0.10100000352E+00 0.  1.
       -3    1    3    3    0  502  0.61375902571E+03  0.16515356659E+03  0.23072284031E+01  0.63559513505E+03  0.10100000352E+00 0. -1.
</event>
<event>
 5   0  0.2458456E-03  0.1226926E+04  0.7818609E-02  0.9089609E-01
        1   -1    0    0  501    0  0.00000000000E+00  0.00000000000E+00  0.69059067507E+03  0.69059067509E+03  0.50400001928E-02 0. -1.
       -1   -1    0    0    0  501  0.00000000000E+00  0.00000000000E+00 -0.54494936791E+03  0.54494936793E+03  0.50400001928E-02 0.  1.
    10030    2    1    2    0    0  0.00000000000E+00  0.00000000000E+00  0.14564130716E+03  0.12355400430E+04  0.12269261622E+04 0.  0.
        5    1    3    3  502    0  0.38702866825E+03  0.33799611118E+03 -0.26461739383E+03  0.57799395874E+03  0.46999998093E+01 0.  1.
       -5    1    3    3    0  502 -0.38702866825E+03 -0.33799611118E+03  0.41025870100E+03  0.65754608429E+03  0.46999998093E+01 0. -1.
</event>
<event>
 5   0  0.4263540E-03  0.1250621E+04  0.7818609E-02  0.9069667E-01
       -2   -1    0    0    0  501  0.00000000000E+00  0.00000000000E+00  0.61087468149E+03  0.61087468150E+03  0.25500000920E-02 0. -1.
        2   -1    0    0  501    0  0.00000000000E+00  0.00000000000E+00 -0.64008695641E+03  0.64008695642E+03  0.25500000920E-02 0.  1.
    10030    2    1    2    0    0  0.00000000000E+00  0.00000000000E+00 -0.29212274920E+02  0.12509616379E+04  0.12506205110E+04 0.  0.
        2    1    3    3  502    0 -0.15183708401E+03  0.59621401495E+03 -0.12638304497E+03  0.62809101711E+03  0.25500000920E-02 0. -1.
       -2    1    3    3    0  502  0.15183708401E+03 -0.59621401495E+03  0.97170770053E+02  0.62287062081E+03  0.25500000920E-02 0.  1.
</event>
<event>
 5   0  0.2458456E-03  0.1388810E+04  0.7818609E-02  0.8961958E-01
        1   -1    0    0  501    0  0.00000000000E+00  0.00000000000E+00  0.40591561757E+03  0.40591561760E+03  0.50400001928E-02 0. -1.
       -1   -1    0    0    0  501  0.00000000000E+00  0.00000000000E+00 -0.11879282902E+04  0.11879282902E+04  0.50400001928E-02 0.  1.
    10030    2    1    2    0    0  0.00000000000E+00  0.00000000000E+00 -0.78201267261E+03  0.15938439078E+04  0.13888104919E+04 0.  0.
        5    1    3    3  502    0 -0.35557781567E+03  0.53754013202E+03 -0.68760121887E+03  0.94244496005E+03  0.46999998093E+01 0.  1.
       -5    1    3    3    0  502  0.35557781567E+03 -0.53754013202E+03 -0.94411453742E+02  0.65139894775E+03  0.46999998093E+01 0. -1.
</event>
<event>
 5   0  0.4263540E-03  0.1274084E+04  0.7818609E-02  0.9050373E-01
        2   -1    0    0  501    0  0.00000000000E+00  0.00000000000E+00  0.62422038971E+03  0.62422038971E+03  0.25500000920E-02 0. -1.
       -2   -1    0    0    0  501  0.00000000000E+00  0.00000000000E+00 -0.65012716785E+03  0.65012716786E+03  0.25500000920E-02 0.  1.
    10030    2    1    2    0    0  0.00000000000E+00  0.00000000000E+00 -0.25906778143E+02  0.12743475576E+04  0.12740841951E+04 0.  0.
        2    1    3    3  502    0  0.41482442320E+03 -0.21652002297E+03  0.41941181680E+03  0.62838403426E+03  0.25500000920E-02 0. -1.
       -2    1    3    3    0  502 -0.41482442320E+03  0.21652002297E+03 -0.44531859495E+03  0.64596352331E+03  0.25500000920E-02 0.  1.
</event>
<event>
 5   0  0.2370801E-03  0.1304201E+04  0.7818609E-02  0.9026241E-01
       -1   -1    0    0    0  501  0.00000000000E+00  0.00000000000E+00  0.69444857631E+03  0.69444857633E+03  0.50400001928E-02 0. -1.
        1   -1    0    0  501    0  0.00000000000E+00  0.00000000000E+00 -0.61233464178E+03  0.61233464180E+03  0.50400001928E-02 0.  1.
    10030    2    1    2    0    0  0.00000000000E+00  0.00000000000E+00  0.82113934528E+02  0.13067832181E+04  0.13042007825E+04 0.  0.
        3    1    3    3  502    0 -0.37068861867E+03 -0.27269084364E+03  0.50399406569E+03  0.68248104492E+03  0.10100000352E+00 0. -1.
       -3    1    3    3    0  502  0.37068861867E+03  0.27269084364E+03 -0.42188013117E+03  0.62430217322E+03  0.10100000352E+00 0.  1.
</event>
<event>
 5   0  0.4306214E-03  0.1227571E+04  0.7818609E-02  0.9089061E-01
        2   -1    0    0  501    0  0.00000000000E+00  0.00000000000E+00  0.13539828601E+04  0.13539828601E+04  0.25500000920E-02 0.  1.
       -2   -1    0    0    0  501  0.00000000000E+00  0.00000000000E+00 -0.27824014231E+03  0.27824014232E+03  0.25500000920E-02 0. -1.
    10030    2    1    2    0    0  0.00000000000E+00  0.00000000000E+00  0.10757427178E+04  0.16322230024E+04  0.12275705824E+04 0.  0.
        3    1    3    3  502    0 -0.32251708475E+03  0.22281835074E+03  0.11658585254E+04  0.12299965036E+04  0.10100000352E+00 0.  1.
       -3    1    3    3    0  502  0.32251708475E+03 -0.22281835074E+03 -0.90115807616E+02  0.40222649883E+03  0.10100000352E+00 0. -1.
</event>
<event>
 5   0  0.2462055E-03  0.1248849E+04  0.7818609E-02  0.9071142E-01
       -1   -1    0    0    0  501  0.00000000000E+00  0.00000000000E+00  0.49304472516E+03  0.49304472519E+03  0.50400001928E-02 0.  1.
        1   -1    0    0  501    0  0.00000000000E+00  0.00000000000E+00 -0.79081257780E+03  0.79081257781E+03  0.50400001928E-02 0. -1.
    10030    2    1    2    0    0  0.00000000000E+00  0.00000000000E+00 -0.29776785264E+03  0.12838573030E+04  0.12488490223E+04 0.  0.
        2    1    3    3  502    0 -0.16848289222E+03 -0.48150282511E+03  0.22131412903E+03  0.55606780097E+03  0.25500000920E-02 0.  1.
       -2    1    3    3    0  502  0.16848289222E+03  0.48150282511E+03 -0.51908198167E+03  0.72778950203E+03  0.25500000920E-02 0. -1.
</event>
<event>
 5   0  0.2356769E-03  0.1333736E+04  0.7818609E-02  0.9003232E-01
       -1   -1    0    0    0  501  0.00000000000E+00  0.00000000000E+00  0.61447030171E+03  0.61447030173E+03  0.50400001928E-02 0. -1.
        1   -1    0    0  501    0  0.00000000000E+00  0.00000000000E+00 -0.72373409134E+03  0.72373409136E+03  0.50400001928E-02 0.  1.
    10030    2    1    2    0    0  0.00000000000E+00  0.00000000000E+00 -0.10926378963E+03  0.13382043931E+04  0.13337362640E+04 0.  0.
        1    1    3    3  502    0  0.46246881334E+03 -0.46705587252E+03 -0.16767928292E+03  0.67833246517E+03  0.50400001928E-02 0.  1.
       -1    1    3    3    0  502 -0.46246881334E+03  0.46705587252E+03  0.58415493291E+02  0.65987192791E+03  0.50400001928E-02 0. -1.
</event>
<event>
 5   0  0.4263540E-03  0.1320045E+04  0.7818609E-02  0.9013818E-01
       -2   -1    0    0    0  501  0.00000000000E+00  0.00000000000E+00  0.95678316000E+03  0.95678316001E+03  0.25500000920E-02 0.  1.
        2   -1    0    0  501    0  0.00000000000E+00  0.00000000000E+00 -0.45530675700E+03  0.45530675700E+03  0.25500000920E-02 0. -1.
    10030    2    1    2    0    0  0.00000000000E+00  0.00000000000E+00  0.50147640301E+03  0.14120899170E+04  0.13200452079E+04 0.  0.
        2    1    3    3  502    0 -0.64325592100E+03  0.64331511187E+02  0.39310902991E+03  0.75660520263E+03  0.25500000920E-02 0.  1.
       -2    1    3    3    0  502  0.64325592100E+03 -0.64331511187E+02  0.10836737309E+03  0.65548471439E+03  0.25500000920E-02 0. -1.
</event>
<event>
 5   0  0.2370801E-03  0.1252493E+04  0.7818609E-02  0.9068111E-01
       -1   -1    0    0    0  501  0.00000000000E+00  0.00000000000E+00  0.59716706573E+03  0.59716706575E+03  0.50400001928E-02 0. -1.
        1   -1    0    0  501    0  0.00000000000E+00  0.00000000000E+00 -0.65674227846E+03  0.65674227848E+03  0.50400001928E-02 0.  1.
    10030    2    1    2    0    0  0.00000000000E+00  0.00000000000E+00 -0.59575212727E+02  0.12539093442E+04  0.12524932884E+04 0.  0.
        3    1    3    3  502    0  0.33341496453E+03  0.35042872794E+03  0.36842964719E+03  0.60803474166E+03  0.10100000352E+00 0. -1.
       -3    1    3    3    0  502 -0.33341496453E+03 -0.35042872794E+03 -0.42800485991E+03  0.64587460257E+03  0.10100000352E+00 0.  1.
</event>
<event>
 5   0  0.4310889E-03  0.1130942E+04  0.7818609E-02  0.9175547E-01
        2   -1    0    0  501    0  0.00000000000E+00  0.00000000000E+00  0.42325130727E+03  0.42325130727E+03  0.25500000920E-02 0.  1.
       -2   -1    0    0    0  501  0.00000000000E+00  0.00000000000E+00 -0.75547934825E+03  0.75547934825E+03  0.25500000920E-02 0. -1.
    10030    2    1    2    0    0  0.00000000000E+00  0.00000000000E+00 -0.33222804098E+03  0.11787306555E+04  0.11309423005E+04 0.  0.
        4    1    3    3  502    0  0.53817798266E+01  0.28521003432E+03  0.34276098064E+03  0.44593769742E+03  0.12699999809E+01 0.  1.
       -4    1    3    3    0  502 -0.53817798266E+01 -0.28521003432E+03 -0.67498902162E+03  0.73279295810E+03  0.12699999809E+01 0. -1.
</event>
<event>
 5   0  0.4306214E-03  0.1273808E+04  0.7818609E-02  0.9050597E-01
        2   -1    0    0  501    0  0.00000000000E+00  0.00000000000E+00  0.88689548845E+03  0.88689548846E+03  0.25500000920E-02 0.  1.
       -2   -1    0    0    0  501  0.00000000000E+00  0.00000000000E+00 -0.45737846839E+03  0.45737846840E+03  0.25500000920E-02 0. -1.
    10030    2    1    2    0    0  0.00000000000E+00  0.00000000000E+00  0.42951702006E+03  0.13442739569E+04  0.12738083061E+04 0.  0.
        3    1    3    3  502    0  0.30841759731E+03  0.55390726671E+03  0.27905692955E+03  0.69268135140E+03  0.10100000352E+00 0.  1.
       -3    1    3    3    0  502 -0.30841759731E+03 -0.55390726671E+03  0.15046009051E+03  0.65159260546E+03  0.10100000352E+00 0. -1.
</event>
<event>
 5   0  0.4388937E-03  0.1305725E+04  0.7818609E-02  0.9025037E-01
       -2   -1    0    0    0  501  0.00000000000E+00  0.00000000000E+00  0.74524947164E+03  0.74524947164E+03  0.25500000920E-02 0.  1.
        2   -1    0    0  501    0  0.00000000000E+00  0.00000000000E+00 -0.57192855867E+03  0.57192855867E+03  0.25500000920E-02 0. -1.
    10030    2    1    2    0    0  0.00000000000E+00  0.00000000000E+00  0.17332091297E+03  0.13171780303E+04  0.13057250188E+04 0.  0.
        5    1    3    3  502    0  0.32809543283E+03  0.98465805569E+02  0.64729166396E+03  0.73235969041E+03  0.46999998093E+01 0.  1.
       -5    1    3    3    0  502 -0.32809543283E+03 -0.98465805569E+02 -0.47397075099E+03  0.58481833991E+03  0.46999998093E+01 0. -1.
</event>
<event>
 5   0  0.2511542E-03  0.1283963E+04  0.7818609E-02  0.9042380E-01
        1   -1    0    0  501    0  0.00000000000E+00  0.00000000000E+00  0.11879263302E+04  0.11879263302E+04  0.50400001928E-02 0.  1.
       -1   -1    0    0    0  501  0.00000000000E+00  0.00000000000E+00 -0.34694115912E+03  0.34694115915E+03  0.50400001928E-02 0. -1.
    10030    2    1    2    0    0  0.00000000000E+00  0.00000000000E+00  0.84098517112E+03  0.15348674894E+04  0.12839634543E+04 0.  0.
        4    1    3    3  502    0 -0.42864926799E+03 -0.30039401224E+02 -0.14967884858E+03  0.45502519841E+03  0.12699999809E+01 0. -1.
       -4    1    3    3    0  502  0.42864926799E+03  0.30039401224E+02  0.99066401969E+03  0.10798422910E+04  0.12699999809E+01 0.  1.
</event>
<event>
 5   0  0.2370801E-03  0.1219974E+04  0.7818609E-02  0.9095550E-01
        1   -1    0    0  501    0  0.00000000000E+00  0.00000000000E+00  0.50915231213E+03  0.50915231216E+03  0.50400001928E-02 0. -1.
       -1   -1    0    0    0  501  0.00000000000E+00  0.00000000000E+00 -0.73079195780E+03  0.73079195782E+03  0.50400001928E-02 0.  1.
    10030    2    1    2    0    0  0.00000000000E+00  0.00000000000E+00 -0.22163964567E+03  0.12399442700E+04  0.12199744506E+04 0.  0.
        3    1    3    3  502    0 -0.51538746894E+02 -0.54776954633E+02 -0.72606121715E+03  0.72994633943E+03  0.10100000352E+00 0.  1.
       -3    1    3    3    0  502  0.51538746894E+02  0.54776954633E+02  0.50442157148E+03  0.50999793055E+03  0.10100000352E+00 0. -1.
</event>
<event>
 5   0  0.2458456E-03  0.1298239E+04  0.7818609E-02  0.9030963E-01
       -1   -1    0    0    0  501  0.00000000000E+00  0.00000000000E+00  0.98357033818E+03  0.98357033819E+03  0.50400001928E-02 0. -1.
        1   -1    0    0  501    0  0.00000000000E+00  0.00000000000E+00 -0.42839420988E+03  0.42839420991E+03  0.50400001928E-02 0.  1.
    10030    2    1    2    0    0  0.00000000000E+00  0.00000000000E+00  0.55517612830E+03  0.14119645481E+04  0.12982385573E+04 0.  0.
        5    1    3    3  502    0 -0.50511977940E+03 -0.22692443913E+03 -0.90742577949E+02  0.56115683910E+03  0.46999998093E+01 0.  1.
       -5    1    3    3    0  502  0.50511977940E+03  0.22692443913E+03  0.64591870625E+03  0.85080770900E+03  0.46999998093E+01 0. -1.
</event>
<event>
 5   0  0.4310889E-03  0.1326020E+04  0.7818609E-02  0.9009182E-01
       -2   -1    0    0    0  501  0.00000000000E+00  0.00000000000E+00  0.26381588627E+03  0.26381588628E+03  0.25500000920E-02 0. -1.
        2   -1    0    0  501    0  0.00000000000E+00  0.00000000000E+00 -0.16662466604E+04  0.16662466604E+04  0.25500000920E-02 0.  1.
    10030    2    1    2    0    0  0.00000000000E+00  0.00000000000E+00 -0.14024307741E+04  0.19300625466E+04  0.13260201197E+04 0.  0.
        4    1    3    3  502    0  0.42030880327E+03 -0.42484888959E+03 -0.28333706225E+03  0.66139063559E+03  0.12699999809E+01 0. -1.
       -4    1    3    3    0  502 -0.42030880327E+03  0.42484888959E+03 -0.11190937119E+04  0.12686719111E+04  0.12699999809E+01 0.  1.
</event>
<event>
 5   0  0.4310889E-03  0.1330186E+04  0.7818609E-02  0.9005964E-01
        2   -1    0    0  501    0  0.00000000000E+00  0.00000000000E+00  0.62880917800E+03  0.62880917800E+03  0.25500000920E-02 0.  1.
       -2   -1    0    0    0  501  0.00000000000E+00  0.00000000000E+00 -0.70347076504E+03  0.70347076505E+03  0.25500000920E-02 0. -1.
    10030    2    1    2    0    0  0.00000000000E+00  0.00000000000E+00 -0.74661587047E+02  0.13322799431E+04  0.13301862629E+04 0.  0.
        4    1    3    3  502    0 -0.38918211087E+03 -0.50190138368E+03 -0.23507393120E+03  0.67722158884E+03  0.12699999809E+01 0. -1.
       -4    1    3    3    0  502  0.38918211087E+03  0.50190138368E+03  0.16041234415E+03  0.65505835421E+03  0.12699999809E+01 0.  1.
</event>
<event>
 5   0  0.4388937E-03  0.1313118E+04  0.7818609E-02  0.9019227E-01
       -2   -1    0    0    0  501  0.00000000000E+00  0.00000000000E+00  0.77013497935E+03  0.77013497935E+03  0.25500000920E-02 0.  1.
        2   -1    0    0  501    0  0.00000000000E+00  0.00000000000E+00 -0.55973278426E+03  0.55973278427E+03  0.25500000920E-02 0. -1.
    10030    2    1    2    0    0  0.00000000000E+00  0.00000000000E+00  0.21040219509E+03  0.13298677636E+04  0.13131181154E+04 0.  0.
        5    1    3    3  502    0  0.31815437585E+03 -0.36001128120E+03  0.55836525185E+03  0.73663028307E+03  0.46999998093E+01 0.  1.
       -5    1    3    3    0  502 -0.31815437585E+03  0.36001128120E+03 -0.34796305676E+03  0.59323748055E+03  0.46999998093E+01 0. -1.
</event>
<event>
 5   0  0.4310889E-03  0.1313343E+04  0.7818609E-02  0.9019050E-01
       -2   -1    0    0    0  501  0.00000000000E+00  0.00000000000E+00  0.48084156323E+03  0.48084156323E+03  0.25500000920E-02 0. -1.
        2   -1    0    0  501    0  0.00000000000E+00  0.00000000000E+00 -0.89679767792E+03  0.89679767792E+03  0.25500000920E-02 0.  1.
    10030    2    1    2    0    0  0.00000000000E+00  0.00000000000E+00 -0.41595611469E+03  0.13776392412E+04  0.13133432108E+04 0.  0.
        4    1    3    3  502    0 -0.12838707879E+03 -0.52961849300E+03  0.17634229260E+03  0.57278024337E+03  0.12699999809E+01 0. -1.
       -4    1    3    3    0  502  0.12838707879E+03  0.52961849300E+03 -0.59229840729E+03  0.80485899778E+03  0.12699999809E+01 0.  1.
</event>
<event>
 5   0  0.4263540E-03  0.1277936E+04  0.7818609E-02  0.9047247E-01
        2   -1    0    0  501    0  0.00000000000E+00  0.00000000000E+00  0.13146682974E+04  0.13146682974E+04  0.25500000920E-02 0.  1.
       -2   -1    0    0    0  501  0.00000000000E+00  0.00000000000E+00 -0.31055749699E+03  0.31055749700E+03  0.25500000920E-02 0. -1.
    10030    2    1    2    0    0  0.00000000000E+00  0.00000000000E+00  0.10041108004E+04  0.16252257944E+04  0.12779359856E+04 0.  0.
        2    1    3    3  502    0 -0.47583108749E+03  0.36499122685E+03  0.22155763334E+03  0.63931338512E+03  0.25500000920E-02 0. -1.
       -2    1    3    3    0  502  0.47583108749E+03 -0.36499122685E+03  0.78255316707E+03  0.98591240929E+03  0.25500000920E-02 0.  1.
</event>
<event>
 5   0  0.4388937E-03  0.1293064E+04  0.7818609E-02  0.9035083E-01
        2   -1    0    0  501    0  0.00000000000E+00  0.00000000000E+00  0.43371152271E+03  0.43371152272E+03  0.25500000920E-02 0.  1.
       -2   -1    0    0    0  501  0.00000000000E+00  0.00000000000E+00 -0.96378284475E+03  0.96378284476E+03  0.25500000920E-02 0. -1.
    10030    2    1    2    0    0  0.00000000000E+00  0.00000000000E+00 -0.53007132204E+03  0.13974943675E+04  0.12930641518E+04 0.  0.
        5    1    3    3  502    0  0.27404749958E+03 -0.40147812191E+03  0.19564649202E+03  0.52400987990E+03  0.46999998093E+01 0.  1.
       -5    1    3    3    0  502 -0.27404749958E+03  0.40147812191E+03 -0.72571781406E+03  0.87348448758E+03  0.46999998093E+01 0. -1.
</event>
<event>
 5   0  0.4388937E-03  0.1291976E+04  0.7818609E-02  0.9035952E-01
       -2   -1    0    0    0  501  0.00000000000E+00  0.00000000000E+00  0.68686787067E+03  0.68686787068E+03  0.25500000920E-02 0. -1.
        2   -1    0    0  501    0  0.00000000000E+00  0.00000000000E+00 -0.60754131074E+03  0.60754131074E+03  0.25500000920E-02 0.  1.
    10030    2    1    2    0    0  0.00000000000E+00  0.00000000000E+00  0.79326559936E+02  0.12944091814E+04  0.12919761708E+04 0.  0.
        5    1    3    3  502    0 -0.51076896705E+03 -0.79038569598E+02  0.42788038215E+03  0.67099608390E+03  0.46999998093E+01 0. -1.
       -5    1    3    3    0  502  0.51076896705E+03  0.79038569598E+02 -0.34855382222E+03  0.62341309752E+03  0.46999998093E+01 0.  1.
</event>
<event>
 5   0  0.2462055E-03  0.1280211E+04  0.7818609E-02  0.9045407E-01
        1   -1    0    0  501    0  0.00000000000E+00  0.00000000000E+00  0.12239769217E+04  0.12239769217E+04  0.50400001928E-02 0. -1.
       -1   -1    0    0    0  501  0.00000000000E+00  0.00000000000E+00 -0.33475705627E+03  0.33475705630E+03  0.50400001928E-02 0.  1.
    10030    2    1    2    0    0  0.00000000000E+00  0.00000000000E+00  0.88921986542E+03  0.15587339780E+04  0.12802107815E+04 0.  0.
        2    1    3    3  502    0 -0.25421871693E+01  0.37928454140E+03  0.10724175290E+04  0.11375159703E+04  0.25500000920E-02 0. -1.
       -2    1    3    3    0  502  0.25421871693E+01 -0.37928454140E+03 -0.18319766362E+03  0.42121800771E+03  0.25500000920E-02 0.  1.
</event>
<event>
 5   0  0.2462055E-03  0.1365109E+04  0.7818609E-02  0.8979469E-01
       -1   -1    0    0    0  501  0.00000000000E+00  0.00000000000E+00  0.47398605604E+03  0.47398605607E+03  0.50400001928E-02 0. -1.
        1   -1    0    0  501    0  0.00000000000E+00  0.00000000000E+00 -0.98289928338E+03  0.98289928339E+03  0.50400001928E-02 0.  1.
    10030    2    1    2    0    0  0.00000000000E+00  0.00000000000E+00 -0.50891322734E+03  0.14568853395E+04  0.13651088672E+04 0.  0.
        2    1    3    3  502    0  0.40579616070E+03  0.24642026817E+02 -0.83958962067E+03  0.93283893823E+03  0.25500000920E-02 0.  1.
       -2    1    3    3    0  502 -0.40579616070E+03 -0.24642026817E+02  0.33067639333E+03  0.52404640123E+03  0.25500000920E-02 0. -1.
</event>
<event>
 5   0  0.1661750E-03  0.1265488E+04  0.7818609E-02  0.9057390E-01
        4   -1    0    0  501    0  0.00000000000E+00  0.00000000000E+00  0.46840811246E+03  0.46840983414E+03  0.12699999809E+01 0.  1.
       -4   -1    0    0    0  501  0.00000000000E+00  0.00000000000E+00 -0.85473223045E+03  0.85473317396E+03  0.12699999809E+01 0. -1.
    10030    2    1    2    0    0  0.00000000000E+00  0.00000000000E+00 -0.38632411799E+03  0.13231430081E+04  0.12654884811E+04 0.  0.
        4    1    3    3  502    0 -0.41949371606E+03 -0.82199031547E+02 -0.68092631198E+03  0.80398626471E+03  0.12699999809E+01 0. -1.
       -4    1    3    3    0  502  0.41949371606E+03  0.82199031547E+02  0.29460219399E+03  0.51915674338E+03  0.12699999809E+01 0.  1.
</event>
<event>
 5   0  0.2370801E-03  0.1380071E+04  0.7818609E-02  0.8968372E-01
        1   -1    0    0  501    0  0.00000000000E+00  0.00000000000E+00  0.81133698771E+03  0.81133698773E+03  0.50400001928E-02 0. -1.
       -1   -1    0    0    0  501  0.00000000000E+00  0.00000000000E+00 -0.58686961732E+03  0.58686961734E+03  0.50400001928E-02 0.  1.
    10030    2    1    2    0    0  0.00000000000E+00  0.00000000000E+00  0.22446737039E+03  0.13982066051E+04  0.13800710525E+04 0.  0.
        3    1    3    3  502    0  0.14185224690E+03 -0.52438558482E+03 -0.31885361469E+03  0.62989676878E+03  0.10100000352E+00 0.  1.
       -3    1    3    3    0  502 -0.14185224690E+03  0.52438558482E+03  0.54332098508E+03  0.76830983629E+03  0.10100000352E+00 0. -1.
</event>
<event>
 5   0  0.4306214E-03  0.1314571E+04  0.7818609E-02  0.9018090E-01
       -2   -1    0    0    0  501  0.00000000000E+00  0.00000000000E+00  0.35431940477E+03  0.35431940478E+03  0.25500000920E-02 0.  1.
        2   -1    0    0  501    0  0.00000000000E+00  0.00000000000E+00 -0.12193063957E+04  0.12193063957E+04  0.25500000920E-02 0. -1.
    10030    2    1    2    0    0  0.00000000000E+00  0.00000000000E+00 -0.86498699093E+03  0.15736258005E+04  0.13145705251E+04 0.  0.
        3    1    3    3  502    0 -0.92631448487E+02  0.46735083458E+02  0.34445503946E+03  0.35974162629E+03  0.10100000352E+00 0.  1.
       -3    1    3    3    0  502  0.92631448487E+02 -0.46735083458E+02 -0.12094420304E+04  0.12138841742E+04  0.10100000352E+00 0. -1.
</event>
<event>
 5   0  0.2356769E-03  0.1332169E+04  0.7818609E-02  0.9004437E-01
        1   -1    0    0  501    0  0.00000000000E+00  0.00000000000E+00  0.72328058798E+03  0.72328058799E+03  0.50400001928E-02 0.  1.
       -1   -1    0    0    0  501  0.00000000000E+00  0.00000000000E+00 -0.61341162408E+03  0.61341162410E+03  0.50400001928E-02 0. -1.
    10030    2    1    2    0    0  0.00000000000E+00  0.00000000000E+00  0.10986896389E+03  0.13366922121E+04  0.13321692387E+04 0.  0.
        1    1    3    3  502    0 -0.34919480503E+03  0.34345847025E+03  0.50787377170E+03  0.70557529765E+03  0.50400001928E-02 0.  1.
       -1    1    3    3    0  502  0.34919480503E+03 -0.34345847025E+03 -0.39800480781E+03  0.63111691445E+03  0.50400001928E-02 0. -1.
</event>
<event>
 5   0  0.2462055E-03  0.1309639E+04  0.7818609E-02  0.9021956E-01
       -1   -1    0    0    0  501  0.00000000000E+00  0.00000000000E+00  0.12703069533E+04  0.12703069533E+04  0.50400001928E-02 0.  1.
        1   -1    0    0  501    0  0.00000000000E+00  0.00000000000E+00 -0.33754709530E+03  0.33754709534E+03  0.50400001928E-02 0. -1.
    10030    2    1    2    0    0  0.00000000000E+00  0.00000000000E+00  0.93275985795E+03  0.16078540486E+04  0.13096387628E+04 0.  0.
        2    1    3    3  502    0  0.57560647684E+03  0.27837879721E+03  0.63987749716E+03  0.90457768174E+03  0.25500000920E-02 0.  1.
       -2    1    3    3    0  502 -0.57560647684E+03 -0.27837879721E+03  0.29288236079E+03  0.70327636687E+03  0.25500000920E-02 0. -1.
</event>
<event>
 5   0  0.2458456E-03  0.1137727E+04  0.7818609E-02  0.9169181E-01
       -1   -1    0    0    0  501  0.00000000000E+00  0.00000000000E+00  0.32360129121E+03  0.32360129125E+03  0.50400001928E-02 0. -1.
        1   -1    0    0  501    0  0.00000000000E+00  0.00000000000E+00 -0.10000142508E+04  0.10000142509E+04  0.50400001928E-02 0.  1.
    10030    2    1    2    0    0  0.00000000000E+00  0.00000000000E+00 -0.67641295963E+03  0.13236155421E+04  0.11377273889E+04 0.  0.
        5    1    3    3  502    0 -0.17005632373E+03  0.53878417070E+03 -0.41516842689E+03  0.70113796683E+03  0.46999998093E+01 0.  1.
       -5    1    3    3    0  502  0.17005632373E+03 -0.53878417070E+03 -0.26124453274E+03  0.62247757528E+03  0.46999998093E+01 0. -1.
</event>
<event>
 5   0  0.4263540E-03  0.1293342E+04  0.7818609E-02  0.9034862E-01
       -2   -1    0    0    0  501  0.00000000000E+00  0.00000000000E+00  0.18483993568E+03  0.18483993570E+03  0.25500000920E-02 0. -1.
        2   -1    0    0  501    0  0.00000000000E+00  0.00000000000E+00 -0.22624072861E+04  0.22624072861E+04  0.25500000920E-02 0.  1.
    10030    2    1    2    0    0  0.00000000000E+00  0.00000000000E+00 -0.20775673505E+04  0.24472472219E+04  0.12933417449E+04 0.  0.
        2    1    3    3  502    0 -0.32306574684E+03 -0.38397816315E+03 -0.18105846700E+04  0.18788367555E+04  0.25500000920E-02 0.  1.
       -2    1    3    3    0  502  0.32306574684E+03  0.38397816315E+03 -0.26698268042E+03  0.56841046631E+03  0.25500000920E-02 0. -1.
</event>
<event>
 5   0  0.4310889E-03  0.1264640E+04  0.7818609E-02  0.9058086E-01
        2   -1    0    0  501    0  0.00000000000E+00  0.00000000000E+00  0.68366607607E+03  0.68366607607E+03  0.25500000920E-02 0. -1.
       -2   -1    0    0    0  501  0.00000000000E+00  0.00000000000E+00 -0.58483028377E+03  0.58483028378E+03  0.25500000920E-02 0.  1.
    10030    2    1    2    0    0  0.00000000000E+00  0.00000000000E+00  0.98835792292E+02  0.12684963598E+04  0.12646400678E+04 0.  0.
        4    1    3    3  502    0  0.30788690790E+03 -0.28583825677E+03 -0.42460028486E+03  0.59731471763E+03  0.12699999809E+01 0.  1.
       -4    1    3    3    0  502 -0.30788690790E+03  0.28583825677E+03  0.52343607715E+03  0.67118164222E+03  0.12699999809E+01 0. -1.
</event>
<event>
 5   0  0.2370801E-03  0.1270457E+04  0.7818609E-02  0.9053327E-01
       -1   -1    0    0    0  501  0.00000000000E+00  0.00000000000E+00  0.91730630877E+03  0.91730630879E+03  0.50400001928E-02 0.  1.
        1   -1    0    0  501    0  0.00000000000E+00  0.00000000000E+00 -0.43989133867E+03  0.43989133870E+03  0.50400001928E-02 0. -1.
    10030    2    1    2    0    0  0.00000000000E+00  0.00000000000E+00  0.47741497010E+03  0.13571976475E+04  0.12704567685E+04 0.  0.
        3    1    3    3  502    0 -0.23605417919E+03 -0.40388783932E+03  0.69777776739E+03  0.84008379649E+03  0.10100000352E+00 0. -1.
       -3    1    3    3    0  502  0.23605417919E+03  0.40388783932E+03 -0.22036279729E+03  0.51711385099E+03  0.10100000352E+00 0.  1.
</event>
<event>
 5   0  0.4263540E-03  0.1297899E+04  0.7818609E-02  0.9031233E-01
        2   -1    0    0  501    0  0.00000000000E+00  0.00000000000E+00  0.11700610945E+04  0.11700610945E+04  0.25500000920E-02 0.  1.
       -2   -1    0    0    0  501  0.00000000000E+00  0.00000000000E+00 -0.35992631419E+03  0.35992631420E+03  0.25500000920E-02 0. -1.
    10030    2    1    2    0    0  0.00000000000E+00  0.00000000000E+00  0.81013478035E+03  0.15299874087E+04  0.12978994986E+04 0.  0.
        2    1    3    3  502    0  0.51464703189E+03 -0.16886069774E+03 -0.16284270673E+02  0.54188622436E+03  0.25500000920E-02 0. -1.
       -2    1    3    3    0  502 -0.51464703189E+03  0.16886069774E+03  0.82641905102E+03  0.98810118438E+03  0.25500000920E-02 0.  1.
</event>
<event>
 5   0  0.2458456E-03  0.1170361E+04  0.7818609E-02  0.9139203E-01
       -1   -1    0    0    0  501  0.00000000000E+00  0.00000000000E+00  0.40877970585E+03  0.40877970588E+03  0.50400001928E-02 0.  1.
        1   -1    0    0  501    0  0.00000000000E+00  0.00000000000E+00 -0.83770289885E+03  0.83770289887E+03  0.50400001928E-02 0. -1.
    10030    2    1    2    0    0  0.00000000000E+00  0.00000000000E+00 -0.42892319300E+03  0.12464826047E+04  0.11703605335E+04 0.  0.
        5    1    3    3  502    0  0.65773364558E+02  0.49939277049E+03 -0.53164838841E+03  0.73238744773E+03  0.46999998093E+01 0. -1.
       -5    1    3    3    0  502 -0.65773364558E+02 -0.49939277049E+03  0.10272519540E+03  0.51409515702E+03  0.46999998093E+01 0.  1.
</event>
<event>
 5   0  0.1661750E-03  0.1299323E+04  0.7818609E-02  0.9030102E-01
       -3   -1    0    0    0  501  0.00000000000E+00  0.00000000000E+00  0.84496218715E+03  0.84496219319E+03  0.10100000352E+00 0. -1.
        3   -1    0    0  501    0  0.00000000000E+00  0.00000000000E+00 -0.49950176830E+03  0.49950177851E+03  0.10100000352E+00 0.  1.
    10030    2    1    2    0    0  0.00000000000E+00  0.00000000000E+00  0.34546041886E+03  0.13444639717E+04  0.12993230815E+04 0.  0.
        4    1    3    3  502    0 -0.16134458991E+03 -0.25471010838E+03  0.76817823963E+03  0.82523253496E+03  0.12699999809E+01 0. -1.
       -4    1    3    3    0  502  0.16134458991E+03  0.25471010838E+03 -0.42271782077E+03  0.51923143674E+03  0.12699999809E+01 0.  1.
</event>
<event>
 5   0  0.2511542E-03  0.1291596E+04  0.7818609E-02  0.9036256E-01
        1   -1    0    0  501    0  0.00000000000E+00  0.00000000000E+00  0.15658535192E+04  0.15658535192E+04  0.50400001928E-02 0. -1.
       -1   -1    0    0    0  501  0.00000000000E+00  0.00000000000E+00 -0.26634369040E+03  0.26634369044E+03  0.50400001928E-02 0.  1.
    10030    2    1    2    0    0  0.00000000000E+00  0.00000000000E+00  0.12995098288E+04  0.18321972096E+04  0.12915962294E+04 0.  0.
        4    1    3    3  502    0 -0.15675920904E+03 -0.28321260733E+03  0.14424590246E+04  0.14783343604E+04  0.12699999809E+01 0. -1.
       -4    1    3    3    0  502  0.15675920904E+03  0.28321260733E+03 -0.14294919583E+03  0.35386284922E+03  0.12699999809E+01 0.  1.
</event>
<event>
 5   0  0.2462055E-03  0.1280536E+04  0.7818609E-02  0.9045145E-01
        1   -1    0    0  501    0  0.00000000000E+00  0.00000000000E+00  0.90496929170E+03  0.90496929172E+03  0.50400001928E-02 0.  1.
       -1   -1    0    0    0  501  0.00000000000E+00  0.00000000000E+00 -0.45299083692E+03  0.45299083695E+03  0.50400001928E-02 0. -1.
    10030    2    1    2    0    0  0.00000000000E+00  0.00000000000E+00  0.45197845478E+03  0.13579601287E+04  0.12805355081E+04 0.  0.
        2    1    3    3  502    0 -0.27165896744E+03 -0.43208360696E+03  0.63594819154E+03  0.81542929817E+03  0.25500000920E-02 0.  1.
       -2    1    3    3    0  502  0.27165896744E+03  0.43208360696E+03 -0.18396973676E+03  0.54253083050E+03  0.25500000920E-02 0. -1.
</event>
<event>
 5   0  0.2458456E-03  0.1339632E+04  0.7818609E-02  0.8998714E-01
        1   -1    0    0  501    0  0.00000000000E+00  0.00000000000E+00  0.46534885793E+03  0.46534885795E+03  0.50400001928E-02 0. -1.
       -1   -1    0    0    0  501  0.00000000000E+00  0.00000000000E+00 -0.96412249323E+03  0.96412249324E+03  0.50400001928E-02 0.  1.
    10030    2    1    2    0    0  0.00000000000E+00  0.00000000000E+00 -0.49877363530E+03  0.14294713512E+04  0.13396317422E+04 0.  0.
        5    1    3    3  502    0  0.35081893122E+03 -0.42056707672E+02 -0.85657142189E+03  0.92659558598E+03  0.46999998093E+01 0.  1.
       -5    1    3    3    0  502 -0.35081893122E+03  0.42056707672E+02  0.35779778658E+03  0.50287576522E+03  0.46999998093E+01 0. -1.
</event>
<event>
 5   0  0.2356769E-03  0.1339122E+04  0.7818609E-02  0.8999103E-01
       -1   -1    0    0    0  501  0.00000000000E+00  0.00000000000E+00  0.65747606167E+03  0.65747606169E+03  0.50400001928E-02 0.  1.
        1   -1    0    0  501    0  0.00000000000E+00  0.00000000000E+00 -0.68186843022E+03  0.68186843024E+03  0.50400001928E-02 0. -1.
    10030    2    1    2    0    0  0.00000000000E+00  0.00000000000E+00 -0.24392368544E+02  0.13393444919E+04  0.13391223545E+04 0.  0.
        1    1    3    3  502    0  0.89733849122E+02  0.27541894470E+03  0.59156313714E+03  0.65867647903E+03  0.50400001928E-02 0.  1.
       -1    1    3    3    0  502 -0.89733849122E+02 -0.27541894470E+03 -0.61595550569E+03  0.68066801290E+03  0.50400001928E-02 0. -1.
</event>
<event>
 5   0  0.4306214E-03  0.1252192E+04  0.7818609E-02  0.9068361E-01
       -2   -1    0    0    0  501  0.00000000000E+00  0.00000000000E+00  0.26528745331E+03  0.26528745333E+03  0.25500000920E-02 0. -1.
        2   -1    0    0  501    0  0.00000000000E+00  0.00000000000E+00 -0.14776269806E+04  0.14776269806E+04  0.25500000920E-02 0.  1.
    10030    2    1    2    0    0  0.00000000000E+00  0.00000000000E+00 -0.12123395273E+04  0.17429144339E+04  0.12521915167E+04 0.  0.
        3    1    3    3  502    0 -0.12801256361E+03  0.22410368214E+03 -0.14001412063E+04  0.14237292876E+04  0.10100000352E+00 0.  1.
       -3    1    3    3    0  502  0.12801256361E+03 -0.22410368214E+03  0.18780167897E+03  0.31918514630E+03  0.10100000352E+00 0. -1.
</event>
<event>
 5   0  0.4306214E-03  0.1348002E+04  0.7818609E-02  0.8992342E-01
       -2   -1    0    0    0  501  0.00000000000E+00  0.00000000000E+00  0.47760944048E+03  0.47760944048E+03  0.25500000920E-02 0. -1.
        2   -1    0    0  501    0  0.00000000000E+00  0.00000000000E+00 -0.95114754164E+03  0.95114754164E+03  0.25500000920E-02 0.  1.
    10030    2    1    2    0    0  0.00000000000E+00  0.00000000000E+00 -0.47353810116E+03  0.14287569821E+04  0.13480015507E+04 0.  0.
        3    1    3    3  502    0  0.26546728856E+03 -0.26613743329E+03 -0.82972552040E+03  0.91090420139E+03  0.10100000352E+00 0.  1.
       -3    1    3    3    0  502 -0.26546728856E+03  0.26613743329E+03  0.35618741924E+03  0.51785278074E+03  0.10100000352E+00 0. -1.
</event>
<event>
 5   0  0.2458456E-03  0.1366812E+04  0.7818609E-02  0.8978198E-01
        1   -1    0    0  501    0  0.00000000000E+00  0.00000000000E+00  0.17962719335E+04  0.17962719335E+04  0.50400001928E-02 0.  1.
       -1   -1    0    0    0  501  0.00000000000E+00  0.00000000000E+00 -0.26000745689E+03  0.26000745694E+03  0.50400001928E-02 0. -1.
    10030    2    1    2    0    0  0.00000000000E+00  0.00000000000E+00  0.15362644766E+04  0.20562793904E+04  0.13668124924E+04 0.  0.
        5    1    3    3  502    0  0.13341425982E+03  0.35086535799E+03  0.16272631235E+04  0.16700039603E+04  0.46999998093E+01 0.  1.
       -5    1    3    3    0  502 -0.13341425982E+03 -0.35086535799E+03 -0.90998646972E+02  0.38627543012E+03  0.46999998093E+01 0. -1.
</event>
<event>
 5   0  0.2370801E-03  0.1288025E+04  0.7818609E-02  0.9039116E-01
        1   -1    0    0  501    0  0.00000000000E+00  0.00000000000E+00  0.79691361014E+03  0.79691361016E+03  0.50400001928E-02 0.  1.
       -1   -1    0    0    0  501  0.00000000000E+00  0.00000000000E+00 -0.52044773408E+03  0.52044773410E+03  0.50400001928E-02 0. -1.
    10030    2    1    2    0    0  0.00000000000E+00  0.00000000000E+00  0.27646587606E+03  0.13173613443E+04  0.12880246623E+04 0.  0.
        3    1    3    3  502    0 -0.30971808906E+03 -0.12039662908E+03  0.70246011028E+03  0.77709128145E+03  0.10100000352E+00 0.  1.
       -3    1    3    3    0  502  0.30971808906E+03  0.12039662908E+03 -0.42599423421E+03  0.54027006281E+03  0.10100000352E+00 0. -1.
</event>
<event>
 5   0  0.2370801E-03  0.1286221E+04  0.7818609E-02  0.9040564E-01
       -1   -1    0    0    0  501  0.00000000000E+00  0.00000000000E+00  0.20058918313E+03  0.20058918319E+03  0.50400001928E-02 0.  1.
        1   -1    0    0  501    0  0.00000000000E+00  0.00000000000E+00 -0.20618800252E+04  0.20618800253E+04  0.50400001928E-02 0. -1.
    10030    2    1    2    0    0  0.00000000000E+00  0.00000000000E+00 -0.18612908421E+04  0.22624692084E+04  0.12862205566E+04 0.  0.
        3    1    3    3  502    0 -0.14300256826E+02  0.47988431700E+03 -0.17796905762E+03  0.51202192406E+03  0.10100000352E+00 0.  1.
       -3    1    3    3    0  502  0.14300256826E+02 -0.47988431700E+03 -0.16833217845E+04  0.17504472844E+04  0.10100000352E+00 0. -1.
</event>
<event>
 5   0  0.4263540E-03  0.1300679E+04  0.7818609E-02  0.9029027E-01
       -2   -1    0    0    0  501  0.00000000000E+00  0.00000000000E+00  0.26406311955E+03  0.26406311956E+03  0.25500000920E-02 0.  1.
        2   -1    0    0  501    0  0.00000000000E+00  0.00000000000E+00 -0.16016683716E+04  0.16016683716E+04  0.25500000920E-02 0. -1.
    10030    2    1    2    0    0  0.00000000000E+00  0.00000000000E+00 -0.13376052521E+04  0.18657314912E+04  0.13006791252E+04 0.  0.
        2    1    3    3  502    0  0.14179970938E+03  0.55944504266E+03 -0.23881928833E+03  0.62459632230E+03  0.25500000920E-02 0.  1.
       -2    1    3    3    0  502 -0.14179970938E+03 -0.55944504266E+03 -0.10987859638E+04  0.12411351689E+04  0.25500000920E-02 0. -1.
</event>
<event>
 5   0  0.4263540E-03  0.1079733E+04  0.7818609E-02  0.9225173E-01
        2   -1    0    0  501    0  0.00000000000E+00  0.00000000000E+00  0.13939983906E+04  0.13939983906E+04  0.25500000920E-02 0. -1.
       -2   -1    0    0    0  501  0.00000000000E+00  0.00000000000E+00 -0.20907920194E+03  0.20907920196E+03  0.25500000920E-02 0.  1.
    10030    2    1    2    0    0  0.00000000000E+00  0.00000000000E+00  0.11849191886E+04  0.16030775925E+04  0.10797334319E+04 0.  0.
        2    1    3    3  502    0 -0.17886625259E+03 -0.49345482031E+03  0.78005672732E+03  0.94020173040E+03  0.25500000920E-02 0. -1.
       -2    1    3    3    0  502  0.17886625259E+03  0.49345482031E+03  0.40486246129E+03  0.66287586211E+03  0.25500000920E-02 0.  1.
</event>
<event>
 5   0  0.2511542E-03  0.1295110E+04  0.7818609E-02  0.9033452E-01
        1   -1    0    0  501    0  0.00000000000E+00  0.00000000000E+00  0.12970325031E+04  0.12970325031E+04  0.50400001928E-02 0. -1.
       -1   -1    0    0    0  501  0.00000000000E+00  0.00000000000E+00 -0.32329777561E+03  0.32329777565E+03  0.50400001928E-02 0.  1.
    10030    2    1    2    0    0  0.00000000000E+00  0.00000000000E+00  0.97373472747E+03  0.16203302787E+04  0.12951103786E+04 0.  0.
        4    1    3    3  502    0  0.53263252672E+03 -0.36812223691E+03  0.50026774649E+03  0.81821807661E+03  0.12699999809E+01 0. -1.
       -4    1    3    3    0  502 -0.53263252672E+03  0.36812223691E+03  0.47346698098E+03  0.80211220212E+03  0.12699999809E+01 0.  1.
</event>
<event>
 5   0  0.4453011E-03  0.1235476E+04  0.7818609E-02  0.9082359E-01
        2   -1    0    0  501    0  0.00000000000E+00  0.00000000000E+00  0.13419255730E+04  0.13419255730E+04  0.25500000920E-02 0. -1.
       -2   -1    0    0    0  501  0.00000000000E+00  0.00000000000E+00 -0.28436748544E+03  0.28436748545E+03  0.25500000920E-02 0.  1.
    10030    2    1    2    0    0  0.00000000000E+00  0.00000000000E+00  0.10575580876E+04  0.16262930585E+04  0.12354756183E+04 0.  0.
        1    1    3    3  502    0  0.56656960231E+03  0.22759356001E+03  0.65226210762E+03  0.89344602517E+03  0.50400001928E-02 0. -1.
       -1    1    3    3    0  502 -0.56656960231E+03 -0.22759356001E+03  0.40529597996E+03  0.73284703330E+03  0.50400001928E-02 0.  1.
</event>
<event>
 5   0  0.1661750E-03  0.1206767E+04  0.7818609E-02  0.9106954E-01
       -3   -1    0    0    0  501  0.00000000000E+00  0.00000000000E+00  0.15168735225E+04  0.15168735259E+04  0.10100000352E+00 0.  1.
        3   -1    0    0  501    0  0.00000000000E+00  0.00000000000E+00 -0.24001443246E+03  0.24001445371E+03  0.10100000352E+00 0. -1.
    10030    2    1    2    0    0  0.00000000000E+00  0.00000000000E+00  0.12768590900E+04  0.17568879796E+04  0.12067668528E+04 0.  0.
        4    1    3    3  502    0 -0.32346970994E+03  0.42775566517E+03  0.10410025192E+04  0.11710232364E+04  0.12699999809E+01 0.  1.
       -4    1    3    3    0  502  0.32346970994E+03 -0.42775566517E+03  0.23585657080E+03  0.58586474311E+03  0.12699999809E+01 0. -1.
</event>
<event>
 5   0  0.4388937E-03  0.1295633E+04  0.7818609E-02  0.9033036E-01
        2   -1    0    0  501    0  0.00000000000E+00  0.00000000000E+00  0.14923842082E+04  0.14923842082E+04  0.25500000920E-02 0.  1.
       -2   -1    0    0    0  501  0.00000000000E+00  0.00000000000E+00 -0.28120505021E+03  0.28120505023E+03  0.25500000920E-02 0. -1.
    10030    2    1    2    0    0  0.00000000000E+00  0.00000000000E+00  0.12111791580E+04  0.17735892584E+04  0.12956326273E+04 0.  0.
        5    1    3    3  502    0 -0.42019940514E+02 -0.10623059346E+03  0.14784629964E+04  0.14828774515E+04  0.46999998093E+01 0.  1.
       -5    1    3    3    0  502  0.42019940514E+02  0.10623059346E+03 -0.26728383845E+03  0.29071180691E+03  0.46999998093E+01 0. -1.
</event>
<event>
 5   0  0.4388937E-03  0.1349453E+04  0.7818609E-02  0.8991242E-01
       -2   -1    0    0    0  501  0.00000000000E+00  0.00000000000E+00  0.76833128391E+03  0.76833128391E+03  0.25500000920E-02 0.  1.
        2   -1    0    0  501    0  0.00000000000E+00  0.00000000000E+00 -0.59252545242E+03  0.59252545243E+03  0.25500000920E-02 0. -1.
    10030    2    1    2    0    0  0.00000000000E+00  0.00000000000E+00  0.17580583149E+03  0.13608567363E+04  0.13494529879E+04 0.  0.
        5    1    3    3  502    0  0.44061310341E+03 -0.23071249606E+03 -0.37187271429E+03  0.62103105266E+03  0.46999998093E+01 0. -1.
       -5    1    3    3    0  502 -0.44061310341E+03  0.23071249606E+03  0.54767854578E+03  0.73982568368E+03  0.46999998093E+01 0.  1.
</event>
<event>
 5   0  0.4263540E-03  0.1306925E+04  0.7818609E-02  0.9024092E-01
        2   -1    0    0  501    0  0.00000000000E+00  0.00000000000E+00  0.17746346966E+04  0.17746346966E+04  0.25500000920E-02 0.  1.
       -2   -1    0    0    0  501  0.00000000000E+00  0.00000000000E+00 -0.24062024456E+03  0.24062024457E+03  0.25500000920E-02 0. -1.
    10030    2    1    2    0    0  0.00000000000E+00  0.00000000000E+00  0.15340144520E+04  0.20152549412E+04  0.13069246875E+04 0.  0.
        2    1    3    3  502    0 -0.15967527998E+03 -0.51954296864E+03  0.13263706735E+04  0.14334155904E+04  0.25500000920E-02 0.  1.
       -2    1    3    3    0  502  0.15967527998E+03  0.51954296864E+03  0.20764377850E+03  0.58183935073E+03  0.25500000920E-02 0. -1.
</event>
<event>
 5   0  0.2458456E-03  0.1285603E+04  0.7818609E-02  0.9041061E-01
        1   -1    0    0  501    0  0.00000000000E+00  0.00000000000E+00  0.56597165579E+03  0.56597165581E+03  0.50400001928E-02 0. -1.
       -1   -1    0    0    0  501  0.00000000000E+00  0.00000000000E+00 -0.73006074325E+03  0.73006074327E+03  0.50400001928E-02 0.  1.
    10030    2    1    2    0    0  0.00000000000E+00  0.00000000000E+00 -0.16408908746E+03  0.12960323991E+04  0.12856028745E+04 0.  0.
        5    1    3    3  502    0 -0.55906856267E+02 -0.25933150878E+03  0.50819067011E+03  0.57328723621E+03  0.46999998093E+01 0. -1.
       -5    1    3    3    0  502  0.55906856267E+02  0.25933150878E+03 -0.67227975757E+03  0.72274516287E+03  0.46999998093E+01 0.  1.
</event>
<event>
 5   0  0.4306214E-03  0.1298873E+04  0.7818609E-02  0.9030459E-01
       -2   -1    0    0    0  501  0.00000000000E+00  0.00000000000E+00  0.10667352598E+04  0.10667352598E+04  0.25500000920E-02 0. -1.
        2   -1    0    0  501    0  0.00000000000E+00  0.00000000000E+00 -0.39538194623E+03  0.39538194623E+03  0.25500000920E-02 0.  1.
    10030    2    1    2    0    0  0.00000000000E+00  0.00000000000E+00  0.67135331354E+03  0.14621172060E+04  0.12988731472E+04 0.  0.
        3    1    3    3  502    0  0.31416685523E+03  0.20296872400E+03 -0.26196442766E+03  0.45664262548E+03  0.10100000352E+00 0.  1.
       -3    1    3    3    0  502 -0.31416685523E+03 -0.20296872400E+03  0.93331774120E+03  0.10054745805E+04  0.10100000352E+00 0. -1.
</event>
<event>
 5   0  0.2370801E-03  0.1149613E+04  0.7818609E-02  0.9158141E-01
        1   -1    0    0  501    0  0.00000000000E+00  0.00000000000E+00  0.59307920609E+03  0.59307920611E+03  0.50400001928E-02 0. -1.
       -1   -1    0    0    0  501  0.00000000000E+00  0.00000000000E+00 -0.55709636889E+03  0.55709636891E+03  0.50400001928E-02 0.  1.
    10030    2    1    2    0    0  0.00000000000E+00  0.00000000000E+00  0.35982837197E+02  0.11501755750E+04  0.11496125820E+04 0.  0.
        3    1    3    3  502    0 -0.29975305004E+03 -0.48963792618E+03  0.46379108869E+02  0.57597588639E+03  0.10100000352E+00 0. -1.
       -3    1    3    3    0  502  0.29975305004E+03  0.48963792618E+03 -0.10396271672E+02  0.57419968863E+03  0.10100000352E+00 0.  1.
</event>
<event>
 5   0  0.4310889E-03  0.1197200E+04  0.7818609E-02  0.9115311E-01
       -2   -1    0    0    0  501  0.00000000000E+00  0.00000000000E+00  0.95831221869E+03  0.95831221869E+03  0.25500000920E-02 0. -1.
        2   -1    0    0  501    0  0.00000000000E+00  0.00000000000E+00 -0.37390942141E+03  0.37390942142E+03  0.25500000920E-02 0.  1.
    10030    2    1    2    0    0  0.00000000000E+00  0.00000000000E+00  0.58440279728E+03  0.13322216401E+04  0.11972000121E+04 0.  0.
        4    1    3    3  502    0 -0.28152233991E+03 -0.12703852874E+03 -0.27839253305E+03  0.41580960909E+03  0.12699999809E+01 0.  1.
       -4    1    3    3    0  502  0.28152233991E+03  0.12703852874E+03  0.86279533034E+03  0.91641203102E+03  0.12699999809E+01 0. -1.
</event>
<event>
 5   0  0.2462055E-03  0.1285221E+04  0.7818609E-02  0.9041368E-01
        1   -1    0    0  501    0  0.00000000000E+00  0.00000000000E+00  0.10134799991E+04  0.10134799991E+04  0.50400001928E-02 0. -1.
       -1   -1    0    0    0  501  0.00000000000E+00  0.00000000000E+00 -0.40745586872E+03  0.40745586875E+03  0.50400001928E-02 0.  1.
    10030    2    1    2    0    0  0.00000000000E+00  0.00000000000E+00  0.60602413037E+03  0.14209358679E+04  0.12852211848E+04 0.  0.
        2    1    3    3  502    0 -0.32727355538E+03  0.55280038985E+03  0.28545700457E+03  0.70298076256E+03  0.25500000920E-02 0.  1.
       -2    1    3    3    0  502  0.32727355538E+03 -0.55280038985E+03  0.32056712581E+03  0.71795510529E+03  0.25500000920E-02 0. -1.
</event>
<event>
 5   0  0.2356769E-03  0.1312252E+04  0.7818609E-02  0.9019905E-01
       -1   -1    0    0    0  501  0.00000000000E+00  0.00000000000E+00  0.48026213746E+03  0.48026213749E+03  0.50400001928E-02 0. -1.
        1   -1    0    0  501    0  0.00000000000E+00  0.00000000000E+00 -0.89638800310E+03  0.89638800312E+03  0.50400001928E-02 0.  1.
    10030    2    1    2    0    0  0.00000000000E+00  0.00000000000E+00 -0.41612586564E+03  0.13766501406E+04  0.13122518331E+04 0.  0.
        1    1    3    3  502    0  0.56963864850E+03 -0.17962131827E+03  0.76832235019E+02  0.60220860190E+03  0.50400001928E-02 0. -1.
       -1    1    3    3    0  502 -0.56963864850E+03  0.17962131827E+03 -0.49295810066E+03  0.77444153870E+03  0.50400001928E-02 0.  1.
</event>
<event>
 5   0  0.4388937E-03  0.1305336E+04  0.7818609E-02  0.9025344E-01
        2   -1    0    0  501    0  0.00000000000E+00  0.00000000000E+00  0.58293431042E+03  0.58293431043E+03  0.25500000920E-02 0.  1.
       -2   -1    0    0    0  501  0.00000000000E+00  0.00000000000E+00 -0.73074401846E+03  0.73074401847E+03  0.25500000920E-02 0. -1.
    10030    2    1    2    0    0  0.00000000000E+00  0.00000000000E+00 -0.14780970804E+03  0.13136783289E+04  0.13053363712E+04 0.  0.
        5    1    3    3  502    0  0.35345940479E+03 -0.21979301393E+03 -0.57982130204E+03  0.71376281222E+03  0.46999998093E+01 0. -1.
       -5    1    3    3    0  502 -0.35345940479E+03  0.21979301393E+03  0.43201159400E+03  0.59991551668E+03  0.46999998093E+01 0.  1.
</event>
<event>
 5   0  0.2458456E-03  0.1252605E+04  0.7818609E-02  0.9068018E-01
        1   -1    0    0  501    0  0.00000000000E+00  0.00000000000E+00  0.61341986504E+03  0.61341986506E+03  0.50400001928E-02 0.  1.
       -1   -1    0    0    0  501  0.00000000000E+00  0.00000000000E+00 -0.63945617447E+03  0.63945617449E+03  0.50400001928E-02 0. -1.
    10030    2    1    2    0    0  0.00000000000E+00  0.00000000000E+00 -0.26036309424E+02  0.12528760395E+04  0.12526054770E+04 0.  0.
        5    1    3    3  502    0 -0.57259677408E+03 -0.14015932344E+03 -0.22453801269E+03  0.63083366332E+03  0.46999998093E+01 0.  1.
       -5    1    3    3    0  502  0.57259677408E+03  0.14015932344E+03  0.19850170327E+03  0.62204237623E+03  0.46999998093E+01 0. -1.
</event>
<event>
 5   0  0.4306214E-03  0.1265866E+04  0.7818609E-02  0.9057081E-01
        2   -1    0    0  501    0  0.00000000000E+00  0.00000000000E+00  0.98295147119E+03  0.98295147119E+03  0.25500000920E-02 0. -1.
       -2   -1    0    0    0  501  0.00000000000E+00  0.00000000000E+00 -0.40755215714E+03  0.40755215715E+03  0.25500000920E-02 0.  1.
    10030    2    1    2    0    0  0.00000000000E+00  0.00000000000E+00  0.57539931405E+03  0.13905036283E+04  0.12658656998E+04 0.  0.
        3    1    3    3  502    0 -0.22836944709E+03 -0.57255106260E+03  0.44549863423E+03  0.76055004237E+03  0.10100000352E+00 0.  1.
       -3    1    3    3    0  502  0.22836944709E+03  0.57255106260E+03  0.12990067982E+03  0.62995358597E+03  0.10100000352E+00 0. -1.
</event>
<event>
 5   0  0.4453011E-03  0.1397030E+04  0.7818609E-02  0.8955971E-01
       -2   -1    0    0    0  501  0.00000000000E+00  0.00000000000E+00  0.36039001028E+03  0.36039001029E+03  0.25500000920E-02 0. -1.
        2   -1    0    0  501    0  0.00000000000E+00  0.00000000000E+00 -0.13538748238E+04  0.13538748238E+04  0.25500000920E-02 0.  1.
    10030    2    1    2    0    0  0.00000000000E+00  0.00000000000E+00 -0.99348481347E+03  0.17142648340E+04  0.13970296513E+04 0.  0.
        1    1    3    3  502    0  0.42871234096E+03  0.26212749846E+03 -0.10921193344E+04  0.12021770823E+04  0.50400001928E-02 0.  1.
       -1    1    3    3    0  502 -0.42871234096E+03 -0.26212749846E+03  0.98634520886E+02  0.51208775174E+03  0.50400001928E-02 0. -1.
</event>
<event>
 5   0  0.2462055E-03  0.1290851E+04  0.7818609E-02  0.9036852E-01
        1   -1    0    0  501    0  0.00000000000E+00  0.00000000000E+00  0.11165415494E+04  0.11165415494E+04  0.50400001928E-02 0.  1.
       -1   -1    0    0    0  501  0.00000000000E+00  0.00000000000E+00 -0.37309342185E+03  0.37309342188E+03  0.50400001928E-02 0. -1.
    10030    2    1    2    0    0  0.00000000000E+00  0.00000000000E+00  0.74344812758E+03  0.14896349713E+04  0.12908513584E+04 0.  0.
        2    1    3    3  502    0 -0.45795368040E+03 -0.22299265302E+03 -0.85710574330E+02  0.51652066681E+03  0.25500000920E-02 0. -1.
       -2    1    3    3    0  502  0.45795368040E+03  0.22299265302E+03  0.82915870191E+03  0.97311430451E+03  0.25500000920E-02 0.  1.
</event>
<event>
 5   0  0.2462055E-03  0.1275518E+04  0.7818609E-02  0.9049208E-01
        1   -1    0    0  501    0  0.00000000000E+00  0.00000000000E+00  0.69803191325E+03  0.69803191327E+03  0.50400001928E-02 0. -1.
       -1   -1    0    0    0  501  0.00000000000E+00  0.00000000000E+00 -0.58269053058E+03  0.58269053060E+03  0.50400001928E-02 0.  1.
    10030    2    1    2    0    0  0.00000000000E+00  0.00000000000E+00  0.11534138267E+03  0.12807224439E+04  0.12755180687E+04 0.  0.
        2    1    3    3  502    0  0.52857199841E+01 -0.48644277078E+03  0.47176349354E+03  0.67765426430E+03  0.25500000920E-02 0. -1.
       -2    1    3    3    0  502 -0.52857199841E+01  0.48644277078E+03 -0.35642211088E+03  0.60306817957E+03  0.25500000920E-02 0.  1.
</event>
<event>
 5   0  0.4306214E-03  0.1332579E+04  0.7818609E-02  0.9004121E-01
       -2   -1    0    0    0  501  0.00000000000E+00  0.00000000000E+00  0.42871774767E+03  0.42871774768E+03  0.25500000920E-02 0.  1.
        2   -1    0    0  501    0  0.00000000000E+00  0.00000000000E+00 -0.10355109457E+04  0.10355109457E+04  0.25500000920E-02 0. -1.
    10030    2    1    2    0    0  0.00000000000E+00  0.00000000000E+00 -0.60679319804E+03  0.14642286934E+04  0.13325793340E+04 0.  0.
        3    1    3    3  502    0 -0.15169011333E+03  0.62690830269E+03 -0.48699038942E+03  0.80819772337E+03  0.10100000352E+00 0. -1.
       -3    1    3    3    0  502  0.15169011333E+03 -0.62690830269E+03 -0.11980280861E+03  0.65603097002E+03  0.10100000352E+00 0.  1.
</event>
<event>
 5   0  0.4306214E-03  0.1276002E+04  0.7818609E-02  0.9048815E-01
        2   -1    0    0  501    0  0.00000000000E+00  0.00000000000E+00  0.57299031657E+03  0.57299031657E+03  0.25500000920E-02 0.  1.
       -2   -1    0    0    0  501  0.00000000000E+00  0.00000000000E+00 -0.71038743535E+03  0.71038743535E+03  0.25500000920E-02 0. -1.
    10030    2    1    2    0    0  0.00000000000E+00  0.00000000000E+00 -0.13739711878E+03  0.12833777519E+04  0.12760017578E+04 0.  0.
        3    1    3    3  502    0 -0.12806349823E+03  0.40138798230E+03 -0.55056353898E+03  0.69327685132E+03  0.10100000352E+00 0. -1.
       -3    1    3    3    0  502  0.12806349823E+03 -0.40138798230E+03  0.41316642020E+03  0.59010090061E+03  0.10100000352E+00 0.  1.
</event>
<event>
 5   0  0.2511542E-03  0.1310269E+04  0.7818609E-02  0.9021461E-01
        1   -1    0    0  501    0  0.00000000000E+00  0.00000000000E+00  0.51589076415E+03  0.51589076418E+03  0.50400001928E-02 0.  1.
       -1   -1    0    0    0  501  0.00000000000E+00  0.00000000000E+00 -0.83196161578E+03  0.83196161579E+03  0.50400001928E-02 0. -1.
    10030    2    1    2    0    0  0.00000000000E+00  0.00000000000E+00 -0.31607085163E+03  0.13478523800E+04  0.13102691536E+04 0.  0.
        4    1    3    3  502    0  0.64847804898E+03 -0.86480569862E+02 -0.19362597325E+03  0.68227215933E+03  0.12699999809E+01 0.  1.
       -4    1    3    3    0  502 -0.64847804898E+03  0.86480569862E+02 -0.12244487838E+03  0.66558022065E+03  0.12699999809E+01 0. -1.
</event>
<event>
 5   0  0.2511542E-03  0.1320154E+04  0.7818609E-02  0.9013733E-01
       -1   -1    0    0    0  501  0.00000000000E+00  0.00000000000E+00  0.40731525129E+03  0.40731525132E+03  0.50400001928E-02 0. -1.
        1   -1    0    0  501    0  0.00000000000E+00  0.00000000000E+00 -0.10696921176E+04  0.10696921176E+04  0.50400001928E-02 0.  1.
    10030    2    1    2    0    0  0.00000000000E+00  0.00000000000E+00 -0.66237686630E+03  0.14770073689E+04  0.13201544057E+04 0.  0.
        4    1    3    3  502    0  0.41099394988E+03  0.42548114673E+03 -0.65881202594E+03  0.88542934867E+03  0.12699999809E+01 0.  1.
       -4    1    3    3    0  502 -0.41099394988E+03 -0.42548114673E+03 -0.35648403637E+01  0.59157802025E+03  0.12699999809E+01 0. -1.
</event>
<event>
 5   0  0.2356769E-03  0.1294541E+04  0.7818609E-02  0.9033906E-01
       -1   -1    0    0    0  501  0.00000000000E+00  0.00000000000E+00  0.73726021826E+03  0.73726021828E+03  0.50400001928E-02 0.  1.
        1   -1    0    0  501    0  0.00000000000E+00  0.00000000000E+00 -0.56826480864E+03  0.56826480866E+03  0.50400001928E-02 0. -1.
    10030    2    1    2    0    0  0.00000000000E+00  0.00000000000E+00  0.16899540962E+03  0.13055250269E+04  0.12945409022E+04 0.  0.
        1    1    3    3  502    0  0.49722749932E+03  0.43524671207E+01 -0.33339113966E+03  0.59866834063E+03  0.50400001928E-02 0. -1.
       -1    1    3    3    0  502 -0.49722749932E+03 -0.43524671207E+01  0.50238654928E+03  0.70685668630E+03  0.50400001928E-02 0.  1.
</event>
<event>
 5   0  0.2356769E-03  0.1402786E+04  0.7818609E-02  0.8951804E-01
        1   -1    0    0  501    0  0.00000000000E+00  0.00000000000E+00  0.55736477002E+03  0.55736477005E+03  0.50400001928E-02 0. -1.
       -1   -1    0    0    0  501  0.00000000000E+00  0.00000000000E+00 -0.88263978789E+03  0.88263978791E+03  0.50400001928E-02 0.  1.
    10030    2    1    2    0    0  0.00000000000E+00  0.00000000000E+00 -0.32527501787E+03  0.14400045580E+04  0.14027862594E+04 0.  0.
        1    1    3    3  502    0  0.28101500588E+03  0.58895599462E+02  0.49427396094E+03  0.57161601942E+03  0.50400001928E-02 0. -1.
       -1    1    3    3    0  502 -0.28101500588E+03 -0.58895599462E+02 -0.81954897881E+03  0.86838853854E+03  0.50400001928E-02 0.  1.
</event>
<event>
 5   0  0.2462055E-03  0.1299319E+04  0.7818609E-02  0.9030105E-01
       -1   -1    0    0    0  501  0.00000000000E+00  0.00000000000E+00  0.39129285762E+03  0.39129285765E+03  0.50400001928E-02 0.  1.
        1   -1    0    0  501    0  0.00000000000E+00  0.00000000000E+00 -0.10786230861E+04  0.10786230861E+04  0.50400001928E-02 0. -1.
    10030    2    1    2    0    0  0.00000000000E+00  0.00000000000E+00 -0.68733022847E+03  0.14699159438E+04  0.12993190673E+04 0.  0.
        2    1    3    3  502    0 -0.43877142324E+03 -0.47329968182E+03 -0.42775146352E+03  0.77427660769E+03  0.25500000920E-02 0.  1.
       -2    1    3    3    0  502  0.43877142324E+03  0.47329968182E+03 -0.25957876496E+03  0.69563933607E+03  0.25500000920E-02 0. -1.
</event>
<event>
 5   0  0.2458456E-03  0.1351956E+04  0.7818609E-02  0.8989349E-01
        1   -1    0    0  501    0  0.00000000000E+00  0.00000000000E+00  0.20548228324E+04  0.20548228324E+04  0.50400001928E-02 0. -1.
       -1   -1    0    0    0  501  0.00000000000E+00  0.00000000000E+00 -0.22237741000E+03  0.22237741005E+03  0.50400001928E-02 0.  1.
    10030    2    1    2    0    0  0.00000000000E+00  0.00000000000E+00  0.18324454224E+04  0.22772002425E+04  0.13519558862E+04 0.  0.
        5    1    3    3  502    0  0.13874895535E+02 -0.67315371091E+03  0.10172242306E+04  0.12198752627E+04  0.46999998093E+01 0.  1.
       -5    1    3    3    0  502 -0.13874895535E+02  0.67315371091E+03  0.81522119180E+03  0.10573249798E+04  0.46999998093E+01 0. -1.
</event>
<event>
 5   0  0.2462055E-03  0.1299237E+04  0.7818609E-02  0.9030171E-01
       -1   -1    0    0    0  501  0.00000000000E+00  0.00000000000E+00  0.21156646583E+03  0.21156646589E+03  0.50400001928E-02 0. -1.
        1   -1    0    0  501    0  0.00000000000E+00  0.00000000000E+00 -0.19946636372E+04  0.19946636372E+04  0.50400001928E-02 0.  1.
    10030    2    1    2    0    0  0.00000000000E+00  0.00000000000E+00 -0.17830971714E+04  0.22062301031E+04  0.12992366010E+04 0.  0.
        2    1    3    3  502    0  0.41206925848E+03  0.43794601082E+03 -0.13089012138E+04  0.14404236077E+04  0.25500000920E-02 0. -1.
       -2    1    3    3    0  502 -0.41206925848E+03 -0.43794601082E+03 -0.47419595756E+03  0.76580649537E+03  0.25500000920E-02 0.  1.
</event>
<event>
 5   0  0.4453011E-03  0.1306137E+04  0.7818609E-02  0.9024712E-01
       -2   -1    0    0    0  501  0.00000000000E+00  0.00000000000E+00  0.10868433808E+04  0.10868433808E+04  0.25500000920E-02 0. -1.
        2   -1    0    0  501    0  0.00000000000E+00  0.00000000000E+00 -0.39241965482E+03  0.39241965483E+03  0.25500000920E-02 0.  1.
    10030    2    1    2    0    0  0.00000000000E+00  0.00000000000E+00  0.69442372594E+03  0.14792630356E+04  0.13061373654E+04 0.  0.
        1    1    3    3  502    0 -0.36778067122E+03 -0.23717286774E+03  0.89621740176E+03  0.99735611622E+03  0.50400001928E-02 0. -1.
       -1    1    3    3    0  502  0.36778067122E+03  0.23717286774E+03 -0.20179367581E+03  0.48190691938E+03  0.50400001928E-02 0.  1.
</event>
<event>
 5   0  0.4453011E-03  0.1275604E+04  0.7818609E-02  0.9049138E-01
        2   -1    0    0  501    0  0.00000000000E+00  0.00000000000E+00  0.85835108560E+03  0.85835108560E+03  0.25500000920E-02 0.  1.
       -2   -1    0    0    0  501  0.00000000000E+00  0.00000000000E+00 -0.47392194532E+03  0.47392194533E+03  0.25500000920E-02 0. -1.
    10030    2    1    2    0    0  0.00000000000E+00  0.00000000000E+00  0.38442914028E+03  0.13322730309E+04  0.12756040393E+04 0.  0.
        1    1    3    3  502    0  0.19307965634E+03 -0.54165610849E+03 -0.95941426023E+02  0.58298872271E+03  0.50400001928E-02 0. -1.
       -1    1    3    3    0  502 -0.19307965634E+03  0.54165610849E+03  0.48037056630E+03  0.74928430822E+03  0.50400001928E-02 0.  1.
</event>
<event>
 5   0  0.4263540E-03  0.1455800E+04  0.7818609E-02  0.8914389E-01
        2   -1    0    0  501    0  0.00000000000E+00  0.00000000000E+00  0.92272884799E+03  0.92272884799E+03  0.25500000920E-02 0. -1.
       -2   -1    0    0    0  501  0.00000000000E+00  0.00000000000E+00 -0.57420852589E+03  0.57420852590E+03  0.25500000920E-02 0.  1.
    10030    2    1    2    0    0  0.00000000000E+00  0.00000000000E+00  0.34852032210E+03  0.14969373739E+04  0.14558004968E+04 0.  0.
        2    1    3    3  502    0 -0.93944463674E+02 -0.71403313909E+03  0.65586041235E+02  0.72316693425E+03  0.25500000920E-02 0.  1.
       -2    1    3    3    0  502  0.93944463674E+02  0.71403313909E+03  0.28293428086E+03  0.77377043965E+03  0.25500000920E-02 0. -1.
</event>
<event>
 5   0  0.2511542E-03  0.1276621E+04  0.7818609E-02  0.9048314E-01
       -1   -1    0    0    0  501  0.00000000000E+00  0.00000000000E+00  0.61931201611E+03  0.61931201613E+03  0.50400001928E-02 0.  1.
        1   -1    0    0  501    0  0.00000000000E+00  0.00000000000E+00 -0.65789130446E+03  0.65789130448E+03  0.50400001928E-02 0. -1.
    10030    2    1    2    0    0  0.00000000000E+00  0.00000000000E+00 -0.38579288347E+02  0.12772033206E+04  0.12766205234E+04 0.  0.
        4    1    3    3  502    0 -0.22661619353E+03  0.44154126125E+03  0.38229713135E+03  0.62647130349E+03  0.12699999809E+01 0.  1.
       -4    1    3    3    0  502  0.22661619353E+03 -0.44154126125E+03 -0.42087641970E+03  0.65073201712E+03  0.12699999809E+01 0. -1.
</event>
<event>
 5   0  0.2511542E-03  0.1309480E+04  0.7818609E-02  0.9022081E-01
       -1   -1    0    0    0  501  0.00000000000E+00  0.00000000000E+00  0.60191313547E+03  0.60191313549E+03  0.50400001928E-02 0.  1.
        1   -1    0    0  501    0  0.00000000000E+00  0.00000000000E+00 -0.71220373973E+03  0.71220373975E+03  0.50400001928E-02 0. -1.
    10030    2    1    2    0    0  0.00000000000E+00  0.00000000000E+00 -0.11029060426E+03  0.13141168752E+04  0.13094804864E+04 0.  0.
        4    1    3    3  502    0  0.33327716562E+03 -0.31014382673E+02  0.50956156619E+03  0.60966397605E+03  0.12699999809E+01 0.  1.
       -4    1    3    3    0  502 -0.33327716562E+03  0.31014382673E+02 -0.61985217045E+03  0.70445289918E+03  0.12699999809E+01 0. -1.
</event>
<event>
 5   0  0.2356769E-03  0.1266331E+04  0.7818609E-02  0.9056700E-01
       -1   -1    0    0    0  501  0.00000000000E+00  0.00000000000E+00  0.32840107756E+03  0.32840107760E+03  0.50400001928E-02 0.  1.
        1   -1    0    0  501    0  0.00000000000E+00  0.00000000000E+00 -0.12207587242E+04  0.12207587242E+04  0.50400001928E-02 0. -1.
    10030    2    1    2    0    0  0.00000000000E+00  0.00000000000E+00 -0.89235764666E+03  0.15491598018E+04  0.12663308896E+04 0.  0.
        1    1    3    3  502    0 -0.88467646658E+02 -0.47392592814E+03  0.55938691318E+02  0.48534672873E+03  0.50400001928E-02 0.  1.
       -1    1    3    3    0  502  0.88467646658E+02  0.47392592814E+03 -0.94829633798E+03  0.10638130731E+04  0.50400001928E-02 0. -1.
</event>
<event>
 5   0  0.2462055E-03  0.1303016E+04  0.7818609E-02  0.9027177E-01
        1   -1    0    0  501    0  0.00000000000E+00  0.00000000000E+00  0.15485279906E+04  0.15485279906E+04  0.50400001928E-02 0. -1.
       -1   -1    0    0    0  501  0.00000000000E+00  0.00000000000E+00 -0.27410710866E+03  0.27410710870E+03  0.50400001928E-02 0.  1.
    10030    2    1    2    0    0  0.00000000000E+00  0.00000000000E+00  0.12744208819E+04  0.18226350993E+04  0.13030157792E+04 0.  0.
        2    1    3    3  502    0 -0.23812080290E+03 -0.64425848584E+02 -0.20625667784E+03  0.32154941129E+03  0.25500000920E-02 0.  1.
       -2    1    3    3    0  502  0.23812080290E+03  0.64425848584E+02  0.14806775598E+04  0.15010856880E+04  0.25500000920E-02 0. -1.
</event>
<event>
 5   0  0.2462055E-03  0.1426375E+04  0.7818609E-02  0.8934945E-01
        1   -1    0    0  501    0  0.00000000000E+00  0.00000000000E+00  0.85865803252E+03  0.85865803254E+03  0.50400001928E-02 0. -1.
       -1   -1    0    0    0  501  0.00000000000E+00  0.00000000000E+00 -0.59236168005E+03  0.59236168007E+03  0.50400001928E-02 0.  1.
    10030    2    1    2    0    0  0.00000000000E+00  0.00000000000E+00  0.26629635247E+03  0.14510197126E+04  0.14263745858E+04 0.  0.
        2    1    3    3  502    0 -0.13513263007E+03  0.10136810061E+03  0.83801242050E+03  0.85486907562E+03  0.25500000920E-02 0. -1.
       -2    1    3    3    0  502  0.13513263007E+03 -0.10136810061E+03 -0.57171606803E+03  0.59615063699E+03  0.25500000920E-02 0.  1.
</event>
<event>
 5   0  0.4306214E-03  0.1349866E+04  0.7818609E-02  0.8990930E-01
       -2   -1    0    0    0  501  0.00000000000E+00  0.00000000000E+00  0.37016607611E+03  0.37016607612E+03  0.25500000920E-02 0.  1.
        2   -1    0    0  501    0  0.00000000000E+00  0.00000000000E+00 -0.12306214288E+04  0.12306214288E+04  0.25500000920E-02 0. -1.
    10030    2    1    2    0    0  0.00000000000E+00  0.00000000000E+00 -0.86045535270E+03  0.16007875049E+04  0.13498656311E+04 0.  0.
        3    1    3    3  502    0 -0.64586444833E+03  0.12993772599E+03 -0.25630376927E+03  0.70690616817E+03  0.10100000352E+00 0.  1.
       -3    1    3    3    0  502  0.64586444833E+03 -0.12993772599E+03 -0.60415158343E+03  0.89388133676E+03  0.10100000352E+00 0. -1.
</event>
<event>
 5   0  0.4453011E-03  0.1318182E+04  0.7818609E-02  0.9015269E-01
       -2   -1    0    0    0  501  0.00000000000E+00  0.00000000000E+00  0.33635888658E+03  0.33635888659E+03  0.25500000920E-02 0. -1.
        2   -1    0    0  501    0  0.00000000000E+00  0.00000000000E+00 -0.12914810149E+04  0.12914810149E+04  0.25500000920E-02 0.  1.
    10030    2    1    2    0    0  0.00000000000E+00  0.00000000000E+00 -0.95512212836E+03  0.16278399015E+04  0.13181822579E+04 0.  0.
        1    1    3    3  502    0 -0.25759263277E+03  0.81328869726E+02 -0.12199816215E+04  0.12495293140E+04  0.50400001928E-02 0.  1.
       -1    1    3    3    0  502  0.25759263277E+03 -0.81328869726E+02  0.26485949319E+03  0.37831058757E+03  0.50400001928E-02 0. -1.
</event>
<event>
 5   0  0.4306214E-03  0.1305495E+04  0.7818609E-02  0.9025219E-01
       -2   -1    0    0    0  501  0.00000000000E+00  0.00000000000E+00  0.85789298291E+03  0.85789298292E+03  0.25500000920E-02 0. -1.
        2   -1    0    0  501    0  0.00000000000E+00  0.00000000000E+00 -0.49665785726E+03  0.49665785727E+03  0.25500000920E-02 0.  1.
    10030    2    1    2    0    0  0.00000000000E+00  0.00000000000E+00  0.36123512565E+03  0.13545508402E+04  0.13054949876E+04 0.  0.
        3    1    3    3  502    0 -0.58959000729E+03  0.89499954616E+02 -0.94785524558E+02  0.60383021160E+03  0.10100000352E+00 0.  1.
       -3    1    3    3    0  502  0.58959000729E+03 -0.89499954616E+02  0.45602065021E+03  0.75072062859E+03  0.10100000352E+00 0. -1.
</event>
<event>
 5   0  0.2356769E-03  0.1323648E+04  0.7818609E-02  0.9011020E-01
        1   -1    0    0  501    0  0.00000000000E+00  0.00000000000E+00  0.17900714924E+04  0.17900714924E+04  0.50400001928E-02 0.  1.
       -1   -1    0    0    0  501  0.00000000000E+00  0.00000000000E+00 -0.24468906894E+03  0.24468906899E+03  0.50400001928E-02 0. -1.
    10030    2    1    2    0    0  0.00000000000E+00  0.00000000000E+00  0.15453824234E+04  0.20347605614E+04  0.13236478789E+04 0.  0.
        1    1    3    3  502    0 -0.19347768677E+03  0.48422482034E+02  0.17427749716E+04  0.17541502085E+04  0.50400001928E-02 0.  1.
       -1    1    3    3    0  502  0.19347768677E+03 -0.48422482034E+02 -0.19739254821E+03  0.28061035291E+03  0.50400001928E-02 0. -1.
</event>
<event>
 5   0  0.4263540E-03  0.1112676E+04  0.7818609E-02  0.9192925E-01
       -2   -1    0    0    0  501  0.00000000000E+00  0.00000000000E+00  0.39600996778E+03  0.39600996779E+03  0.25500000920E-02 0.  1.
        2   -1    0    0  501    0  0.00000000000E+00  0.00000000000E+00 -0.78157552471E+03  0.78157552472E+03  0.25500000920E-02 0. -1.
    10030    2    1    2    0    0  0.00000000000E+00  0.00000000000E+00 -0.38556555693E+03  0.11775854925E+04  0.11126755113E+04 0.  0.
        2    1    3    3  502    0 -0.40136101376E+03 -0.13574885206E+03  0.18879614181E+03  0.46385600931E+03  0.25500000920E-02 0.  1.
       -2    1    3    3    0  502  0.40136101376E+03  0.13574885206E+03 -0.57436169874E+03  0.71372948320E+03  0.25500000920E-02 0. -1.
</event>
<event>
 5   0  0.4263540E-03  0.1307646E+04  0.7818609E-02  0.9023524E-01
        2   -1    0    0  501    0  0.00000000000E+00  0.00000000000E+00  0.73320587473E+03  0.73320587473E+03  0.25500000920E-02 0. -1.
       -2   -1    0    0    0  501  0.00000000000E+00  0.00000000000E+00 -0.58303470097E+03  0.58303470098E+03  0.25500000920E-02 0.  1.
    10030    2    1    2    0    0  0.00000000000E+00  0.00000000000E+00  0.15017117376E+03  0.13162405757E+04  0.13076459275E+04 0.  0.
        2    1    3    3  502    0 -0.64880823895E+03 -0.53214894300E+02  0.13631724478E+03  0.66510626755E+03  0.25500000920E-02 0. -1.
       -2    1    3    3    0  502  0.64880823895E+03  0.53214894300E+02  0.13853928973E+02  0.65113430816E+03  0.25500000920E-02 0.  1.
</event>
<event>
 5   0  0.2511542E-03  0.1322350E+04  0.7818609E-02  0.9012027E-01
        1   -1    0    0  501    0  0.00000000000E+00  0.00000000000E+00  0.10118367814E+04  0.10118367814E+04  0.50400001928E-02 0.  1.
       -1   -1    0    0    0  501  0.00000000000E+00  0.00000000000E+00 -0.43203811825E+03  0.43203811828E+03  0.50400001928E-02 0. -1.
    10030    2    1    2    0    0  0.00000000000E+00  0.00000000000E+00  0.57979866312E+03  0.14438748997E+04  0.13223495136E+04 0.  0.
        4    1    3    3  502    0  0.59254885886E+03 -0.28603026470E+03  0.36085596601E+03  0.75043061209E+03  0.12699999809E+01 0. -1.
       -4    1    3    3    0  502 -0.59254885886E+03  0.28603026470E+03  0.21894269711E+03  0.69344428758E+03  0.12699999809E+01 0.  1.
</event>
<event>
 5   0  0.2462055E-03  0.1107884E+04  0.7818609E-02  0.9197542E-01
        1   -1    0    0  501    0  0.00000000000E+00  0.00000000000E+00  0.64475311650E+03  0.64475311652E+03  0.50400001928E-02 0. -1.
       -1   -1    0    0    0  501  0.00000000000E+00  0.00000000000E+00 -0.47592121021E+03  0.47592121024E+03  0.50400001928E-02 0.  1.
    10030    2    1    2    0    0  0.00000000000E+00  0.00000000000E+00  0.16883190628E+03  0.11206743268E+04  0.11078838992E+04 0.  0.
        2    1    3    3  502    0 -0.26736771025E+02  0.26671062411E+03 -0.40595100871E+03  0.48646236588E+03  0.25500000920E-02 0.  1.
       -2    1    3    3    0  502  0.26736771025E+02 -0.26671062411E+03  0.57478291500E+03  0.63421196087E+03  0.25500000920E-02 0. -1.
</event>
<event>
 5   0  0.2458456E-03  0.1297481E+04  0.7818609E-02  0.9031565E-01
        1   -1    0    0  501    0  0.00000000000E+00  0.00000000000E+00  0.64190194654E+03  0.64190194656E+03  0.50400001928E-02 0.  1.
       -1   -1    0    0    0  501  0.00000000000E+00  0.00000000000E+00 -0.65565230184E+03  0.65565230186E+03  0.50400001928E-02 0. -1.
    10030    2    1    2    0    0  0.00000000000E+00  0.00000000000E+00 -0.13750355304E+02  0.12975542484E+04  0.12974813892E+04 0.  0.
        5    1    3    3  502    0 -0.68121027791E+02 -0.28134724269E+03  0.57371375408E+03  0.64262454592E+03  0.46999998093E+01 0.  1.
       -5    1    3    3    0  502  0.68121027791E+02  0.28134724269E+03 -0.58746410939E+03  0.65492970250E+03  0.46999998093E+01 0. -1.
</event>
<event>
 5   0  0.4310889E-03  0.1297017E+04  0.7818609E-02  0.9031934E-01
       -2   -1    0    0    0  501  0.00000000000E+00  0.00000000000E+00  0.28067618826E+03  0.28067618827E+03  0.25500000920E-02 0.  1.
        2   -1    0    0  501    0  0.00000000000E+00  0.00000000000E+00 -0.14983921286E+04  0.14983921286E+04  0.25500000920E-02 0. -1.
    10030    2    1    2    0    0  0.00000000000E+00  0.00000000000E+00 -0.12177159404E+04  0.17790683169E+04  0.12970165630E+04 0.  0.
        4    1    3    3  502    0  0.56739226272E+02 -0.43335697823E+03  0.48315248278E+02  0.43971989549E+03  0.12699999809E+01 0.  1.
       -4    1    3    3    0  502 -0.56739226272E+02  0.43335697823E+03 -0.12660311886E+04  0.13393484214E+04  0.12699999809E+01 0. -1.
</event>
<event>
 5   0  0.2458456E-03  0.1337593E+04  0.7818609E-02  0.9000273E-01
        1   -1    0    0  501    0  0.00000000000E+00  0.00000000000E+00  0.83720879554E+03  0.83720879555E+03  0.50400001928E-02 0.  1.
       -1   -1    0    0    0  501  0.00000000000E+00  0.00000000000E+00 -0.53426217995E+03  0.53426217998E+03  0.50400001928E-02 0. -1.
    10030    2    1    2    0    0  0.00000000000E+00  0.00000000000E+00  0.30294661558E+03  0.13714709755E+04  0.13375933556E+04 0.  0.
        5    1    3    3  502    0  0.31657874282E+03  0.58550929389E+03  0.84837504146E+02  0.67101618889E+03  0.46999998093E+01 0. -1.
       -5    1    3    3    0  502 -0.31657874282E+03 -0.58550929389E+03  0.21810911144E+03  0.70045478664E+03  0.46999998093E+01 0.  1.
</event>
<event>
 5   0  0.4453011E-03  0.1305941E+04  0.7818609E-02  0.9024867E-01
       -2   -1    0    0    0  501  0.00000000000E+00  0.00000000000E+00  0.20111160116E+03  0.20111160117E+03  0.25500000920E-02 0. -1.
        2   -1    0    0  501    0  0.00000000000E+00  0.00000000000E+00 -0.21200687883E+04  0.21200687883E+04  0.25500000920E-02 0.  1.
    10030    2    1    2    0    0  0.00000000000E+00  0.00000000000E+00 -0.19189571872E+04  0.23211803895E+04  0.13059409307E+04 0.  0.
        1    1    3    3  502    0  0.33852421927E+02  0.60228910267E+03 -0.14037302271E+04  0.15278601704E+04  0.50400001928E-02 0.  1.
       -1    1    3    3    0  502 -0.33852421927E+02 -0.60228910267E+03 -0.51522696001E+03  0.79332021909E+03  0.50400001928E-02 0. -1.
</event>
<event>
 5   0  0.2458456E-03  0.1328073E+04  0.7818609E-02  0.9007595E-01
        1   -1    0    0  501    0  0.00000000000E+00  0.00000000000E+00  0.13235634444E+04  0.13235634444E+04  0.50400001928E-02 0. -1.
       -1   -1    0    0    0  501  0.00000000000E+00  0.00000000000E+00 -0.33314948863E+03  0.33314948867E+03  0.50400001928E-02 0.  1.
    10030    2    1    2    0    0  0.00000000000E+00  0.00000000000E+00  0.99041395574E+03  0.16567129331E+04  0.13280730171E+04 0.  0.
        5    1    3    3  502    0  0.13997259092E+03  0.56637615422E+03  0.89076690460E+03  0.10648295838E+04  0.46999998093E+01 0. -1.
       -5    1    3    3    0  502 -0.13997259092E+03 -0.56637615422E+03  0.99647051142E+02  0.59188334922E+03  0.46999998093E+01 0.  1.
</event>
<event>
 5   0  0.2356769E-03  0.1279064E+04  0.7818609E-02  0.9046335E-01
        1   -1    0    0  501    0  0.00000000000E+00  0.00000000000E+00  0.21779899466E+04  0.21779899466E+04  0.50400001928E-02 0. -1.
       -1   -1    0    0    0  501  0.00000000000E+00  0.00000000000E+00 -0.18778823222E+03  0.18778823229E+03  0.50400001928E-02 0.  1.
    10030    2    1    2    0    0  0.00000000000E+00  0.00000000000E+00  0.19902017143E+04  0.23657781789E+04  0.12790635355E+04 0.  0.
        1    1    3    3  502    0 -0.46678639835E+03 -0.23864877255E+03  0.31763040365E+03  0.61296969882E+03  0.50400001928E-02 0.  1.
       -1    1    3    3    0  502  0.46678639835E+03  0.23864877255E+03  0.16725713107E+04  0.17528084800E+04  0.50400001928E-02 0. -1.
</event>
<event>
 5   0  0.2370801E-03  0.1389338E+04  0.7818609E-02  0.8961573E-01
       -1   -1    0    0    0  501  0.00000000000E+00  0.00000000000E+00  0.34312030978E+03  0.34312030982E+03  0.50400001928E-02 0.  1.
        1   -1    0    0  501    0  0.00000000000E+00  0.00000000000E+00 -0.14064012866E+04  0.14064012866E+04  0.50400001928E-02 0. -1.
    10030    2    1    2    0    0  0.00000000000E+00  0.00000000000E+00 -0.10632809768E+04  0.17495215964E+04  0.13893377489E+04 0.  0.
        3    1    3    3  502    0  0.41712356679E+03  0.44117334203E+03 -0.95669769391E+03  0.11330915565E+04  0.10100000352E+00 0. -1.
       -3    1    3    3    0  502 -0.41712356679E+03 -0.44117334203E+03 -0.10658328288E+03  0.61643003989E+03  0.10100000352E+00 0.  1.
</event>
<event>
 5   0  0.2458456E-03  0.1371179E+04  0.7818609E-02  0.8974949E-01
       -1   -1    0    0    0  501  0.00000000000E+00  0.00000000000E+00  0.59393872675E+03  0.59393872677E+03  0.50400001928E-02 0.  1.
        1   -1    0    0  501    0  0.00000000000E+00  0.00000000000E+00 -0.79138334812E+03  0.79138334814E+03  0.50400001928E-02 0. -1.
    10030    2    1    2    0    0  0.00000000000E+00  0.00000000000E+00 -0.19744462137E+03  0.13853220749E+04  0.13711793729E+04 0.  0.
        5    1    3    3  502    0 -0.18700168935E+00  0.12175553640E+03  0.58291170818E+03  0.59551036527E+03  0.46999998093E+01 0.  1.
       -5    1    3    3    0  502  0.18700168935E+00 -0.12175553640E+03 -0.78035632955E+03  0.78981170964E+03  0.46999998093E+01 0. -1.
</event>
<event>
 5   0  0.4310889E-03  0.1284099E+04  0.7818609E-02  0.9042271E-01
       -2   -1    0    0    0  501  0.00000000000E+00  0.00000000000E+00  0.41955105534E+03  0.41955105535E+03  0.25500000920E-02 0. -1.
        2   -1    0    0  501    0  0.00000000000E+00  0.00000000000E+00 -0.98254395716E+03  0.98254395716E+03  0.25500000920E-02 0.  1.
    10030    2    1    2    0    0  0.00000000000E+00  0.00000000000E+00 -0.56299290182E+03  0.14020950125E+04  0.12840986787E+04 0.  0.
        4    1    3    3  502    0 -0.27525251042E+03 -0.22592518518E+03 -0.86483536334E+03  0.93527961187E+03  0.12699999809E+01 0.  1.
       -4    1    3    3    0  502  0.27525251042E+03  0.22592518518E+03  0.30184246153E+03  0.46681540064E+03  0.12699999809E+01 0. -1.
</event>
<event>
 5   0  0.4306214E-03  0.1304601E+04  0.7818609E-02  0.9025924E-01
        2   -1    0    0  501    0  0.00000000000E+00  0.00000000000E+00  0.96908650343E+03  0.96908650344E+03  0.25500000920E-02 0. -1.
       -2   -1    0    0    0  501  0.00000000000E+00  0.00000000000E+00 -0.43906937215E+03  0.43906937216E+03  0.25500000920E-02 0.  1.
    10030    2    1    2    0    0  0.00000000000E+00  0.00000000000E+00  0.53001713128E+03  0.14081558756E+04  0.13046013991E+04 0.  0.
        3    1    3    3  502    0 -0.49012317638E+03  0.61669132936E+02 -0.19480116967E+03  0.53100971355E+03  0.10100000352E+00 0.  1.
       -3    1    3    3    0  502  0.49012317638E+03 -0.61669132936E+02  0.72481830095E+03  0.87714616204E+03  0.10100000352E+00 0. -1.
</event>
<event>
 5   0  0.4263540E-03  0.1284597E+04  0.7818609E-02  0.9041870E-01
        2   -1    0    0  501    0  0.00000000000E+00  0.00000000000E+00  0.10626019554E+04  0.10626019554E+04  0.25500000920E-02 0. -1.
       -2   -1    0    0    0  501  0.00000000000E+00  0.00000000000E+00 -0.38824238987E+03  0.38824238988E+03  0.25500000920E-02 0.  1.
    10030    2    1    2    0    0  0.00000000000E+00  0.00000000000E+00  0.67435956555E+03  0.14508443453E+04  0.12845966257E+04 0.  0.
        2    1    3    3  502    0  0.58796395623E+03  0.38281167166E+02  0.62596616188E+03  0.85965149765E+03  0.25500000920E-02 0. -1.
       -2    1    3    3    0  502 -0.58796395623E+03 -0.38281167166E+02  0.48393403672E+02  0.59119284765E+03  0.25500000920E-02 0.  1.
</event>
<event>
 5   0  0.4453011E-03  0.1341824E+04  0.7818609E-02  0.8997041E-01
        2   -1    0    0  501    0  0.00000000000E+00  0.00000000000E+00  0.99453173010E+03  0.99453173010E+03  0.25500000920E-02 0.  1.
       -2   -1    0    0    0  501  0.00000000000E+00  0.00000000000E+00 -0.45259770359E+03  0.45259770360E+03  0.25500000920E-02 0. -1.
    10030    2    1    2    0    0  0.00000000000E+00  0.00000000000E+00  0.54193402651E+03  0.14471294337E+04  0.13418237995E+04 0.  0.
        1    1    3    3  502    0 -0.17867206163E+03  0.60588880935E+03  0.27178588022E+02  0.63226863799E+03  0.50400001928E-02 0. -1.
       -1    1    3    3    0  502  0.17867206163E+03 -0.60588880935E+03  0.51475543849E+03  0.81486079571E+03  0.50400001928E-02 0.  1.
</event>
<event>
 5   0  0.4388937E-03  0.1320410E+04  0.7818609E-02  0.9013534E-01
       -2   -1    0    0    0  501  0.00000000000E+00  0.00000000000E+00  0.36735742359E+03  0.36735742360E+03  0.25500000920E-02 0.  1.
        2   -1    0    0  501    0  0.00000000000E+00  0.00000000000E+00 -0.11865033282E+04  0.11865033282E+04  0.25500000920E-02 0. -1.
    10030    2    1    2    0    0  0.00000000000E+00  0.00000000000E+00 -0.81914590458E+03  0.15538607518E+04  0.13204102480E+04 0.  0.
        5    1    3    3  502    0  0.29950184834E+03  0.53242951254E+03 -0.11498173387E+03  0.62163126699E+03  0.46999998093E+01 0.  1.
       -5    1    3    3    0  502 -0.29950184834E+03 -0.53242951254E+03 -0.70416417071E+03  0.93222948478E+03  0.46999998093E+01 0. -1.
</event>
<event>
 5   0  0.4306214E-03  0.1315412E+04  0.7818609E-02  0.9017432E-01
        2   -1    0    0  501    0  0.00000000000E+00  0.00000000000E+00  0.21694947139E+04  0.21694947139E+04  0.25500000920E-02 0.  1.
       -2   -1    0    0    0  501  0.00000000000E+00  0.00000000000E+00 -0.19939060788E+03  0.19939060789E+03  0.25500000920E-02 0. -1.
    10030    2    1    2    0    0  0.00000000000E+00  0.00000000000E+00  0.19701041060E+04  0.23688853218E+04  0.13154115247E+04 0.  0.
        3    1    3    3  502    0 -0.40644049560E+03  0.50525559747E+03  0.78695826770E+03  0.10196962393E+04  0.10100000352E+00 0.  1.
       -3    1    3    3    0  502  0.40644049560E+03 -0.50525559747E+03  0.11831458383E+04  0.13491890824E+04  0.10100000352E+00 0. -1.
</event>
<event>
 5   0  0.2356769E-03  0.1253502E+04  0.7818609E-02  0.9067273E-01
       -1   -1    0    0    0  501  0.00000000000E+00  0.00000000000E+00  0.23854078234E+03  0.23854078239E+03  0.50400001928E-02 0. -1.
        1   -1    0    0  501    0  0.00000000000E+00  0.00000000000E+00 -0.16467500205E+04  0.16467500205E+04  0.50400001928E-02 0.  1.
    10030    2    1    2    0    0  0.00000000000E+00  0.00000000000E+00 -0.14082092382E+04  0.18852908029E+04  0.12535023546E+04 0.  0.
        1    1    3    3  502    0  0.41198002744E+03  0.32719590757E+03 -0.19178297069E+03  0.55996911773E+03  0.50400001928E-02 0. -1.
       -1    1    3    3    0  502 -0.41198002744E+03 -0.32719590757E+03 -0.12164262675E+04  0.13253216852E+04  0.50400001928E-02 0.  1.
</event>
<event>
 5   0  0.2370801E-03  0.1331550E+04  0.7818609E-02  0.9004914E-01
        1   -1    0    0  501    0  0.00000000000E+00  0.00000000000E+00  0.10082000796E+04  0.10082000796E+04  0.50400001928E-02 0.  1.
       -1   -1    0    0    0  501  0.00000000000E+00  0.00000000000E+00 -0.43965092021E+03  0.43965092023E+03  0.50400001928E-02 0. -1.
    10030    2    1    2    0    0  0.00000000000E+00  0.00000000000E+00  0.56854915938E+03  0.14478509998E+04  0.13315496127E+04 0.  0.
        3    1    3    3  502    0 -0.56159131364E+03  0.35544029592E+03  0.24169465634E+03  0.70720500891E+03  0.10100000352E+00 0.  1.
       -3    1    3    3    0  502  0.56159131364E+03 -0.35544029592E+03  0.32685450305E+03  0.74064599093E+03  0.10100000352E+00 0. -1.
</event>
<event>
 5   0  0.2458456E-03  0.1279547E+04  0.7818609E-02  0.9045943E-01
        1   -1    0    0  501    0  0.00000000000E+00  0.00000000000E+00  0.77405262864E+03  0.77405262866E+03  0.50400001928E-02 0. -1.
       -1   -1    0    0    0  501  0.00000000000E+00  0.00000000000E+00 -0.52878878403E+03  0.52878878405E+03  0.50400001928E-02 0.  1.
    10030    2    1    2    0    0  0.00000000000E+00  0.00000000000E+00  0.24526384462E+03  0.13028414127E+04  0.12795473392E+04 0.  0.
        5    1    3    3  502    0  0.36246314737E+02 -0.37946056819E+03 -0.40051552996E+03  0.55293661290E+03  0.46999998093E+01 0.  1.
       -5    1    3    3    0  502 -0.36246314737E+02  0.37946056819E+03  0.64577937458E+03  0.74990479981E+03  0.46999998093E+01 0. -1.
</event>
<event>
 5   0  0.2370801E-03  0.1295246E+04  0.7818609E-02  0.9033344E-01
       -1   -1    0    0    0  501  0.00000000000E+00  0.00000000000E+00  0.18845394548E+03  0.18845394554E+03  0.50400001928E-02 0. -1.
        1   -1    0    0  501    0  0.00000000000E+00  0.00000000000E+00 -0.22255596287E+04  0.22255596287E+04  0.50400001928E-02 0.  1.
    10030    2    1    2    0    0  0.00000000000E+00  0.00000000000E+00 -0.20371056832E+04  0.24140135743E+04  0.12952459118E+04 0.  0.
        3    1    3    3  502    0 -0.36863844480E+02 -0.58102035560E+03 -0.48985252798E+03  0.76085419499E+03  0.10100000352E+00 0. -1.
       -3    1    3    3    0  502  0.36863844480E+02  0.58102035560E+03 -0.15472531552E+04  0.16531593793E+04  0.10100000352E+00 0.  1.
</event>
<event>
 5   0  0.4263540E-03  0.1261937E+04  0.7818609E-02  0.9060307E-01
        2   -1    0    0  501    0  0.00000000000E+00  0.00000000000E+00  0.44478262699E+03  0.44478262700E+03  0.25500000920E-02 0.  1.
       -2   -1    0    0    0  501  0.00000000000E+00  0.00000000000E+00 -0.89509109605E+03  0.89509109606E+03  0.25500000920E-02 0. -1.
    10030    2    1    2    0    0  0.00000000000E+00  0.00000000000E+00 -0.45030846907E+03  0.13398737231E+04  0.12619365580E+04 0.  0.
        2    1    3    3  502    0  0.46337917119E+03 -0.34439106343E+03 -0.49542482997E+03  0.76077015124E+03  0.25500000920E-02 0. -1.
       -2    1    3    3    0  502 -0.46337917119E+03  0.34439106343E+03  0.45116360900E+02  0.57910357182E+03  0.25500000920E-02 0.  1.
</event>
<event>
 5   0  0.4306214E-03  0.1306513E+04  0.7818609E-02  0.9024416E-01
       -2   -1    0    0    0  501  0.00000000000E+00  0.00000000000E+00  0.45806704639E+03  0.45806704640E+03  0.25500000920E-02 0.  1.
        2   -1    0    0  501    0  0.00000000000E+00  0.00000000000E+00 -0.93161892986E+03  0.93161892986E+03  0.25500000920E-02 0. -1.
    10030    2    1    2    0    0  0.00000000000E+00  0.00000000000E+00 -0.47355188347E+03  0.13896859763E+04  0.13065128114E+04 0.  0.
        3    1    3    3  502    0 -0.50010107576E+01  0.64898705743E+03 -0.31590763498E+03  0.72180804572E+03  0.10100000352E+00 0. -1.
       -3    1    3    3    0  502  0.50010107576E+01 -0.64898705743E+03 -0.15764424848E+03  0.66787793054E+03  0.10100000352E+00 0.  1.
</event>
<event>
 5   0  0.2370801E-03  0.1313102E+04  0.7818609E-02  0.9019239E-01
        1   -1    0    0  501    0  0.00000000000E+00  0.00000000000E+00  0.98614691816E+03  0.98614691818E+03  0.50400001928E-02 0.  1.
       -1   -1    0    0    0  501  0.00000000000E+00  0.00000000000E+00 -0.43711451215E+03  0.43711451218E+03  0.50400001928E-02 0. -1.
    10030    2    1    2    0    0  0.00000000000E+00  0.00000000000E+00  0.54903240602E+03  0.14232614304E+04  0.13131018682E+04 0.  0.
        3    1    3    3  502    0 -0.11453971138E+03 -0.21339966046E+03  0.93595749951E+03  0.96678602165E+03  0.10100000352E+00 0.  1.
       -3    1    3    3    0  502  0.11453971138E+03  0.21339966046E+03 -0.38692509349E+03  0.45647540870E+03  0.10100000352E+00 0. -1.
</event>
<event>
 5   0  0.2462055E-03  0.1231391E+04  0.7818609E-02  0.9085815E-01
       -1   -1    0    0    0  501  0.00000000000E+00  0.00000000000E+00  0.88392776359E+03  0.88392776360E+03  0.50400001928E-02 0. -1.
        1   -1    0    0  501    0  0.00000000000E+00  0.00000000000E+00 -0.42885993562E+03  0.42885993565E+03  0.50400001928E-02 0.  1.
    10030    2    1    2    0    0  0.00000000000E+00  0.00000000000E+00  0.45506782797E+03  0.13127876993E+04  0.12313914143E+04 0.  0.
        2    1    3    3  502    0  0.69593368242E+02  0.26716891997E+03  0.81423707706E+03  0.85977001946E+03  0.25500000920E-02 0. -1.
       -2    1    3    3    0  502 -0.69593368242E+02 -0.26716891997E+03 -0.35916924909E+03  0.45301767979E+03  0.25500000920E-02 0.  1.
</event>
<event>
 5   0  0.4263540E-03  0.1320049E+04  0.7818609E-02  0.9013816E-01
        2   -1    0    0  501    0  0.00000000000E+00  0.00000000000E+00  0.18128632953E+04  0.18128632953E+04  0.25500000920E-02 0.  1.
       -2   -1    0    0    0  501  0.00000000000E+00  0.00000000000E+00 -0.24030065992E+03  0.24030065993E+03  0.25500000920E-02 0. -1.
    10030    2    1    2    0    0  0.00000000000E+00  0.00000000000E+00  0.15725626354E+04  0.20531639553E+04  0.13200488570E+04 0.  0.
        2    1    3    3  502    0  0.40378294670E+03  0.46509856464E+03  0.11552512740E+04  0.13091840394E+04  0.25500000920E-02 0.  1.
       -2    1    3    3    0  502 -0.40378294670E+03 -0.46509856464E+03  0.41731136143E+03  0.74397991590E+03  0.25500000920E-02 0. -1.
</event>
<event>
 5   0  0.2511542E-03  0.1319377E+04  0.7818609E-02  0.9014339E-01
       -1   -1    0    0    0  501  0.00000000000E+00  0.00000000000E+00  0.67249261222E+03  0.67249261224E+03  0.50400001928E-02 0. -1.
        1   -1    0    0  501    0  0.00000000000E+00  0.00000000000E+00 -0.64712826235E+03  0.64712826237E+03  0.50400001928E-02 0.  1.
    10030    2    1    2    0    0  0.00000000000E+00  0.00000000000E+00  0.25364349873E+02  0.13196208746E+04  0.13193770888E+04 0.  0.
        4    1    3    3  502    0 -0.17982171368E+03  0.49569858792E+03  0.40915726599E+03  0.66743106011E+03  0.12699999809E+01 0. -1.
       -4    1    3    3    0  502  0.17982171368E+03 -0.49569858792E+03 -0.38379291612E+03  0.65218981451E+03  0.12699999809E+01 0.  1.
</event>
<event>
 5   0  0.1661750E-03  0.1320483E+04  0.7818609E-02  0.9013478E-01
        3   -1    0    0  501    0  0.00000000000E+00  0.00000000000E+00  0.32586130292E+03  0.32586131857E+03  0.10100000352E+00 0.  1.
       -3   -1    0    0    0  501  0.00000000000E+00  0.00000000000E+00 -0.13377439511E+04  0.13377439549E+04  0.10100000352E+00 0. -1.
    10030    2    1    2    0    0  0.00000000000E+00  0.00000000000E+00 -0.10118826481E+04  0.16636052734E+04  0.13204832495E+04 0.  0.
        1    1    3    3  502    0 -0.22022208399E+03 -0.29195276108E+03  0.18661279301E+03  0.41055878449E+03  0.50400001928E-02 0.  1.
       -1    1    3    3    0  502  0.22022208399E+03  0.29195276108E+03 -0.11984954412E+04  0.12530464890E+04  0.50400001928E-02 0. -1.
</event>
<event>
 5   0  0.4453011E-03  0.1293118E+04  0.7818609E-02  0.9035040E-01
        2   -1    0    0  501    0  0.00000000000E+00  0.00000000000E+00  0.12443524610E+04  0.12443524610E+04  0.25500000920E-02 0.  1.
       -2   -1    0    0    0  501  0.00000000000E+00  0.00000000000E+00 -0.33594873074E+03  0.33594873075E+03  0.25500000920E-02 0. -1.
    10030    2    1    2    0    0  0.00000000000E+00  0.00000000000E+00  0.90840373029E+03  0.15803011918E+04  0.12931181383E+04 0.  0.
        1    1    3    3  502    0 -0.47540438746E+03 -0.34049298790E+03  0.79131553803E+03  0.98393347701E+03  0.50400001928E-02 0.  1.
       -1    1    3    3    0  502  0.47540438746E+03  0.34049298790E+03  0.11708819226E+03  0.59636771477E+03  0.50400001928E-02 0. -1.
</event>
<event>
 5   0  0.2511542E-03  0.1311229E+04  0.7818609E-02  0.9020708E-01
        1   -1    0    0  501    0  0.00000000000E+00  0.00000000000E+00  0.16005520342E+04  0.16005520342E+04  0.50400001928E-02 0. -1.
       -1   -1    0    0    0  501  0.00000000000E+00  0.00000000000E+00 -0.26855113244E+03  0.26855113248E+03  0.50400001928E-02 0.  1.
    10030    2    1    2    0    0  0.00000000000E+00  0.00000000000E+00  0.13320009017E+04  0.18691031667E+04  0.13112285252E+04 0.  0.
        4    1    3    3  502    0  0.55043250621E+03  0.24431585507E+03  0.29658287012E+03  0.67128920197E+03  0.12699999809E+01 0.  1.
       -4    1    3    3    0  502 -0.55043250621E+03 -0.24431585507E+03  0.10354180316E+04  0.11978139647E+04  0.12699999809E+01 0. -1.
</event>
<event>
 5   0  0.2356769E-03  0.1311344E+04  0.7818609E-02  0.9020617E-01
       -1   -1    0    0    0  501  0.00000000000E+00  0.00000000000E+00  0.30749913184E+03  0.30749913188E+03  0.50400001928E-02 0.  1.
        1   -1    0    0  501    0  0.00000000000E+00  0.00000000000E+00 -0.13980723790E+04  0.13980723790E+04  0.50400001928E-02 0. -1.
    10030    2    1    2    0    0  0.00000000000E+00  0.00000000000E+00 -0.10905732472E+04  0.17055715109E+04  0.13113444137E+04 0.  0.
        1    1    3    3  502    0 -0.85323369791E+02  0.26313564224E+03 -0.13184612380E+04  0.13471675767E+04  0.50400001928E-02 0. -1.
       -1    1    3    3    0  502  0.85323369791E+02 -0.26313564224E+03  0.22788799082E+03  0.35840393418E+03  0.50400001928E-02 0.  1.
</event>
<event>
 5   0  0.2462055E-03  0.9764049E+03  0.7818609E-02  0.9334809E-01
       -1   -1    0    0    0  501  0.00000000000E+00  0.00000000000E+00  0.25991743439E+03  0.25991743444E+03  0.50400001928E-02 0. -1.
        1   -1    0    0  501    0  0.00000000000E+00  0.00000000000E+00 -0.91698976789E+03  0.91698976790E+03  0.50400001928E-02 0.  1.
    10030    2    1    2    0    0  0.00000000000E+00  0.00000000000E+00 -0.65707233350E+03  0.11769072023E+04  0.97640489115E+03 0.  0.
        2    1    3    3  502    0  0.67979488682E+02 -0.39787583121E+03  0.24743809332E+01  0.40364899419E+03  0.25500000920E-02 0. -1.
       -2    1    3    3    0  502 -0.67979488682E+02  0.39787583121E+03 -0.65954671443E+03  0.77325820815E+03  0.25500000920E-02 0.  1.
</event>
<event>
 5   0  0.4453011E-03  0.1382504E+04  0.7818609E-02  0.8966582E-01
        2   -1    0    0  501    0  0.00000000000E+00  0.00000000000E+00  0.18585121692E+04  0.18585121692E+04  0.25500000920E-02 0.  1.
       -2   -1    0    0    0  501  0.00000000000E+00  0.00000000000E+00 -0.25710298870E+03  0.25710298871E+03  0.25500000920E-02 0. -1.
    10030    2    1    2    0    0  0.00000000000E+00  0.00000000000E+00  0.16014091805E+04  0.21156151579E+04  0.13825035743E+04 0.  0.
        1    1    3    3  502    0  0.63537301194E+03 -0.28734927013E+02  0.12150243487E+04  0.13714258013E+04  0.50400001928E-02 0.  1.
       -1    1    3    3    0  502 -0.63537301194E+03  0.28734927013E+02  0.38638483179E+03  0.74418935668E+03  0.50400001928E-02 0. -1.
</event>
<event>
 5   0  0.4388937E-03  0.1307677E+04  0.7818609E-02  0.9023500E-01
        2   -1    0    0  501    0  0.00000000000E+00  0.00000000000E+00  0.13927727017E+04  0.13927727017E+04  0.25500000920E-02 0.  1.
       -2   -1    0    0    0  501  0.00000000000E+00  0.00000000000E+00 -0.30694496897E+03  0.30694496898E+03  0.25500000920E-02 0. -1.
    10030    2    1    2    0    0  0.00000000000E+00  0.00000000000E+00  0.10858277327E+04  0.16997176706E+04  0.13076766782E+04 0.  0.
        5    1    3    3  502    0 -0.16548282034E+03  0.46995767046E+03  0.10932032087E+04  0.12013992348E+04  0.46999998093E+01 0.  1.
       -5    1    3    3    0  502  0.16548282034E+03 -0.46995767046E+03 -0.73754760142E+01  0.49831843584E+03  0.46999998093E+01 0. -1.
</event>
<event>
 5   0  0.2370801E-03  0.1320347E+04  0.7818609E-02  0.9013583E-01
       -1   -1    0    0    0  501  0.00000000000E+00  0.00000000000E+00  0.35568177841E+03  0.35568177844E+03  0.50400001928E-02 0. -1.
        1   -1    0    0  501    0  0.00000000000E+00  0.00000000000E+00 -0.12253346098E+04  0.12253346098E+04  0.50400001928E-02 0.  1.
    10030    2    1    2    0    0  0.00000000000E+00  0.00000000000E+00 -0.86965283139E+03  0.15810163882E+04  0.13203472167E+04 0.  0.
        3    1    3    3  502    0 -0.61522968585E+02  0.79376717795E+02  0.34648145967E+03  0.36074249970E+03  0.10100000352E+00 0. -1.
       -3    1    3    3    0  502  0.61522968585E+02 -0.79376717795E+02 -0.12161342911E+04  0.12202738885E+04  0.10100000352E+00 0.  1.
</event>
<event>
 5   0  0.4310889E-03  0.1290185E+04  0.7818609E-02  0.9037385E-01
        2   -1    0    0  501    0  0.00000000000E+00  0.00000000000E+00  0.55045598261E+03  0.55045598262E+03  0.25500000920E-02 0. -1.
       -2   -1    0    0    0  501  0.00000000000E+00  0.00000000000E+00 -0.75599945361E+03  0.75599945362E+03  0.25500000920E-02 0.  1.
    10030    2    1    2    0    0  0.00000000000E+00  0.00000000000E+00 -0.20554347100E+03  0.13064554362E+04  0.12901851373E+04 0.  0.
        4    1    3    3  502    0 -0.30884614466E+03 -0.16656190563E+03 -0.65090574752E+03  0.73946515437E+03  0.12699999809E+01 0.  1.
       -4    1    3    3    0  502  0.30884614466E+03  0.16656190563E+03  0.44536227652E+03  0.56699028186E+03  0.12699999809E+01 0. -1.
</event>
<event>
 5   0  0.2356769E-03  0.1327019E+04  0.7818609E-02  0.9008409E-01
       -1   -1    0    0    0  501  0.00000000000E+00  0.00000000000E+00  0.44644390376E+03  0.44644390379E+03  0.50400001928E-02 0.  1.
        1   -1    0    0  501    0  0.00000000000E+00  0.00000000000E+00 -0.98611451299E+03  0.98611451300E+03  0.50400001928E-02 0. -1.
    10030    2    1    2    0    0  0.00000000000E+00  0.00000000000E+00 -0.53967060922E+03  0.14325584168E+04  0.13270189339E+04 0.  0.
        1    1    3    3  502    0  0.29474777840E+03 -0.23221036937E+03  0.32090300371E+03  0.49373742650E+03  0.50400001928E-02 0.  1.
       -1    1    3    3    0  502 -0.29474777840E+03  0.23221036937E+03 -0.86057361293E+03  0.93882099029E+03  0.50400001928E-02 0. -1.
</event>
<event>
 5   0  0.2458456E-03  0.1416190E+04  0.7818609E-02  0.8942182E-01
        1   -1    0    0  501    0  0.00000000000E+00  0.00000000000E+00  0.10821290819E+04  0.10821290820E+04  0.50400001928E-02 0.  1.
       -1   -1    0    0    0  501  0.00000000000E+00  0.00000000000E+00 -0.46334449195E+03  0.46334449198E+03  0.50400001928E-02 0. -1.
    10030    2    1    2    0    0  0.00000000000E+00  0.00000000000E+00  0.61878458999E+03  0.15454735739E+04  0.14161900292E+04 0.  0.
        5    1    3    3  502    0 -0.42268776104E+03  0.34350236723E+03 -0.18436972869E+03  0.57504183020E+03  0.46999998093E+01 0. -1.
       -5    1    3    3    0  502  0.42268776104E+03 -0.34350236723E+03  0.80315431868E+03  0.97043174373E+03  0.46999998093E+01 0.  1.
</event>
<event>
 5   0  0.2462055E-03  0.1291620E+04  0.7818609E-02  0.9036237E-01
       -1   -1    0    0    0  501  0.00000000000E+00  0.00000000000E+00  0.13500633957E+04  0.13500633957E+04  0.50400001928E-02 0. -1.
        1   -1    0    0  501    0  0.00000000000E+00  0.00000000000E+00 -0.30892644703E+03  0.30892644707E+03  0.50400001928E-02 0.  1.
    10030    2    1    2    0    0  0.00000000000E+00  0.00000000000E+00  0.10411369486E+04  0.16589898428E+04  0.12916195851E+04 0.  0.
        2    1    3    3  502    0 -0.63653710622E+03  0.10894365860E+03  0.51453306828E+03  0.82570726453E+03  0.25500000920E-02 0. -1.
       -2    1    3    3    0  502  0.63653710622E+03 -0.10894365860E+03  0.52660388037E+03  0.83328257822E+03  0.25500000920E-02 0.  1.
</event>
<event>
 5   0  0.2462055E-03  0.1255080E+04  0.7818609E-02  0.9065966E-01
        1   -1    0    0  501    0  0.00000000000E+00  0.00000000000E+00  0.10272316551E+04  0.10272316551E+04  0.50400001928E-02 0. -1.
       -1   -1    0    0    0  501  0.00000000000E+00  0.00000000000E+00 -0.38336678695E+03  0.38336678698E+03  0.50400001928E-02 0.  1.
    10030    2    1    2    0    0  0.00000000000E+00  0.00000000000E+00  0.64386486810E+03  0.14105984421E+04  0.12550800757E+04 0.  0.
        2    1    3    3  502    0 -0.28884761854E+03  0.96041990456E+02 -0.29483726520E+03  0.42377591204E+03  0.25500000920E-02 0.  1.
       -2    1    3    3    0  502  0.28884761854E+03 -0.96041990456E+02  0.93870213331E+03  0.98682253001E+03  0.25500000920E-02 0. -1.
</event>
<event>
 5   0  0.2458456E-03  0.1279722E+04  0.7818609E-02  0.9045803E-01
        1   -1    0    0  501    0  0.00000000000E+00  0.00000000000E+00  0.48484365878E+03  0.48484365881E+03  0.50400001928E-02 0. -1.
       -1   -1    0    0    0  501  0.00000000000E+00  0.00000000000E+00 -0.84444090088E+03  0.84444090089E+03  0.50400001928E-02 0.  1.
    10030    2    1    2    0    0  0.00000000000E+00  0.00000000000E+00 -0.35959724209E+03  0.13292845597E+04  0.12797215573E+04 0.  0.
        5    1    3    3  502    0  0.39604054428E+03 -0.18473939153E+03  0.30565934169E+03  0.53331649014E+03  0.46999998093E+01 0. -1.
       -5    1    3    3    0  502 -0.39604054428E+03  0.18473939153E+03 -0.66525658379E+03  0.79596806956E+03  0.46999998093E+01 0.  1.
</event>
<event>
 5   0  0.2458456E-03  0.1302923E+04  0.7818609E-02  0.9027251E-01
        1   -1    0    0  501    0  0.00000000000E+00  0.00000000000E+00  0.55365060205E+03  0.55365060207E+03  0.50400001928E-02 0. -1.
       -1   -1    0    0    0  501  0.00000000000E+00  0.00000000000E+00 -0.76655179987E+03  0.76655179988E+03  0.50400001928E-02 0.  1.
    10030    2    1    2    0    0  0.00000000000E+00  0.00000000000E+00 -0.21290119782E+03  0.13202024020E+04  0.13029226616E+04 0.  0.
        5    1    3    3  502    0 -0.27346101461E+03 -0.40540318060E+03  0.32966096411E+03  0.58977208022E+03  0.46999998093E+01 0. -1.
       -5    1    3    3    0  502  0.27346101461E+03  0.40540318060E+03 -0.54256216192E+03  0.73043032173E+03  0.46999998093E+01 0.  1.
</event>
<event>
 5   0  0.2462055E-03  0.1313979E+04  0.7818609E-02  0.9018552E-01
        1   -1    0    0  501    0  0.00000000000E+00  0.00000000000E+00  0.12800309432E+04  0.12800309432E+04  0.50400001928E-02 0. -1.
       -1   -1    0    0    0  501  0.00000000000E+00  0.00000000000E+00 -0.33720708613E+03  0.33720708617E+03  0.50400001928E-02 0.  1.
    10030    2    1    2    0    0  0.00000000000E+00  0.00000000000E+00  0.94282385702E+03  0.16172380293E+04  0.13139794588E+04 0.  0.
        2    1    3    3  502    0 -0.43959808421E+03 -0.16296400029E+03 -0.95063282740E+02  0.47837304351E+03  0.25500000920E-02 0.  1.
       -2    1    3    3    0  502  0.43959808421E+03  0.16296400029E+03  0.10378871398E+04  0.11388649858E+04  0.25500000920E-02 0. -1.
</event>
<event>
 5   0  0.2462055E-03  0.1322841E+04  0.7818609E-02  0.9011646E-01
       -1   -1    0    0    0  501  0.00000000000E+00  0.00000000000E+00  0.69084112420E+03  0.69084112422E+03  0.50400001928E-02 0. -1.
        1   -1    0    0  501    0  0.00000000000E+00  0.00000000000E+00 -0.63325242660E+03  0.63325242662E+03  0.50400001928E-02 0.  1.
    10030    2    1    2    0    0  0.00000000000E+00  0.00000000000E+00  0.57588697599E+02  0.13240935508E+04  0.13228406077E+04 0.  0.
        2    1    3    3  502    0 -0.12081245067E+03  0.30266977811E+03 -0.54731328778E+03  0.63699017089E+03  0.25500000920E-02 0.  1.
       -2    1    3    3    0  502  0.12081245067E+03 -0.30266977811E+03  0.60490198538E+03  0.68710337995E+03  0.25500000920E-02 0. -1.
</event>
<event>
 5   0  0.1661750E-03  0.7027899E+03  0.7818609E-02  0.9712473E-01
        4   -1    0    0  501    0  0.00000000000E+00  0.00000000000E+00  0.10437217996E+03  0.10437990635E+03  0.12699999809E+01 0. -1.
       -4   -1    0    0    0  501  0.00000000000E+00  0.00000000000E+00 -0.11830066604E+04  0.11830073421E+04  0.12699999809E+01 0.  1.
    10030    2    1    2    0    0  0.00000000000E+00  0.00000000000E+00 -0.10786344805E+04  0.12873872485E+04  0.70278985839E+03 0.  0.
        4    1    3    3  502    0  0.32208179072E+03  0.13841917735E+03 -0.58344232985E+03  0.68066373029E+03  0.12699999809E+01 0.  1.
       -4    1    3    3    0  502 -0.32208179072E+03 -0.13841917735E+03 -0.49519215062E+03  0.60672351818E+03  0.12699999809E+01 0. -1.
</event>
<event>
 5   0  0.4453011E-03  0.1311988E+04  0.7818609E-02  0.9020113E-01
        2   -1    0    0  501    0  0.00000000000E+00  0.00000000000E+00  0.48267000288E+03  0.48267000288E+03  0.25500000920E-02 0.  1.
       -2   -1    0    0    0  501  0.00000000000E+00  0.00000000000E+00 -0.89155713782E+03  0.89155713783E+03  0.25500000920E-02 0. -1.
    10030    2    1    2    0    0  0.00000000000E+00  0.00000000000E+00 -0.40888713495E+03  0.13742271407E+04  0.13119876315E+04 0.  0.
        1    1    3    3  502    0  0.21806750740E+03  0.33607708298E+03  0.33964699837E+03  0.52522502513E+03  0.50400001928E-02 0.  1.
       -1    1    3    3    0  502 -0.21806750740E+03 -0.33607708298E+03 -0.74853413332E+03  0.84900211558E+03  0.50400001928E-02 0. -1.
</event>
<event>
 5   0  0.2458456E-03  0.1310468E+04  0.7818609E-02  0.9021305E-01
       -1   -1    0    0    0  501  0.00000000000E+00  0.00000000000E+00  0.60917141327E+03  0.60917141329E+03  0.50400001928E-02 0.  1.
        1   -1    0    0  501    0  0.00000000000E+00  0.00000000000E+00 -0.70477959305E+03  0.70477959307E+03  0.50400001928E-02 0. -1.
    10030    2    1    2    0    0  0.00000000000E+00  0.00000000000E+00 -0.95608179785E+02  0.13139510064E+04  0.13104679786E+04 0.  0.
        5    1    3    3  502    0  0.62322665653E+03 -0.19359131630E+03 -0.10644395470E+03  0.66124236755E+03  0.46999998093E+01 0. -1.
       -5    1    3    3    0  502 -0.62322665653E+03  0.19359131630E+03  0.10835774914E+02  0.65270863880E+03  0.46999998093E+01 0.  1.
</event>
<event>
 5   0  0.2462055E-03  0.1385634E+04  0.7818609E-02  0.8964284E-01
       -1   -1    0    0    0  501  0.00000000000E+00  0.00000000000E+00  0.11323143210E+04  0.11323143210E+04  0.50400001928E-02 0.  1.
        1   -1    0    0  501    0  0.00000000000E+00  0.00000000000E+00 -0.42390647949E+03  0.42390647952E+03  0.50400001928E-02 0. -1.
    10030    2    1    2    0    0  0.00000000000E+00  0.00000000000E+00  0.70840784147E+03  0.15562208005E+04  0.13856339740E+04 0.  0.
        2    1    3    3  502    0 -0.30611433464E+03 -0.35129102630E+03  0.93004782667E+03  0.10402405159E+04  0.25500000920E-02 0.  1.
       -2    1    3    3    0  502  0.30611433464E+03  0.35129102630E+03 -0.22163998521E+03  0.51598028458E+03  0.25500000920E-02 0. -1.
</event>
<event>
 5   0  0.2356769E-03  0.1368376E+04  0.7818609E-02  0.8977033E-01
       -1   -1    0    0    0  501  0.00000000000E+00  0.00000000000E+00  0.71633561304E+03  0.71633561306E+03  0.50400001928E-02 0. -1.
        1   -1    0    0  501    0  0.00000000000E+00  0.00000000000E+00 -0.65348312932E+03  0.65348312934E+03  0.50400001928E-02 0.  1.
    10030    2    1    2    0    0  0.00000000000E+00  0.00000000000E+00  0.62852483727E+02  0.13698187424E+04  0.13683760274E+04 0.  0.
        1    1    3    3  502    0 -0.73179964952E+02  0.31168691667E+03  0.63672001025E+03  0.71268254698E+03  0.50400001928E-02 0. -1.
       -1    1    3    3    0  502  0.73179964952E+02 -0.31168691667E+03 -0.57386752653E+03  0.65713619541E+03  0.50400001928E-02 0.  1.
</event>
<event>
 5   0  0.4388937E-03  0.1388891E+04  0.7818609E-02  0.8961899E-01
        2   -1    0    0  501    0  0.00000000000E+00  0.00000000000E+00  0.13902971451E+04  0.13902971451E+04  0.25500000920E-02 0.  1.
       -2   -1    0    0    0  501  0.00000000000E+00  0.00000000000E+00 -0.34687175895E+03  0.34687175895E+03  0.25500000920E-02 0. -1.
    10030    2    1    2    0    0  0.00000000000E+00  0.00000000000E+00  0.10434253861E+04  0.17371689040E+04  0.13888913797E+04 0.  0.
        5    1    3    3  502    0 -0.23816280312E+03 -0.31618722014E+03  0.12353439122E+04  0.12972249421E+04  0.46999998093E+01 0.  1.
       -5    1    3    3    0  502  0.23816280312E+03  0.31618722014E+03 -0.19191852609E+03  0.43994396192E+03  0.46999998093E+01 0. -1.
</event>
<event>
 5   0  0.4388937E-03  0.1254473E+04  0.7818609E-02  0.9066469E-01
        2   -1    0    0  501    0  0.00000000000E+00  0.00000000000E+00  0.63771379470E+03  0.63771379470E+03  0.25500000920E-02 0.  1.
       -2   -1    0    0    0  501  0.00000000000E+00  0.00000000000E+00 -0.61693123126E+03  0.61693123127E+03  0.25500000920E-02 0. -1.
    10030    2    1    2    0    0  0.00000000000E+00  0.00000000000E+00  0.20782563433E+02  0.12546450260E+04  0.12544728878E+04 0.  0.
        5    1    3    3  502    0 -0.17293485726E+03  0.57323326694E+03 -0.17645143861E+03  0.62422755735E+03  0.46999998093E+01 0. -1.
       -5    1    3    3    0  502  0.17293485726E+03 -0.57323326694E+03  0.19723400204E+03  0.63041746861E+03  0.46999998093E+01 0.  1.
</event>
<event>
 5   0  0.4310889E-03  0.1305168E+04  0.7818609E-02  0.9025477E-01
        2   -1    0    0  501    0  0.00000000000E+00  0.00000000000E+00  0.69078880470E+03  0.69078880471E+03  0.25500000920E-02 0. -1.
       -2   -1    0    0    0  501  0.00000000000E+00  0.00000000000E+00 -0.61649198993E+03  0.61649198993E+03  0.25500000920E-02 0.  1.
    10030    2    1    2    0    0  0.00000000000E+00  0.00000000000E+00  0.74296814774E+02  0.13072807946E+04  0.13051678280E+04 0.  0.
        4    1    3    3  502    0 -0.37235176950E+03 -0.43874622196E+03  0.34541290695E+03  0.67116002319E+03  0.12699999809E+01 0. -1.
       -4    1    3    3    0  502  0.37235176950E+03  0.43874622196E+03 -0.27111609218E+03  0.63612077145E+03  0.12699999809E+01 0.  1.
</event>
<event>
 5   0  0.2458456E-03  0.1312727E+04  0.7818609E-02  0.9019533E-01
        1   -1    0    0  501    0  0.00000000000E+00  0.00000000000E+00  0.69127391307E+03  0.69127391309E+03  0.50400001928E-02 0. -1.
       -1   -1    0    0    0  501  0.00000000000E+00  0.00000000000E+00 -0.62321599249E+03  0.62321599251E+03  0.50400001928E-02 0.  1.
    10030    2    1    2    0    0  0.00000000000E+00  0.00000000000E+00  0.68057920587E+02  0.13144899056E+04  0.13127268685E+04 0.  0.
        5    1    3    3  502    0  0.50795269165E+03  0.33148345304E+03 -0.21709392067E+03  0.64424302633E+03  0.46999998093E+01 0. -1.
       -5    1    3    3    0  502 -0.50795269165E+03 -0.33148345304E+03  0.28515184125E+03  0.67024687926E+03  0.46999998093E+01 0.  1.
</event>
<event>
 5   0  0.4263540E-03  0.1303320E+04  0.7818609E-02  0.9026937E-01
       -2   -1    0    0    0  501  0.00000000000E+00  0.00000000000E+00  0.42544344324E+03  0.42544344324E+03  0.25500000920E-02 0. -1.
        2   -1    0    0  501    0  0.00000000000E+00  0.00000000000E+00 -0.99815957158E+03  0.99815957158E+03  0.25500000920E-02 0.  1.
    10030    2    1    2    0    0  0.00000000000E+00  0.00000000000E+00 -0.57271612834E+03  0.14236030148E+04  0.13033195234E+04 0.  0.
        2    1    3    3  502    0  0.74184459743E+02  0.22547894591E+02  0.42038714526E+03  0.42747759418E+03  0.25500000920E-02 0. -1.
       -2    1    3    3    0  502 -0.74184459743E+02 -0.22547894591E+02 -0.99310327360E+03  0.99612542065E+03  0.25500000920E-02 0.  1.
</event>
<event>
 5   0  0.2462055E-03  0.1351567E+04  0.7818609E-02  0.8989642E-01
       -1   -1    0    0    0  501  0.00000000000E+00  0.00000000000E+00  0.94982345126E+03  0.94982345127E+03  0.50400001928E-02 0. -1.
        1   -1    0    0  501    0  0.00000000000E+00  0.00000000000E+00 -0.48080890263E+03  0.48080890265E+03  0.50400001928E-02 0.  1.
    10030    2    1    2    0    0  0.00000000000E+00  0.00000000000E+00  0.46901454863E+03  0.14306323539E+04  0.13515673440E+04 0.  0.
        2    1    3    3  502    0 -0.20329874103E+03  0.20828380666E+03 -0.41106507728E+03  0.50367352519E+03  0.25500000920E-02 0.  1.
       -2    1    3    3    0  502  0.20329874103E+03 -0.20828380666E+03  0.88007962590E+03  0.92695882873E+03  0.25500000920E-02 0. -1.
</event>
<event>
 5   0  0.4263540E-03  0.1305352E+04  0.7818609E-02  0.9025332E-01
       -2   -1    0    0    0  501  0.00000000000E+00  0.00000000000E+00  0.22905800327E+03  0.22905800328E+03  0.25500000920E-02 0.  1.
        2   -1    0    0  501    0  0.00000000000E+00  0.00000000000E+00 -0.18597296516E+04  0.18597296516E+04  0.25500000920E-02 0. -1.
    10030    2    1    2    0    0  0.00000000000E+00  0.00000000000E+00 -0.16306716483E+04  0.20887876549E+04  0.13053519995E+04 0.  0.
        2    1    3    3  502    0  0.42599965968E+03 -0.17590435241E+03 -0.75841829489E+02  0.46708675249E+03  0.25500000920E-02 0.  1.
       -2    1    3    3    0  502 -0.42599965968E+03  0.17590435241E+03 -0.15548298188E+04  0.16217009024E+04  0.25500000920E-02 0. -1.
</event>
<event>
 5   0  0.2458456E-03  0.1186598E+04  0.7818609E-02  0.9124668E-01
       -1   -1    0    0    0  501  0.00000000000E+00  0.00000000000E+00  0.25264580043E+03  0.25264580048E+03  0.50400001928E-02 0. -1.
        1   -1    0    0  501    0  0.00000000000E+00  0.00000000000E+00 -0.13932704911E+04  0.13932704911E+04  0.50400001928E-02 0.  1.
    10030    2    1    2    0    0  0.00000000000E+00  0.00000000000E+00 -0.11406246907E+04  0.16459162916E+04  0.11865983963E+04 0.  0.
        5    1    3    3  502    0 -0.12421642943E+03  0.55844802817E+03 -0.35236765195E+03  0.67192185085E+03  0.46999998093E+01 0. -1.
       -5    1    3    3    0  502  0.12421642943E+03 -0.55844802817E+03 -0.78825703876E+03  0.97399444078E+03  0.46999998093E+01 0.  1.
</event>
<event>
 5   0  0.4310889E-03  0.1234071E+04  0.7818609E-02  0.9083546E-01
        2   -1    0    0  501    0  0.00000000000E+00  0.00000000000E+00  0.48074525103E+03  0.48074525104E+03  0.25500000920E-02 0. -1.
       -2   -1    0    0    0  501  0.00000000000E+00  0.00000000000E+00 -0.79196411133E+03  0.79196411133E+03  0.25500000920E-02 0.  1.
    10030    2    1    2    0    0  0.00000000000E+00  0.00000000000E+00 -0.31121886030E+03  0.12727093624E+04  0.12340712873E+04 0.  0.
        4    1    3    3  502    0 -0.28206641339E+03  0.14341665554E+03  0.39069414473E+03  0.50276567730E+03  0.12699999809E+01 0. -1.
       -4    1    3    3    0  502  0.28206641339E+03 -0.14341665554E+03 -0.70191300503E+03  0.76994368507E+03  0.12699999809E+01 0.  1.
</event>
<event>
 5   0  0.2356769E-03  0.1331998E+04  0.7818609E-02  0.9004568E-01
       -1   -1    0    0    0  501  0.00000000000E+00  0.00000000000E+00  0.36915643321E+03  0.36915643325E+03  0.50400001928E-02 0. -1.
        1   -1    0    0  501    0  0.00000000000E+00  0.00000000000E+00 -0.12015366229E+04  0.12015366229E+04  0.50400001928E-02 0.  1.
    10030    2    1    2    0    0  0.00000000000E+00  0.00000000000E+00 -0.83238018968E+03  0.15706930561E+04  0.13319984596E+04 0.  0.
        1    1    3    3  502    0  0.13595451763E+03 -0.29053284090E+03  0.27206503090E+03  0.42060949058E+03  0.50400001928E-02 0. -1.
       -1    1    3    3    0  502 -0.13595451763E+03  0.29053284090E+03 -0.11044452206E+04  0.11500835656E+04  0.50400001928E-02 0.  1.
</event>
<event>
 5   0  0.2458456E-03  0.1234050E+04  0.7818609E-02  0.9083564E-01
       -1   -1    0    0    0  501  0.00000000000E+00  0.00000000000E+00  0.11863762793E+04  0.11863762793E+04  0.50400001928E-02 0. -1.
        1   -1    0    0  501    0  0.00000000000E+00  0.00000000000E+00 -0.32090972493E+03  0.32090972497E+03  0.50400001928E-02 0.  1.
    10030    2    1    2    0    0  0.00000000000E+00  0.00000000000E+00  0.86546655434E+03  0.15072860043E+04  0.12340497324E+04 0.  0.
        5    1    3    3  502    0 -0.14236458859E+03 -0.14718145035E+02  0.11657989339E+04  0.11745610006E+04  0.46999998093E+01 0. -1.
       -5    1    3    3    0  502  0.14236458859E+03  0.14718145035E+02 -0.30033237953E+03  0.33272500367E+03  0.46999998093E+01 0.  1.
</event>
<event>
 5   0  0.2511542E-03  0.1301962E+04  0.7818609E-02  0.9028011E-01
       -1   -1    0    0    0  501  0.00000000000E+00  0.00000000000E+00  0.30233250052E+03  0.30233250056E+03  0.50400001928E-02 0. -1.
        1   -1    0    0  501    0  0.00000000000E+00  0.00000000000E+00 -0.14016884510E+04  0.14016884510E+04  0.50400001928E-02 0.  1.
    10030    2    1    2    0    0  0.00000000000E+00  0.00000000000E+00 -0.10993559505E+04  0.17040209516E+04  0.13019615576E+04 0.  0.
        4    1    3    3  502    0  0.40207468366E+03 -0.49318316998E+03 -0.36983831124E+03  0.73598619535E+03  0.12699999809E+01 0. -1.
       -4    1    3    3    0  502 -0.40207468366E+03  0.49318316998E+03 -0.72951763926E+03  0.96803475624E+03  0.12699999809E+01 0.  1.
</event>
<event>
 5   0  0.4263540E-03  0.1302626E+04  0.7818609E-02  0.9027485E-01
        2   -1    0    0  501    0  0.00000000000E+00  0.00000000000E+00  0.81935320972E+03  0.81935320972E+03  0.25500000920E-02 0. -1.
       -2   -1    0    0    0  501  0.00000000000E+00  0.00000000000E+00 -0.51773634572E+03  0.51773634573E+03  0.25500000920E-02 0.  1.
    10030    2    1    2    0    0  0.00000000000E+00  0.00000000000E+00  0.30161686400E+03  0.13370895554E+04  0.13026264801E+04 0.  0.
        2    1    3    3  502    0  0.50687758144E+03 -0.36944302975E+03  0.33093885025E+03  0.70917808582E+03  0.25500000920E-02 0.  1.
       -2    1    3    3    0  502 -0.50687758144E+03  0.36944302975E+03 -0.29321986253E+02  0.62791146962E+03  0.25500000920E-02 0. -1.
</event>
<event>
 5   0  0.4306214E-03  0.1289545E+04  0.7818609E-02  0.9037897E-01
       -2   -1    0    0    0  501  0.00000000000E+00  0.00000000000E+00  0.10738886798E+04  0.10738886798E+04  0.25500000920E-02 0. -1.
        2   -1    0    0  501    0  0.00000000000E+00  0.00000000000E+00 -0.38712743059E+03  0.38712743060E+03  0.25500000920E-02 0.  1.
    10030    2    1    2    0    0  0.00000000000E+00  0.00000000000E+00  0.68676124922E+03  0.14610161104E+04  0.12895452925E+04 0.  0.
        3    1    3    3  502    0 -0.13995440268E+03  0.17701798684E+03  0.10276880733E+04  0.10521717487E+04  0.10100000352E+00 0. -1.
       -3    1    3    3    0  502  0.13995440268E+03 -0.17701798684E+03 -0.34092682412E+03  0.40884436170E+03  0.10100000352E+00 0.  1.
</event>
<event>
 5   0  0.2458456E-03  0.1256225E+04  0.7818609E-02  0.9065018E-01
        1   -1    0    0  501    0  0.00000000000E+00  0.00000000000E+00  0.13551623631E+04  0.13551623631E+04  0.50400001928E-02 0. -1.
       -1   -1    0    0    0  501  0.00000000000E+00  0.00000000000E+00 -0.29112762797E+03  0.29112762802E+03  0.50400001928E-02 0.  1.
    10030    2    1    2    0    0  0.00000000000E+00  0.00000000000E+00  0.10640347351E+04  0.16462899911E+04  0.12562248275E+04 0.  0.
        5    1    3    3  502    0 -0.32430731422E+03  0.21073397815E+03 -0.11654279212E+03  0.40396578568E+03  0.46999998093E+01 0.  1.
       -5    1    3    3    0  502  0.32430731422E+03 -0.21073397815E+03  0.11805775272E+04  0.12423242054E+04  0.46999998093E+01 0. -1.
</event>
<event>
 5   0  0.4388937E-03  0.1302995E+04  0.7818609E-02  0.9027193E-01
        2   -1    0    0  501    0  0.00000000000E+00  0.00000000000E+00  0.62067950540E+03  0.62067950540E+03  0.25500000920E-02 0.  1.
       -2   -1    0    0    0  501  0.00000000000E+00  0.00000000000E+00 -0.68384587653E+03  0.68384587653E+03  0.25500000920E-02 0. -1.
    10030    2    1    2    0    0  0.00000000000E+00  0.00000000000E+00 -0.63166371132E+02  0.13045253819E+04  0.13029951963E+04 0.  0.
        5    1    3    3  502    0  0.45805020694E+03  0.44478556012E+03 -0.16128393807E+03  0.65854292590E+03  0.46999998093E+01 0. -1.
       -5    1    3    3    0  502 -0.45805020694E+03 -0.44478556012E+03  0.98117566939E+02  0.64598245604E+03  0.46999998093E+01 0.  1.
</event>
<event>
 5   0  0.4388937E-03  0.1316877E+04  0.7818609E-02  0.9016287E-01
        2   -1    0    0  501    0  0.00000000000E+00  0.00000000000E+00  0.44647261792E+03  0.44647261793E+03  0.25500000920E-02 0. -1.
       -2   -1    0    0    0  501  0.00000000000E+00  0.00000000000E+00 -0.97103688033E+03  0.97103688034E+03  0.25500000920E-02 0.  1.
    10030    2    1    2    0    0  0.00000000000E+00  0.00000000000E+00 -0.52456426242E+03  0.14175094983E+04  0.13168771819E+04 0.  0.
        5    1    3    3  502    0  0.14045105883E+03 -0.25495853976E+03 -0.89799653577E+03  0.94400753449E+03  0.46999998093E+01 0.  1.
       -5    1    3    3    0  502 -0.14045105883E+03  0.25495853976E+03  0.37343227335E+03  0.47350196378E+03  0.46999998093E+01 0. -1.
</event>
<event>
 5   0  0.4388937E-03  0.1248164E+04  0.7818609E-02  0.9071712E-01
        2   -1    0    0  501    0  0.00000000000E+00  0.00000000000E+00  0.26069801449E+04  0.26069801449E+04  0.25500000920E-02 0. -1.
       -2   -1    0    0    0  501  0.00000000000E+00  0.00000000000E+00 -0.14939839143E+03  0.14939839145E+03  0.25500000920E-02 0.  1.
    10030    2    1    2    0    0  0.00000000000E+00  0.00000000000E+00  0.24575817534E+04  0.27563785363E+04  0.12481644766E+04 0.  0.
        5    1    3    3  502    0  0.63950610902E+02 -0.52181598495E+03  0.19713828292E+04  0.20402828118E+04  0.46999998093E+01 0. -1.
       -5    1    3    3    0  502 -0.63950610902E+02  0.52181598495E+03  0.48619892425E+03  0.71609572456E+03  0.46999998093E+01 0.  1.
</event>
<event>
 5   0  0.2356769E-03  0.1307265E+04  0.7818609E-02  0.9023823E-01
       -1   -1    0    0    0  501  0.00000000000E+00  0.00000000000E+00  0.28608464017E+03  0.28608464021E+03  0.50400001928E-02 0. -1.
        1   -1    0    0  501    0  0.00000000000E+00  0.00000000000E+00 -0.14933889297E+04  0.14933889298E+04  0.50400001928E-02 0.  1.
    10030    2    1    2    0    0  0.00000000000E+00  0.00000000000E+00 -0.12073042896E+04  0.17794735700E+04  0.13072652901E+04 0.  0.
        1    1    3    3  502    0 -0.25005515591E+03 -0.52402990767E+03 -0.10122460810E+04  0.11669520358E+04  0.50400001928E-02 0.  1.
       -1    1    3    3    0  502  0.25005515591E+03  0.52402990767E+03 -0.19505820853E+03  0.61252153421E+03  0.50400001928E-02 0. -1.
</event>
<event>
 5   0  0.4310889E-03  0.1318486E+04  0.7818609E-02  0.9015033E-01
       -2   -1    0    0    0  501  0.00000000000E+00  0.00000000000E+00  0.24940166526E+03  0.24940166527E+03  0.25500000920E-02 0. -1.
        2   -1    0    0  501    0  0.00000000000E+00  0.00000000000E+00 -0.17425752904E+04  0.17425752904E+04  0.25500000920E-02 0.  1.
    10030    2    1    2    0    0  0.00000000000E+00  0.00000000000E+00 -0.14931736252E+04  0.19919769557E+04  0.13184857668E+04 0.  0.
        4    1    3    3  502    0 -0.46934556517E+03  0.21354267861E+03 -0.13671474263E+04  0.14611568818E+04  0.12699999809E+01 0.  1.
       -4    1    3    3    0  502  0.46934556517E+03 -0.21354267861E+03 -0.12602619886E+03  0.53082007387E+03  0.12699999809E+01 0. -1.
</event>
<event>
 5   0  0.2356769E-03  0.1327112E+04  0.7818609E-02  0.9008337E-01
       -1   -1    0    0    0  501  0.00000000000E+00  0.00000000000E+00  0.15196040610E+04  0.15196040610E+04  0.50400001928E-02 0.  1.
        1   -1    0    0  501    0  0.00000000000E+00  0.00000000000E+00 -0.28975104038E+03  0.28975104042E+03  0.50400001928E-02 0. -1.
    10030    2    1    2    0    0  0.00000000000E+00  0.00000000000E+00  0.12298530206E+04  0.18093551014E+04  0.13271124409E+04 0.  0.
        1    1    3    3  502    0 -0.13357722646E+03  0.25300973758E+03 -0.20133705995E+03  0.34984770183E+03  0.50400001928E-02 0. -1.
       -1    1    3    3    0  502  0.13357722646E+03 -0.25300973758E+03  0.14311900806E+04  0.14595073996E+04  0.50400001928E-02 0.  1.
</event>
<event>
 5   0  0.1661750E-03  0.1291689E+04  0.7818609E-02  0.9036182E-01
        3   -1    0    0  501    0  0.00000000000E+00  0.00000000000E+00  0.69896875588E+03  0.69896876318E+03  0.10100000352E+00 0. -1.
       -3   -1    0    0    0  501  0.00000000000E+00  0.00000000000E+00 -0.59675793895E+03  0.59675794749E+03  0.10100000352E+00 0.  1.
    10030    2    1    2    0    0  0.00000000000E+00  0.00000000000E+00  0.10221081693E+03  0.12957267107E+04  0.12916890716E+04 0.  0.
        5    1    3    3  502    0 -0.22325266379E+03 -0.54521287689E+03  0.31649664739E+03  0.66879821383E+03  0.46999998093E+01 0. -1.
       -5    1    3    3    0  502  0.22325266379E+03  0.54521287689E+03 -0.21428583046E+03  0.62692849684E+03  0.46999998093E+01 0.  1.
</event>
<event>
 5   0  0.2356769E-03  0.1294754E+04  0.7818609E-02  0.9033735E-01
        1   -1    0    0  501    0  0.00000000000E+00  0.00000000000E+00  0.95482379654E+03  0.95482379655E+03  0.50400001928E-02 0.  1.
       -1   -1    0    0    0  501  0.00000000000E+00  0.00000000000E+00 -0.43892621208E+03  0.43892621211E+03  0.50400001928E-02 0. -1.
    10030    2    1    2    0    0  0.00000000000E+00  0.00000000000E+00  0.51589758446E+03  0.13937500087E+04  0.12947543277E+04 0.  0.
        1    1    3    3  502    0 -0.28660282944E+03 -0.38445569461E+03 -0.21021787420E+03  0.52358277055E+03  0.50400001928E-02 0. -1.
       -1    1    3    3    0  502  0.28660282944E+03  0.38445569461E+03  0.72611545866E+03  0.87016723811E+03  0.50400001928E-02 0.  1.
</event>
<event>
 5   0  0.2462055E-03  0.1327337E+04  0.7818609E-02  0.9008163E-01
        1   -1    0    0  501    0  0.00000000000E+00  0.00000000000E+00  0.16583120246E+04  0.16583120246E+04  0.50400001928E-02 0. -1.
       -1   -1    0    0    0  501  0.00000000000E+00  0.00000000000E+00 -0.26560497204E+03  0.26560497208E+03  0.50400001928E-02 0.  1.
    10030    2    1    2    0    0  0.00000000000E+00  0.00000000000E+00  0.13927070526E+04  0.19239169967E+04  0.13273370619E+04 0.  0.
        2    1    3    3  502    0 -0.23371228365E+03  0.32318909135E+02 -0.20276508030E+03  0.31109423205E+03  0.25500000920E-02 0.  1.
       -2    1    3    3    0  502  0.23371228365E+03 -0.32318909135E+02  0.15954721329E+04  0.16128227647E+04  0.25500000920E-02 0. -1.
</event>
<event>
 5   0  0.4310889E-03  0.1327717E+04  0.7818609E-02  0.9007870E-01
        2   -1    0    0  501    0  0.00000000000E+00  0.00000000000E+00  0.20282219000E+04  0.20282219000E+04  0.25500000920E-02 0. -1.
       -2   -1    0    0    0  501  0.00000000000E+00  0.00000000000E+00 -0.21728782879E+03  0.21728782880E+03  0.25500000920E-02 0.  1.
    10030    2    1    2    0    0  0.00000000000E+00  0.00000000000E+00  0.18109340712E+04  0.22455097288E+04  0.13277167363E+04 0.  0.
        4    1    3    3  502    0  0.61326181177E+03  0.10351563790E+03  0.51281572775E+03  0.80609374182E+03  0.12699999809E+01 0.  1.
       -4    1    3    3    0  502 -0.61326181177E+03 -0.10351563790E+03  0.12981183435E+04  0.14394159870E+04  0.12699999809E+01 0. -1.
</event>
<event>
 5   0  0.2511542E-03  0.1286294E+04  0.7818609E-02  0.9040505E-01
       -1   -1    0    0    0  501  0.00000000000E+00  0.00000000000E+00  0.51972380469E+03  0.51972380471E+03  0.50400001928E-02 0.  1.
        1   -1    0    0  501    0  0.00000000000E+00  0.00000000000E+00 -0.79588078688E+03  0.79588078690E+03  0.50400001928E-02 0. -1.
    10030    2    1    2    0    0  0.00000000000E+00  0.00000000000E+00 -0.27615698220E+03  0.13156045916E+04  0.12862941976E+04 0.  0.
        4    1    3    3  502    0 -0.27801236306E+03  0.56339710927E+03 -0.27879773918E+03  0.68734050442E+03  0.12699999809E+01 0. -1.
       -4    1    3    3    0  502  0.27801236306E+03 -0.56339710927E+03  0.26407569845E+01  0.62826408719E+03  0.12699999809E+01 0.  1.
</event>
<event>
 5   0  0.2356769E-03  0.1371135E+04  0.7818609E-02  0.8974982E-01
       -1   -1    0    0    0  501  0.00000000000E+00  0.00000000000E+00  0.50189011827E+03  0.50189011829E+03  0.50400001928E-02 0.  1.
        1   -1    0    0  501    0  0.00000000000E+00  0.00000000000E+00 -0.93646575458E+03  0.93646575460E+03  0.50400001928E-02 0. -1.
    10030    2    1    2    0    0  0.00000000000E+00  0.00000000000E+00 -0.43457563632E+03  0.14383558729E+04  0.13711351623E+04 0.  0.
        1    1    3    3  502    0  0.14404023035E+02  0.56826554401E+02 -0.93383156080E+03  0.93566987615E+03  0.50400001928E-02 0. -1.
       -1    1    3    3    0  502 -0.14404023035E+02 -0.56826554401E+02  0.49925592448E+03  0.50268599674E+03  0.50400001928E-02 0.  1.
</event>
<event>
 5   0  0.4453011E-03  0.1301365E+04  0.7818609E-02  0.9028483E-01
        2   -1    0    0  501    0  0.00000000000E+00  0.00000000000E+00  0.15267891000E+04  0.15267891000E+04  0.25500000920E-02 0.  1.
       -2   -1    0    0    0  501  0.00000000000E+00  0.00000000000E+00 -0.27730591718E+03  0.27730591719E+03  0.25500000920E-02 0. -1.
    10030    2    1    2    0    0  0.00000000000E+00  0.00000000000E+00  0.12494831828E+04  0.18040950172E+04  0.13013649015E+04 0.  0.
        1    1    3    3  502    0 -0.18805129832E+03 -0.34026925773E+03 -0.98589673686E+02  0.40108151582E+03  0.50400001928E-02 0. -1.
       -1    1    3    3    0  502  0.18805129832E+03  0.34026925773E+03  0.13480728565E+04  0.14030135014E+04  0.50400001928E-02 0.  1.
</event>
<event>
 5   0  0.4388937E-03  0.1303015E+04  0.7818609E-02  0.9027177E-01
        2   -1    0    0  501    0  0.00000000000E+00  0.00000000000E+00  0.47340989806E+03  0.47340989807E+03  0.25500000920E-02 0. -1.
       -2   -1    0    0    0  501  0.00000000000E+00  0.00000000000E+00 -0.89660615953E+03  0.89660615954E+03  0.25500000920E-02 0.  1.
    10030    2    1    2    0    0  0.00000000000E+00  0.00000000000E+00 -0.42319626147E+03  0.13700160576E+04  0.13030153193E+04 0.  0.
        5    1    3    3  502    0 -0.25455270646E+03  0.16603529088E+03 -0.81748905941E+03  0.87216698541E+03  0.46999998093E+01 0.  1.
       -5    1    3    3    0  502  0.25455270646E+03 -0.16603529088E+03  0.39429279794E+03  0.49784907220E+03  0.46999998093E+01 0. -1.
</event>
<event>
 5   0  0.2511542E-03  0.9382974E+03  0.7818609E-02  0.9378935E-01
        1   -1    0    0  501    0  0.00000000000E+00  0.00000000000E+00  0.10283894292E+04  0.10283894292E+04  0.50400001928E-02 0. -1.
       -1   -1    0    0    0  501  0.00000000000E+00  0.00000000000E+00 -0.21402445318E+03  0.21402445324E+03  0.50400001928E-02 0.  1.
    10030    2    1    2    0    0  0.00000000000E+00  0.00000000000E+00  0.81436497599E+03  0.12424138824E+04  0.93829736283E+03 0.  0.
        4    1    3    3  502    0 -0.18030805051E+02 -0.21153189044E+03  0.96114399987E+03  0.98431207042E+03  0.12699999809E+01 0. -1.
       -4    1    3    3    0  502  0.18030805051E+02  0.21153189044E+03 -0.14677902388E+03  0.25810181199E+03  0.12699999809E+01 0.  1.
</event>
<event>
 5   0  0.4310889E-03  0.1268947E+04  0.7818609E-02  0.9054559E-01
        2   -1    0    0  501    0  0.00000000000E+00  0.00000000000E+00  0.14050618480E+04  0.14050618480E+04  0.25500000920E-02 0. -1.
       -2   -1    0    0    0  501  0.00000000000E+00  0.00000000000E+00 -0.28650459741E+03  0.28650459742E+03  0.25500000920E-02 0.  1.
    10030    2    1    2    0    0  0.00000000000E+00  0.00000000000E+00  0.11185572506E+04  0.16915664455E+04  0.12689470897E+04 0.  0.
        4    1    3    3  502    0  0.13045741092E+03  0.56574707643E+03  0.21820036947E+03  0.62024342373E+03  0.12699999809E+01 0.  1.
       -4    1    3    3    0  502 -0.13045741092E+03 -0.56574707643E+03  0.90035688114E+03  0.10713230217E+04  0.12699999809E+01 0. -1.
</event>
<event>
 5   0  0.4263540E-03  0.1296113E+04  0.7818609E-02  0.9032653E-01
       -2   -1    0    0    0  501  0.00000000000E+00  0.00000000000E+00  0.40908616015E+03  0.40908616015E+03  0.25500000920E-02 0.  1.
        2   -1    0    0  501    0  0.00000000000E+00  0.00000000000E+00 -0.10266230753E+04  0.10266230753E+04  0.25500000920E-02 0. -1.
    10030    2    1    2    0    0  0.00000000000E+00  0.00000000000E+00 -0.61753691513E+03  0.14357092354E+04  0.12961130997E+04 0.  0.
        2    1    3    3  502    0  0.60656357129E+03 -0.75794035654E+02 -0.54715182016E+03  0.82038967337E+03  0.25500000920E-02 0. -1.
       -2    1    3    3    0  502 -0.60656357129E+03  0.75794035654E+02 -0.70385094974E+02  0.61531956207E+03  0.25500000920E-02 0.  1.
</event>
<event>
 5   0  0.2356769E-03  0.1303918E+04  0.7818609E-02  0.9026464E-01
        1   -1    0    0  501    0  0.00000000000E+00  0.00000000000E+00  0.43473200451E+03  0.43473200454E+03  0.50400001928E-02 0. -1.
       -1   -1    0    0    0  501  0.00000000000E+00  0.00000000000E+00 -0.97773068488E+03  0.97773068489E+03  0.50400001928E-02 0.  1.
    10030    2    1    2    0    0  0.00000000000E+00  0.00000000000E+00 -0.54299868037E+03  0.14124626894E+04  0.13039184339E+04 0.  0.
        1    1    3    3  502    0  0.23149698465E+03 -0.22920033763E+03 -0.88324700521E+03  0.94140794606E+03  0.50400001928E-02 0.  1.
       -1    1    3    3    0  502 -0.23149698465E+03  0.22920033763E+03  0.34024832484E+03  0.47105474337E+03  0.50400001928E-02 0. -1.
</event>
<event>
 5   0  0.4263540E-03  0.1234896E+04  0.7818609E-02  0.9082849E-01
       -2   -1    0    0    0  501  0.00000000000E+00  0.00000000000E+00  0.55827597716E+03  0.55827597717E+03  0.25500000920E-02 0. -1.
        2   -1    0    0  501    0  0.00000000000E+00  0.00000000000E+00 -0.68289136906E+03  0.68289136906E+03  0.25500000920E-02 0.  1.
    10030    2    1    2    0    0  0.00000000000E+00  0.00000000000E+00 -0.12461539190E+03  0.12411673462E+04  0.12348956982E+04 0.  0.
        2    1    3    3  502    0  0.55104158493E+03  0.84861107763E+02  0.20435771283E+03  0.59380999548E+03  0.25500000920E-02 0. -1.
       -2    1    3    3    0  502 -0.55104158493E+03 -0.84861107763E+02 -0.32897310472E+03  0.64735735075E+03  0.25500000920E-02 0.  1.
</event>
<event>
 5   0  0.2462055E-03  0.1306674E+04  0.7818609E-02  0.9024289E-01
       -1   -1    0    0    0  501  0.00000000000E+00  0.00000000000E+00  0.62048298760E+03  0.62048298762E+03  0.50400001928E-02 0. -1.
        1   -1    0    0  501    0  0.00000000000E+00  0.00000000000E+00 -0.68793039368E+03  0.68793039370E+03  0.50400001928E-02 0.  1.
    10030    2    1    2    0    0  0.00000000000E+00  0.00000000000E+00 -0.67447406075E+02  0.13084133813E+04  0.13066738016E+04 0.  0.
        2    1    3    3  502    0  0.40143325498E+03  0.51494398828E+03 -0.10603210732E+02  0.65301485232E+03  0.25500000920E-02 0. -1.
       -2    1    3    3    0  502 -0.40143325498E+03 -0.51494398828E+03 -0.56844195343E+02  0.65539852900E+03  0.25500000920E-02 0.  1.
</event>
<event>
 5   0  0.2511542E-03  0.1295235E+04  0.7818609E-02  0.9033352E-01
       -1   -1    0    0    0  501  0.00000000000E+00  0.00000000000E+00  0.78441542823E+03  0.78441542825E+03  0.50400001928E-02 0.  1.
        1   -1    0    0  501    0  0.00000000000E+00  0.00000000000E+00 -0.53467654554E+03  0.53467654556E+03  0.50400001928E-02 0. -1.
    10030    2    1    2    0    0  0.00000000000E+00  0.00000000000E+00  0.24973888270E+03  0.13190919738E+04  0.12952351624E+04 0.  0.
        4    1    3    3  502    0  0.57522204011E+03 -0.28948385833E+03  0.54860130985E+02  0.64629137897E+03  0.12699999809E+01 0. -1.
       -4    1    3    3    0  502 -0.57522204011E+03  0.28948385833E+03  0.19487875171E+03  0.67280059485E+03  0.12699999809E+01 0.  1.
</event>
<event>
 5   0  0.4453011E-03  0.1326774E+04  0.7818609E-02  0.9008599E-01
        2   -1    0    0  501    0  0.00000000000E+00  0.00000000000E+00  0.11330213187E+04  0.11330213187E+04  0.25500000920E-02 0. -1.
       -2   -1    0    0    0  501  0.00000000000E+00  0.00000000000E+00 -0.38841458503E+03  0.38841458504E+03  0.25500000920E-02 0.  1.
    10030    2    1    2    0    0  0.00000000000E+00  0.00000000000E+00  0.74460673362E+03  0.15214359037E+04  0.13267735381E+04 0.  0.
        1    1    3    3  502    0  0.74321239110E+02 -0.63487020112E+03  0.57581987111E+03  0.86032106963E+03  0.50400001928E-02 0. -1.
       -1    1    3    3    0  502 -0.74321239110E+02  0.63487020112E+03  0.16878686251E+03  0.66111483407E+03  0.50400001928E-02 0.  1.
</event>
<event>
 5   0  0.4263540E-03  0.1187722E+04  0.7818609E-02  0.9123672E-01
       -2   -1    0    0    0  501  0.00000000000E+00  0.00000000000E+00  0.30961107585E+03  0.30961107586E+03  0.25500000920E-02 0. -1.
        2   -1    0    0  501    0  0.00000000000E+00  0.00000000000E+00 -0.11390774125E+04  0.11390774125E+04  0.25500000920E-02 0.  1.
    10030    2    1    2    0    0  0.00000000000E+00  0.00000000000E+00 -0.82946633665E+03  0.14486884884E+04  0.11877221614E+04 0.  0.
        2    1    3    3  502    0 -0.15308896540E+03  0.40053911594E+02  0.28342250108E+03  0.32460570125E+03  0.25500000920E-02 0. -1.
       -2    1    3    3    0  502  0.15308896540E+03 -0.40053911594E+02 -0.11128888377E+04  0.11240827871E+04  0.25500000920E-02 0.  1.
</event>
<event>
 5   0  0.2356769E-03  0.9901589E+03  0.7818609E-02  0.9319405E-01
       -1   -1    0    0    0  501  0.00000000000E+00  0.00000000000E+00  0.13416735762E+03  0.13416735772E+03  0.50400001928E-02 0. -1.
        1   -1    0    0  501    0  0.00000000000E+00  0.00000000000E+00 -0.18268500066E+04  0.18268500066E+04  0.50400001928E-02 0.  1.
    10030    2    1    2    0    0  0.00000000000E+00  0.00000000000E+00 -0.16926826489E+04  0.19610173643E+04  0.99015885242E+03 0.  0.
        1    1    3    3  502    0  0.57223950610E+02 -0.27586931761E+03 -0.40089313590E+02  0.28457971469E+03  0.50400001928E-02 0. -1.
       -1    1    3    3    0  502 -0.57223950610E+02  0.27586931761E+03 -0.16525933353E+04  0.16764376496E+04  0.50400001928E-02 0.  1.
</event>
<event>
 5   0  0.2462055E-03  0.1329673E+04  0.7818609E-02  0.9006360E-01
        1   -1    0    0  501    0  0.00000000000E+00  0.00000000000E+00  0.83631072927E+03  0.83631072929E+03  0.50400001928E-02 0.  1.
       -1   -1    0    0    0  501  0.00000000000E+00  0.00000000000E+00 -0.52852069521E+03  0.52852069523E+03  0.50400001928E-02 0. -1.
    10030    2    1    2    0    0  0.00000000000E+00  0.00000000000E+00  0.30779003407E+03  0.13648314245E+04  0.13296729343E+04 0.  0.
        2    1    3    3  502    0  0.34401573787E+03  0.51848253716E+03 -0.86468904786E+02  0.62821002916E+03  0.25500000920E-02 0. -1.
       -2    1    3    3    0  502 -0.34401573787E+03 -0.51848253716E+03  0.39425893885E+03  0.73662139536E+03  0.25500000920E-02 0.  1.
</event>
<event>
 5   0  0.4453011E-03  0.1298368E+04  0.7818609E-02  0.9030860E-01
       -2   -1    0    0    0  501  0.00000000000E+00  0.00000000000E+00  0.38671064346E+03  0.38671064347E+03  0.25500000920E-02 0.  1.
        2   -1    0    0  501    0  0.00000000000E+00  0.00000000000E+00 -0.10898070670E+04  0.10898070670E+04  0.25500000920E-02 0. -1.
    10030    2    1    2    0    0  0.00000000000E+00  0.00000000000E+00 -0.70309642350E+03  0.14765177104E+04  0.12983681945E+04 0.  0.
        1    1    3    3  502    0 -0.10692770325E+03 -0.63735113027E+03 -0.28153820538E+03  0.70492110062E+03  0.50400001928E-02 0. -1.
       -1    1    3    3    0  502  0.10692770325E+03  0.63735113027E+03 -0.42155821811E+03  0.77159660981E+03  0.50400001928E-02 0.  1.
</event>
<event>
 5   0  0.2462055E-03  0.1307784E+04  0.7818609E-02  0.9023415E-01
        1   -1    0    0  501    0  0.00000000000E+00  0.00000000000E+00  0.13226553033E+04  0.13226553033E+04  0.50400001928E-02 0. -1.
       -1   -1    0    0    0  501  0.00000000000E+00  0.00000000000E+00 -0.32327015443E+03  0.32327015447E+03  0.50400001928E-02 0.  1.
    10030    2    1    2    0    0  0.00000000000E+00  0.00000000000E+00  0.99938514889E+03  0.16459254578E+04  0.13077843617E+04 0.  0.
        2    1    3    3  502    0  0.34480734848E+02 -0.12627463570E+03  0.13059974291E+04  0.13125408525E+04  0.25500000920E-02 0. -1.
       -2    1    3    3    0  502 -0.34480734848E+02  0.12627463570E+03 -0.30661228018E+03  0.33338460531E+03  0.25500000920E-02 0.  1.
</event>
<event>
 5   0  0.2370801E-03  0.1267132E+04  0.7818609E-02  0.9056044E-01
        1   -1    0    0  501    0  0.00000000000E+00  0.00000000000E+00  0.63385126974E+03  0.63385126976E+03  0.50400001928E-02 0. -1.
       -1   -1    0    0    0  501  0.00000000000E+00  0.00000000000E+00 -0.63328074775E+03  0.63328074777E+03  0.50400001928E-02 0.  1.
    10030    2    1    2    0    0  0.00000000000E+00  0.00000000000E+00  0.57052199409E+00  0.12671320175E+04  0.12671318891E+04 0.  0.
        3    1    3    3  502    0 -0.24455788033E+03 -0.37777899970E+03  0.44624524436E+03  0.63376680077E+03  0.10100000352E+00 0. -1.
       -3    1    3    3    0  502  0.24455788033E+03  0.37777899970E+03 -0.44567472237E+03  0.63336521676E+03  0.10100000352E+00 0.  1.
</event>
<event>
 5   0  0.4310889E-03  0.1348728E+04  0.7818609E-02  0.8991792E-01
       -2   -1    0    0    0  501  0.00000000000E+00  0.00000000000E+00  0.98587775932E+03  0.98587775932E+03  0.25500000920E-02 0. -1.
        2   -1    0    0  501    0  0.00000000000E+00  0.00000000000E+00 -0.46128105160E+03  0.46128105161E+03  0.25500000920E-02 0.  1.
    10030    2    1    2    0    0  0.00000000000E+00  0.00000000000E+00  0.52459670771E+03  0.14471588109E+04  0.13487278889E+04 0.  0.
        4    1    3    3  502    0 -0.58380475968E+03 -0.31665717936E+03  0.13686811910E+03  0.67811080333E+03  0.12699999809E+01 0.  1.
       -4    1    3    3    0  502  0.58380475968E+03  0.31665717936E+03  0.38772858861E+03  0.76904800760E+03  0.12699999809E+01 0. -1.
</event>
<event>
 5   0  0.4310889E-03  0.1287581E+04  0.7818609E-02  0.9039472E-01
        2   -1    0    0  501    0  0.00000000000E+00  0.00000000000E+00  0.56164700416E+03  0.56164700416E+03  0.25500000920E-02 0.  1.
       -2   -1    0    0    0  501  0.00000000000E+00  0.00000000000E+00 -0.73794742939E+03  0.73794742940E+03  0.25500000920E-02 0. -1.
    10030    2    1    2    0    0  0.00000000000E+00  0.00000000000E+00 -0.17630042524E+03  0.12995944336E+04  0.12875806195E+04 0.  0.
        4    1    3    3  502    0  0.58120285512E+03  0.78406439163E+02 -0.35618405335E+03  0.68615816053E+03  0.12699999809E+01 0. -1.
       -4    1    3    3    0  502 -0.58120285512E+03 -0.78406439163E+02  0.17988362812E+03  0.61343627303E+03  0.12699999809E+01 0.  1.
</event>
<event>
 5   0  0.4310889E-03  0.1184530E+04  0.7818609E-02  0.9126507E-01
       -2   -1    0    0    0  501  0.00000000000E+00  0.00000000000E+00  0.73089916399E+03  0.73089916400E+03  0.25500000920E-02 0.  1.
        2   -1    0    0  501    0  0.00000000000E+00  0.00000000000E+00 -0.47992609911E+03  0.47992609912E+03  0.25500000920E-02 0. -1.
    10030    2    1    2    0    0  0.00000000000E+00  0.00000000000E+00  0.25097306488E+03  0.12108252631E+04  0.11845295853E+04 0.  0.
        4    1    3    3  502    0 -0.57798972340E+03  0.20963827614E+02  0.25584948098E+03  0.63243353188E+03  0.12699999809E+01 0.  1.
       -4    1    3    3    0  502  0.57798972340E+03 -0.20963827614E+02 -0.48764161013E+01  0.57839173124E+03  0.12699999809E+01 0. -1.
</event>
<event>
 5   0  0.4306214E-03  0.1219055E+04  0.7818609E-02  0.9096339E-01
        2   -1    0    0  501    0  0.00000000000E+00  0.00000000000E+00  0.73069447873E+03  0.73069447873E+03  0.25500000920E-02 0. -1.
       -2   -1    0    0    0  501  0.00000000000E+00  0.00000000000E+00 -0.50845281680E+03  0.50845281681E+03  0.25500000920E-02 0.  1.
    10030    2    1    2    0    0  0.00000000000E+00  0.00000000000E+00  0.22224166192E+03  0.12391472955E+04  0.12190548239E+04 0.  0.
        3    1    3    3  502    0 -0.52524681311E+03 -0.28207295422E+03 -0.17753252501E+02  0.59646001908E+03  0.10100000352E+00 0.  1.
       -3    1    3    3    0  502  0.52524681311E+03  0.28207295422E+03  0.23999491442E+03  0.64268727647E+03  0.10100000352E+00 0. -1.
</event>
<event>
 5   0  0.2356769E-03  0.1230801E+04  0.7818609E-02  0.9086315E-01
        1   -1    0    0  501    0  0.00000000000E+00  0.00000000000E+00  0.93512446521E+03  0.93512446523E+03  0.50400001928E-02 0. -1.
       -1   -1    0    0    0  501  0.00000000000E+00  0.00000000000E+00 -0.40499196648E+03  0.40499196651E+03  0.50400001928E-02 0.  1.
    10030    2    1    2    0    0  0.00000000000E+00  0.00000000000E+00  0.53013249873E+03  0.13401164317E+04  0.12308011961E+04 0.  0.
        1    1    3    3  502    0  0.51232764516E+02 -0.82199792280E+02 -0.39664057890E+03  0.40829566599E+03  0.50400001928E-02 0.  1.
       -1    1    3    3    0  502 -0.51232764516E+02  0.82199792280E+02  0.92677307764E+03  0.93182076574E+03  0.50400001928E-02 0. -1.
</event>
<event>
 5   0  0.4263540E-03  0.7482756E+03  0.7818609E-02  0.9638060E-01
       -2   -1    0    0    0  501  0.00000000000E+00  0.00000000000E+00  0.39873569122E+03  0.39873569122E+03  0.25500000920E-02 0.  1.
        2   -1    0    0  501    0  0.00000000000E+00  0.00000000000E+00 -0.35105732136E+03  0.35105732137E+03  0.25500000920E-02 0. -1.
    10030    2    1    2    0    0  0.00000000000E+00  0.00000000000E+00  0.47678369856E+02  0.74979301259E+03  0.74827557409E+03 0.  0.
        2    1    3    3  502    0  0.22370135026E+03  0.14020399875E+03 -0.24180147351E+03  0.35800475971E+03  0.25500000920E-02 0. -1.
       -2    1    3    3    0  502 -0.22370135026E+03 -0.14020399875E+03  0.28947984337E+03  0.39178825288E+03  0.25500000920E-02 0.  1.
</event>
<event>
 5   0  0.4453011E-03  0.1309493E+04  0.7818609E-02  0.9022071E-01
        2   -1    0    0  501    0  0.00000000000E+00  0.00000000000E+00  0.51248672542E+03  0.51248672542E+03  0.25500000920E-02 0.  1.
       -2   -1    0    0    0  501  0.00000000000E+00  0.00000000000E+00 -0.83649527277E+03  0.83649527277E+03  0.25500000920E-02 0. -1.
    10030    2    1    2    0    0  0.00000000000E+00  0.00000000000E+00 -0.32400854735E+03  0.13489819982E+04  0.13094926089E+04 0.  0.
        1    1    3    3  502    0  0.11894243084E+03  0.15726243011E+03 -0.80518317686E+03  0.82897450028E+03  0.50400001928E-02 0. -1.
       -1    1    3    3    0  502 -0.11894243084E+03 -0.15726243011E+03  0.48117462951E+03  0.52000749792E+03  0.50400001928E-02 0.  1.
</event>
<event>
 5   0  0.2462055E-03  0.8589625E+03  0.7818609E-02  0.9478386E-01
        1   -1    0    0  501    0  0.00000000000E+00  0.00000000000E+00  0.10322577780E+04  0.10322577781E+04  0.50400001928E-02 0. -1.
       -1   -1    0    0    0  501  0.00000000000E+00  0.00000000000E+00 -0.17868999134E+03  0.17868999141E+03  0.50400001928E-02 0.  1.
    10030    2    1    2    0    0  0.00000000000E+00  0.00000000000E+00  0.85356778671E+03  0.12109477695E+04  0.85896247526E+03 0.  0.
        2    1    3    3  502    0  0.20718226782E+03 -0.94743153218E+02 -0.86486976555E+02  0.24368166591E+03  0.25500000920E-02 0.  1.
       -2    1    3    3    0  502 -0.20718226782E+03  0.94743153218E+02  0.94005476326E+03  0.96726610357E+03  0.25500000920E-02 0. -1.
</event>
<event>
 5   0  0.2462055E-03  0.1292905E+04  0.7818609E-02  0.9035211E-01
        1   -1    0    0  501    0  0.00000000000E+00  0.00000000000E+00  0.51006271936E+03  0.51006271938E+03  0.50400001928E-02 0.  1.
       -1   -1    0    0    0  501  0.00000000000E+00  0.00000000000E+00 -0.81931266495E+03  0.81931266497E+03  0.50400001928E-02 0. -1.
    10030    2    1    2    0    0  0.00000000000E+00  0.00000000000E+00 -0.30924994559E+03  0.13293753843E+04  0.12929050173E+04 0.  0.
        2    1    3    3  502    0  0.40200347841E+03 -0.56769528804E+02  0.36262733161E+03  0.54436031973E+03  0.25500000920E-02 0.  1.
       -2    1    3    3    0  502 -0.40200347841E+03  0.56769528804E+02 -0.67187727720E+03  0.78501506462E+03  0.25500000920E-02 0. -1.
</event>
<event>
 5   0  0.4310889E-03  0.1277574E+04  0.7818609E-02  0.9047541E-01
        2   -1    0    0  501    0  0.00000000000E+00  0.00000000000E+00  0.12271498142E+04  0.12271498142E+04  0.25500000920E-02 0.  1.
       -2   -1    0    0    0  501  0.00000000000E+00  0.00000000000E+00 -0.33251740027E+03  0.33251740028E+03  0.25500000920E-02 0. -1.
    10030    2    1    2    0    0  0.00000000000E+00  0.00000000000E+00  0.89463241394E+03  0.15596672145E+04  0.12775737411E+04 0.  0.
        4    1    3    3  502    0 -0.11707855461E+03 -0.53026907395E+03  0.36656928287E+02  0.54427752299E+03  0.12699999809E+01 0. -1.
       -4    1    3    3    0  502  0.11707855461E+03  0.53026907395E+03  0.85797548566E+03  0.10153896915E+04  0.12699999809E+01 0.  1.
</event>
<event>
 5   0  0.4310889E-03  0.1306035E+04  0.7818609E-02  0.9024793E-01
       -2   -1    0    0    0  501  0.00000000000E+00  0.00000000000E+00  0.21683010831E+03  0.21683010833E+03  0.25500000920E-02 0. -1.
        2   -1    0    0  501    0  0.00000000000E+00  0.00000000000E+00 -0.19666635556E+04  0.19666635556E+04  0.25500000920E-02 0.  1.
    10030    2    1    2    0    0  0.00000000000E+00  0.00000000000E+00 -0.17498334472E+04  0.21834936639E+04  0.13060350252E+04 0.  0.
        4    1    3    3  502    0  0.34904126868E+03  0.21222305060E+03 -0.17266772794E+04  0.17743405734E+04  0.12699999809E+01 0.  1.
       -4    1    3    3    0  502 -0.34904126868E+03 -0.21222305060E+03 -0.23156167880E+02  0.40915309049E+03  0.12699999809E+01 0. -1.
</event>
<event>
 5   0  0.4310889E-03  0.1303145E+04  0.7818609E-02  0.9027075E-01
        2   -1    0    0  501    0  0.00000000000E+00  0.00000000000E+00  0.15500133583E+04  0.15500133583E+04  0.25500000920E-02 0.  1.
       -2   -1    0    0    0  501  0.00000000000E+00  0.00000000000E+00 -0.27389857423E+03  0.27389857425E+03  0.25500000920E-02 0. -1.
    10030    2    1    2    0    0  0.00000000000E+00  0.00000000000E+00  0.12761147841E+04  0.18239119326E+04  0.13031445797E+04 0.  0.
        4    1    3    3  502    0 -0.10542686418E+03  0.47312839323E+03  0.12474637634E+04  0.13383320792E+04  0.12699999809E+01 0.  1.
       -4    1    3    3    0  502  0.10542686418E+03 -0.47312839323E+03  0.28651020691E+02  0.48557985343E+03  0.12699999809E+01 0. -1.
</event>
<event>
 5   0  0.2370801E-03  0.7765712E+03  0.7818609E-02  0.9594562E-01
        1   -1    0    0  501    0  0.00000000000E+00  0.00000000000E+00  0.25775059063E+03  0.25775059068E+03  0.50400001928E-02 0.  1.
       -1   -1    0    0    0  501  0.00000000000E+00  0.00000000000E+00 -0.58492863211E+03  0.58492863214E+03  0.50400001928E-02 0. -1.
    10030    2    1    2    0    0  0.00000000000E+00  0.00000000000E+00 -0.32717804148E+03  0.84267922281E+03  0.77657118266E+03 0.  0.
        3    1    3    3  502    0 -0.36728696562E+03 -0.12175627834E+03 -0.19860662458E+03  0.43493552161E+03  0.10100000352E+00 0.  1.
       -3    1    3    3    0  502  0.36728696562E+03  0.12175627834E+03 -0.12857141690E+03  0.40774370121E+03  0.10100000352E+00 0. -1.
</event>
<event>
 5   0  0.1661750E-03  0.1281030E+04  0.7818609E-02  0.9044745E-01
        3   -1    0    0  501    0  0.00000000000E+00  0.00000000000E+00  0.10528541352E+04  0.10528541400E+04  0.10100000352E+00 0.  1.
       -3   -1    0    0    0  501  0.00000000000E+00  0.00000000000E+00 -0.38966412052E+03  0.38966413361E+03  0.10100000352E+00 0. -1.
    10030    2    1    2    0    0  0.00000000000E+00  0.00000000000E+00  0.66319001467E+03  0.14425182736E+04  0.12810300442E+04 0.  0.
        3    1    3    3  502    0  0.31477864020E+03  0.17211597600E+03 -0.26590753818E+03  0.44656055645E+03  0.10100000352E+00 0. -1.
       -3    1    3    3    0  502 -0.31477864020E+03 -0.17211597600E+03  0.92909755285E+03  0.99595771719E+03  0.10100000352E+00 0.  1.
</event>
<event>
 5   0  0.2370801E-03  0.1290283E+04  0.7818609E-02  0.9037306E-01
       -1   -1    0    0    0  501  0.00000000000E+00  0.00000000000E+00  0.35773921545E+03  0.35773921549E+03  0.50400001928E-02 0.  1.
        1   -1    0    0  501    0  0.00000000000E+00  0.00000000000E+00 -0.11634389400E+04  0.11634389400E+04  0.50400001928E-02 0. -1.
    10030    2    1    2    0    0  0.00000000000E+00  0.00000000000E+00 -0.80569972458E+03  0.15211781555E+04  0.12902832769E+04 0.  0.
        3    1    3    3  502    0 -0.64159463758E+03  0.56962218057E+02 -0.36002706266E+03  0.73790776477E+03  0.10100000352E+00 0. -1.
       -3    1    3    3    0  502  0.64159463758E+03 -0.56962218057E+02 -0.44567266192E+03  0.78327039076E+03  0.10100000352E+00 0.  1.
</event>
<event>
 5   0  0.4263540E-03  0.1308744E+04  0.7818609E-02  0.9022660E-01
        2   -1    0    0  501    0  0.00000000000E+00  0.00000000000E+00  0.76895235076E+03  0.76895235076E+03  0.25500000920E-02 0. -1.
       -2   -1    0    0    0  501  0.00000000000E+00  0.00000000000E+00 -0.55686514957E+03  0.55686514958E+03  0.25500000920E-02 0.  1.
    10030    2    1    2    0    0  0.00000000000E+00  0.00000000000E+00  0.21208720118E+03  0.13258175003E+04  0.13087440786E+04 0.  0.
        2    1    3    3  502    0 -0.24824835099E+03 -0.11712561393E+03  0.70781072188E+03  0.75917170075E+03  0.25500000920E-02 0. -1.
       -2    1    3    3    0  502  0.24824835099E+03  0.11712561393E+03 -0.49572352070E+03  0.56664579959E+03  0.25500000920E-02 0.  1.
</event>
<event>
 5   0  0.2462055E-03  0.1217994E+04  0.7818609E-02  0.9097250E-01
       -1   -1    0    0    0  501  0.00000000000E+00  0.00000000000E+00  0.29868321591E+03  0.29868321595E+03  0.50400001928E-02 0.  1.
        1   -1    0    0  501    0  0.00000000000E+00  0.00000000000E+00 -0.12417084155E+04  0.12417084155E+04  0.50400001928E-02 0. -1.
    10030    2    1    2    0    0  0.00000000000E+00  0.00000000000E+00 -0.94302519958E+03  0.15403916315E+04  0.12179941918E+04 0.  0.
        2    1    3    3  502    0  0.21134202735E+03  0.24354589806E+03  0.18185577528E+03  0.37020478116E+03  0.25500000920E-02 0.  1.
       -2    1    3    3    0  502 -0.21134202735E+03 -0.24354589806E+03 -0.11248809749E+04  0.11701868503E+04  0.25500000920E-02 0. -1.
</event>
<event>
 5   0  0.2462055E-03  0.1491977E+04  0.7818609E-02  0.8889806E-01
       -1   -1    0    0    0  501  0.00000000000E+00  0.00000000000E+00  0.91153127536E+03  0.91153127538E+03  0.50400001928E-02 0. -1.
        1   -1    0    0  501    0  0.00000000000E+00  0.00000000000E+00 -0.61050983025E+03  0.61050983028E+03  0.50400001928E-02 0.  1.
    10030    2    1    2    0    0  0.00000000000E+00  0.00000000000E+00  0.30102144511E+03  0.15220411057E+04  0.14919769492E+04 0.  0.
        2    1    3    3  502    0  0.44099225227E+03  0.55756994846E+02 -0.46065720245E+03  0.64014691065E+03  0.25500000920E-02 0.  1.
       -2    1    3    3    0  502 -0.44099225227E+03 -0.55756994846E+02  0.76167864756E+03  0.88189419501E+03  0.25500000920E-02 0. -1.
</event>
<event>
 5   0  0.2356769E-03  0.1275760E+04  0.7818609E-02  0.9049011E-01
        1   -1    0    0  501    0  0.00000000000E+00  0.00000000000E+00  0.14353326467E+04  0.14353326468E+04  0.50400001928E-02 0. -1.
       -1   -1    0    0    0  501  0.00000000000E+00  0.00000000000E+00 -0.28348204156E+03  0.28348204161E+03  0.50400001928E-02 0.  1.
    10030    2    1    2    0    0  0.00000000000E+00  0.00000000000E+00  0.11518506052E+04  0.17188146884E+04  0.12757602111E+04 0.  0.
        1    1    3    3  502    0  0.52681805188E+03 -0.19799492750E+03  0.17139864016E+03  0.58831687463E+03  0.50400001928E-02 0.  1.
       -1    1    3    3    0  502 -0.52681805188E+03  0.19799492750E+03  0.98045196503E+03  0.11304978137E+04  0.50400001928E-02 0. -1.
</event>
<event>
 5   0  0.4263540E-03  0.1278871E+04  0.7818609E-02  0.9046490E-01
        2   -1    0    0  501    0  0.00000000000E+00  0.00000000000E+00  0.39855271401E+03  0.39855271402E+03  0.25500000920E-02 0. -1.
       -2   -1    0    0    0  501  0.00000000000E+00  0.00000000000E+00 -0.10259069816E+04  0.10259069816E+04  0.25500000920E-02 0.  1.
    10030    2    1    2    0    0  0.00000000000E+00  0.00000000000E+00 -0.62735426754E+03  0.14244596956E+04  0.12788713959E+04 0.  0.
        2    1    3    3  502    0 -0.44007032345E+03 -0.22168273485E+03 -0.76759017445E+03  0.91214023068E+03  0.25500000920E-02 0.  1.
       -2    1    3    3    0  502  0.44007032345E+03  0.22168273485E+03  0.14023590691E+03  0.51231946489E+03  0.25500000920E-02 0. -1.
</event>
<event>
 5   0  0.4310889E-03  0.1314785E+04  0.7818609E-02  0.9017922E-01
       -2   -1    0    0    0  501  0.00000000000E+00  0.00000000000E+00  0.38650734517E+03  0.38650734517E+03  0.25500000920E-02 0. -1.
        2   -1    0    0  501    0  0.00000000000E+00  0.00000000000E+00 -0.11181280321E+04  0.11181280321E+04  0.25500000920E-02 0.  1.
    10030    2    1    2    0    0  0.00000000000E+00  0.00000000000E+00 -0.73162068690E+03  0.15046353772E+04  0.13147846930E+04 0.  0.
        4    1    3    3  502    0 -0.64811377093E+01  0.29534321051E+03 -0.10378874681E+04  0.10791114986E+04  0.12699999809E+01 0.  1.
       -4    1    3    3    0  502  0.64811377093E+01 -0.29534321051E+03  0.30626678117E+03  0.42552387864E+03  0.12699999809E+01 0. -1.
</event>
<event>
 5   0  0.2356769E-03  0.1290683E+04  0.7818609E-02  0.9036987E-01
        1   -1    0    0  501    0  0.00000000000E+00  0.00000000000E+00  0.38612902087E+03  0.38612902090E+03  0.50400001928E-02 0. -1.
       -1   -1    0    0    0  501  0.00000000000E+00  0.00000000000E+00 -0.10785654357E+04  0.10785654357E+04  0.50400001928E-02 0.  1.
    10030    2    1    2    0    0  0.00000000000E+00  0.00000000000E+00 -0.69243641483E+03  0.14646944566E+04  0.12906826344E+04 0.  0.
        1    1    3    3  502    0  0.57139547180E+03 -0.15733291713E+03 -0.63602901982E+03  0.86935570746E+03  0.50400001928E-02 0. -1.
       -1    1    3    3    0  502 -0.57139547180E+03  0.15733291713E+03 -0.56407395010E+02  0.59533874915E+03  0.50400001928E-02 0.  1.
</event>
<event>
 5   0  0.4453011E-03  0.1296816E+04  0.7818609E-02  0.9032094E-01
        2   -1    0    0  501    0  0.00000000000E+00  0.00000000000E+00  0.36891466581E+03  0.36891466582E+03  0.25500000920E-02 0. -1.
       -2   -1    0    0    0  501  0.00000000000E+00  0.00000000000E+00 -0.11396474732E+04  0.11396474732E+04  0.25500000920E-02 0.  1.
    10030    2    1    2    0    0  0.00000000000E+00  0.00000000000E+00 -0.77073280738E+03  0.15085621390E+04  0.12968155871E+04 0.  0.
        1    1    3    3  502    0  0.23155538990E+03  0.52336059349E+03 -0.30787733932E+02  0.57312485027E+03  0.50400001928E-02 0.  1.
       -1    1    3    3    0  502 -0.23155538990E+03 -0.52336059349E+03 -0.73994507345E+03  0.93543728873E+03  0.50400001928E-02 0. -1.
</event>
<event>
 5   0  0.2462055E-03  0.1322664E+04  0.7818609E-02  0.9011783E-01
        1   -1    0    0  501    0  0.00000000000E+00  0.00000000000E+00  0.15332863931E+04  0.15332863931E+04  0.50400001928E-02 0.  1.
       -1   -1    0    0    0  501  0.00000000000E+00  0.00000000000E+00 -0.28524343502E+03  0.28524343507E+03  0.50400001928E-02 0. -1.
    10030    2    1    2    0    0  0.00000000000E+00  0.00000000000E+00  0.12480429581E+04  0.18185298282E+04  0.13226637936E+04 0.  0.
        2    1    3    3  502    0  0.45243356434E+03  0.19465668078E+03  0.17236516047E+02  0.49283308636E+03  0.25500000920E-02 0. -1.
       -2    1    3    3    0  502 -0.45243356434E+03 -0.19465668078E+03  0.12308064421E+04  0.13256967418E+04  0.25500000920E-02 0.  1.
</event>
<event>
 5   0  0.2356769E-03  0.1290881E+04  0.7818609E-02  0.9036828E-01
       -1   -1    0    0    0  501  0.00000000000E+00  0.00000000000E+00  0.42630526562E+03  0.42630526565E+03  0.50400001928E-02 0.  1.
        1   -1    0    0  501    0  0.00000000000E+00  0.00000000000E+00 -0.97721886865E+03  0.97721886866E+03  0.50400001928E-02 0. -1.
    10030    2    1    2    0    0  0.00000000000E+00  0.00000000000E+00 -0.55091360303E+03  0.14035241343E+04  0.12908811710E+04 0.  0.
        1    1    3    3  502    0  0.61526811047E+03  0.17205295097E+03 -0.37532204241E+03  0.74096133586E+03  0.50400001928E-02 0.  1.
       -1    1    3    3    0  502 -0.61526811047E+03 -0.17205295097E+03 -0.17559156062E+03  0.66256279845E+03  0.50400001928E-02 0. -1.
</event>
<event>
 5   0  0.2356769E-03  0.1261892E+04  0.7818609E-02  0.9060343E-01
       -1   -1    0    0    0  501  0.00000000000E+00  0.00000000000E+00  0.23085773101E+03  0.23085773106E+03  0.50400001928E-02 0.  1.
        1   -1    0    0  501    0  0.00000000000E+00  0.00000000000E+00 -0.17244088408E+04  0.17244088408E+04  0.50400001928E-02 0. -1.
    10030    2    1    2    0    0  0.00000000000E+00  0.00000000000E+00 -0.14935511098E+04  0.19552665718E+04  0.12618924080E+04 0.  0.
        1    1    3    3  502    0 -0.52330565494E+03 -0.93574294910E+02 -0.12733410169E+04  0.13798558992E+04  0.50400001928E-02 0. -1.
       -1    1    3    3    0  502  0.52330565494E+03  0.93574294910E+02 -0.22021009283E+03  0.57541067263E+03  0.50400001928E-02 0.  1.
</event>
<event>
 5   0  0.2356769E-03  0.1306658E+04  0.7818609E-02  0.9024302E-01
        1   -1    0    0  501    0  0.00000000000E+00  0.00000000000E+00  0.29332129082E+03  0.29332129086E+03  0.50400001928E-02 0.  1.
       -1   -1    0    0    0  501  0.00000000000E+00  0.00000000000E+00 -0.14551914756E+04  0.14551914756E+04  0.50400001928E-02 0. -1.
    10030    2    1    2    0    0  0.00000000000E+00  0.00000000000E+00 -0.11618701848E+04  0.17485127665E+04  0.13066577854E+04 0.  0.
        1    1    3    3  502    0 -0.64402224753E+03 -0.10579910759E+03 -0.62064331026E+03  0.90064211820E+03  0.50400001928E-02 0. -1.
       -1    1    3    3    0  502  0.64402224753E+03  0.10579910759E+03 -0.54122687454E+03  0.84787064829E+03  0.50400001928E-02 0.  1.
</event>
<event>
 5   0  0.2356769E-03  0.1316668E+04  0.7818609E-02  0.9016451E-01
        1   -1    0    0  501    0  0.00000000000E+00  0.00000000000E+00  0.63179296748E+03  0.63179296750E+03  0.50400001928E-02 0.  1.
       -1   -1    0    0    0  501  0.00000000000E+00  0.00000000000E+00 -0.68598972960E+03  0.68598972962E+03  0.50400001928E-02 0. -1.
    10030    2    1    2    0    0  0.00000000000E+00  0.00000000000E+00 -0.54196762118E+02  0.13177826971E+04  0.13166677439E+04 0.  0.
        1    1    3    3  502    0 -0.57935117949E+03 -0.17096626410E+03  0.23489844975E+03  0.64811614264E+03  0.50400001928E-02 0.  1.
       -1    1    3    3    0  502  0.57935117949E+03  0.17096626410E+03 -0.28909521187E+03  0.66966655448E+03  0.50400001928E-02 0. -1.
</event>
<event>
 5   0  0.2462055E-03  0.1319749E+04  0.7818609E-02  0.9014049E-01
       -1   -1    0    0    0  501  0.00000000000E+00  0.00000000000E+00  0.35597844825E+03  0.35597844829E+03  0.50400001928E-02 0.  1.
        1   -1    0    0  501    0  0.00000000000E+00  0.00000000000E+00 -0.12232046271E+04  0.12232046272E+04  0.50400001928E-02 0. -1.
    10030    2    1    2    0    0  0.00000000000E+00  0.00000000000E+00 -0.86722617889E+03  0.15791830754E+04  0.13197491960E+04 0.  0.
        2    1    3    3  502    0  0.38493416738E+02 -0.65471021858E+03 -0.34644114493E+03  0.74172008220E+03  0.25500000920E-02 0. -1.
       -2    1    3    3    0  502 -0.38493416738E+02  0.65471021858E+03 -0.52078503396E+03  0.83746299324E+03  0.25500000920E-02 0.  1.
</event>
<event>
 5   0  0.2511542E-03  0.1298230E+04  0.7818609E-02  0.9030970E-01
        1   -1    0    0  501    0  0.00000000000E+00  0.00000000000E+00  0.62485880918E+03  0.62485880920E+03  0.50400001928E-02 0.  1.
       -1   -1    0    0    0  501  0.00000000000E+00  0.00000000000E+00 -0.67431276823E+03  0.67431276825E+03  0.50400001928E-02 0. -1.
    10030    2    1    2    0    0  0.00000000000E+00  0.00000000000E+00 -0.49453959046E+02  0.12991715775E+04  0.12982299849E+04 0.  0.
        4    1    3    3  502    0  0.11514422977E+03  0.56842769724E+03 -0.31645242472E+03  0.66069054076E+03  0.12699999809E+01 0. -1.
       -4    1    3    3    0  502 -0.11514422977E+03 -0.56842769724E+03  0.26699846568E+03  0.63848103669E+03  0.12699999809E+01 0.  1.
</event>
<event>
 5   0  0.4263540E-03  0.1311255E+04  0.7818609E-02  0.9020687E-01
        2   -1    0    0  501    0  0.00000000000E+00  0.00000000000E+00  0.49493554620E+03  0.49493554620E+03  0.25500000920E-02 0. -1.
       -2   -1    0    0    0  501  0.00000000000E+00  0.00000000000E+00 -0.86849195947E+03  0.86849195947E+03  0.25500000920E-02 0.  1.
    10030    2    1    2    0    0  0.00000000000E+00  0.00000000000E+00 -0.37355641327E+03  0.13634275057E+04  0.13112551885E+04 0.  0.
        2    1    3    3  502    0  0.82019341978E+02 -0.51277114352E+03  0.22937886447E+03  0.56769365115E+03  0.25500000920E-02 0. -1.
       -2    1    3    3    0  502 -0.82019341978E+02  0.51277114352E+03 -0.60293527775E+03  0.79573385453E+03  0.25500000920E-02 0.  1.
</event>
<event>
 5   0  0.2462055E-03  0.1284290E+04  0.7818609E-02  0.9042117E-01
        1   -1    0    0  501    0  0.00000000000E+00  0.00000000000E+00  0.13912201673E+04  0.13912201673E+04  0.50400001928E-02 0.  1.
       -1   -1    0    0    0  501  0.00000000000E+00  0.00000000000E+00 -0.29639471260E+03  0.29639471265E+03  0.50400001928E-02 0. -1.
    10030    2    1    2    0    0  0.00000000000E+00  0.00000000000E+00  0.10948254547E+04  0.16876148799E+04  0.12842901568E+04 0.  0.
        2    1    3    3  502    0  0.24256174835E+03  0.32570476392E+03 -0.10622455286E+03  0.41976594745E+03  0.25500000920E-02 0. -1.
       -2    1    3    3    0  502 -0.24256174835E+03 -0.32570476392E+03  0.12010500075E+04  0.12678489325E+04  0.25500000920E-02 0.  1.
</event>
<event>
 5   0  0.2458456E-03  0.1311416E+04  0.7818609E-02  0.9020561E-01
        1   -1    0    0  501    0  0.00000000000E+00  0.00000000000E+00  0.10887049512E+04  0.10887049512E+04  0.50400001928E-02 0.  1.
       -1   -1    0    0    0  501  0.00000000000E+00  0.00000000000E+00 -0.39492144006E+03  0.39492144009E+03  0.50400001928E-02 0. -1.
    10030    2    1    2    0    0  0.00000000000E+00  0.00000000000E+00  0.69378351118E+03  0.14836263913E+04  0.13114159175E+04 0.  0.
        5    1    3    3  502    0 -0.63614337013E+03  0.15408240785E+03  0.39086871060E+03  0.76237799988E+03  0.46999998093E+01 0. -1.
       -5    1    3    3    0  502  0.63614337013E+03 -0.15408240785E+03  0.30291480058E+03  0.72124839146E+03  0.46999998093E+01 0.  1.
</event>
<event>
 5   0  0.4453011E-03  0.1304032E+04  0.7818609E-02  0.9026374E-01
       -2   -1    0    0    0  501  0.00000000000E+00  0.00000000000E+00  0.30827002696E+03  0.30827002697E+03  0.25500000920E-02 0. -1.
        2   -1    0    0  501    0  0.00000000000E+00  0.00000000000E+00 -0.13790672283E+04  0.13790672283E+04  0.25500000920E-02 0.  1.
    10030    2    1    2    0    0  0.00000000000E+00  0.00000000000E+00 -0.10707972013E+04  0.16873372552E+04  0.13040323487E+04 0.  0.
        1    1    3    3  502    0  0.64972345915E+03 -0.23659627188E+02 -0.59911425468E+03  0.88410307177E+03  0.50400001928E-02 0. -1.
       -1    1    3    3    0  502 -0.64972345915E+03  0.23659627188E+02 -0.47168294663E+03  0.80323418347E+03  0.50400001928E-02 0.  1.
</event>
<event>
 5   0  0.4453011E-03  0.1279692E+04  0.7818609E-02  0.9045826E-01
        2   -1    0    0  501    0  0.00000000000E+00  0.00000000000E+00  0.54356761349E+03  0.54356761350E+03  0.25500000920E-02 0. -1.
       -2   -1    0    0    0  501  0.00000000000E+00  0.00000000000E+00 -0.75317746715E+03  0.75317746715E+03  0.25500000920E-02 0.  1.
    10030    2    1    2    0    0  0.00000000000E+00  0.00000000000E+00 -0.20960985366E+03  0.12967450807E+04  0.12796919604E+04 0.  0.
        1    1    3    3  502    0 -0.22507659211E+03 -0.38395458981E+03 -0.57062887331E+03  0.72366975233E+03  0.50400001928E-02 0.  1.
       -1    1    3    3    0  502  0.22507659211E+03  0.38395458981E+03  0.36101901966E+03  0.57307532832E+03  0.50400001928E-02 0. -1.
</event>
<event>
 5   0  0.4263540E-03  0.1248170E+04  0.7818609E-02  0.9071708E-01
        2   -1    0    0  501    0  0.00000000000E+00  0.00000000000E+00  0.47942742147E+03  0.47942742148E+03  0.25500000920E-02 0. -1.
       -2   -1    0    0    0  501  0.00000000000E+00  0.00000000000E+00 -0.81239038603E+03  0.81239038603E+03  0.25500000920E-02 0.  1.
    10030    2    1    2    0    0  0.00000000000E+00  0.00000000000E+00 -0.33296296456E+03  0.12918178075E+04  0.12481702256E+04 0.  0.
        2    1    3    3  502    0 -0.19935378102E+03 -0.57864763478E+03 -0.40116810604E+02  0.61333871046E+03  0.25500000920E-02 0. -1.
       -2    1    3    3    0  502  0.19935378102E+03  0.57864763478E+03 -0.29284615395E+03  0.67847909705E+03  0.25500000920E-02 0.  1.
</event>
<event>
 5   0  0.4388937E-03  0.1347733E+04  0.7818609E-02  0.8992546E-01
        2   -1    0    0  501    0  0.00000000000E+00  0.00000000000E+00  0.50802351528E+03  0.50802351529E+03  0.25500000920E-02 0.  1.
       -2   -1    0    0    0  501  0.00000000000E+00  0.00000000000E+00 -0.89384908593E+03  0.89384908593E+03  0.25500000920E-02 0. -1.
    10030    2    1    2    0    0  0.00000000000E+00  0.00000000000E+00 -0.38582557065E+03  0.14018726012E+04  0.13477334377E+04 0.  0.
        5    1    3    3  502    0  0.13235601345E+03  0.66001974827E+03 -0.16119044286E+03  0.69220562789E+03  0.46999998093E+01 0. -1.
       -5    1    3    3    0  502 -0.13235601345E+03 -0.66001974827E+03 -0.22463512779E+03  0.70966697334E+03  0.46999998093E+01 0.  1.
</event>
<event>
 5   0  0.2511542E-03  0.1284238E+04  0.7818609E-02  0.9042159E-01
        1   -1    0    0  501    0  0.00000000000E+00  0.00000000000E+00  0.94708926072E+03  0.94708926073E+03  0.50400001928E-02 0. -1.
       -1   -1    0    0    0  501  0.00000000000E+00  0.00000000000E+00 -0.43535163561E+03  0.43535163564E+03  0.50400001928E-02 0.  1.
    10030    2    1    2    0    0  0.00000000000E+00  0.00000000000E+00  0.51173762511E+03  0.13824408964E+04  0.12842380757E+04 0.  0.
        4    1    3    3  502    0 -0.57313184265E+03  0.19857635568E+03  0.29036419862E+02  0.60725398695E+03  0.12699999809E+01 0.  1.
       -4    1    3    3    0  502  0.57313184265E+03 -0.19857635568E+03  0.48270120524E+03  0.77518690942E+03  0.12699999809E+01 0. -1.
</event>
<event>
 5   0  0.4453011E-03  0.1234566E+04  0.7818609E-02  0.9083127E-01
       -2   -1    0    0    0  501  0.00000000000E+00  0.00000000000E+00  0.87022370438E+03  0.87022370439E+03  0.25500000920E-02 0. -1.
        2   -1    0    0  501    0  0.00000000000E+00  0.00000000000E+00 -0.43786280808E+03  0.43786280809E+03  0.25500000920E-02 0.  1.
    10030    2    1    2    0    0  0.00000000000E+00  0.00000000000E+00  0.43236089631E+03  0.13080865125E+04  0.12345664743E+04 0.  0.
        1    1    3    3  502    0  0.32464142585E+03  0.10960977692E+03  0.76020843918E+03  0.83386043772E+03  0.50400001928E-02 0. -1.
       -1    1    3    3    0  502 -0.32464142585E+03 -0.10960977692E+03 -0.32784754287E+03  0.47422607475E+03  0.50400001928E-02 0.  1.
</event>
<event>
 5   0  0.2356769E-03  0.1279732E+04  0.7818609E-02  0.9045794E-01
        1   -1    0    0  501    0  0.00000000000E+00  0.00000000000E+00  0.94088070295E+03  0.94088070296E+03  0.50400001928E-02 0. -1.
       -1   -1    0    0    0  501  0.00000000000E+00  0.00000000000E+00 -0.43515481034E+03  0.43515481037E+03  0.50400001928E-02 0.  1.
    10030    2    1    2    0    0  0.00000000000E+00  0.00000000000E+00  0.50572589260E+03  0.13760355133E+04  0.12797324156E+04 0.  0.
        1    1    3    3  502    0  0.56751597594E+03  0.14937821578E+03 -0.21359187590E+02  0.58723457768E+03  0.50400001928E-02 0.  1.
       -1    1    3    3    0  502 -0.56751597594E+03 -0.14937821578E+03  0.52708508019E+03  0.78880093565E+03  0.50400001928E-02 0. -1.
</event>
<event>
 5   0  0.1661750E-03  0.1228229E+04  0.7818609E-02  0.9088500E-01
       -4   -1    0    0    0  501  0.00000000000E+00  0.00000000000E+00  0.35466712861E+03  0.35466940242E+03  0.12699999809E+01 0.  1.
        4   -1    0    0  501    0  0.00000000000E+00  0.00000000000E+00 -0.10633482940E+04  0.10633490525E+04  0.12699999809E+01 0. -1.
    10030    2    1    2    0    0  0.00000000000E+00  0.00000000000E+00 -0.70868116544E+03  0.14180184549E+04  0.12282293532E+04 0.  0.
        5    1    3    3  502    0  0.19028566838E+03  0.73488381998E+02 -0.10230728467E+04  0.10432206466E+04  0.46999998093E+01 0. -1.
       -5    1    3    3    0  502 -0.19028566838E+03 -0.73488381998E+02  0.31439168122E+03  0.37479780829E+03  0.46999998093E+01 0.  1.
</event>
<event>
 5   0  0.2356769E-03  0.1227447E+04  0.7818609E-02  0.9089166E-01
       -1   -1    0    0    0  501  0.00000000000E+00  0.00000000000E+00  0.45431371608E+03  0.45431371611E+03  0.50400001928E-02 0.  1.
        1   -1    0    0  501    0  0.00000000000E+00  0.00000000000E+00 -0.82906741691E+03  0.82906741693E+03  0.50400001928E-02 0. -1.
    10030    2    1    2    0    0  0.00000000000E+00  0.00000000000E+00 -0.37475370083E+03  0.12833811330E+04  0.12274472683E+04 0.  0.
        1    1    3    3  502    0 -0.38826337979E+03 -0.78829637909E-01 -0.68433388612E+03  0.78680450305E+03  0.50400001928E-02 0. -1.
       -1    1    3    3    0  502  0.38826337979E+03  0.78829637909E-01  0.30958018529E+03  0.49657662999E+03  0.50400001928E-02 0.  1.
</event>
<event>
 5   0  0.2458456E-03  0.1325497E+04  0.7818609E-02  0.9009586E-01
        1   -1    0    0  501    0  0.00000000000E+00  0.00000000000E+00  0.38939211951E+03  0.38939211954E+03  0.50400001928E-02 0.  1.
       -1   -1    0    0    0  501  0.00000000000E+00  0.00000000000E+00 -0.11280035879E+04  0.11280035880E+04  0.50400001928E-02 0. -1.
    10030    2    1    2    0    0  0.00000000000E+00  0.00000000000E+00 -0.73861146843E+03  0.15173957075E+04  0.13254972017E+04 0.  0.
        5    1    3    3  502    0 -0.80552386249E+00  0.59521088534E+03 -0.35673179720E+02  0.59629800658E+03  0.46999998093E+01 0.  1.
       -5    1    3    3    0  502  0.80552386249E+00 -0.59521088534E+03 -0.70293828871E+03  0.92109770092E+03  0.46999998093E+01 0. -1.
</event>
<event>
 5   0  0.2462055E-03  0.1414945E+04  0.7818609E-02  0.8943071E-01
        1   -1    0    0  501    0  0.00000000000E+00  0.00000000000E+00  0.18355775019E+04  0.18355775019E+04  0.50400001928E-02 0. -1.
       -1   -1    0    0    0  501  0.00000000000E+00  0.00000000000E+00 -0.27267553719E+03  0.27267553724E+03  0.50400001928E-02 0.  1.
    10030    2    1    2    0    0  0.00000000000E+00  0.00000000000E+00  0.15629019647E+04  0.21082530392E+04  0.14149446370E+04 0.  0.
        2    1    3    3  502    0  0.24440265876E+03 -0.40560645692E+03 -0.17053089820E+01  0.47355270625E+03  0.25500000920E-02 0.  1.
       -2    1    3    3    0  502 -0.24440265876E+03  0.40560645692E+03  0.15646072737E+04  0.16347003329E+04  0.25500000920E-02 0. -1.
</event>
<event>
 5   0  0.4453011E-03  0.1221596E+04  0.7818609E-02  0.9094161E-01
       -2   -1    0    0    0  501  0.00000000000E+00  0.00000000000E+00  0.34352031916E+03  0.34352031917E+03  0.25500000920E-02 0.  1.
        2   -1    0    0  501    0  0.00000000000E+00  0.00000000000E+00 -0.10860329717E+04  0.10860329717E+04  0.25500000920E-02 0. -1.
    10030    2    1    2    0    0  0.00000000000E+00  0.00000000000E+00 -0.74251265249E+03  0.14295532908E+04  0.12215963213E+04 0.  0.
        1    1    3    3  502    0  0.18201337129E+03  0.11115457380E+03 -0.10410454252E+04  0.10626663559E+04  0.50400001928E-02 0. -1.
       -1    1    3    3    0  502 -0.18201337129E+03 -0.11115457380E+03  0.29853277271E+03  0.36688693492E+03  0.50400001928E-02 0.  1.
</event>
<event>
 5   0  0.4306214E-03  0.1297035E+04  0.7818609E-02  0.9031920E-01
       -2   -1    0    0    0  501  0.00000000000E+00  0.00000000000E+00  0.15208835889E+04  0.15208835889E+04  0.25500000920E-02 0. -1.
        2   -1    0    0  501    0  0.00000000000E+00  0.00000000000E+00 -0.27653328423E+03  0.27653328424E+03  0.25500000920E-02 0.  1.
    10030    2    1    2    0    0  0.00000000000E+00  0.00000000000E+00  0.12443503047E+04  0.17974168731E+04  0.12970349784E+04 0.  0.
        3    1    3    3  502    0 -0.38588642506E+03  0.34666729769E+03  0.11615451433E+04  0.12721138622E+04  0.10100000352E+00 0. -1.
       -3    1    3    3    0  502  0.38588642506E+03 -0.34666729769E+03  0.82805161384E+02  0.52530301092E+03  0.10100000352E+00 0.  1.
</event>
<event>
 5   0  0.2356769E-03  0.1323695E+04  0.7818609E-02  0.9010983E-01
        1   -1    0    0  501    0  0.00000000000E+00  0.00000000000E+00  0.11704804434E+04  0.11704804434E+04  0.50400001928E-02 0.  1.
       -1   -1    0    0    0  501  0.00000000000E+00  0.00000000000E+00 -0.37424110036E+03  0.37424110040E+03  0.50400001928E-02 0. -1.
    10030    2    1    2    0    0  0.00000000000E+00  0.00000000000E+00  0.79623934306E+03  0.15447215438E+04  0.13236946614E+04 0.  0.
        1    1    3    3  502    0  0.25983330178E+03 -0.57849134823E+03  0.17708203077E+03  0.65842511369E+03  0.50400001928E-02 0. -1.
       -1    1    3    3    0  502 -0.25983330178E+03  0.57849134823E+03  0.61915731229E+03  0.88629643014E+03  0.50400001928E-02 0.  1.
</event>
<event>
 5   0  0.2462055E-03  0.1279683E+04  0.7818609E-02  0.9045833E-01
       -1   -1    0    0    0  501  0.00000000000E+00  0.00000000000E+00  0.51434759644E+03  0.51434759646E+03  0.50400001928E-02 0. -1.
        1   -1    0    0  501    0  0.00000000000E+00  0.00000000000E+00 -0.79595460017E+03  0.79595460019E+03  0.50400001928E-02 0.  1.
    10030    2    1    2    0    0  0.00000000000E+00  0.00000000000E+00 -0.28160700374E+03  0.13103021967E+04  0.12796832975E+04 0.  0.
        2    1    3    3  502    0  0.99498309947E+02 -0.11585744078E+03  0.49541238912E+03  0.51841710578E+03  0.25500000920E-02 0. -1.
       -2    1    3    3    0  502 -0.99498309947E+02  0.11585744078E+03 -0.77701939286E+03  0.79188509087E+03  0.25500000920E-02 0.  1.
</event>
<event>
 5   0  0.1661750E-03  0.1278694E+04  0.7818609E-02  0.9046633E-01
        3   -1    0    0  501    0  0.00000000000E+00  0.00000000000E+00  0.55393061451E+03  0.55393062372E+03  0.10100000352E+00 0. -1.
       -3   -1    0    0    0  501  0.00000000000E+00  0.00000000000E+00 -0.73793501457E+03  0.73793502148E+03  0.10100000352E+00 0.  1.
    10030    2    1    2    0    0  0.00000000000E+00  0.00000000000E+00 -0.18400440005E+03  0.12918656452E+04  0.12786943442E+04 0.  0.
        1    1    3    3  502    0 -0.62168592756E+03 -0.34493114934E+01 -0.24273524251E+03  0.66740219378E+03  0.50400001928E-02 0.  1.
       -1    1    3    3    0  502  0.62168592756E+03  0.34493114934E+01  0.58730842459E+02  0.62446345142E+03  0.50400001928E-02 0. -1.
</event>
<event>
 5   0  0.2511542E-03  0.1446961E+04  0.7818609E-02  0.8920510E-01
        1   -1    0    0  501    0  0.00000000000E+00  0.00000000000E+00  0.16805859173E+04  0.16805859173E+04  0.50400001928E-02 0.  1.
       -1   -1    0    0    0  501  0.00000000000E+00  0.00000000000E+00 -0.31145351663E+03  0.31145351667E+03  0.50400001928E-02 0. -1.
    10030    2    1    2    0    0  0.00000000000E+00  0.00000000000E+00  0.13691324007E+04  0.19920394340E+04  0.14469614978E+04 0.  0.
        4    1    3    3  502    0 -0.56278318392E+03  0.41297094918E+03  0.42280075838E+03  0.81610784284E+03  0.12699999809E+01 0. -1.
       -4    1    3    3    0  502  0.56278318392E+03 -0.41297094918E+03  0.94633164231E+03  0.11759315912E+04  0.12699999809E+01 0.  1.
</event>
<event>
 5   0  0.2462055E-03  0.1286141E+04  0.7818609E-02  0.9040628E-01
       -1   -1    0    0    0  501  0.00000000000E+00  0.00000000000E+00  0.33902070558E+03  0.33902070561E+03  0.50400001928E-02 0.  1.
        1   -1    0    0  501    0  0.00000000000E+00  0.00000000000E+00 -0.12198066536E+04  0.12198066536E+04  0.50400001928E-02 0. -1.
    10030    2    1    2    0    0  0.00000000000E+00  0.00000000000E+00 -0.88078594805E+03  0.15588273593E+04  0.12861410691E+04 0.  0.
        2    1    3    3  502    0  0.82466377181E+02  0.63649737671E+03 -0.48902648617E+03  0.80689312682E+03  0.25500000920E-02 0. -1.
       -2    1    3    3    0  502 -0.82466377181E+02 -0.63649737671E+03 -0.39175946188E+03  0.75193423243E+03  0.25500000920E-02 0.  1.
</event>
<event>
 5   0  0.2370801E-03  0.1295913E+04  0.7818609E-02  0.9032813E-01
       -1   -1    0    0    0  501  0.00000000000E+00  0.00000000000E+00  0.17652006622E+03  0.17652006629E+03  0.50400001928E-02 0.  1.
        1   -1    0    0  501    0  0.00000000000E+00  0.00000000000E+00 -0.23784694450E+04  0.23784694450E+04  0.50400001928E-02 0. -1.
    10030    2    1    2    0    0  0.00000000000E+00  0.00000000000E+00 -0.22019493788E+04  0.25549895113E+04  0.12959129354E+04 0.  0.
        3    1    3    3  502    0  0.62512642469E+03  0.21151975675E+02 -0.14344980560E+04  0.15649329493E+04  0.10100000352E+00 0. -1.
       -3    1    3    3    0  502 -0.62512642469E+03 -0.21151975675E+02 -0.76745132275E+03  0.99005656198E+03  0.10100000352E+00 0.  1.
</event>
<event>
 5   0  0.4453011E-03  0.1264161E+04  0.7818609E-02  0.9058479E-01
       -2   -1    0    0    0  501  0.00000000000E+00  0.00000000000E+00  0.43423690185E+03  0.43423690185E+03  0.25500000920E-02 0.  1.
        2   -1    0    0  501    0  0.00000000000E+00  0.00000000000E+00 -0.92006331550E+03  0.92006331551E+03  0.25500000920E-02 0. -1.
    10030    2    1    2    0    0  0.00000000000E+00  0.00000000000E+00 -0.48582641366E+03  0.13543002174E+04  0.12641605019E+04 0.  0.
        1    1    3    3  502    0 -0.35231063543E+03 -0.10341026701E+03  0.30827138139E+03  0.47942435458E+03  0.50400001928E-02 0.  1.
       -1    1    3    3    0  502  0.35231063543E+03  0.10341026701E+03 -0.79409779504E+03  0.87487586278E+03  0.50400001928E-02 0. -1.
</event>
<event>
 5   0  0.2458456E-03  0.9665991E+03  0.7818609E-02  0.9345956E-01
       -1   -1    0    0    0  501  0.00000000000E+00  0.00000000000E+00  0.20214739625E+03  0.20214739632E+03  0.50400001928E-02 0. -1.
        1   -1    0    0  501    0  0.00000000000E+00  0.00000000000E+00 -0.11554858618E+04  0.11554858618E+04  0.50400001928E-02 0.  1.
    10030    2    1    2    0    0  0.00000000000E+00  0.00000000000E+00 -0.95333846557E+03  0.13576332581E+04  0.96659910702E+03 0.  0.
        5    1    3    3  502    0 -0.10417064794E+03  0.66127982688E+02 -0.11329576057E+04  0.11396663811E+04  0.46999998093E+01 0.  1.
       -5    1    3    3    0  502  0.10417064794E+03 -0.66127982688E+02  0.17961914012E+03  0.21796687703E+03  0.46999998093E+01 0. -1.
</event>
<event>
 5   0  0.4263540E-03  0.1388981E+04  0.7818609E-02  0.8961834E-01
        2   -1    0    0  501    0  0.00000000000E+00  0.00000000000E+00  0.48874019544E+03  0.48874019545E+03  0.25500000920E-02 0. -1.
       -2   -1    0    0    0  501  0.00000000000E+00  0.00000000000E+00 -0.98685736465E+03  0.98685736465E+03  0.25500000920E-02 0.  1.
    10030    2    1    2    0    0  0.00000000000E+00  0.00000000000E+00 -0.49811716920E+03  0.14755975601E+04  0.13889807217E+04 0.  0.
        2    1    3    3  502    0  0.61342190070E+03 -0.23461714867E+03 -0.48893850014E+03  0.81877499450E+03  0.25500000920E-02 0.  1.
       -2    1    3    3    0  502 -0.61342190070E+03  0.23461714867E+03 -0.91786690665E+01  0.65682256560E+03  0.25500000920E-02 0. -1.
</event>
<event>
 5   0  0.2462055E-03  0.1308924E+04  0.7818609E-02  0.9022518E-01
       -1   -1    0    0    0  501  0.00000000000E+00  0.00000000000E+00  0.47743611540E+03  0.47743611543E+03  0.50400001928E-02 0.  1.
        1   -1    0    0  501    0  0.00000000000E+00  0.00000000000E+00 -0.89712598224E+03  0.89712598226E+03  0.50400001928E-02 0. -1.
    10030    2    1    2    0    0  0.00000000000E+00  0.00000000000E+00 -0.41968986684E+03  0.13745620977E+04  0.13089237472E+04 0.  0.
        2    1    3    3  502    0  0.45648976194E+03  0.46777467979E+03 -0.17463305198E+03  0.67652993774E+03  0.25500000920E-02 0. -1.
       -2    1    3    3    0  502 -0.45648976194E+03 -0.46777467979E+03 -0.24505681486E+03  0.69803215994E+03  0.25500000920E-02 0.  1.
</event>
<event>
 5   0  0.4306214E-03  0.1314635E+04  0.7818609E-02  0.9018039E-01
        2   -1    0    0  501    0  0.00000000000E+00  0.00000000000E+00  0.15118737767E+04  0.15118737767E+04  0.25500000920E-02 0. -1.
       -2   -1    0    0    0  501  0.00000000000E+00  0.00000000000E+00 -0.28578191106E+03  0.28578191107E+03  0.25500000920E-02 0.  1.
    10030    2    1    2    0    0  0.00000000000E+00  0.00000000000E+00  0.12260918657E+04  0.17976556878E+04  0.13146348196E+04 0.  0.
        3    1    3    3  502    0  0.23006856575E+03 -0.26740572645E+03  0.13714748402E+04  0.14161146193E+04  0.10100000352E+00 0. -1.
       -3    1    3    3    0  502 -0.23006856575E+03  0.26740572645E+03 -0.14538297451E+03  0.38154106852E+03  0.10100000352E+00 0.  1.
</event>
<event>
 5   0  0.2356769E-03  0.1307110E+04  0.7818609E-02  0.9023946E-01
        1   -1    0    0  501    0  0.00000000000E+00  0.00000000000E+00  0.50622034945E+03  0.50622034948E+03  0.50400001928E-02 0. -1.
       -1   -1    0    0    0  501  0.00000000000E+00  0.00000000000E+00 -0.84377082822E+03  0.84377082824E+03  0.50400001928E-02 0.  1.
    10030    2    1    2    0    0  0.00000000000E+00  0.00000000000E+00 -0.33755047877E+03  0.13499911777E+04  0.13071097330E+04 0.  0.
        1    1    3    3  502    0  0.51382836739E+02 -0.15546693375E+03 -0.82224363345E+03  0.83838818943E+03  0.50400001928E-02 0.  1.
       -1    1    3    3    0  502 -0.51382836739E+02  0.15546693375E+03  0.48469315468E+03  0.51160298828E+03  0.50400001928E-02 0. -1.
</event>
<event>
 5   0  0.4306214E-03  0.1331161E+04  0.7818609E-02  0.9005213E-01
        2   -1    0    0  501    0  0.00000000000E+00  0.00000000000E+00  0.39183354959E+03  0.39183354960E+03  0.25500000920E-02 0.  1.
       -2   -1    0    0    0  501  0.00000000000E+00  0.00000000000E+00 -0.11305755261E+04  0.11305755261E+04  0.25500000920E-02 0. -1.
    10030    2    1    2    0    0  0.00000000000E+00  0.00000000000E+00 -0.73874197654E+03  0.15224090757E+04  0.13311610293E+04 0.  0.
        3    1    3    3  502    0  0.21860585398E+03  0.33993200342E+03 -0.97417151504E+03  0.10546812017E+04  0.10100000352E+00 0. -1.
       -3    1    3    3    0  502 -0.21860585398E+03 -0.33993200342E+03  0.23542953850E+03  0.46772787403E+03  0.10100000352E+00 0.  1.
</event>
<event>
 5   0  0.2370801E-03  0.1088742E+04  0.7818609E-02  0.9216235E-01
        1   -1    0    0  501    0  0.00000000000E+00  0.00000000000E+00  0.85796712011E+03  0.85796712013E+03  0.50400001928E-02 0. -1.
       -1   -1    0    0    0  501  0.00000000000E+00  0.00000000000E+00 -0.34539762366E+03  0.34539762370E+03  0.50400001928E-02 0.  1.
    10030    2    1    2    0    0  0.00000000000E+00  0.00000000000E+00  0.51256949645E+03  0.12033647438E+04  0.10887420346E+04 0.  0.
        3    1    3    3  502    0  0.25371514121E+03 -0.39242008039E+02 -0.27428242487E+03  0.37568892301E+03  0.10100000352E+00 0.  1.
       -3    1    3    3    0  502 -0.25371514121E+03  0.39242008039E+02  0.78685192132E+03  0.82767582082E+03  0.10100000352E+00 0. -1.
</event>
<event>
 5   0  0.2458456E-03  0.1291939E+04  0.7818609E-02  0.9035982E-01
        1   -1    0    0  501    0  0.00000000000E+00  0.00000000000E+00  0.11964834749E+04  0.11964834749E+04  0.50400001928E-02 0.  1.
       -1   -1    0    0    0  501  0.00000000000E+00  0.00000000000E+00 -0.34875273021E+03  0.34875273024E+03  0.50400001928E-02 0. -1.
    10030    2    1    2    0    0  0.00000000000E+00  0.00000000000E+00  0.84773074466E+03  0.15452362051E+04  0.12919394390E+04 0.  0.
        5    1    3    3  502    0 -0.25647554331E+02  0.10140428881E+03  0.11862667963E+04  0.11908785114E+04  0.46999998093E+01 0.  1.
       -5    1    3    3    0  502  0.25647554331E+02 -0.10140428881E+03 -0.33853605166E+03  0.35435769373E+03  0.46999998093E+01 0. -1.
</event>
<event>
 5   0  0.2370801E-03  0.1228610E+04  0.7818609E-02  0.9088177E-01
       -1   -1    0    0    0  501  0.00000000000E+00  0.00000000000E+00  0.86651615088E+03  0.86651615089E+03  0.50400001928E-02 0. -1.
        1   -1    0    0  501    0  0.00000000000E+00  0.00000000000E+00 -0.43550299486E+03  0.43550299489E+03  0.50400001928E-02 0.  1.
    10030    2    1    2    0    0  0.00000000000E+00  0.00000000000E+00  0.43101315601E+03  0.13020191458E+04  0.12286095862E+04 0.  0.
        3    1    3    3  502    0  0.42294212515E+03 -0.33683010000E+03  0.52453925233E+03  0.75331002577E+03  0.10100000352E+00 0. -1.
       -3    1    3    3    0  502 -0.42294212515E+03  0.33683010000E+03 -0.93526096315E+02  0.54870912001E+03  0.10100000352E+00 0.  1.
</event>
<event>
 5   0  0.4388937E-03  0.1314965E+04  0.7818609E-02  0.9017781E-01
       -2   -1    0    0    0  501  0.00000000000E+00  0.00000000000E+00  0.27612683110E+03  0.27612683111E+03  0.25500000920E-02 0.  1.
        2   -1    0    0  501    0  0.00000000000E+00  0.00000000000E+00 -0.15655247697E+04  0.15655247697E+04  0.25500000920E-02 0. -1.
    10030    2    1    2    0    0  0.00000000000E+00  0.00000000000E+00 -0.12893979386E+04  0.18416516008E+04  0.13149652370E+04 0.  0.
        5    1    3    3  502    0  0.52742637456E+03 -0.38410198184E+03 -0.75803304105E+03  0.10001745320E+04  0.46999998093E+01 0. -1.
       -5    1    3    3    0  502 -0.52742637456E+03  0.38410198184E+03 -0.53136489751E+03  0.84147706881E+03  0.46999998093E+01 0.  1.
</event>
<event>
 5   0  0.4453011E-03  0.1290305E+04  0.7818609E-02  0.9037289E-01
       -2   -1    0    0    0  501  0.00000000000E+00  0.00000000000E+00  0.54465601480E+03  0.54465601481E+03  0.25500000920E-02 0. -1.
        2   -1    0    0  501    0  0.00000000000E+00  0.00000000000E+00 -0.76419176806E+03  0.76419176806E+03  0.25500000920E-02 0.  1.
    10030    2    1    2    0    0  0.00000000000E+00  0.00000000000E+00 -0.21953575325E+03  0.13088477829E+04  0.12903048368E+04 0.  0.
        1    1    3    3  502    0  0.52643748671E+03  0.11882020086E+03 -0.46835479805E+03  0.71457041950E+03  0.50400001928E-02 0.  1.
       -1    1    3    3    0  502 -0.52643748671E+03 -0.11882020086E+03  0.24881904479E+03  0.59427736337E+03  0.50400001928E-02 0. -1.
</event>
<event>
 5   0  0.4453011E-03  0.1309065E+04  0.7818609E-02  0.9022407E-01
        2   -1    0    0  501    0  0.00000000000E+00  0.00000000000E+00  0.18904488990E+04  0.18904488991E+04  0.25500000920E-02 0.  1.
       -2   -1    0    0    0  501  0.00000000000E+00  0.00000000000E+00 -0.22661973626E+03  0.22661973627E+03  0.25500000920E-02 0. -1.
    10030    2    1    2    0    0  0.00000000000E+00  0.00000000000E+00  0.16638291628E+04  0.21170686353E+04  0.13090653627E+04 0.  0.
        1    1    3    3  502    0  0.16410051424E+03 -0.63353641162E+03  0.84930775637E+03  0.10722038186E+04  0.50400001928E-02 0. -1.
       -1    1    3    3    0  502 -0.16410051424E+03  0.63353641162E+03  0.81452140642E+03  0.10448648167E+04  0.50400001928E-02 0.  1.
</event>
<event>
 5   0  0.2462055E-03  0.1327884E+04  0.7818609E-02  0.9007741E-01
       -1   -1    0    0    0  501  0.00000000000E+00  0.00000000000E+00  0.84260114193E+03  0.84260114194E+03  0.50400001928E-02 0. -1.
        1   -1    0    0  501    0  0.00000000000E+00  0.00000000000E+00 -0.52316419543E+03  0.52316419546E+03  0.50400001928E-02 0.  1.
    10030    2    1    2    0    0  0.00000000000E+00  0.00000000000E+00  0.31943694649E+03  0.13657653374E+04  0.13278836523E+04 0.  0.
        2    1    3    3  502    0  0.63089594668E+02  0.13990475223E+03 -0.50467001534E+03  0.52748977340E+03  0.25500000920E-02 0.  1.
       -2    1    3    3    0  502 -0.63089594668E+02 -0.13990475223E+03  0.82410696183E+03  0.83827556400E+03  0.25500000920E-02 0. -1.
</event>
<event>
 5   0  0.1661750E-03  0.1288231E+04  0.7818609E-02  0.9038951E-01
        4   -1    0    0  501    0  0.00000000000E+00  0.00000000000E+00  0.72747634503E+03  0.72747745359E+03  0.12699999809E+01 0.  1.
       -4   -1    0    0    0  501  0.00000000000E+00  0.00000000000E+00 -0.57030437635E+03  0.57030579042E+03  0.12699999809E+01 0. -1.
    10030    2    1    2    0    0  0.00000000000E+00  0.00000000000E+00  0.15717196868E+03  0.12977832440E+04  0.12882306939E+04 0.  0.
        2    1    3    3  502    0  0.79641901740E+02 -0.52190691518E+03  0.45031391057E+03  0.69391085788E+03  0.25500000920E-02 0.  1.
       -2    1    3    3    0  502 -0.79641901740E+02  0.52190691518E+03 -0.29314194189E+03  0.60387238613E+03  0.25500000920E-02 0. -1.
</event>
<event>
 5   0  0.4263540E-03  0.1190061E+04  0.7818609E-02  0.9121601E-01
       -2   -1    0    0    0  501  0.00000000000E+00  0.00000000000E+00  0.13255182885E+04  0.13255182885E+04  0.25500000920E-02 0.  1.
        2   -1    0    0  501    0  0.00000000000E+00  0.00000000000E+00 -0.26711162594E+03  0.26711162595E+03  0.25500000920E-02 0. -1.
    10030    2    1    2    0    0  0.00000000000E+00  0.00000000000E+00  0.10584066626E+04  0.15926299145E+04  0.11900610829E+04 0.  0.
        2    1    3    3  502    0  0.57163637904E+03 -0.57327303146E+02  0.73655738658E+03  0.93411527835E+03  0.25500000920E-02 0.  1.
       -2    1    3    3    0  502 -0.57163637904E+03  0.57327303146E+02  0.32184927603E+03  0.65851463614E+03  0.25500000920E-02 0. -1.
</event>
<event>
 5   0  0.2458456E-03  0.1308260E+04  0.7818609E-02  0.9023040E-01
        1   -1    0    0  501    0  0.00000000000E+00  0.00000000000E+00  0.67437846200E+03  0.67437846201E+03  0.50400001928E-02 0. -1.
       -1   -1    0    0    0  501  0.00000000000E+00  0.00000000000E+00 -0.63448958347E+03  0.63448958349E+03  0.50400001928E-02 0.  1.
    10030    2    1    2    0    0  0.00000000000E+00  0.00000000000E+00  0.39888878521E+02  0.13088680455E+04  0.13082600804E+04 0.  0.
        5    1    3    3  502    0  0.21450002201E+03 -0.28335581947E+03 -0.52945849602E+03  0.63769049615E+03  0.46999998093E+01 0.  1.
       -5    1    3    3    0  502 -0.21450002201E+03  0.28335581947E+03  0.56934737454E+03  0.67117754936E+03  0.46999998093E+01 0. -1.
</event>
<event>
 5   0  0.2511542E-03  0.1292163E+04  0.7818609E-02  0.9035803E-01
        1   -1    0    0  501    0  0.00000000000E+00  0.00000000000E+00  0.81229371162E+03  0.81229371164E+03  0.50400001928E-02 0. -1.
       -1   -1    0    0    0  501  0.00000000000E+00  0.00000000000E+00 -0.51387988164E+03  0.51387988166E+03  0.50400001928E-02 0.  1.
    10030    2    1    2    0    0  0.00000000000E+00  0.00000000000E+00  0.29841382999E+03  0.13261735933E+04  0.12921631420E+04 0.  0.
        4    1    3    3  502    0 -0.34255386913E+03  0.60553411280E+02 -0.40955833628E+03  0.53735417798E+03  0.12699999809E+01 0.  1.
       -4    1    3    3    0  502  0.34255386913E+03 -0.60553411280E+02  0.70797216627E+03  0.78881941532E+03  0.12699999809E+01 0. -1.
</event>
<event>
 5   0  0.2370801E-03  0.1262234E+04  0.7818609E-02  0.9060062E-01
       -1   -1    0    0    0  501  0.00000000000E+00  0.00000000000E+00  0.46040288001E+03  0.46040288004E+03  0.50400001928E-02 0.  1.
        1   -1    0    0  501    0  0.00000000000E+00  0.00000000000E+00 -0.86513055672E+03  0.86513055674E+03  0.50400001928E-02 0. -1.
    10030    2    1    2    0    0  0.00000000000E+00  0.00000000000E+00 -0.40472767671E+03  0.13255334368E+04  0.12622338926E+04 0.  0.
        3    1    3    3  502    0 -0.37251354869E+03  0.48018750742E+03 -0.23646515454E+02  0.60819861405E+03  0.10100000352E+00 0.  1.
       -3    1    3    3    0  502  0.37251354869E+03 -0.48018750742E+03 -0.38108116125E+03  0.71733482273E+03  0.10100000352E+00 0. -1.
</event>
<event>
 5   0  0.2370801E-03  0.1304488E+04  0.7818609E-02  0.9026014E-01
       -1   -1    0    0    0  501  0.00000000000E+00  0.00000000000E+00  0.37723563641E+03  0.37723563645E+03  0.50400001928E-02 0. -1.
        1   -1    0    0  501    0  0.00000000000E+00  0.00000000000E+00 -0.11277355228E+04  0.11277355228E+04  0.50400001928E-02 0.  1.
    10030    2    1    2    0    0  0.00000000000E+00  0.00000000000E+00 -0.75049988642E+03  0.15049711593E+04  0.13044876813E+04 0.  0.
        3    1    3    3  502    0  0.25778704951E+03 -0.11701557091E+03 -0.10531581548E+04  0.10905452379E+04  0.10100000352E+00 0.  1.
       -3    1    3    3    0  502 -0.25778704951E+03  0.11701557091E+03  0.30265826835E+03  0.41442592140E+03  0.10100000352E+00 0. -1.
</event>
<event>
 5   0  0.4263540E-03  0.1293496E+04  0.7818609E-02  0.9034739E-01
       -2   -1    0    0    0  501  0.00000000000E+00  0.00000000000E+00  0.21816165708E+03  0.21816165710E+03  0.25500000920E-02 0.  1.
        2   -1    0    0  501    0  0.00000000000E+00  0.00000000000E+00 -0.19173083780E+04  0.19173083780E+04  0.25500000920E-02 0. -1.
    10030    2    1    2    0    0  0.00000000000E+00  0.00000000000E+00 -0.16991467209E+04  0.21354700351E+04  0.12934963052E+04 0.  0.
        2    1    3    3  502    0  0.48672550436E+03  0.61936295975E+02 -0.15452107911E+04  0.16212384804E+04  0.25500000920E-02 0. -1.
       -2    1    3    3    0  502 -0.48672550436E+03 -0.61936295975E+02 -0.15393592981E+03  0.51423155470E+03  0.25500000920E-02 0.  1.
</event>
<event>
 5   0  0.4263540E-03  0.1303791E+04  0.7818609E-02  0.9026564E-01
       -2   -1    0    0    0  501  0.00000000000E+00  0.00000000000E+00  0.35484585823E+03  0.35484585824E+03  0.25500000920E-02 0. -1.
        2   -1    0    0  501    0  0.00000000000E+00  0.00000000000E+00 -0.11976126275E+04  0.11976126275E+04  0.25500000920E-02 0.  1.
    10030    2    1    2    0    0  0.00000000000E+00  0.00000000000E+00 -0.84276676929E+03  0.15524584858E+04  0.13037912113E+04 0.  0.
        2    1    3    3  502    0  0.29245222129E+03  0.10018849908E+03 -0.11047833605E+04  0.11472193821E+04  0.25500000920E-02 0.  1.
       -2    1    3    3    0  502 -0.29245222129E+03 -0.10018849908E+03  0.26201659117E+03  0.40523910367E+03  0.25500000920E-02 0. -1.
</event>
<event>
 5   0  0.2511542E-03  0.1273277E+04  0.7818609E-02  0.9051029E-01
       -1   -1    0    0    0  501  0.00000000000E+00  0.00000000000E+00  0.62257270541E+03  0.62257270543E+03  0.50400001928E-02 0.  1.
        1   -1    0    0  501    0  0.00000000000E+00  0.00000000000E+00 -0.65102229980E+03  0.65102229982E+03  0.50400001928E-02 0. -1.
    10030    2    1    2    0    0  0.00000000000E+00  0.00000000000E+00 -0.28449594394E+02  0.12735950053E+04  0.12732772118E+04 0.  0.
        4    1    3    3  502    0 -0.21343466638E+03  0.35417716788E+03  0.46995311974E+03  0.62598192523E+03  0.12699999809E+01 0.  1.
       -4    1    3    3    0  502  0.21343466638E+03 -0.35417716788E+03 -0.49840271413E+03  0.64761308002E+03  0.12699999809E+01 0. -1.
</event>
<event>
 5   0  0.2356769E-03  0.1293054E+04  0.7818609E-02  0.9035091E-01
        1   -1    0    0  501    0  0.00000000000E+00  0.00000000000E+00  0.11327477612E+04  0.11327477612E+04  0.50400001928E-02 0.  1.
       -1   -1    0    0    0  501  0.00000000000E+00  0.00000000000E+00 -0.36901177822E+03  0.36901177826E+03  0.50400001928E-02 0. -1.
    10030    2    1    2    0    0  0.00000000000E+00  0.00000000000E+00  0.76373598295E+03  0.15017595394E+04  0.12930541608E+04 0.  0.
        1    1    3    3  502    0  0.30773220684E+03  0.53172801145E+03  0.14795665675E+03  0.63192164197E+03  0.50400001928E-02 0. -1.
       -1    1    3    3    0  502 -0.30773220684E+03 -0.53172801145E+03  0.61577932621E+03  0.86983789748E+03  0.50400001928E-02 0.  1.
</event>
<event>
 5   0  0.2356769E-03  0.1298181E+04  0.7818609E-02  0.9031009E-01
        1   -1    0    0  501    0  0.00000000000E+00  0.00000000000E+00  0.72739108167E+03  0.72739108169E+03  0.50400001928E-02 0.  1.
       -1   -1    0    0    0  501  0.00000000000E+00  0.00000000000E+00 -0.57921840952E+03  0.57921840954E+03  0.50400001928E-02 0. -1.
    10030    2    1    2    0    0  0.00000000000E+00  0.00000000000E+00  0.14817267215E+03  0.13066094912E+04  0.12981807354E+04 0.  0.
        1    1    3    3  502    0  0.21924132235E+03  0.12021024843E+02  0.68887715331E+03  0.72302350919E+03  0.50400001928E-02 0.  1.
       -1    1    3    3    0  502 -0.21924132235E+03 -0.12021024843E+02 -0.54070448115E+03  0.58358598204E+03  0.50400001928E-02 0. -1.
</event>
<event>
 5   0  0.1661750E-03  0.1254269E+04  0.7818609E-02  0.9066638E-01
       -3   -1    0    0    0  501  0.00000000000E+00  0.00000000000E+00  0.69792449600E+03  0.69792450331E+03  0.10100000352E+00 0.  1.
        3   -1    0    0  501    0  0.00000000000E+00  0.00000000000E+00 -0.56352476492E+03  0.56352477397E+03  0.10100000352E+00 0. -1.
    10030    2    1    2    0    0  0.00000000000E+00  0.00000000000E+00  0.13439973109E+03  0.12614492773E+04  0.12542691065E+04 0.  0.
        1    1    3    3  502    0 -0.46695278260E+03 -0.10646994160E+03 -0.33998447067E+03  0.58734162969E+03  0.50400001928E-02 0.  1.
       -1    1    3    3    0  502  0.46695278260E+03  0.10646994160E+03  0.47438420175E+03  0.67410764759E+03  0.50400001928E-02 0. -1.
</event>
<event>
 5   0  0.2458456E-03  0.1295431E+04  0.7818609E-02  0.9033196E-01
        1   -1    0    0  501    0  0.00000000000E+00  0.00000000000E+00  0.59151073089E+03  0.59151073091E+03  0.50400001928E-02 0.  1.
       -1   -1    0    0    0  501  0.00000000000E+00  0.00000000000E+00 -0.70926128241E+03  0.70926128243E+03  0.50400001928E-02 0. -1.
    10030    2    1    2    0    0  0.00000000000E+00  0.00000000000E+00 -0.11775055152E+03  0.13007720133E+04  0.12954314487E+04 0.  0.
        5    1    3    3  502    0  0.19940345612E+03 -0.44813017214E+03  0.36587117778E+03  0.61193643315E+03  0.46999998093E+01 0.  1.
       -5    1    3    3    0  502 -0.19940345612E+03  0.44813017214E+03 -0.48362172930E+03  0.68883558019E+03  0.46999998093E+01 0. -1.
</event>
<event>
 5   0  0.4310889E-03  0.1247229E+04  0.7818609E-02  0.9072493E-01
       -2   -1    0    0    0  501  0.00000000000E+00  0.00000000000E+00  0.97757791654E+03  0.97757791655E+03  0.25500000920E-02 0.  1.
        2   -1    0    0  501    0  0.00000000000E+00  0.00000000000E+00 -0.39781502607E+03  0.39781502608E+03  0.25500000920E-02 0. -1.
    10030    2    1    2    0    0  0.00000000000E+00  0.00000000000E+00  0.57976289047E+03  0.13753929426E+04  0.12472292241E+04 0.  0.
        4    1    3    3  502    0  0.53681090923E+03  0.31646556760E+03  0.31637437742E+03  0.69886391188E+03  0.12699999809E+01 0.  1.
       -4    1    3    3    0  502 -0.53681090923E+03 -0.31646556760E+03  0.26338851305E+03  0.67652903075E+03  0.12699999809E+01 0. -1.
</event>
<event>
 5   0  0.4306214E-03  0.1293940E+04  0.7818609E-02  0.9034385E-01
        2   -1    0    0  501    0  0.00000000000E+00  0.00000000000E+00  0.16060681206E+04  0.16060681206E+04  0.25500000920E-02 0.  1.
       -2   -1    0    0    0  501  0.00000000000E+00  0.00000000000E+00 -0.26061779180E+03  0.26061779181E+03  0.25500000920E-02 0. -1.
    10030    2    1    2    0    0  0.00000000000E+00  0.00000000000E+00  0.13454503288E+04  0.18666859124E+04  0.12939396077E+04 0.  0.
        3    1    3    3  502    0 -0.18660207017E+03  0.61659646043E+03  0.75878172225E+03  0.99536990100E+03  0.10100000352E+00 0.  1.
       -3    1    3    3    0  502  0.18660207017E+03 -0.61659646043E+03  0.58666860654E+03  0.87131601139E+03  0.10100000352E+00 0. -1.
</event>
<event>
 5   0  0.4453011E-03  0.1365888E+04  0.7818609E-02  0.8978888E-01
        2   -1    0    0  501    0  0.00000000000E+00  0.00000000000E+00  0.65235819905E+03  0.65235819905E+03  0.25500000920E-02 0.  1.
       -2   -1    0    0    0  501  0.00000000000E+00  0.00000000000E+00 -0.71496367793E+03  0.71496367793E+03  0.25500000920E-02 0. -1.
    10030    2    1    2    0    0  0.00000000000E+00  0.00000000000E+00 -0.62605478882E+02  0.13673218770E+04  0.13658878685E+04 0.  0.
        1    1    3    3  502    0  0.10220718167E+03  0.38438028953E+03 -0.58705935994E+03  0.70910733115E+03  0.50400001928E-02 0. -1.
       -1    1    3    3    0  502 -0.10220718167E+03 -0.38438028953E+03  0.52445388106E+03  0.65821454584E+03  0.50400001928E-02 0.  1.
</event>
<event>
 5   0  0.4306214E-03  0.1288216E+04  0.7818609E-02  0.9038962E-01
        2   -1    0    0  501    0  0.00000000000E+00  0.00000000000E+00  0.18075144274E+04  0.18075144274E+04  0.25500000920E-02 0. -1.
       -2   -1    0    0    0  501  0.00000000000E+00  0.00000000000E+00 -0.22952810006E+03  0.22952810007E+03  0.25500000920E-02 0.  1.
    10030    2    1    2    0    0  0.00000000000E+00  0.00000000000E+00  0.15779863274E+04  0.20370425275E+04  0.12882163675E+04 0.  0.
        3    1    3    3  502    0 -0.14270302276E+03 -0.90849258142E+02 -0.19377211176E+03  0.25722632428E+03  0.10100000352E+00 0.  1.
       -3    1    3    3    0  502  0.14270302276E+03  0.90849258142E+02  0.17717584391E+04  0.17798162032E+04  0.10100000352E+00 0. -1.
</event>
<event>
 5   0  0.4388937E-03  0.1302721E+04  0.7818609E-02  0.9027410E-01
        2   -1    0    0  501    0  0.00000000000E+00  0.00000000000E+00  0.94486971742E+03  0.94486971743E+03  0.25500000920E-02 0. -1.
       -2   -1    0    0    0  501  0.00000000000E+00  0.00000000000E+00 -0.44902535218E+03  0.44902535219E+03  0.25500000920E-02 0.  1.
    10030    2    1    2    0    0  0.00000000000E+00  0.00000000000E+00  0.49584436524E+03  0.13938950696E+04  0.13027209335E+04 0.  0.
        5    1    3    3  502    0  0.46349678314E+03  0.43097762848E+03  0.83278321085E+02  0.63837947413E+03  0.46999998093E+01 0. -1.
       -5    1    3    3    0  502 -0.46349678314E+03 -0.43097762848E+03  0.41256604416E+03  0.75551559548E+03  0.46999998093E+01 0.  1.
</event>
<event>
 5   0  0.1661750E-03  0.1295709E+04  0.7818609E-02  0.9032975E-01
       -4   -1    0    0    0  501  0.00000000000E+00  0.00000000000E+00  0.11121409210E+04  0.11121416462E+04  0.12699999809E+01 0. -1.
        4   -1    0    0  501    0  0.00000000000E+00  0.00000000000E+00 -0.37739225309E+03  0.37739438999E+03  0.12699999809E+01 0.  1.
    10030    2    1    2    0    0  0.00000000000E+00  0.00000000000E+00  0.73474866793E+03  0.14895360361E+04  0.12957090715E+04 0.  0.
        2    1    3    3  502    0 -0.27669362352E+03 -0.29732605063E+03  0.94760873485E+03  0.10309822773E+04  0.25500000920E-02 0. -1.
       -2    1    3    3    0  502  0.27669362352E+03  0.29732605063E+03 -0.21286006692E+03  0.45855375887E+03  0.25500000920E-02 0.  1.
</event>
<event>
 5   0  0.2356769E-03  0.1310902E+04  0.7818609E-02  0.9020964E-01
       -1   -1    0    0    0  501  0.00000000000E+00  0.00000000000E+00  0.54477690007E+03  0.54477690009E+03  0.50400001928E-02 0.  1.
        1   -1    0    0  501    0  0.00000000000E+00  0.00000000000E+00 -0.78860908171E+03  0.78860908173E+03  0.50400001928E-02 0. -1.
    10030    2    1    2    0    0  0.00000000000E+00  0.00000000000E+00 -0.24383218164E+03  0.13333859818E+04  0.13109019962E+04 0.  0.
        1    1    3    3  502    0 -0.45320358278E+03  0.45244469859E+03 -0.26401299138E+03  0.69267781282E+03  0.50400001928E-02 0. -1.
       -1    1    3    3    0  502  0.45320358278E+03 -0.45244469859E+03  0.20180809738E+02  0.64070816901E+03  0.50400001928E-02 0.  1.
</event>
<event>
 5   0  0.4453011E-03  0.1300624E+04  0.7818609E-02  0.9029071E-01
        2   -1    0    0  501    0  0.00000000000E+00  0.00000000000E+00  0.99038029780E+03  0.99038029781E+03  0.25500000920E-02 0.  1.
       -2   -1    0    0    0  501  0.00000000000E+00  0.00000000000E+00 -0.42701332990E+03  0.42701332991E+03  0.25500000920E-02 0. -1.
    10030    2    1    2    0    0  0.00000000000E+00  0.00000000000E+00  0.56336696790E+03  0.14173936277E+04  0.13006238332E+04 0.  0.
        1    1    3    3  502    0  0.33516035961E+03  0.53417573406E+03  0.10858538751E+03  0.63989606025E+03  0.50400001928E-02 0. -1.
       -1    1    3    3    0  502 -0.33516035961E+03 -0.53417573406E+03  0.45478158039E+03  0.77749756746E+03  0.50400001928E-02 0.  1.
</event>
<event>
 5   0  0.2370801E-03  0.1417018E+04  0.7818609E-02  0.8941591E-01
        1   -1    0    0  501    0  0.00000000000E+00  0.00000000000E+00  0.32885075567E+03  0.32885075571E+03  0.50400001928E-02 0.  1.
       -1   -1    0    0    0  501  0.00000000000E+00  0.00000000000E+00 -0.15264834785E+04  0.15264834785E+04  0.50400001928E-02 0. -1.
    10030    2    1    2    0    0  0.00000000000E+00  0.00000000000E+00 -0.11976327229E+04  0.18553342342E+04  0.14170183421E+04 0.  0.
        3    1    3    3  502    0 -0.42839965066E+01  0.70440230233E+03 -0.49923654827E+03  0.86338757084E+03  0.10100000352E+00 0.  1.
       -3    1    3    3    0  502  0.42839965066E+01 -0.70440230233E+03 -0.69839617460E+03  0.99194666341E+03  0.10100000352E+00 0. -1.
</event>
<event>
 5   0  0.2462055E-03  0.1336312E+04  0.7818609E-02  0.9001255E-01
        1   -1    0    0  501    0  0.00000000000E+00  0.00000000000E+00  0.11727377310E+04  0.11727377310E+04  0.50400001928E-02 0. -1.
       -1   -1    0    0    0  501  0.00000000000E+00  0.00000000000E+00 -0.38067529895E+03  0.38067529898E+03  0.50400001928E-02 0.  1.
    10030    2    1    2    0    0  0.00000000000E+00  0.00000000000E+00  0.79206243203E+03  0.15534130300E+04  0.13363117696E+04 0.  0.
        2    1    3    3  502    0 -0.19642792326E+03 -0.26361340575E+03 -0.28015498343E+03  0.43192912784E+03  0.25500000920E-02 0.  1.
       -2    1    3    3    0  502  0.19642792326E+03  0.26361340575E+03  0.10722174155E+04  0.11214839021E+04  0.25500000920E-02 0. -1.
</event>
<event>
 5   0  0.2511542E-03  0.1288344E+04  0.7818609E-02  0.9038860E-01
       -1   -1    0    0    0  501  0.00000000000E+00  0.00000000000E+00  0.80740120430E+03  0.80740120432E+03  0.50400001928E-02 0. -1.
        1   -1    0    0  501    0  0.00000000000E+00  0.00000000000E+00 -0.51394229974E+03  0.51394229976E+03  0.50400001928E-02 0.  1.
    10030    2    1    2    0    0  0.00000000000E+00  0.00000000000E+00  0.29345890457E+03  0.13213435041E+04  0.12883441028E+04 0.  0.
        4    1    3    3  502    0 -0.37372933678E+03 -0.43724198127E+03 -0.15070182670E+03  0.59461485083E+03  0.12699999809E+01 0.  1.
       -4    1    3    3    0  502  0.37372933678E+03  0.43724198127E+03  0.44416073126E+03  0.72672865325E+03  0.12699999809E+01 0. -1.
</event>
<event>
 5   0  0.4310889E-03  0.1271041E+04  0.7818609E-02  0.9052850E-01
       -2   -1    0    0    0  501  0.00000000000E+00  0.00000000000E+00  0.19417067336E+03  0.19417067338E+03  0.25500000920E-02 0. -1.
        2   -1    0    0  501    0  0.00000000000E+00  0.00000000000E+00 -0.20800592780E+04  0.20800592780E+04  0.25500000920E-02 0.  1.
    10030    2    1    2    0    0  0.00000000000E+00  0.00000000000E+00 -0.18858886046E+04  0.22742299514E+04  0.12710413222E+04 0.  0.
        4    1    3    3  502    0 -0.97084902620E+02 -0.42464918144E+03 -0.17709169513E+04  0.18237052577E+04  0.12699999809E+01 0.  1.
       -4    1    3    3    0  502  0.97084902620E+02  0.42464918144E+03 -0.11497165328E+03  0.45052469363E+03  0.12699999809E+01 0. -1.
</event>
<event>
 5   0  0.2458456E-03  0.1299511E+04  0.7818609E-02  0.9029953E-01
        1   -1    0    0  501    0  0.00000000000E+00  0.00000000000E+00  0.11871361704E+04  0.11871361704E+04  0.50400001928E-02 0.  1.
       -1   -1    0    0    0  501  0.00000000000E+00  0.00000000000E+00 -0.35563056874E+03  0.35563056878E+03  0.50400001928E-02 0. -1.
    10030    2    1    2    0    0  0.00000000000E+00  0.00000000000E+00  0.83150560166E+03  0.15427667392E+04  0.12995105409E+04 0.  0.
        5    1    3    3  502    0  0.68912285933E+02  0.44434793433E+03 -0.14104572029E+03  0.47128544970E+03  0.46999998093E+01 0. -1.
       -5    1    3    3    0  502 -0.68912285933E+02 -0.44434793433E+03  0.97255132194E+03  0.10714812895E+04  0.46999998093E+01 0.  1.
</event>
<event>
 5   0  0.2370801E-03  0.1295711E+04  0.7818609E-02  0.9032973E-01
       -1   -1    0    0    0  501  0.00000000000E+00  0.00000000000E+00  0.39732856543E+03  0.39732856546E+03  0.50400001928E-02 0. -1.
        1   -1    0    0  501    0  0.00000000000E+00  0.00000000000E+00 -0.10563470277E+04  0.10563470277E+04  0.50400001928E-02 0.  1.
    10030    2    1    2    0    0  0.00000000000E+00  0.00000000000E+00 -0.65901846231E+03  0.14536755932E+04  0.12957111548E+04 0.  0.
        3    1    3    3  502    0  0.43231341549E+03  0.20368515366E+02  0.21134965826E+03  0.48164141628E+03  0.10100000352E+00 0. -1.
       -3    1    3    3    0  502 -0.43231341549E+03 -0.20368515366E+02 -0.87036812056E+03  0.97203417693E+03  0.10100000352E+00 0.  1.
</event>
<event>
 5   0  0.2458456E-03  0.1275340E+04  0.7818609E-02  0.9049353E-01
        1   -1    0    0  501    0  0.00000000000E+00  0.00000000000E+00  0.88341391624E+03  0.88341391625E+03  0.50400001928E-02 0.  1.
       -1   -1    0    0    0  501  0.00000000000E+00  0.00000000000E+00 -0.46028590728E+03  0.46028590731E+03  0.50400001928E-02 0. -1.
    10030    2    1    2    0    0  0.00000000000E+00  0.00000000000E+00  0.42312800896E+03  0.13436998236E+04  0.12753399170E+04 0.  0.
        5    1    3    3  502    0  0.33389748092E+03 -0.50792190183E+03  0.41458043048E+03  0.73577932117E+03  0.46999998093E+01 0.  1.
       -5    1    3    3    0  502 -0.33389748092E+03  0.50792190183E+03  0.85475784748E+01  0.60792050239E+03  0.46999998093E+01 0. -1.
</event>
<event>
 5   0  0.4388937E-03  0.1318264E+04  0.7818609E-02  0.9015206E-01
       -2   -1    0    0    0  501  0.00000000000E+00  0.00000000000E+00  0.28019161760E+03  0.28019161761E+03  0.25500000920E-02 0.  1.
        2   -1    0    0  501    0  0.00000000000E+00  0.00000000000E+00 -0.15505640221E+04  0.15505640222E+04  0.25500000920E-02 0. -1.
    10030    2    1    2    0    0  0.00000000000E+00  0.00000000000E+00 -0.12703724045E+04  0.18307556398E+04  0.13182640730E+04 0.  0.
        5    1    3    3  502    0  0.57157747551E+03  0.12529008171E+03 -0.10564977657E+04  0.12077284604E+04  0.46999998093E+01 0. -1.
       -5    1    3    3    0  502 -0.57157747551E+03 -0.12529008171E+03 -0.21387463881E+03  0.62302717935E+03  0.46999998093E+01 0.  1.
</event>
<event>
 5   0  0.4453011E-03  0.6422338E+03  0.7818609E-02  0.9821462E-01
        2   -1    0    0  501    0  0.00000000000E+00  0.00000000000E+00  0.41199678605E+03  0.41199678606E+03  0.25500000920E-02 0.  1.
       -2   -1    0    0    0  501  0.00000000000E+00  0.00000000000E+00 -0.25028365116E+03  0.25028365117E+03  0.25500000920E-02 0. -1.
    10030    2    1    2    0    0  0.00000000000E+00  0.00000000000E+00  0.16171313490E+03  0.66228043723E+03  0.64223378885E+03 0.  0.
        1    1    3    3  502    0 -0.15590727528E+03  0.20267858004E+03  0.28116274089E+03  0.38005022324E+03  0.50400001928E-02 0.  1.
       -1    1    3    3    0  502  0.15590727528E+03 -0.20267858004E+03 -0.11944960600E+03  0.28223021399E+03  0.50400001928E-02 0. -1.
</event>
<event>
 5   0  0.2462055E-03  0.1341782E+04  0.7818609E-02  0.8997073E-01
       -1   -1    0    0    0  501  0.00000000000E+00  0.00000000000E+00  0.29353672934E+03  0.29353672939E+03  0.50400001928E-02 0.  1.
        1   -1    0    0  501    0  0.00000000000E+00  0.00000000000E+00 -0.15333500861E+04  0.15333500861E+04  0.50400001928E-02 0. -1.
    10030    2    1    2    0    0  0.00000000000E+00  0.00000000000E+00 -0.12398133568E+04  0.18268868155E+04  0.13417817546E+04 0.  0.
        2    1    3    3  502    0 -0.56246827082E+03 -0.11196905390E+03 -0.10938841254E+04  0.12351073251E+04  0.25500000920E-02 0. -1.
       -2    1    3    3    0  502  0.56246827082E+03  0.11196905390E+03 -0.14592923140E+03  0.59177949043E+03  0.25500000920E-02 0.  1.
</event>
<event>
 5   0  0.4388937E-03  0.1304633E+04  0.7818609E-02  0.9025899E-01
       -2   -1    0    0    0  501  0.00000000000E+00  0.00000000000E+00  0.37859775175E+03  0.37859775176E+03  0.25500000920E-02 0. -1.
        2   -1    0    0  501    0  0.00000000000E+00  0.00000000000E+00 -0.11239287955E+04  0.11239287955E+04  0.25500000920E-02 0.  1.
    10030    2    1    2    0    0  0.00000000000E+00  0.00000000000E+00 -0.74533104373E+03  0.15025265472E+04  0.13046331517E+04 0.  0.
        5    1    3    3  502    0  0.27207995993E+03 -0.29413421412E+03  0.22014739812E+03  0.45719733968E+03  0.46999998093E+01 0. -1.
       -5    1    3    3    0  502 -0.27207995993E+03  0.29413421412E+03 -0.96547844185E+03  0.10453292076E+04  0.46999998093E+01 0.  1.
</event>
<event>
 5   0  0.4453011E-03  0.1265147E+04  0.7818609E-02  0.9057669E-01
        2   -1    0    0  501    0  0.00000000000E+00  0.00000000000E+00  0.95194946088E+03  0.95194946088E+03  0.25500000920E-02 0.  1.
       -2   -1    0    0    0  501  0.00000000000E+00  0.00000000000E+00 -0.42034747072E+03  0.42034747072E+03  0.25500000920E-02 0. -1.
    10030    2    1    2    0    0  0.00000000000E+00  0.00000000000E+00  0.53160199016E+03  0.13722969316E+04  0.12651474983E+04 0.  0.
        1    1    3    3  502    0 -0.28828622728E+03 -0.55967611546E+03  0.19890746946E+03  0.66023517362E+03  0.50400001928E-02 0.  1.
       -1    1    3    3    0  502  0.28828622728E+03  0.55967611546E+03  0.33269452070E+03  0.71206175798E+03  0.50400001928E-02 0. -1.
</event>
<event>
 5   0  0.1661750E-03  0.1301234E+04  0.7818609E-02  0.9028587E-01
       -3   -1    0    0    0  501  0.00000000000E+00  0.00000000000E+00  0.50655911047E+03  0.50655912054E+03  0.10100000352E+00 0.  1.
        3   -1    0    0  501    0  0.00000000000E+00  0.00000000000E+00 -0.83564250542E+03  0.83564251152E+03  0.10100000352E+00 0. -1.
    10030    2    1    2    0    0  0.00000000000E+00  0.00000000000E+00 -0.32908339495E+03  0.13422016321E+04  0.13012337762E+04 0.  0.
        4    1    3    3  502    0  0.15335744613E+03 -0.31930295417E+03  0.39837623024E+03  0.53308359246E+03  0.12699999809E+01 0.  1.
       -4    1    3    3    0  502 -0.15335744613E+03  0.31930295417E+03 -0.72745962519E+03  0.80911803960E+03  0.12699999809E+01 0. -1.
</event>
<event>
 5   0  0.4453011E-03  0.1339053E+04  0.7818609E-02  0.8999157E-01
        2   -1    0    0  501    0  0.00000000000E+00  0.00000000000E+00  0.13480481482E+04  0.13480481482E+04  0.25500000920E-02 0. -1.
       -2   -1    0    0    0  501  0.00000000000E+00  0.00000000000E+00 -0.33252938162E+03  0.33252938163E+03  0.25500000920E-02 0.  1.
    10030    2    1    2    0    0  0.00000000000E+00  0.00000000000E+00  0.10155187666E+04  0.16805775298E+04  0.13390528251E+04 0.  0.
        1    1    3    3  502    0 -0.61074044941E+03 -0.83506993518E+02  0.83572929374E+03  0.10384703977E+04  0.50400001928E-02 0.  1.
       -1    1    3    3    0  502  0.61074044941E+03  0.83506993518E+02  0.17978947282E+03  0.64210713208E+03  0.50400001928E-02 0. -1.
</event>
<event>
 5   0  0.4306214E-03  0.1287556E+04  0.7818609E-02  0.9039492E-01
       -2   -1    0    0    0  501  0.00000000000E+00  0.00000000000E+00  0.34620880901E+03  0.34620880902E+03  0.25500000920E-02 0. -1.
        2   -1    0    0  501    0  0.00000000000E+00  0.00000000000E+00 -0.11971109040E+04  0.11971109040E+04  0.25500000920E-02 0.  1.
    10030    2    1    2    0    0  0.00000000000E+00  0.00000000000E+00 -0.85090209496E+03  0.15433197130E+04  0.12875563527E+04 0.  0.
        3    1    3    3  502    0  0.19299536025E+03  0.37320275901E+03 -0.10101168716E+04  0.10940126201E+04  0.10100000352E+00 0.  1.
       -3    1    3    3    0  502 -0.19299536025E+03 -0.37320275901E+03  0.15921477666E+03  0.44930709289E+03  0.10100000352E+00 0. -1.
</event>
<event>
 5   0  0.2511542E-03  0.1346912E+04  0.7818609E-02  0.8993169E-01
        1   -1    0    0  501    0  0.00000000000E+00  0.00000000000E+00  0.68903148293E+03  0.68903148295E+03  0.50400001928E-02 0. -1.
       -1   -1    0    0    0  501  0.00000000000E+00  0.00000000000E+00 -0.65823239306E+03  0.65823239308E+03  0.50400001928E-02 0.  1.
    10030    2    1    2    0    0  0.00000000000E+00  0.00000000000E+00  0.30799089872E+02  0.13472638760E+04  0.13469117891E+04 0.  0.
        4    1    3    3  502    0 -0.39858463748E+03  0.93225626234E+02  0.55031078086E+03  0.68586026205E+03  0.12699999809E+01 0. -1.
       -4    1    3    3    0  502  0.39858463748E+03 -0.93225626234E+02 -0.51951169099E+03  0.66140361399E+03  0.12699999809E+01 0.  1.
</event>
<event>
 5   0  0.2511542E-03  0.1297448E+04  0.7818609E-02  0.9031591E-01
        1   -1    0    0  501    0  0.00000000000E+00  0.00000000000E+00  0.51569597854E+03  0.51569597856E+03  0.50400001928E-02 0. -1.
       -1   -1    0    0    0  501  0.00000000000E+00  0.00000000000E+00 -0.81606750440E+03  0.81606750442E+03  0.50400001928E-02 0.  1.
    10030    2    1    2    0    0  0.00000000000E+00  0.00000000000E+00 -0.30037152587E+03  0.13317634830E+04  0.12974478491E+04 0.  0.
        4    1    3    3  502    0 -0.52143334148E+03 -0.17587509789E+03  0.20243530684E+03  0.58635010533E+03  0.12699999809E+01 0. -1.
       -4    1    3    3    0  502  0.52143334148E+03  0.17587509789E+03 -0.50280683271E+03  0.74541337765E+03  0.12699999809E+01 0.  1.
</event>
<event>
 5   0  0.2356769E-03  0.1255577E+04  0.7818609E-02  0.9065555E-01
       -1   -1    0    0    0  501  0.00000000000E+00  0.00000000000E+00  0.12410170670E+03  0.12410170680E+03  0.50400001928E-02 0. -1.
        1   -1    0    0  501    0  0.00000000000E+00  0.00000000000E+00 -0.31757671871E+04  0.31757671871E+04  0.50400001928E-02 0.  1.
    10030    2    1    2    0    0  0.00000000000E+00  0.00000000000E+00 -0.30516654804E+04  0.32998688939E+04  0.12555765659E+04 0.  0.
        1    1    3    3  502    0 -0.64666173953E+01 -0.11876642826E+03  0.94218019706E+02  0.15173765810E+03  0.50400001928E-02 0. -1.
       -1    1    3    3    0  502  0.64666173953E+01  0.11876642826E+03 -0.31458835001E+04  0.31481312358E+04  0.50400001928E-02 0.  1.
</event>
<event>
 5   0  0.4388937E-03  0.1323082E+04  0.7818609E-02  0.9011459E-01
        2   -1    0    0  501    0  0.00000000000E+00  0.00000000000E+00  0.11839682338E+04  0.11839682338E+04  0.25500000920E-02 0.  1.
       -2   -1    0    0    0  501  0.00000000000E+00  0.00000000000E+00 -0.36963536476E+03  0.36963536477E+03  0.25500000920E-02 0. -1.
    10030    2    1    2    0    0  0.00000000000E+00  0.00000000000E+00  0.81433286905E+03  0.15536035986E+04  0.13230820534E+04 0.  0.
        5    1    3    3  502    0 -0.51746804626E+03  0.35126385462E+03  0.15407962504E+03  0.64414446774E+03  0.46999998093E+01 0. -1.
       -5    1    3    3    0  502  0.51746804626E+03 -0.35126385462E+03  0.66025324401E+03  0.90945913085E+03  0.46999998093E+01 0.  1.
</event>
<event>
 5   0  0.2356769E-03  0.1289833E+04  0.7818609E-02  0.9037667E-01
       -1   -1    0    0    0  501  0.00000000000E+00  0.00000000000E+00  0.72346791864E+03  0.72346791865E+03  0.50400001928E-02 0.  1.
        1   -1    0    0  501    0  0.00000000000E+00  0.00000000000E+00 -0.57489379450E+03  0.57489379452E+03  0.50400001928E-02 0. -1.
    10030    2    1    2    0    0  0.00000000000E+00  0.00000000000E+00  0.14857412413E+03  0.12983617132E+04  0.12898328837E+04 0.  0.
        1    1    3    3  502    0 -0.51110664294E+03  0.39150241600E+03  0.36447611331E+02  0.64485081266E+03  0.50400001928E-02 0. -1.
       -1    1    3    3    0  502  0.51110664294E+03 -0.39150241600E+03  0.11212651280E+03  0.65351090052E+03  0.50400001928E-02 0.  1.
</event>
<event>
 5   0  0.1661750E-03  0.7762305E+03  0.7818609E-02  0.9595074E-01
       -3   -1    0    0    0  501  0.00000000000E+00  0.00000000000E+00  0.15839068256E+03  0.15839071477E+03  0.10100000352E+00 0.  1.
        3   -1    0    0  501    0  0.00000000000E+00  0.00000000000E+00 -0.95102460325E+03  0.95102460861E+03  0.10100000352E+00 0. -1.
    10030    2    1    2    0    0  0.00000000000E+00  0.00000000000E+00 -0.79263392069E+03  0.11094153234E+04  0.77623052473E+03 0.  0.
        1    1    3    3  502    0 -0.25535453689E+03 -0.16819588416E+03 -0.54680136629E+02  0.31062149366E+03  0.50400001928E-02 0.  1.
       -1    1    3    3    0  502  0.25535453689E+03  0.16819588416E+03 -0.73795378406E+03  0.79879382971E+03  0.50400001928E-02 0. -1.
</event>
<event>
 5   0  0.4388937E-03  0.1633067E+04  0.7818609E-02  0.8800487E-01
       -2   -1    0    0    0  501  0.00000000000E+00  0.00000000000E+00  0.53259757925E+03  0.53259757926E+03  0.25500000920E-02 0.  1.
        2   -1    0    0  501    0  0.00000000000E+00  0.00000000000E+00 -0.12518407239E+04  0.12518407239E+04  0.25500000920E-02 0. -1.
    10030    2    1    2    0    0  0.00000000000E+00  0.00000000000E+00 -0.71924314469E+03  0.17844383032E+04  0.16330674685E+04 0.  0.
        5    1    3    3  502    0  0.13682676754E+03  0.80373520378E+03 -0.40840759442E+03  0.91188304913E+03  0.46999998093E+01 0.  1.
       -5    1    3    3    0  502 -0.13682676754E+03 -0.80373520378E+03 -0.31083555027E+03  0.87255525407E+03  0.46999998093E+01 0. -1.
</event>
<event>
 5   0  0.4453011E-03  0.1225663E+04  0.7818609E-02  0.9090686E-01
        2   -1    0    0  501    0  0.00000000000E+00  0.00000000000E+00  0.21486099459E+04  0.21486099459E+04  0.25500000920E-02 0. -1.
       -2   -1    0    0    0  501  0.00000000000E+00  0.00000000000E+00 -0.17479311338E+03  0.17479311340E+03  0.25500000920E-02 0.  1.
    10030    2    1    2    0    0  0.00000000000E+00  0.00000000000E+00  0.19738168325E+04  0.23234030593E+04  0.12256626321E+04 0.  0.
        1    1    3    3  502    0  0.15923533881E+03 -0.48716956649E+03  0.35004398368E+03  0.62066163904E+03  0.50400001928E-02 0.  1.
       -1    1    3    3    0  502 -0.15923533881E+03  0.48716956649E+03  0.16237728488E+04  0.17027414202E+04  0.50400001928E-02 0. -1.
</event>
<event>
 5   0  0.4310889E-03  0.1185962E+04  0.7818609E-02  0.9125233E-01
        2   -1    0    0  501    0  0.00000000000E+00  0.00000000000E+00  0.14780239551E+04  0.14780239551E+04  0.25500000920E-02 0.  1.
       -2   -1    0    0    0  501  0.00000000000E+00  0.00000000000E+00 -0.23790328646E+03  0.23790328648E+03  0.25500000920E-02 0. -1.
    10030    2    1    2    0    0  0.00000000000E+00  0.00000000000E+00  0.12401206686E+04  0.17159272416E+04  0.11859624891E+04 0.  0.
        4    1    3    3  502    0 -0.31547311093E+03  0.44435874718E+03  0.28183064342E+03  0.61352107086E+03  0.12699999809E+01 0.  1.
       -4    1    3    3    0  502  0.31547311093E+03 -0.44435874718E+03  0.95829002520E+03  0.11024061707E+04  0.12699999809E+01 0. -1.
</event>
<event>
 5   0  0.4388937E-03  0.1309531E+04  0.7818609E-02  0.9022041E-01
        2   -1    0    0  501    0  0.00000000000E+00  0.00000000000E+00  0.93656294281E+03  0.93656294281E+03  0.25500000920E-02 0. -1.
       -2   -1    0    0    0  501  0.00000000000E+00  0.00000000000E+00 -0.45775692177E+03  0.45775692178E+03  0.25500000920E-02 0.  1.
    10030    2    1    2    0    0  0.00000000000E+00  0.00000000000E+00  0.47880602104E+03  0.13943198646E+04  0.13095314731E+04 0.  0.
        5    1    3    3  502    0 -0.64879840096E+03  0.82818973169E+02  0.20750086363E+03  0.68620481331E+03  0.46999998093E+01 0.  1.
       -5    1    3    3    0  502  0.64879840096E+03 -0.82818973169E+02  0.27130515741E+03  0.70811505127E+03  0.46999998093E+01 0. -1.
</event>
<event>
 5   0  0.2511542E-03  0.1335060E+04  0.7818609E-02  0.9002215E-01
        1   -1    0    0  501    0  0.00000000000E+00  0.00000000000E+00  0.94879313457E+03  0.94879313459E+03  0.50400001928E-02 0.  1.
       -1   -1    0    0    0  501  0.00000000000E+00  0.00000000000E+00 -0.46964567394E+03  0.46964567397E+03  0.50400001928E-02 0. -1.
    10030    2    1    2    0    0  0.00000000000E+00  0.00000000000E+00  0.47914746063E+03  0.14184388086E+04  0.13350604348E+04 0.  0.
        4    1    3    3  502    0 -0.51128467832E+03  0.38126403523E+03  0.30238987833E+02  0.63850630078E+03  0.12699999809E+01 0. -1.
       -4    1    3    3    0  502  0.51128467832E+03 -0.38126403523E+03  0.44890847280E+03  0.77993250778E+03  0.12699999809E+01 0.  1.
</event>
<event>
 5   0  0.4453011E-03  0.1303285E+04  0.7818609E-02  0.9026964E-01
        2   -1    0    0  501    0  0.00000000000E+00  0.00000000000E+00  0.11979973194E+04  0.11979973194E+04  0.25500000920E-02 0. -1.
       -2   -1    0    0    0  501  0.00000000000E+00  0.00000000000E+00 -0.35445653945E+03  0.35445653946E+03  0.25500000920E-02 0.  1.
    10030    2    1    2    0    0  0.00000000000E+00  0.00000000000E+00  0.84354077992E+03  0.15524538588E+04  0.13032850557E+04 0.  0.
        1    1    3    3  502    0  0.23706977561E+03  0.38657144291E+03  0.97921251120E+03  0.10791184833E+04  0.50400001928E-02 0. -1.
       -1    1    3    3    0  502 -0.23706977561E+03 -0.38657144291E+03 -0.13567173129E+03  0.47333537547E+03  0.50400001928E-02 0.  1.
</event>
<event>
 5   0  0.2511542E-03  0.1287031E+04  0.7818609E-02  0.9039913E-01
        1   -1    0    0  501    0  0.00000000000E+00  0.00000000000E+00  0.14844966146E+04  0.14844966146E+04  0.50400001928E-02 0. -1.
       -1   -1    0    0    0  501  0.00000000000E+00  0.00000000000E+00 -0.27895794551E+03  0.27895794556E+03  0.50400001928E-02 0.  1.
    10030    2    1    2    0    0  0.00000000000E+00  0.00000000000E+00  0.12055386690E+04  0.17634545601E+04  0.12870308866E+04 0.  0.
        4    1    3    3  502    0 -0.61133233929E+03 -0.14800025041E+03  0.41651044869E+03  0.75439636130E+03  0.12699999809E+01 0.  1.
       -4    1    3    3    0  502  0.61133233929E+03  0.14800025041E+03  0.78902822035E+03  0.10090581988E+04  0.12699999809E+01 0. -1.
</event>
<event>
 5   0  0.2462055E-03  0.1200943E+04  0.7818609E-02  0.9112032E-01
       -1   -1    0    0    0  501  0.00000000000E+00  0.00000000000E+00  0.28392849265E+03  0.28392849269E+03  0.50400001928E-02 0. -1.
        1   -1    0    0  501    0  0.00000000000E+00  0.00000000000E+00 -0.12699175676E+04  0.12699175676E+04  0.50400001928E-02 0.  1.
    10030    2    1    2    0    0  0.00000000000E+00  0.00000000000E+00 -0.98598907495E+03  0.15538460603E+04  0.12009425978E+04 0.  0.
        2    1    3    3  502    0 -0.59211871251E+03  0.39649232532E+02 -0.37448734567E+03  0.70172459228E+03  0.25500000920E-02 0. -1.
       -2    1    3    3    0  502  0.59211871251E+03 -0.39649232532E+02 -0.61150172928E+03  0.85212146802E+03  0.25500000920E-02 0.  1.
</event>
<event>
 5   0  0.1661750E-03  0.1309354E+04  0.7818609E-02  0.9022180E-01
        4   -1    0    0  501    0  0.00000000000E+00  0.00000000000E+00  0.14078817915E+04  0.14078823643E+04  0.12699999809E+01 0. -1.
       -4   -1    0    0    0  501  0.00000000000E+00  0.00000000000E+00 -0.30442839403E+03  0.30443104308E+03  0.12699999809E+01 0.  1.
    10030    2    1    2    0    0  0.00000000000E+00  0.00000000000E+00  0.11034533974E+04  0.17123134074E+04  0.13093539646E+04 0.  0.
        3    1    3    3  502    0 -0.23373063447E+03 -0.18056861204E+03  0.13158032974E+04  0.13485449050E+04  0.10100000352E+00 0. -1.
       -3    1    3    3    0  502  0.23373063447E+03  0.18056861204E+03 -0.21234989992E+03  0.36376850240E+03  0.10100000352E+00 0.  1.
</event>
<event>
 5   0  0.2356769E-03  0.1296612E+04  0.7818609E-02  0.9032256E-01
       -1   -1    0    0    0  501  0.00000000000E+00  0.00000000000E+00  0.56164687757E+03  0.56164687759E+03  0.50400001928E-02 0.  1.
        1   -1    0    0  501    0  0.00000000000E+00  0.00000000000E+00 -0.74833586065E+03  0.74833586066E+03  0.50400001928E-02 0. -1.
    10030    2    1    2    0    0  0.00000000000E+00  0.00000000000E+00 -0.18668898308E+03  0.13099827383E+04  0.12966117376E+04 0.  0.
        1    1    3    3  502    0 -0.15489719534E+03  0.57990395537E+03  0.15416914834E+03  0.61971756866E+03  0.50400001928E-02 0.  1.
       -1    1    3    3    0  502  0.15489719534E+03 -0.57990395537E+03 -0.34085813142E+03  0.69026516959E+03  0.50400001928E-02 0. -1.
</event>
<event>
 5   0  0.2511542E-03  0.1287542E+04  0.7818609E-02  0.9039503E-01
        1   -1    0    0  501    0  0.00000000000E+00  0.00000000000E+00  0.60437376075E+03  0.60437376077E+03  0.50400001928E-02 0.  1.
       -1   -1    0    0    0  501  0.00000000000E+00  0.00000000000E+00 -0.68573634095E+03  0.68573634097E+03  0.50400001928E-02 0. -1.
    10030    2    1    2    0    0  0.00000000000E+00  0.00000000000E+00 -0.81362580198E+02  0.12901101017E+04  0.12875419236E+04 0.  0.
        4    1    3    3  502    0 -0.31286496493E+03  0.51820013555E+03 -0.26026121137E+03  0.65890316269E+03  0.12699999809E+01 0. -1.
       -4    1    3    3    0  502  0.31286496493E+03 -0.51820013555E+03  0.17889863117E+03  0.63120693905E+03  0.12699999809E+01 0.  1.
</event>
<event>
 5   0  0.4310889E-03  0.1280096E+04  0.7818609E-02  0.9045500E-01
        2   -1    0    0  501    0  0.00000000000E+00  0.00000000000E+00  0.22658282437E+04  0.22658282437E+04  0.25500000920E-02 0.  1.
       -2   -1    0    0    0  501  0.00000000000E+00  0.00000000000E+00 -0.18079976249E+03  0.18079976251E+03  0.25500000920E-02 0. -1.
    10030    2    1    2    0    0  0.00000000000E+00  0.00000000000E+00  0.20850284812E+04  0.24466280062E+04  0.12800956344E+04 0.  0.
        4    1    3    3  502    0  0.51918050158E+03 -0.30390826214E+03  0.14601682233E+04  0.15792407917E+04  0.12699999809E+01 0.  1.
       -4    1    3    3    0  502 -0.51918050158E+03  0.30390826214E+03  0.62486025789E+03  0.86738721446E+03  0.12699999809E+01 0. -1.
</event>
<event>
 5   0  0.4263540E-03  0.1204773E+04  0.7818609E-02  0.9108689E-01
       -2   -1    0    0    0  501  0.00000000000E+00  0.00000000000E+00  0.36194815059E+03  0.36194815060E+03  0.25500000920E-02 0. -1.
        2   -1    0    0  501    0  0.00000000000E+00  0.00000000000E+00 -0.10025447927E+04  0.10025447927E+04  0.25500000920E-02 0.  1.
    10030    2    1    2    0    0  0.00000000000E+00  0.00000000000E+00 -0.64059664211E+03  0.13644929433E+04  0.12047725654E+04 0.  0.
        2    1    3    3  502    0  0.10093431362E+03 -0.24068992628E+03  0.29458544394E+03  0.39357332235E+03  0.25500000920E-02 0. -1.
       -2    1    3    3    0  502 -0.10093431362E+03  0.24068992628E+03 -0.93518208605E+03  0.97091962096E+03  0.25500000920E-02 0.  1.
</event>
<event>
 5   0  0.2370801E-03  0.1221265E+04  0.7818609E-02  0.9094445E-01
       -1   -1    0    0    0  501  0.00000000000E+00  0.00000000000E+00  0.21901477589E+03  0.21901477595E+03  0.50400001928E-02 0. -1.
        1   -1    0    0  501    0  0.00000000000E+00  0.00000000000E+00 -0.17024959923E+04  0.17024959923E+04  0.50400001928E-02 0.  1.
    10030    2    1    2    0    0  0.00000000000E+00  0.00000000000E+00 -0.14834812164E+04  0.19215107682E+04  0.12212645549E+04 0.  0.
        3    1    3    3  502    0 -0.21716006098E+03  0.33007924911E+03 -0.14742675598E+04  0.15262947457E+04  0.10100000352E+00 0.  1.
       -3    1    3    3    0  502  0.21716006098E+03 -0.33007924911E+03 -0.92136566050E+01  0.39521602251E+03  0.10100000352E+00 0. -1.
</event>
<event>
 5   0  0.4263540E-03  0.1237801E+04  0.7818609E-02  0.9080398E-01
       -2   -1    0    0    0  501  0.00000000000E+00  0.00000000000E+00  0.21177189588E+03  0.21177189589E+03  0.25500000920E-02 0. -1.
        2   -1    0    0  501    0  0.00000000000E+00  0.00000000000E+00 -0.18087287997E+04  0.18087287997E+04  0.25500000920E-02 0.  1.
    10030    2    1    2    0    0  0.00000000000E+00  0.00000000000E+00 -0.15969569039E+04  0.20205006956E+04  0.12378011586E+04 0.  0.
        2    1    3    3  502    0 -0.74029031861E+02  0.20857505578E+03 -0.17419232773E+04  0.17559272637E+04  0.25500000920E-02 0.  1.
       -2    1    3    3    0  502  0.74029031861E+02 -0.20857505578E+03  0.14496637343E+03  0.26457343193E+03  0.25500000920E-02 0. -1.
</event>
<event>
 5   0  0.2458456E-03  0.1269912E+04  0.7818609E-02  0.9053771E-01
       -1   -1    0    0    0  501  0.00000000000E+00  0.00000000000E+00  0.49556238242E+03  0.49556238245E+03  0.50400001928E-02 0.  1.
        1   -1    0    0  501    0  0.00000000000E+00  0.00000000000E+00 -0.81355937069E+03  0.81355937070E+03  0.50400001928E-02 0. -1.
    10030    2    1    2    0    0  0.00000000000E+00  0.00000000000E+00 -0.31799698826E+03  0.13091217531E+04  0.12699124694E+04 0.  0.
        5    1    3    3  502    0 -0.55733602888E+03  0.10126337741E+03  0.13668424262E+03  0.58273698430E+03  0.46999998093E+01 0.  1.
       -5    1    3    3    0  502  0.55733602888E+03 -0.10126337741E+03 -0.45468123088E+03  0.72638476885E+03  0.46999998093E+01 0. -1.
</event>
<event>
 5   0  0.4453011E-03  0.1306020E+04  0.7818609E-02  0.9024805E-01
        2   -1    0    0  501    0  0.00000000000E+00  0.00000000000E+00  0.91840865098E+03  0.91840865098E+03  0.25500000920E-02 0. -1.
       -2   -1    0    0    0  501  0.00000000000E+00  0.00000000000E+00 -0.46430513624E+03  0.46430513625E+03  0.25500000920E-02 0.  1.
    10030    2    1    2    0    0  0.00000000000E+00  0.00000000000E+00  0.45410351474E+03  0.13827137872E+04  0.13060196841E+04 0.  0.
        1    1    3    3  502    0 -0.17953529896E+03  0.31167702489E+03  0.80407683735E+03  0.88086040427E+03  0.50400001928E-02 0. -1.
       -1    1    3    3    0  502  0.17953529896E+03 -0.31167702489E+03 -0.34997332261E+03  0.50185338296E+03  0.50400001928E-02 0.  1.
</event>
<event>
 5   0  0.4310889E-03  0.1303877E+04  0.7818609E-02  0.9026496E-01
        2   -1    0    0  501    0  0.00000000000E+00  0.00000000000E+00  0.48518086236E+03  0.48518086237E+03  0.25500000920E-02 0. -1.
       -2   -1    0    0    0  501  0.00000000000E+00  0.00000000000E+00 -0.87601098620E+03  0.87601098620E+03  0.25500000920E-02 0.  1.
    10030    2    1    2    0    0  0.00000000000E+00  0.00000000000E+00 -0.39083012384E+03  0.13611918486E+04  0.13038769355E+04 0.  0.
        4    1    3    3  502    0 -0.20497412066E+03  0.15289713632E+03 -0.82146767272E+03  0.86035032089E+03  0.12699999809E+01 0.  1.
       -4    1    3    3    0  502  0.20497412066E+03 -0.15289713632E+03  0.43063754888E+03  0.50084152768E+03  0.12699999809E+01 0. -1.
</event>
<event>
 5   0  0.2370801E-03  0.1327790E+04  0.7818609E-02  0.9007813E-01
        1   -1    0    0  501    0  0.00000000000E+00  0.00000000000E+00  0.46258739327E+03  0.46258739329E+03  0.50400001928E-02 0. -1.
       -1   -1    0    0    0  501  0.00000000000E+00  0.00000000000E+00 -0.95280735761E+03  0.95280735762E+03  0.50400001928E-02 0.  1.
    10030    2    1    2    0    0  0.00000000000E+00  0.00000000000E+00 -0.49021996434E+03  0.14153947509E+04  0.13277901519E+04 0.  0.
        3    1    3    3  502    0  0.20618765837E+02  0.43420819238E+03 -0.78000862177E+03  0.89295876057E+03  0.10100000352E+00 0.  1.
       -3    1    3    3    0  502 -0.20618765837E+02 -0.43420819238E+03  0.28978865743E+03  0.52243599035E+03  0.10100000352E+00 0. -1.
</event>
<event>
 5   0  0.4310889E-03  0.1250843E+04  0.7818609E-02  0.9069482E-01
        2   -1    0    0  501    0  0.00000000000E+00  0.00000000000E+00  0.44059021774E+03  0.44059021774E+03  0.25500000920E-02 0. -1.
       -2   -1    0    0    0  501  0.00000000000E+00  0.00000000000E+00 -0.88779079144E+03  0.88779079144E+03  0.25500000920E-02 0.  1.
    10030    2    1    2    0    0  0.00000000000E+00  0.00000000000E+00 -0.44720057370E+03  0.13283810092E+04  0.12508428168E+04 0.  0.
        4    1    3    3  502    0  0.20257923007E+03 -0.56089258778E+03 -0.23473906401E+02  0.59681779185E+03  0.12699999809E+01 0. -1.
       -4    1    3    3    0  502 -0.20257923007E+03  0.56089258778E+03 -0.42372666730E+03  0.73156321734E+03  0.12699999809E+01 0.  1.
</event>
<event>
 5   0  0.4388937E-03  0.1312646E+04  0.7818609E-02  0.9019597E-01
       -2   -1    0    0    0  501  0.00000000000E+00  0.00000000000E+00  0.30372002019E+03  0.30372002020E+03  0.25500000920E-02 0.  1.
        2   -1    0    0  501    0  0.00000000000E+00  0.00000000000E+00 -0.14182787990E+04  0.14182787990E+04  0.25500000920E-02 0. -1.
    10030    2    1    2    0    0  0.00000000000E+00  0.00000000000E+00 -0.11145587789E+04  0.17219988192E+04  0.13126456727E+04 0.  0.
        5    1    3    3  502    0 -0.17525558360E+03 -0.40984712282E+03  0.74658826321E+02  0.45197921856E+03  0.46999998093E+01 0.  1.
       -5    1    3    3    0  502  0.17525558360E+03  0.40984712282E+03 -0.11892176052E+04  0.12700196007E+04  0.46999998093E+01 0. -1.
</event>
<event>
 5   0  0.4453011E-03  0.1170486E+04  0.7818609E-02  0.9139090E-01
        2   -1    0    0  501    0  0.00000000000E+00  0.00000000000E+00  0.16441617324E+04  0.16441617324E+04  0.25500000920E-02 0.  1.
       -2   -1    0    0    0  501  0.00000000000E+00  0.00000000000E+00 -0.20831838096E+03  0.20831838098E+03  0.25500000920E-02 0. -1.
    10030    2    1    2    0    0  0.00000000000E+00  0.00000000000E+00  0.14358433514E+04  0.18524801133E+04  0.11704855576E+04 0.  0.
        1    1    3    3  502    0 -0.55033234265E+03 -0.19750200841E+03  0.75784673377E+03  0.95718566778E+03  0.50400001928E-02 0.  1.
       -1    1    3    3    0  502  0.55033234265E+03  0.19750200841E+03  0.67799661764E+03  0.89529444556E+03  0.50400001928E-02 0. -1.
</event>
<event>
 5   0  0.2511542E-03  0.1273117E+04  0.7818609E-02  0.9051159E-01
       -1   -1    0    0    0  501  0.00000000000E+00  0.00000000000E+00  0.10864647724E+04  0.10864647724E+04  0.50400001928E-02 0.  1.
        1   -1    0    0  501    0  0.00000000000E+00  0.00000000000E+00 -0.37295918606E+03  0.37295918609E+03  0.50400001928E-02 0. -1.
    10030    2    1    2    0    0  0.00000000000E+00  0.00000000000E+00  0.71350558636E+03  0.14594239585E+04  0.12731174608E+04 0.  0.
        4    1    3    3  502    0 -0.52779471416E+03  0.35554129491E+03  0.37408229903E+03  0.73818429408E+03  0.12699999809E+01 0. -1.
       -4    1    3    3    0  502  0.52779471416E+03 -0.35554129491E+03  0.33942328734E+03  0.72123966445E+03  0.12699999809E+01 0.  1.
</event>
<event>
 5   0  0.4453011E-03  0.1470964E+04  0.7818609E-02  0.8903994E-01
       -2   -1    0    0    0  501  0.00000000000E+00  0.00000000000E+00  0.10775664019E+04  0.10775664019E+04  0.25500000920E-02 0. -1.
        2   -1    0    0  501    0  0.00000000000E+00  0.00000000000E+00 -0.50199598693E+03  0.50199598694E+03  0.25500000920E-02 0.  1.
    10030    2    1    2    0    0  0.00000000000E+00  0.00000000000E+00  0.57557041493E+03  0.15795623888E+04  0.14709643223E+04 0.  0.
        1    1    3    3  502    0  0.37381531089E+03 -0.27814037514E+03  0.89886215923E+03  0.10124490784E+04  0.50400001928E-02 0. -1.
       -1    1    3    3    0  502 -0.37381531089E+03  0.27814037514E+03 -0.32329174429E+03  0.56711331045E+03  0.50400001928E-02 0.  1.
</event>
<event>
 5   0  0.2462055E-03  0.1124368E+04  0.7818609E-02  0.9181761E-01
       -1   -1    0    0    0  501  0.00000000000E+00  0.00000000000E+00  0.39909397089E+03  0.39909397092E+03  0.50400001928E-02 0. -1.
        1   -1    0    0  501    0  0.00000000000E+00  0.00000000000E+00 -0.79192124687E+03  0.79192124689E+03  0.50400001928E-02 0.  1.
    10030    2    1    2    0    0  0.00000000000E+00  0.00000000000E+00 -0.39282727599E+03  0.11910152178E+04  0.11243682583E+04 0.  0.
        2    1    3    3  502    0  0.16179957430E+03 -0.14177754341E+03  0.35376836707E+03  0.41404351414E+03  0.25500000920E-02 0. -1.
       -2    1    3    3    0  502 -0.16179957430E+03  0.14177754341E+03 -0.74659564305E+03  0.77697170366E+03  0.25500000920E-02 0.  1.
</event>
<event>
 5   0  0.4306214E-03  0.1291167E+04  0.7818609E-02  0.9036599E-01
        2   -1    0    0  501    0  0.00000000000E+00  0.00000000000E+00  0.31880865422E+03  0.31880865423E+03  0.25500000920E-02 0.  1.
       -2   -1    0    0    0  501  0.00000000000E+00  0.00000000000E+00 -0.13072991819E+04  0.13072991819E+04  0.25500000920E-02 0. -1.
    10030    2    1    2    0    0  0.00000000000E+00  0.00000000000E+00 -0.98849052763E+03  0.16261078361E+04  0.12911673677E+04 0.  0.
        3    1    3    3  502    0 -0.35882580380E+03  0.31788801325E+03 -0.10388134005E+04  0.11440900479E+04  0.10100000352E+00 0. -1.
       -3    1    3    3    0  502  0.35882580380E+03 -0.31788801325E+03  0.50322872818E+02  0.48201778823E+03  0.10100000352E+00 0.  1.
</event>
<event>
 5   0  0.2511542E-03  0.1212826E+04  0.7818609E-02  0.9101704E-01
       -1   -1    0    0    0  501  0.00000000000E+00  0.00000000000E+00  0.13569529899E+04  0.13569529899E+04  0.50400001928E-02 0. -1.
        1   -1    0    0  501    0  0.00000000000E+00  0.00000000000E+00 -0.27100168292E+03  0.27100168297E+03  0.50400001928E-02 0.  1.
    10030    2    1    2    0    0  0.00000000000E+00  0.00000000000E+00  0.10859513070E+04  0.16279546729E+04  0.12128256989E+04 0.  0.
        4    1    3    3  502    0  0.32764306540E+03  0.28807961851E+03 -0.22370850299E+02  0.43685456705E+03  0.12699999809E+01 0.  1.
       -4    1    3    3    0  502 -0.32764306540E+03 -0.28807961851E+03  0.11083221573E+04  0.11911001058E+04  0.12699999809E+01 0. -1.
</event>
<event>
 5   0  0.2511542E-03  0.1195161E+04  0.7818609E-02  0.9117103E-01
        1   -1    0    0  501    0  0.00000000000E+00  0.00000000000E+00  0.76463331834E+03  0.76463331836E+03  0.50400001928E-02 0. -1.
       -1   -1    0    0    0  501  0.00000000000E+00  0.00000000000E+00 -0.46702444985E+03  0.46702444988E+03  0.50400001928E-02 0.  1.
    10030    2    1    2    0    0  0.00000000000E+00  0.00000000000E+00  0.29760886849E+03  0.12316577682E+04  0.11951610015E+04 0.  0.
        4    1    3    3  502    0 -0.20401916549E+03 -0.16048110476E+03 -0.40589152409E+03  0.48179616759E+03  0.12699999809E+01 0.  1.
       -4    1    3    3    0  502  0.20401916549E+03  0.16048110476E+03  0.70350039258E+03  0.74986160065E+03  0.12699999809E+01 0. -1.
</event>
<event>
 5   0  0.4453011E-03  0.1209875E+04  0.7818609E-02  0.9104256E-01
        2   -1    0    0  501    0  0.00000000000E+00  0.00000000000E+00  0.13125935996E+04  0.13125935996E+04  0.25500000920E-02 0. -1.
       -2   -1    0    0    0  501  0.00000000000E+00  0.00000000000E+00 -0.27879877830E+03  0.27879877831E+03  0.25500000920E-02 0.  1.
    10030    2    1    2    0    0  0.00000000000E+00  0.00000000000E+00  0.10337948213E+04  0.15913923779E+04  0.12098751869E+04 0.  0.
        1    1    3    3  502    0  0.18167203680E+03 -0.57022145284E+03  0.40078774948E+03  0.72026943180E+03  0.50400001928E-02 0.  1.
       -1    1    3    3    0  502 -0.18167203680E+03  0.57022145284E+03  0.63300707185E+03  0.87112294612E+03  0.50400001928E-02 0. -1.
</event>
<event>
 5   0  0.4310889E-03  0.1357072E+04  0.7818609E-02  0.8985492E-01
        2   -1    0    0  501    0  0.00000000000E+00  0.00000000000E+00  0.11294378083E+04  0.11294378083E+04  0.25500000920E-02 0. -1.
       -2   -1    0    0    0  501  0.00000000000E+00  0.00000000000E+00 -0.40764609799E+03  0.40764609800E+03  0.25500000920E-02 0.  1.
    10030    2    1    2    0    0  0.00000000000E+00  0.00000000000E+00  0.72179171030E+03  0.15370839063E+04  0.13570717232E+04 0.  0.
        4    1    3    3  502    0  0.55380860647E+03 -0.27455067850E+03  0.43901719992E+02  0.61968622833E+03  0.12699999809E+01 0.  1.
       -4    1    3    3    0  502 -0.55380860647E+03  0.27455067850E+03  0.67788999031E+03  0.91739767796E+03  0.12699999809E+01 0. -1.
</event>
<event>
 5   0  0.2458456E-03  0.1236284E+04  0.7818609E-02  0.9081677E-01
        1   -1    0    0  501    0  0.00000000000E+00  0.00000000000E+00  0.15456799198E+04  0.15456799198E+04  0.50400001928E-02 0. -1.
       -1   -1    0    0    0  501  0.00000000000E+00  0.00000000000E+00 -0.24720476486E+03  0.24720476491E+03  0.50400001928E-02 0.  1.
    10030    2    1    2    0    0  0.00000000000E+00  0.00000000000E+00  0.12984751549E+04  0.17928846847E+04  0.12362838528E+04 0.  0.
        5    1    3    3  502    0 -0.28542169890E+03 -0.54641795311E+03  0.71472634013E+03  0.94387179053E+03  0.46999998093E+01 0.  1.
       -5    1    3    3    0  502  0.28542169890E+03  0.54641795311E+03  0.58374881479E+03  0.84901289416E+03  0.46999998093E+01 0. -1.
</event>
<event>
 5   0  0.4453011E-03  0.1300423E+04  0.7818609E-02  0.9029230E-01
       -2   -1    0    0    0  501  0.00000000000E+00  0.00000000000E+00  0.32649794723E+03  0.32649794724E+03  0.25500000920E-02 0.  1.
        2   -1    0    0  501    0  0.00000000000E+00  0.00000000000E+00 -0.12948782944E+04  0.12948782944E+04  0.25500000920E-02 0. -1.
    10030    2    1    2    0    0  0.00000000000E+00  0.00000000000E+00 -0.96838034719E+03  0.16213762417E+04  0.13004231697E+04 0.  0.
        1    1    3    3  502    0  0.32407539232E+03  0.34669906261E+03  0.69972957950E+02  0.47970961507E+03  0.50400001928E-02 0.  1.
       -1    1    3    3    0  502 -0.32407539232E+03 -0.34669906261E+03 -0.10383533051E+04  0.11416666266E+04  0.50400001928E-02 0. -1.
</event>
<event>
 5   0  0.4306214E-03  0.1299345E+04  0.7818609E-02  0.9030085E-01
        2   -1    0    0  501    0  0.00000000000E+00  0.00000000000E+00  0.49551360687E+03  0.49551360688E+03  0.25500000920E-02 0.  1.
       -2   -1    0    0    0  501  0.00000000000E+00  0.00000000000E+00 -0.85179199706E+03  0.85179199707E+03  0.25500000920E-02 0. -1.
    10030    2    1    2    0    0  0.00000000000E+00  0.00000000000E+00 -0.35627839019E+03  0.13473056039E+04  0.12993452579E+04 0.  0.
        3    1    3    3  502    0  0.45397683294E+03  0.44370054063E+03 -0.34800037264E+02  0.63574852528E+03  0.10100000352E+00 0.  1.
       -3    1    3    3    0  502 -0.45397683294E+03 -0.44370054063E+03 -0.32147835293E+03  0.71155707867E+03  0.10100000352E+00 0. -1.
</event>
<event>
 5   0  0.2356769E-03  0.1196509E+04  0.7818609E-02  0.9115918E-01
       -1   -1    0    0    0  501  0.00000000000E+00  0.00000000000E+00  0.45229305635E+03  0.45229305638E+03  0.50400001928E-02 0.  1.
        1   -1    0    0  501    0  0.00000000000E+00  0.00000000000E+00 -0.79131913739E+03  0.79131913740E+03  0.50400001928E-02 0. -1.
    10030    2    1    2    0    0  0.00000000000E+00  0.00000000000E+00 -0.33902608103E+03  0.12436121938E+04  0.11965085060E+04 0.  0.
        1    1    3    3  502    0  0.10095610458E+03 -0.16636780664E+03  0.41847676785E+03  0.46151184968E+03  0.50400001928E-02 0.  1.
       -1    1    3    3    0  502 -0.10095610458E+03  0.16636780664E+03 -0.75750284889E+03  0.78210034410E+03  0.50400001928E-02 0. -1.
</event>
<event>
 5   0  0.2511542E-03  0.1260252E+04  0.7818609E-02  0.9061694E-01
       -1   -1    0    0    0  501  0.00000000000E+00  0.00000000000E+00  0.38815481152E+03  0.38815481155E+03  0.50400001928E-02 0.  1.
        1   -1    0    0  501    0  0.00000000000E+00  0.00000000000E+00 -0.10229390573E+04  0.10229390573E+04  0.50400001928E-02 0. -1.
    10030    2    1    2    0    0  0.00000000000E+00  0.00000000000E+00 -0.63478424574E+03  0.14110938688E+04  0.12602519066E+04 0.  0.
        4    1    3    3  502    0  0.47571939844E+03  0.14756271183E+03 -0.74956042768E+03  0.89995896997E+03  0.12699999809E+01 0. -1.
       -4    1    3    3    0  502 -0.47571939844E+03 -0.14756271183E+03  0.11477618195E+03  0.51113489885E+03  0.12699999809E+01 0.  1.
</event>
<event>
 5   0  0.2370801E-03  0.1375946E+04  0.7818609E-02  0.8971416E-01
       -1   -1    0    0    0  501  0.00000000000E+00  0.00000000000E+00  0.22857511643E+03  0.22857511648E+03  0.50400001928E-02 0.  1.
        1   -1    0    0  501    0  0.00000000000E+00  0.00000000000E+00 -0.20706849788E+04  0.20706849788E+04  0.50400001928E-02 0. -1.
    10030    2    1    2    0    0  0.00000000000E+00  0.00000000000E+00 -0.18421098624E+04  0.22992600953E+04  0.13759463074E+04 0.  0.
        3    1    3    3  502    0 -0.11826393603E+01 -0.66078614304E+03 -0.60107243204E+03  0.89326804725E+03  0.10100000352E+00 0.  1.
       -3    1    3    3    0  502  0.11826393603E+01  0.66078614304E+03 -0.12410374303E+04  0.14059920480E+04  0.10100000352E+00 0. -1.
</event>
<event>
 5   0  0.2458456E-03  0.1275588E+04  0.7818609E-02  0.9049152E-01
        1   -1    0    0  501    0  0.00000000000E+00  0.00000000000E+00  0.95036694687E+03  0.95036694688E+03  0.50400001928E-02 0.  1.
       -1   -1    0    0    0  501  0.00000000000E+00  0.00000000000E+00 -0.42802509933E+03  0.42802509936E+03  0.50400001928E-02 0. -1.
    10030    2    1    2    0    0  0.00000000000E+00  0.00000000000E+00  0.52234184754E+03  0.13783920462E+04  0.12755875617E+04 0.  0.
        5    1    3    3  502    0  0.24317282083E+03  0.45913284355E+01  0.89826756063E+03  0.93062387760E+03  0.46999998093E+01 0.  1.
       -5    1    3    3    0  502 -0.24317282083E+03 -0.45913284355E+01 -0.37592571309E+03  0.44776816864E+03  0.46999998093E+01 0. -1.
</event>
<event>
 5   0  0.1661750E-03  0.1298206E+04  0.7818609E-02  0.9030989E-01
       -3   -1    0    0    0  501  0.00000000000E+00  0.00000000000E+00  0.25987440903E+03  0.25987442865E+03  0.10100000352E+00 0.  1.
        3   -1    0    0  501    0  0.00000000000E+00  0.00000000000E+00 -0.16213015661E+04  0.16213015693E+04  0.10100000352E+00 0. -1.
    10030    2    1    2    0    0  0.00000000000E+00  0.00000000000E+00 -0.13614271571E+04  0.18811759979E+04  0.12982061589E+04 0.  0.
        3    1    3    3  502    0 -0.36950160767E+03  0.53180390865E+03 -0.61610505299E+03  0.89383011912E+03  0.10100000352E+00 0.  1.
       -3    1    3    3    0  502  0.36950160767E+03 -0.53180390865E+03 -0.74532210409E+03  0.98734587879E+03  0.10100000352E+00 0. -1.
</event>
<event>
 5   0  0.2370801E-03  0.1241999E+04  0.7818609E-02  0.9076869E-01
        1   -1    0    0  501    0  0.00000000000E+00  0.00000000000E+00  0.76554509890E+03  0.76554509892E+03  0.50400001928E-02 0. -1.
       -1   -1    0    0    0  501  0.00000000000E+00  0.00000000000E+00 -0.50374646236E+03  0.50374646238E+03  0.50400001928E-02 0.  1.
    10030    2    1    2    0    0  0.00000000000E+00  0.00000000000E+00  0.26179863655E+03  0.12692915613E+04  0.12419994128E+04 0.  0.
        3    1    3    3  502    0  0.60165481266E+03 -0.13613639519E+03  0.57779973597E+02  0.61956449805E+03  0.10100000352E+00 0.  1.
       -3    1    3    3    0  502 -0.60165481266E+03  0.13613639519E+03  0.20401866295E+03  0.64972706325E+03  0.10100000352E+00 0. -1.
</event>
<event>
 5   0  0.4310889E-03  0.1218496E+04  0.7818609E-02  0.9096819E-01
       -2   -1    0    0    0  501  0.00000000000E+00  0.00000000000E+00  0.71697110565E+03  0.71697110566E+03  0.25500000920E-02 0.  1.
        2   -1    0    0  501    0  0.00000000000E+00  0.00000000000E+00 -0.51770995017E+03  0.51770995018E+03  0.25500000920E-02 0. -1.
    10030    2    1    2    0    0  0.00000000000E+00  0.00000000000E+00  0.19926115548E+03  0.12346810558E+04  0.12184959177E+04 0.  0.
        4    1    3    3  502    0 -0.11282549826E+03 -0.35767565652E+03  0.58613299905E+03  0.69585556964E+03  0.12699999809E+01 0.  1.
       -4    1    3    3    0  502  0.11282549826E+03  0.35767565652E+03 -0.38687184358E+03  0.53882548620E+03  0.12699999809E+01 0. -1.
</event>
<event>
 5   0  0.4453011E-03  0.1300501E+04  0.7818609E-02  0.9029168E-01
        2   -1    0    0  501    0  0.00000000000E+00  0.00000000000E+00  0.88984092094E+03  0.88984092094E+03  0.25500000920E-02 0.  1.
       -2   -1    0    0    0  501  0.00000000000E+00  0.00000000000E+00 -0.47516972615E+03  0.47516972616E+03  0.25500000920E-02 0. -1.
    10030    2    1    2    0    0  0.00000000000E+00  0.00000000000E+00  0.41467119479E+03  0.13650106471E+04  0.13005006217E+04 0.  0.
        1    1    3    3  502    0 -0.26249342047E+03  0.17917461660E+03 -0.38809534748E+03  0.50162170785E+03  0.50400001928E-02 0. -1.
       -1    1    3    3    0  502  0.26249342047E+03 -0.17917461660E+03  0.80276654226E+03  0.86338893926E+03  0.50400001928E-02 0.  1.
</event>
<event>
 5   0  0.2462055E-03  0.1327453E+04  0.7818609E-02  0.9008074E-01
        1   -1    0    0  501    0  0.00000000000E+00  0.00000000000E+00  0.10877164640E+04  0.10877164640E+04  0.50400001928E-02 0. -1.
       -1   -1    0    0    0  501  0.00000000000E+00  0.00000000000E+00 -0.40500707539E+03  0.40500707542E+03  0.50400001928E-02 0.  1.
    10030    2    1    2    0    0  0.00000000000E+00  0.00000000000E+00  0.68270938861E+03  0.14927235394E+04  0.13274529957E+04 0.  0.
        2    1    3    3  502    0 -0.40089497539E+03 -0.52651487564E+03  0.28403631832E+03  0.72014673900E+03  0.25500000920E-02 0.  1.
       -2    1    3    3    0  502  0.40089497539E+03  0.52651487564E+03  0.39867307030E+03  0.77257680042E+03  0.25500000920E-02 0. -1.
</event>
<event>
 5   0  0.4388937E-03  0.1317768E+04  0.7818609E-02  0.9015593E-01
       -2   -1    0    0    0  501  0.00000000000E+00  0.00000000000E+00  0.24160388117E+03  0.24160388119E+03  0.25500000920E-02 0.  1.
        2   -1    0    0  501    0  0.00000000000E+00  0.00000000000E+00 -0.17968582205E+04  0.17968582205E+04  0.25500000920E-02 0. -1.
    10030    2    1    2    0    0  0.00000000000E+00  0.00000000000E+00 -0.15552543393E+04  0.20384621017E+04  0.13177676882E+04 0.  0.
        5    1    3    3  502    0  0.65479037809E+02 -0.39336840305E+03  0.33694356860E+02  0.40022943994E+03  0.46999998093E+01 0.  1.
       -5    1    3    3    0  502 -0.65479037809E+02  0.39336840305E+03 -0.15889486962E+04  0.16382326617E+04  0.46999998093E+01 0. -1.
</event>
<event>
 5   0  0.2462055E-03  0.1047704E+04  0.7818609E-02  0.9257718E-01
        1   -1    0    0  501    0  0.00000000000E+00  0.00000000000E+00  0.87753353063E+03  0.87753353064E+03  0.50400001928E-02 0. -1.
       -1   -1    0    0    0  501  0.00000000000E+00  0.00000000000E+00 -0.31271835329E+03  0.31271835333E+03  0.50400001928E-02 0.  1.
    10030    2    1    2    0    0  0.00000000000E+00  0.00000000000E+00  0.56481517734E+03  0.11902518840E+04  0.10477038526E+04 0.  0.
        2    1    3    3  502    0 -0.23164053206E+03 -0.26634789990E+03 -0.15732491425E+03  0.38645784831E+03  0.25500000920E-02 0.  1.
       -2    1    3    3    0  502  0.23164053206E+03  0.26634789990E+03  0.72214009159E+03  0.80379403566E+03  0.25500000920E-02 0. -1.
</event>
<event>
 5   0  0.4263540E-03  0.1292049E+04  0.7818609E-02  0.9035895E-01
        2   -1    0    0  501    0  0.00000000000E+00  0.00000000000E+00  0.76254475558E+03  0.76254475559E+03  0.25500000920E-02 0. -1.
       -2   -1    0    0    0  501  0.00000000000E+00  0.00000000000E+00 -0.54730869239E+03  0.54730869240E+03  0.25500000920E-02 0.  1.
    10030    2    1    2    0    0  0.00000000000E+00  0.00000000000E+00  0.21523606319E+03  0.13098534480E+04  0.12920485642E+04 0.  0.
        2    1    3    3  502    0  0.45162875735E+03 -0.12972414439E+03  0.55706756068E+03  0.72878059474E+03  0.25500000920E-02 0. -1.
       -2    1    3    3    0  502 -0.45162875735E+03  0.12972414439E+03 -0.34183149749E+03  0.58107285325E+03  0.25500000920E-02 0.  1.
</event>
<event>
 5   0  0.4306214E-03  0.1309944E+04  0.7818609E-02  0.9021716E-01
       -2   -1    0    0    0  501  0.00000000000E+00  0.00000000000E+00  0.47608942010E+03  0.47608942011E+03  0.25500000920E-02 0. -1.
        2   -1    0    0  501    0  0.00000000000E+00  0.00000000000E+00 -0.90106700811E+03  0.90106700811E+03  0.25500000920E-02 0.  1.
    10030    2    1    2    0    0  0.00000000000E+00  0.00000000000E+00 -0.42497758801E+03  0.13771564282E+04  0.13099442269E+04 0.  0.
        3    1    3    3  502    0 -0.22265943073E+03 -0.20604418151E+03 -0.82275276507E+03  0.87689996548E+03  0.10100000352E+00 0.  1.
       -3    1    3    3    0  502  0.22265943073E+03  0.20604418151E+03  0.39777517706E+03  0.50025646274E+03  0.10100000352E+00 0. -1.
</event>
<event>
 5   0  0.1661750E-03  0.1291493E+04  0.7818609E-02  0.9036339E-01
        3   -1    0    0  501    0  0.00000000000E+00  0.00000000000E+00  0.16111241453E+04  0.16111241485E+04  0.10100000352E+00 0. -1.
       -3   -1    0    0    0  501  0.00000000000E+00  0.00000000000E+00 -0.25881834169E+03  0.25881836140E+03  0.10100000352E+00 0.  1.
    10030    2    1    2    0    0  0.00000000000E+00  0.00000000000E+00  0.13523058036E+04  0.18699425099E+04  0.12914929360E+04 0.  0.
        4    1    3    3  502    0 -0.11825961895E+03  0.42747955535E+03  0.13556799966E+04  0.14263919425E+04  0.12699999809E+01 0. -1.
       -4    1    3    3    0  502  0.11825961895E+03 -0.42747955535E+03 -0.33741929435E+01  0.44355056735E+03  0.12699999809E+01 0.  1.
</event>
<event>
 5   0  0.4453011E-03  0.1295603E+04  0.7818609E-02  0.9033059E-01
       -2   -1    0    0    0  501  0.00000000000E+00  0.00000000000E+00  0.31653083927E+03  0.31653083928E+03  0.25500000920E-02 0. -1.
        2   -1    0    0  501    0  0.00000000000E+00  0.00000000000E+00 -0.13257697027E+04  0.13257697027E+04  0.25500000920E-02 0.  1.
    10030    2    1    2    0    0  0.00000000000E+00  0.00000000000E+00 -0.10092388634E+04  0.16423005419E+04  0.12956033292E+04 0.  0.
        1    1    3    3  502    0  0.27491502957E+03 -0.42682424380E+03 -0.10146430737E+04  0.11345738299E+04  0.50400001928E-02 0.  1.
       -1    1    3    3    0  502 -0.27491502957E+03  0.42682424380E+03  0.54042102810E+01  0.50772671201E+03  0.50400001928E-02 0. -1.
</event>
<event>
 5   0  0.4310889E-03  0.1300009E+04  0.7818609E-02  0.9029558E-01
       -2   -1    0    0    0  501  0.00000000000E+00  0.00000000000E+00  0.30618435265E+03  0.30618435266E+03  0.25500000920E-02 0. -1.
        2   -1    0    0  501    0  0.00000000000E+00  0.00000000000E+00 -0.13799061119E+04  0.13799061119E+04  0.25500000920E-02 0.  1.
    10030    2    1    2    0    0  0.00000000000E+00  0.00000000000E+00 -0.10737217592E+04  0.16860904646E+04  0.13000087070E+04 0.  0.
        4    1    3    3  502    0  0.61537084792E+03  0.19701165397E+03 -0.62865559692E+03  0.90150116179E+03  0.12699999809E+01 0.  1.
       -4    1    3    3    0  502 -0.61537084792E+03 -0.19701165397E+03 -0.44506616232E+03  0.78458930276E+03  0.12699999809E+01 0. -1.
</event>
<event>
 5   0  0.2458456E-03  0.1313341E+04  0.7818609E-02  0.9019052E-01
        1   -1    0    0  501    0  0.00000000000E+00  0.00000000000E+00  0.11823093844E+04  0.11823093844E+04  0.50400001928E-02 0. -1.
       -1   -1    0    0    0  501  0.00000000000E+00  0.00000000000E+00 -0.36472340532E+03  0.36472340535E+03  0.50400001928E-02 0.  1.
    10030    2    1    2    0    0  0.00000000000E+00  0.00000000000E+00  0.81758597908E+03  0.15470327898E+04  0.13133406334E+04 0.  0.
        5    1    3    3  502    0  0.11513081656E+03 -0.17648874689E+03  0.11413813243E+04  0.11606794563E+04  0.46999998093E+01 0. -1.
       -5    1    3    3    0  502 -0.11513081656E+03  0.17648874689E+03 -0.32379534524E+03  0.38635333349E+03  0.46999998093E+01 0.  1.
</event>
<event>
 5   0  0.2462055E-03  0.1297621E+04  0.7818609E-02  0.9031454E-01
       -1   -1    0    0    0  501  0.00000000000E+00  0.00000000000E+00  0.25245343917E+03  0.25245343922E+03  0.50400001928E-02 0. -1.
        1   -1    0    0  501    0  0.00000000000E+00  0.00000000000E+00 -0.16674556539E+04  0.16674556539E+04  0.50400001928E-02 0.  1.
    10030    2    1    2    0    0  0.00000000000E+00  0.00000000000E+00 -0.14150022148E+04  0.19199090932E+04  0.12976207683E+04 0.  0.
        2    1    3    3  502    0  0.47811398103E+03 -0.30071200502E+03 -0.23511959525E+03  0.61180218445E+03  0.25500000920E-02 0. -1.
       -2    1    3    3    0  502 -0.47811398103E+03  0.30071200502E+03 -0.11798826195E+04  0.13081069087E+04  0.25500000920E-02 0.  1.
</event>
<event>
 5   0  0.2458456E-03  0.7568716E+03  0.7818609E-02  0.9624631E-01
       -1   -1    0    0    0  501  0.00000000000E+00  0.00000000000E+00  0.25025755630E+03  0.25025755635E+03  0.50400001928E-02 0.  1.
        1   -1    0    0  501    0  0.00000000000E+00  0.00000000000E+00 -0.57226505075E+03  0.57226505078E+03  0.50400001928E-02 0. -1.
    10030    2    1    2    0    0  0.00000000000E+00  0.00000000000E+00 -0.32200749445E+03  0.82252260713E+03  0.75687159595E+03 0.  0.
        5    1    3    3  502    0 -0.13722707328E+03  0.25262154614E+03  0.10639313681E+03  0.30657870894E+03  0.46999998093E+01 0.  1.
       -5    1    3    3    0  502  0.13722707328E+03 -0.25262154614E+03 -0.42840063126E+03  0.51594389819E+03  0.46999998093E+01 0. -1.
</event>
<event>
 5   0  0.4306214E-03  0.1322285E+04  0.7818609E-02  0.9012077E-01
        2   -1    0    0  501    0  0.00000000000E+00  0.00000000000E+00  0.46159171469E+03  0.46159171469E+03  0.25500000920E-02 0. -1.
       -2   -1    0    0    0  501  0.00000000000E+00  0.00000000000E+00 -0.94696081246E+03  0.94696081246E+03  0.25500000920E-02 0.  1.
    10030    2    1    2    0    0  0.00000000000E+00  0.00000000000E+00 -0.48536909777E+03  0.14085525272E+04  0.13222847880E+04 0.  0.
        3    1    3    3  502    0 -0.45511776449E+03 -0.13315204842E+03  0.24807577804E+03  0.53516656230E+03  0.10100000352E+00 0. -1.
       -3    1    3    3    0  502  0.45511776449E+03  0.13315204842E+03 -0.73344487581E+03  0.87338596486E+03  0.10100000352E+00 0.  1.
</event>
<event>
 5   0  0.4263540E-03  0.1322324E+04  0.7818609E-02  0.9012047E-01
        2   -1    0    0  501    0  0.00000000000E+00  0.00000000000E+00  0.15955630376E+04  0.15955630376E+04  0.25500000920E-02 0.  1.
       -2   -1    0    0    0  501  0.00000000000E+00  0.00000000000E+00 -0.27396906273E+03  0.27396906274E+03  0.25500000920E-02 0. -1.
    10030    2    1    2    0    0  0.00000000000E+00  0.00000000000E+00  0.13215939748E+04  0.18695321003E+04  0.13223235760E+04 0.  0.
        2    1    3    3  502    0  0.47333536768E+03 -0.41622194330E+02  0.13107809065E+04  0.13942472385E+04  0.25500000920E-02 0.  1.
       -2    1    3    3    0  502 -0.47333536768E+03  0.41622194330E+02  0.10813068336E+02  0.47528486175E+03  0.25500000920E-02 0. -1.
</event>
<event>
 5   0  0.4388937E-03  0.1303623E+04  0.7818609E-02  0.9026697E-01
       -2   -1    0    0    0  501  0.00000000000E+00  0.00000000000E+00  0.25437204755E+03  0.25437204757E+03  0.25500000920E-02 0. -1.
        2   -1    0    0  501    0  0.00000000000E+00  0.00000000000E+00 -0.16702235036E+04  0.16702235036E+04  0.25500000920E-02 0.  1.
    10030    2    1    2    0    0  0.00000000000E+00  0.00000000000E+00 -0.14158514560E+04  0.19245955511E+04  0.13036229094E+04 0.  0.
        5    1    3    3  502    0 -0.25988986949E+03 -0.44708575297E+03 -0.12219172608E+03  0.53139563669E+03  0.46999998093E+01 0. -1.
       -5    1    3    3    0  502  0.25988986949E+03  0.44708575297E+03 -0.12936597299E+04  0.13931999145E+04  0.46999998093E+01 0.  1.
</event>
<event>
 5   0  0.2511542E-03  0.1560437E+04  0.7818609E-02  0.8845228E-01
        1   -1    0    0  501    0  0.00000000000E+00  0.00000000000E+00  0.10775205319E+04  0.10775205319E+04  0.50400001928E-02 0. -1.
       -1   -1    0    0    0  501  0.00000000000E+00  0.00000000000E+00 -0.56494622704E+03  0.56494622706E+03  0.50400001928E-02 0.  1.
    10030    2    1    2    0    0  0.00000000000E+00  0.00000000000E+00  0.51257430488E+03  0.16424667590E+04  0.15604373222E+04 0.  0.
        4    1    3    3  502    0 -0.31891174689E+03  0.67378773918E+03  0.13865065622E+02  0.74557928668E+03  0.12699999809E+01 0.  1.
       -4    1    3    3    0  502  0.31891174689E+03 -0.67378773918E+03  0.49870923926E+03  0.89688747232E+03  0.12699999809E+01 0. -1.
</event>
<event>
 5   0  0.2356769E-03  0.9347767E+03  0.7818609E-02  0.9383123E-01
       -1   -1    0    0    0  501  0.00000000000E+00  0.00000000000E+00  0.30729677553E+03  0.30729677557E+03  0.50400001928E-02 0.  1.
        1   -1    0    0  501    0  0.00000000000E+00  0.00000000000E+00 -0.71088246562E+03  0.71088246563E+03  0.50400001928E-02 0. -1.
    10030    2    1    2    0    0  0.00000000000E+00  0.00000000000E+00 -0.40358569009E+03  0.10181792412E+04  0.93477674232E+03 0.  0.
        1    1    3    3  502    0 -0.25145746915E+03 -0.39380426700E+03 -0.18894049042E+03  0.50399520677E+03  0.50400001928E-02 0.  1.
       -1    1    3    3    0  502  0.25145746915E+03  0.39380426700E+03 -0.21464519967E+03  0.51418403443E+03  0.50400001928E-02 0. -1.
</event>
<event>
 5   0  0.4263540E-03  0.1267519E+04  0.7818609E-02  0.9055727E-01
        2   -1    0    0  501    0  0.00000000000E+00  0.00000000000E+00  0.62832287393E+03  0.62832287393E+03  0.25500000920E-02 0. -1.
       -2   -1    0    0    0  501  0.00000000000E+00  0.00000000000E+00 -0.63924316230E+03  0.63924316230E+03  0.25500000920E-02 0.  1.
    10030    2    1    2    0    0  0.00000000000E+00  0.00000000000E+00 -0.10920288372E+02  0.12675660362E+04  0.12675189953E+04 0.  0.
        2    1    3    3  502    0  0.50967303209E+03 -0.36430637198E+03  0.90279340237E+02  0.63295820683E+03  0.25500000920E-02 0.  1.
       -2    1    3    3    0  502 -0.50967303209E+03  0.36430637198E+03 -0.10119962861E+03  0.63460782941E+03  0.25500000920E-02 0. -1.
</event>
<event>
 5   0  0.1661750E-03  0.1290152E+04  0.7818609E-02  0.9037411E-01
        3   -1    0    0  501    0  0.00000000000E+00  0.00000000000E+00  0.64052067279E+03  0.64052068076E+03  0.10100000352E+00 0.  1.
       -3   -1    0    0    0  501  0.00000000000E+00  0.00000000000E+00 -0.64966386065E+03  0.64966386850E+03  0.10100000352E+00 0. -1.
    10030    2    1    2    0    0  0.00000000000E+00  0.00000000000E+00 -0.91431878583E+01  0.12901845493E+04  0.12901521512E+04 0.  0.
        2    1    3    3  502    0 -0.20036400825E+03 -0.59950167764E+03  0.12417613806E+03  0.64417987439E+03  0.25500000920E-02 0.  1.
       -2    1    3    3    0  502  0.20036400825E+03  0.59950167764E+03 -0.13331932592E+03  0.64600467488E+03  0.25500000920E-02 0. -1.
</event>
<event>
 5   0  0.2511542E-03  0.1313805E+04  0.7818609E-02  0.9018689E-01
       -1   -1    0    0    0  501  0.00000000000E+00  0.00000000000E+00  0.25435653997E+03  0.25435654002E+03  0.50400001928E-02 0. -1.
        1   -1    0    0  501    0  0.00000000000E+00  0.00000000000E+00 -0.16965186173E+04  0.16965186173E+04  0.50400001928E-02 0.  1.
    10030    2    1    2    0    0  0.00000000000E+00  0.00000000000E+00 -0.14421620773E+04  0.19508751573E+04  0.13138045601E+04 0.  0.
        4    1    3    3  502    0 -0.53196051497E+03  0.35022265107E+03 -0.48219538943E+03  0.79884410325E+03  0.12699999809E+01 0. -1.
       -4    1    3    3    0  502  0.53196051497E+03 -0.35022265107E+03 -0.95996668789E+03  0.11520310541E+04  0.12699999809E+01 0.  1.
</event>
<event>
 5   0  0.4310889E-03  0.1296120E+04  0.7818609E-02  0.9032648E-01
       -2   -1    0    0    0  501  0.00000000000E+00  0.00000000000E+00  0.32171691987E+03  0.32171691988E+03  0.25500000920E-02 0. -1.
        2   -1    0    0  501    0  0.00000000000E+00  0.00000000000E+00 -0.13054387980E+04  0.13054387980E+04  0.25500000920E-02 0.  1.
    10030    2    1    2    0    0  0.00000000000E+00  0.00000000000E+00 -0.98372187808E+03  0.16271557178E+04  0.12961199777E+04 0.  0.
        4    1    3    3  502    0 -0.45566786718E+02  0.30257940686E+03 -0.12090363523E+04  0.12471572248E+04  0.12699999809E+01 0.  1.
       -4    1    3    3    0  502  0.45566786718E+02 -0.30257940686E+03  0.22531447417E+03  0.37999849300E+03  0.12699999809E+01 0. -1.
</event>
<event>
 5   0  0.2458456E-03  0.1329824E+04  0.7818609E-02  0.9006243E-01
        1   -1    0    0  501    0  0.00000000000E+00  0.00000000000E+00  0.53913727356E+03  0.53913727358E+03  0.50400001928E-02 0.  1.
       -1   -1    0    0    0  501  0.00000000000E+00  0.00000000000E+00 -0.82002855725E+03  0.82002855727E+03  0.50400001928E-02 0. -1.
    10030    2    1    2    0    0  0.00000000000E+00  0.00000000000E+00 -0.28089128369E+03  0.13591658309E+04  0.13298239893E+04 0.  0.
        5    1    3    3  502    0  0.43559379624E+03 -0.12520373130E+03  0.35677368471E+03  0.57682534770E+03  0.46999998093E+01 0.  1.
       -5    1    3    3    0  502 -0.43559379624E+03  0.12520373130E+03 -0.63766496840E+03  0.78234048315E+03  0.46999998093E+01 0. -1.
</event>
<event>
 5   0  0.4306214E-03  0.1293017E+04  0.7818609E-02  0.9035121E-01
        2   -1    0    0  501    0  0.00000000000E+00  0.00000000000E+00  0.82455180908E+03  0.82455180908E+03  0.25500000920E-02 0. -1.
       -2   -1    0    0    0  501  0.00000000000E+00  0.00000000000E+00 -0.50690940001E+03  0.50690940001E+03  0.25500000920E-02 0.  1.
    10030    2    1    2    0    0  0.00000000000E+00  0.00000000000E+00  0.31764240907E+03  0.13314612091E+04  0.12930167251E+04 0.  0.
        3    1    3    3  502    0 -0.13401558492E+02 -0.34646398016E+03 -0.40307326057E+03  0.53168125311E+03  0.10100000352E+00 0.  1.
       -3    1    3    3    0  502  0.13401558492E+02  0.34646398016E+03  0.72071566965E+03  0.79977995599E+03  0.10100000352E+00 0. -1.
</event>
<event>
 5   0  0.4453011E-03  0.1297274E+04  0.7818609E-02  0.9031730E-01
       -2   -1    0    0    0  501  0.00000000000E+00  0.00000000000E+00  0.10702188759E+04  0.10702188759E+04  0.25500000920E-02 0. -1.
        2   -1    0    0  501    0  0.00000000000E+00  0.00000000000E+00 -0.39312508125E+03  0.39312508126E+03  0.25500000920E-02 0.  1.
    10030    2    1    2    0    0  0.00000000000E+00  0.00000000000E+00  0.67709379463E+03  0.14633439571E+04  0.12972738840E+04 0.  0.
        1    1    3    3  502    0  0.31450504969E+03  0.51158818235E+03  0.62024536542E+02  0.60372422327E+03  0.50400001928E-02 0.  1.
       -1    1    3    3    0  502 -0.31450504969E+03 -0.51158818235E+03  0.61506925809E+03  0.85961973388E+03  0.50400001928E-02 0. -1.
</event>
<event>
 5   0  0.2356769E-03  0.1119264E+04  0.7818609E-02  0.9186617E-01
       -1   -1    0    0    0  501  0.00000000000E+00  0.00000000000E+00  0.31526423432E+03  0.31526423436E+03  0.50400001928E-02 0.  1.
        1   -1    0    0  501    0  0.00000000000E+00  0.00000000000E+00 -0.99341348423E+03  0.99341348424E+03  0.50400001928E-02 0. -1.
    10030    2    1    2    0    0  0.00000000000E+00  0.00000000000E+00 -0.67814924991E+03  0.13086777186E+04  0.11192635820E+04 0.  0.
        1    1    3    3  502    0 -0.29683862482E+03  0.37759332179E+03 -0.32429425632E+01  0.48031281738E+03  0.50400001928E-02 0.  1.
       -1    1    3    3    0  502  0.29683862482E+03 -0.37759332179E+03 -0.67490630735E+03  0.82836490121E+03  0.50400001928E-02 0. -1.
</event>
<event>
 5   0  0.1661750E-03  0.1283414E+04  0.7818609E-02  0.9042822E-01
        3   -1    0    0  501    0  0.00000000000E+00  0.00000000000E+00  0.19718096284E+04  0.19718096310E+04  0.10100000352E+00 0. -1.
       -3   -1    0    0    0  501  0.00000000000E+00  0.00000000000E+00 -0.20883758471E+03  0.20883760914E+03  0.10100000352E+00 0.  1.
    10030    2    1    2    0    0  0.00000000000E+00  0.00000000000E+00  0.17629720437E+04  0.21806472401E+04  0.12834141806E+04 0.  0.
        5    1    3    3  502    0 -0.17617355326E+03  0.75890630755E+02 -0.15895266266E+03  0.24916770993E+03  0.46999998093E+01 0.  1.
       -5    1    3    3    0  502  0.17617355326E+03 -0.75890630755E+02  0.19219247064E+04  0.19314795302E+04  0.46999998093E+01 0. -1.
</event>
<event>
 5   0  0.2462055E-03  0.1193596E+04  0.7818609E-02  0.9118481E-01
        1   -1    0    0  501    0  0.00000000000E+00  0.00000000000E+00  0.35187596259E+03  0.35187596262E+03  0.50400001928E-02 0. -1.
       -1   -1    0    0    0  501  0.00000000000E+00  0.00000000000E+00 -0.10121966941E+04  0.10121966941E+04  0.50400001928E-02 0.  1.
    10030    2    1    2    0    0  0.00000000000E+00  0.00000000000E+00 -0.66032073151E+03  0.13640726567E+04  0.11935957207E+04 0.  0.
        2    1    3    3  502    0 -0.50964530853E+03 -0.31042451965E+03 -0.33944214064E+03  0.68652945295E+03  0.25500000920E-02 0.  1.
       -2    1    3    3    0  502  0.50964530853E+03  0.31042451965E+03 -0.32087859086E+03  0.67754320378E+03  0.25500000920E-02 0. -1.
</event>
<event>
 5   0  0.2511542E-03  0.1294685E+04  0.7818609E-02  0.9033791E-01
       -1   -1    0    0    0  501  0.00000000000E+00  0.00000000000E+00  0.36430249374E+03  0.36430249377E+03  0.50400001928E-02 0. -1.
        1   -1    0    0  501    0  0.00000000000E+00  0.00000000000E+00 -0.11502860904E+04  0.11502860904E+04  0.50400001928E-02 0.  1.
    10030    2    1    2    0    0  0.00000000000E+00  0.00000000000E+00 -0.78598359663E+03  0.15145885841E+04  0.12946846585E+04 0.  0.
        4    1    3    3  502    0 -0.22344940329E+03  0.38211144817E+03  0.15958396730E+03  0.47053953094E+03  0.12699999809E+01 0. -1.
       -4    1    3    3    0  502  0.22344940329E+03 -0.38211144817E+03 -0.94556756393E+03  0.10440490532E+04  0.12699999809E+01 0.  1.
</event>
<event>
 5   0  0.2511542E-03  0.1273860E+04  0.7818609E-02  0.9050555E-01
       -1   -1    0    0    0  501  0.00000000000E+00  0.00000000000E+00  0.21091209239E+03  0.21091209245E+03  0.50400001928E-02 0.  1.
        1   -1    0    0  501    0  0.00000000000E+00  0.00000000000E+00 -0.19234536270E+04  0.19234536270E+04  0.50400001928E-02 0. -1.
    10030    2    1    2    0    0  0.00000000000E+00  0.00000000000E+00 -0.17125415346E+04  0.21343657195E+04  0.12738596927E+04 0.  0.
        4    1    3    3  502    0 -0.29912831704E+03  0.52114757776E+03 -0.12101387687E+04  0.13511143550E+04  0.12699999809E+01 0.  1.
       -4    1    3    3    0  502  0.29912831704E+03 -0.52114757776E+03 -0.50240276597E+03  0.78325136451E+03  0.12699999809E+01 0. -1.
</event>
<event>
 5   0  0.2356769E-03  0.9099362E+03  0.7818609E-02  0.9413245E-01
        1   -1    0    0  501    0  0.00000000000E+00  0.00000000000E+00  0.13805772996E+04  0.13805772996E+04  0.50400001928E-02 0.  1.
       -1   -1    0    0    0  501  0.00000000000E+00  0.00000000000E+00 -0.14993436763E+03  0.14993436771E+03  0.50400001928E-02 0. -1.
    10030    2    1    2    0    0  0.00000000000E+00  0.00000000000E+00  0.12306429320E+04  0.15305116674E+04  0.90993622734E+03 0.  0.
        1    1    3    3  502    0  0.28868617605E+03  0.23938859184E+03  0.10485769989E+04  0.11136248600E+04  0.50400001928E-02 0. -1.
       -1    1    3    3    0  502 -0.28868617605E+03 -0.23938859184E+03  0.18206593313E+03  0.41688680739E+03  0.50400001928E-02 0.  1.
</event>
<event>
 5   0  0.4388937E-03  0.1389750E+04  0.7818609E-02  0.8961272E-01
       -2   -1    0    0    0  501  0.00000000000E+00  0.00000000000E+00  0.31329694780E+03  0.31329694781E+03  0.25500000920E-02 0. -1.
        2   -1    0    0  501    0  0.00000000000E+00  0.00000000000E+00 -0.15411937573E+04  0.15411937573E+04  0.25500000920E-02 0.  1.
    10030    2    1    2    0    0  0.00000000000E+00  0.00000000000E+00 -0.12278968095E+04  0.18544907052E+04  0.13897500497E+04 0.  0.
        5    1    3    3  502    0 -0.32842571636E+03  0.57682277034E+03 -0.33969227284E+03  0.74565467194E+03  0.46999998093E+01 0. -1.
       -5    1    3    3    0  502  0.32842571636E+03 -0.57682277034E+03 -0.88820453670E+03  0.11088360332E+04  0.46999998093E+01 0.  1.
</event>
<event>
 5   0  0.4263540E-03  0.1019856E+04  0.7818609E-02  0.9287031E-01
       -2   -1    0    0    0  501  0.00000000000E+00  0.00000000000E+00  0.27706452109E+03  0.27706452110E+03  0.25500000920E-02 0. -1.
        2   -1    0    0  501    0  0.00000000000E+00  0.00000000000E+00 -0.93850574008E+03  0.93850574008E+03  0.25500000920E-02 0.  1.
    10030    2    1    2    0    0  0.00000000000E+00  0.00000000000E+00 -0.66144121899E+03  0.12155702612E+04  0.10198561534E+04 0.  0.
        2    1    3    3  502    0 -0.23085079994E+03  0.42347067791E+03 -0.13339975949E+03  0.50041483064E+03  0.25500000920E-02 0.  1.
       -2    1    3    3    0  502  0.23085079994E+03 -0.42347067791E+03 -0.52804145950E+03  0.71515543055E+03  0.25500000920E-02 0. -1.
</event>
<event>
 5   0  0.2462055E-03  0.1308929E+04  0.7818609E-02  0.9022514E-01
        1   -1    0    0  501    0  0.00000000000E+00  0.00000000000E+00  0.11653065309E+04  0.11653065309E+04  0.50400001928E-02 0.  1.
       -1   -1    0    0    0  501  0.00000000000E+00  0.00000000000E+00 -0.36756324190E+03  0.36756324194E+03  0.50400001928E-02 0. -1.
    10030    2    1    2    0    0  0.00000000000E+00  0.00000000000E+00  0.79774328900E+03  0.15328697729E+04  0.13089290987E+04 0.  0.
        2    1    3    3  502    0 -0.49608978373E+02 -0.42894548582E+03 -0.17707049110E+03  0.46670037430E+03  0.25500000920E-02 0. -1.
       -2    1    3    3    0  502  0.49608978373E+02  0.42894548582E+03  0.97481378010E+03  0.10661693986E+04  0.25500000920E-02 0.  1.
</event>
<event>
 5   0  0.2356769E-03  0.1292914E+04  0.7818609E-02  0.9035203E-01
       -1   -1    0    0    0  501  0.00000000000E+00  0.00000000000E+00  0.46324943486E+03  0.46324943488E+03  0.50400001928E-02 0. -1.
        1   -1    0    0  501    0  0.00000000000E+00  0.00000000000E+00 -0.90212076037E+03  0.90212076038E+03  0.50400001928E-02 0.  1.
    10030    2    1    2    0    0  0.00000000000E+00  0.00000000000E+00 -0.43887132551E+03  0.13653701953E+04  0.12929144325E+04 0.  0.
        1    1    3    3  502    0 -0.30204682498E+03  0.75067514747E+02 -0.81779198077E+03  0.87501493706E+03  0.50400001928E-02 0.  1.
       -1    1    3    3    0  502  0.30204682498E+03 -0.75067514747E+02  0.37892065525E+03  0.49035525821E+03  0.50400001928E-02 0. -1.
</event>
<event>
 5   0  0.2370801E-03  0.1118302E+04  0.7818609E-02  0.9187535E-01
       -1   -1    0    0    0  501  0.00000000000E+00  0.00000000000E+00  0.52989280170E+03  0.52989280172E+03  0.50400001928E-02 0. -1.
        1   -1    0    0  501    0  0.00000000000E+00  0.00000000000E+00 -0.59002423879E+03  0.59002423881E+03  0.50400001928E-02 0.  1.
    10030    2    1    2    0    0  0.00000000000E+00  0.00000000000E+00 -0.60131437088E+02  0.11199170405E+04  0.11183015640E+04 0.  0.
        3    1    3    3  502    0 -0.10798641480E+03  0.75556058555E+02 -0.57424724163E+03  0.58917712828E+03  0.10100000352E+00 0.  1.
       -3    1    3    3    0  502  0.10798641480E+03 -0.75556058555E+02  0.51411580455E+03  0.53073991225E+03  0.10100000352E+00 0. -1.
</event>
<event>
 5   0  0.2356769E-03  0.1317050E+04  0.7818609E-02  0.9016153E-01
       -1   -1    0    0    0  501  0.00000000000E+00  0.00000000000E+00  0.88470825822E+03  0.88470825824E+03  0.50400001928E-02 0. -1.
        1   -1    0    0  501    0  0.00000000000E+00  0.00000000000E+00 -0.49016741892E+03  0.49016741894E+03  0.50400001928E-02 0.  1.
    10030    2    1    2    0    0  0.00000000000E+00  0.00000000000E+00  0.39454083931E+03  0.13748756772E+04  0.13170499815E+04 0.  0.
        1    1    3    3  502    0  0.32538136395E+03  0.41651407265E+03 -0.21278404435E+03  0.56976666652E+03  0.50400001928E-02 0.  1.
       -1    1    3    3    0  502 -0.32538136395E+03 -0.41651407265E+03  0.60732488366E+03  0.80510901067E+03  0.50400001928E-02 0. -1.
</event>
<event>
 5   0  0.2511542E-03  0.1369238E+04  0.7818609E-02  0.8976392E-01
        1   -1    0    0  501    0  0.00000000000E+00  0.00000000000E+00  0.80144714503E+03  0.80144714505E+03  0.50400001928E-02 0.  1.
       -1   -1    0    0    0  501  0.00000000000E+00  0.00000000000E+00 -0.58482074265E+03  0.58482074267E+03  0.50400001928E-02 0. -1.
    10030    2    1    2    0    0  0.00000000000E+00  0.00000000000E+00  0.21662640238E+03  0.13862678877E+04  0.13692376194E+04 0.  0.
        4    1    3    3  502    0  0.31370841929E+03  0.58773184421E+03 -0.51317155516E+02  0.66818916213E+03  0.12699999809E+01 0. -1.
       -4    1    3    3    0  502 -0.31370841929E+03 -0.58773184421E+03  0.26794355790E+03  0.71807872560E+03  0.12699999809E+01 0.  1.
</event>
<event>
 5   0  0.2511542E-03  0.1151962E+04  0.7818609E-02  0.9155976E-01
       -1   -1    0    0    0  501  0.00000000000E+00  0.00000000000E+00  0.28277727178E+03  0.28277727182E+03  0.50400001928E-02 0.  1.
        1   -1    0    0  501    0  0.00000000000E+00  0.00000000000E+00 -0.11731988435E+04  0.11731988435E+04  0.50400001928E-02 0. -1.
    10030    2    1    2    0    0  0.00000000000E+00  0.00000000000E+00 -0.89042157168E+03  0.14559761153E+04  0.11519617498E+04 0.  0.
        4    1    3    3  502    0 -0.31508335527E+02  0.51131597301E+03 -0.77797111637E+03  0.93149206667E+03  0.12699999809E+01 0. -1.
       -4    1    3    3    0  502  0.31508335527E+02 -0.51131597301E+03 -0.11245045531E+03  0.52448404863E+03  0.12699999809E+01 0.  1.
</event>
<event>
 5   0  0.2370801E-03  0.1312447E+04  0.7818609E-02  0.9019752E-01
       -1   -1    0    0    0  501  0.00000000000E+00  0.00000000000E+00  0.34306523418E+03  0.34306523422E+03  0.50400001928E-02 0. -1.
        1   -1    0    0  501    0  0.00000000000E+00  0.00000000000E+00 -0.12552402424E+04  0.12552402424E+04  0.50400001928E-02 0.  1.
    10030    2    1    2    0    0  0.00000000000E+00  0.00000000000E+00 -0.91217500822E+03  0.15983054766E+04  0.13124470088E+04 0.  0.
        3    1    3    3  502    0  0.32002717906E+03 -0.57226165830E+03 -0.48895645406E+03  0.81791150197E+03  0.10100000352E+00 0.  1.
       -3    1    3    3    0  502 -0.32002717906E+03  0.57226165830E+03 -0.42321855417E+03  0.78039397466E+03  0.10100000352E+00 0. -1.
</event>
<event>
 5   0  0.4263540E-03  0.9538304E+03  0.7818609E-02  0.9360685E-01
        2   -1    0    0  501    0  0.00000000000E+00  0.00000000000E+00  0.83089249535E+03  0.83089249535E+03  0.25500000920E-02 0.  1.
       -2   -1    0    0    0  501  0.00000000000E+00  0.00000000000E+00 -0.27373949124E+03  0.27373949126E+03  0.25500000920E-02 0. -1.
    10030    2    1    2    0    0  0.00000000000E+00  0.00000000000E+00  0.55715300411E+03  0.11046319866E+04  0.95383036010E+03 0.  0.
        2    1    3    3  502    0 -0.45054957499E+03 -0.10788571721E+03  0.14748149652E+03  0.48619444600E+03  0.25500000920E-02 0. -1.
       -2    1    3    3    0  502  0.45054957499E+03  0.10788571721E+03  0.40967150759E+03  0.61843754061E+03  0.25500000920E-02 0.  1.
</event>
<event>
 5   0  0.2458456E-03  0.1360079E+04  0.7818609E-02  0.8983233E-01
        1   -1    0    0  501    0  0.00000000000E+00  0.00000000000E+00  0.80384974530E+03  0.80384974532E+03  0.50400001928E-02 0. -1.
       -1   -1    0    0    0  501  0.00000000000E+00  0.00000000000E+00 -0.57529870309E+03  0.57529870311E+03  0.50400001928E-02 0.  1.
    10030    2    1    2    0    0  0.00000000000E+00  0.00000000000E+00  0.22855104221E+03  0.13791484484E+04  0.13600789918E+04 0.  0.
        5    1    3    3  502    0  0.42274501298E+03  0.11994398915E+03  0.64052373471E+03  0.77678352921E+03  0.46999998093E+01 0. -1.
       -5    1    3    3    0  502 -0.42274501298E+03 -0.11994398915E+03 -0.41197269250E+03  0.60236491921E+03  0.46999998093E+01 0.  1.
</event>
<event>
 5   0  0.4453011E-03  0.1309003E+04  0.7818609E-02  0.9022456E-01
        2   -1    0    0  501    0  0.00000000000E+00  0.00000000000E+00  0.58047196920E+03  0.58047196920E+03  0.25500000920E-02 0. -1.
       -2   -1    0    0    0  501  0.00000000000E+00  0.00000000000E+00 -0.73797281638E+03  0.73797281638E+03  0.25500000920E-02 0.  1.
    10030    2    1    2    0    0  0.00000000000E+00  0.00000000000E+00 -0.15750084718E+03  0.13184447856E+04  0.13090034896E+04 0.  0.
        1    1    3    3  502    0 -0.83573799252E+02 -0.51265940844E+03  0.32232800717E+03  0.61130973591E+03  0.50400001928E-02 0. -1.
       -1    1    3    3    0  502  0.83573799252E+02  0.51265940844E+03 -0.47982885435E+03  0.70713504967E+03  0.50400001928E-02 0.  1.
</event>
<event>
 5   0  0.2370801E-03  0.1255420E+04  0.7818609E-02  0.9065684E-01
        1   -1    0    0  501    0  0.00000000000E+00  0.00000000000E+00  0.13010893111E+04  0.13010893111E+04  0.50400001928E-02 0. -1.
       -1   -1    0    0    0  501  0.00000000000E+00  0.00000000000E+00 -0.30283850433E+03  0.30283850437E+03  0.50400001928E-02 0.  1.
    10030    2    1    2    0    0  0.00000000000E+00  0.00000000000E+00  0.99825080680E+03  0.16039278155E+04  0.12554201544E+04 0.  0.
        3    1    3    3  502    0 -0.14209146385E+03 -0.57009166265E+03  0.21682024209E+03  0.62626313599E+03  0.10100000352E+00 0. -1.
       -3    1    3    3    0  502  0.14209146385E+03  0.57009166265E+03  0.78143056471E+03  0.97766467952E+03  0.10100000352E+00 0.  1.
</event>
<event>
 5   0  0.4453011E-03  0.1277703E+04  0.7818609E-02  0.9047436E-01
       -2   -1    0    0    0  501  0.00000000000E+00  0.00000000000E+00  0.42271639390E+03  0.42271639391E+03  0.25500000920E-02 0.  1.
        2   -1    0    0  501    0  0.00000000000E+00  0.00000000000E+00 -0.96549646034E+03  0.96549646034E+03  0.25500000920E-02 0. -1.
    10030    2    1    2    0    0  0.00000000000E+00  0.00000000000E+00 -0.54278006644E+03  0.13882128542E+04  0.12777029108E+04 0.  0.
        1    1    3    3  502    0 -0.52652261166E+03 -0.29323432580E+03 -0.41118625397E+02  0.60407215777E+03  0.50400001928E-02 0.  1.
       -1    1    3    3    0  502  0.52652261166E+03  0.29323432580E+03 -0.50166144104E+03  0.78414069647E+03  0.50400001928E-02 0. -1.
</event>
<event>
 5   0  0.2356769E-03  0.1280374E+04  0.7818609E-02  0.9045275E-01
        1   -1    0    0  501    0  0.00000000000E+00  0.00000000000E+00  0.10916334934E+04  0.10916334934E+04  0.50400001928E-02 0.  1.
       -1   -1    0    0    0  501  0.00000000000E+00  0.00000000000E+00 -0.37543671884E+03  0.37543671887E+03  0.50400001928E-02 0. -1.
    10030    2    1    2    0    0  0.00000000000E+00  0.00000000000E+00  0.71619677454E+03  0.14670702123E+04  0.12803738469E+04 0.  0.
        1    1    3    3  502    0 -0.37456336463E+02 -0.10220390623E+03 -0.36475555902E+03  0.38065106522E+03  0.50400001928E-02 0. -1.
       -1    1    3    3    0  502  0.37456336463E+02  0.10220390623E+03  0.10809523336E+04  0.10864191470E+04  0.50400001928E-02 0.  1.
</event>
<event>
 5   0  0.4388937E-03  0.1256192E+04  0.7818609E-02  0.9065045E-01
       -2   -1    0    0    0  501  0.00000000000E+00  0.00000000000E+00  0.44554864347E+03  0.44554864348E+03  0.25500000920E-02 0.  1.
        2   -1    0    0  501    0  0.00000000000E+00  0.00000000000E+00 -0.88543527367E+03  0.88543527367E+03  0.25500000920E-02 0. -1.
    10030    2    1    2    0    0  0.00000000000E+00  0.00000000000E+00 -0.43988663019E+03  0.13309839171E+04  0.12561918406E+04 0.  0.
        5    1    3    3  502    0  0.32070791613E+02  0.60721539424E+03 -0.38660887440E+03  0.72057448084E+03  0.46999998093E+01 0.  1.
       -5    1    3    3    0  502 -0.32070791613E+02 -0.60721539424E+03 -0.53277755794E+02  0.61040943631E+03  0.46999998093E+01 0. -1.
</event>
<event>
 5   0  0.2462055E-03  0.1295589E+04  0.7818609E-02  0.9033071E-01
       -1   -1    0    0    0  501  0.00000000000E+00  0.00000000000E+00  0.38218192632E+03  0.38218192636E+03  0.50400001928E-02 0.  1.
        1   -1    0    0  501    0  0.00000000000E+00  0.00000000000E+00 -0.10980048145E+04  0.10980048145E+04  0.50400001928E-02 0. -1.
    10030    2    1    2    0    0  0.00000000000E+00  0.00000000000E+00 -0.71582288818E+03  0.14801867409E+04  0.12955888162E+04 0.  0.
        2    1    3    3  502    0  0.11981143473E+03  0.56385519795E+03 -0.20250290783E+02  0.57679939184E+03  0.25500000920E-02 0.  1.
       -2    1    3    3    0  502 -0.11981143473E+03 -0.56385519795E+03 -0.69557259740E+03  0.90338734904E+03  0.25500000920E-02 0. -1.
</event>
<event>
 5   0  0.4306214E-03  0.1336817E+04  0.7818609E-02  0.9000868E-01
        2   -1    0    0  501    0  0.00000000000E+00  0.00000000000E+00  0.58347033247E+03  0.58347033247E+03  0.25500000920E-02 0.  1.
       -2   -1    0    0    0  501  0.00000000000E+00  0.00000000000E+00 -0.76571138952E+03  0.76571138953E+03  0.25500000920E-02 0. -1.
    10030    2    1    2    0    0  0.00000000000E+00  0.00000000000E+00 -0.18224105706E+03  0.13491817220E+04  0.13368169344E+04 0.  0.
        3    1    3    3  502    0  0.48736701286E+03  0.61666422838E+02  0.36632728804E+03  0.61280098327E+03  0.10100000352E+00 0.  1.
       -3    1    3    3    0  502 -0.48736701286E+03 -0.61666422838E+02 -0.54856834510E+03  0.73638073873E+03  0.10100000352E+00 0. -1.
</event>
<event>
 5   0  0.4263540E-03  0.1189068E+04  0.7818609E-02  0.9122480E-01
       -2   -1    0    0    0  501  0.00000000000E+00  0.00000000000E+00  0.12966259105E+03  0.12966259107E+03  0.25500000920E-02 0. -1.
        2   -1    0    0  501    0  0.00000000000E+00  0.00000000000E+00 -0.27260800082E+04  0.27260800082E+04  0.25500000920E-02 0.  1.
    10030    2    1    2    0    0  0.00000000000E+00  0.00000000000E+00 -0.25964174172E+04  0.28557425993E+04  0.11890678657E+04 0.  0.
        2    1    3    3  502    0 -0.18246718556E+02  0.13031967483E+03  0.94248447339E+02  0.16186083596E+03  0.25500000920E-02 0. -1.
       -2    1    3    3    0  502  0.18246718556E+02 -0.13031967483E+03 -0.26906658645E+04  0.26938817633E+04  0.25500000920E-02 0.  1.
</event>
<event>
 5   0  0.1661750E-03  0.1301135E+04  0.7818609E-02  0.9028666E-01
       -4   -1    0    0    0  501  0.00000000000E+00  0.00000000000E+00  0.49716433148E+03  0.49716595358E+03  0.12699999809E+01 0. -1.
        4   -1    0    0  501    0  0.00000000000E+00  0.00000000000E+00 -0.85130029381E+03  0.85130124113E+03  0.12699999809E+01 0.  1.
    10030    2    1    2    0    0  0.00000000000E+00  0.00000000000E+00 -0.35413596233E+03  0.13484671947E+04  0.13011346953E+04 0.  0.
        3    1    3    3  502    0  0.53149588147E+03  0.89850925716E+02 -0.55456682556E+03  0.77337276593E+03  0.10100000352E+00 0.  1.
       -3    1    3    3    0  502 -0.53149588147E+03 -0.89850925716E+02  0.20043086323E+03  0.57509442878E+03  0.10100000352E+00 0. -1.
</event>
<event>
 5   0  0.4388937E-03  0.1129235E+04  0.7818609E-02  0.9177156E-01
        2   -1    0    0  501    0  0.00000000000E+00  0.00000000000E+00  0.37484894280E+03  0.37484894280E+03  0.25500000920E-02 0. -1.
       -2   -1    0    0    0  501  0.00000000000E+00  0.00000000000E+00 -0.85045760516E+03  0.85045760517E+03  0.25500000920E-02 0.  1.
    10030    2    1    2    0    0  0.00000000000E+00  0.00000000000E+00 -0.47560866237E+03  0.12253065480E+04  0.11292353771E+04 0.  0.
        5    1    3    3  502    0  0.18931094486E+03 -0.56945266146E+02 -0.81165444799E+03  0.83539597205E+03  0.46999998093E+01 0.  1.
       -5    1    3    3    0  502 -0.18931094486E+03  0.56945266146E+02  0.33604578562E+03  0.38991057592E+03  0.46999998093E+01 0. -1.
</event>
<event>
 5   0  0.4388937E-03  0.1315592E+04  0.7818609E-02  0.9017291E-01
        2   -1    0    0  501    0  0.00000000000E+00  0.00000000000E+00  0.98442901330E+03  0.98442901330E+03  0.25500000920E-02 0.  1.
       -2   -1    0    0    0  501  0.00000000000E+00  0.00000000000E+00 -0.43953975462E+03  0.43953975463E+03  0.25500000920E-02 0. -1.
    10030    2    1    2    0    0  0.00000000000E+00  0.00000000000E+00  0.54488925868E+03  0.14239687679E+04  0.13155921662E+04 0.  0.
        5    1    3    3  502    0  0.32969234109E+03  0.55551705288E+03  0.40666551254E+03  0.76334472219E+03  0.46999998093E+01 0. -1.
       -5    1    3    3    0  502 -0.32969234109E+03 -0.55551705288E+03  0.13822374614E+03  0.66062404574E+03  0.46999998093E+01 0.  1.
</event>
<event>
 5   0  0.4306214E-03  0.1205966E+04  0.7818609E-02  0.9107651E-01
        2   -1    0    0  501    0  0.00000000000E+00  0.00000000000E+00  0.83981593963E+03  0.83981593964E+03  0.25500000920E-02 0. -1.
       -2   -1    0    0    0  501  0.00000000000E+00  0.00000000000E+00 -0.43293827999E+03  0.43293828000E+03  0.25500000920E-02 0.  1.
    10030    2    1    2    0    0  0.00000000000E+00  0.00000000000E+00  0.40687765964E+03  0.12727542196E+04  0.12059659505E+04 0.  0.
        3    1    3    3  502    0  0.39658902396E+03  0.42658983818E+03  0.38830720573E+02  0.58375472506E+03  0.10100000352E+00 0. -1.
       -3    1    3    3    0  502 -0.39658902396E+03 -0.42658983818E+03  0.36804693907E+03  0.68899949458E+03  0.10100000352E+00 0.  1.
</event>
<event>
 5   0  0.4453011E-03  0.1285281E+04  0.7818609E-02  0.9041319E-01
        2   -1    0    0  501    0  0.00000000000E+00  0.00000000000E+00  0.63777466775E+03  0.63777466775E+03  0.25500000920E-02 0. -1.
       -2   -1    0    0    0  501  0.00000000000E+00  0.00000000000E+00 -0.64754363344E+03  0.64754363345E+03  0.25500000920E-02 0.  1.
    10030    2    1    2    0    0  0.00000000000E+00  0.00000000000E+00 -0.97689656922E+01  0.12853183012E+04  0.12852811765E+04 0.  0.
        1    1    3    3  502    0 -0.63093801879E+03  0.58693784578E+01 -0.12682935363E+03  0.64358598348E+03  0.50400001928E-02 0.  1.
       -1    1    3    3    0  502  0.63093801879E+03 -0.58693784578E+01  0.11706038793E+03  0.64173231772E+03  0.50400001928E-02 0. -1.
</event>
<event>
 5   0  0.2458456E-03  0.1325668E+04  0.7818609E-02  0.9009455E-01
        1   -1    0    0  501    0  0.00000000000E+00  0.00000000000E+00  0.10681464900E+04  0.10681464900E+04  0.50400001928E-02 0.  1.
       -1   -1    0    0    0  501  0.00000000000E+00  0.00000000000E+00 -0.41131871958E+03  0.41131871961E+03  0.50400001928E-02 0. -1.
    10030    2    1    2    0    0  0.00000000000E+00  0.00000000000E+00  0.65682777044E+03  0.14794652096E+04  0.13256676003E+04 0.  0.
        5    1    3    3  502    0 -0.50562563463E+02  0.63268777341E+03  0.54155866552E+03  0.83436099480E+03  0.46999998093E+01 0.  1.
       -5    1    3    3    0  502  0.50562563463E+02 -0.63268777341E+03  0.11526910492E+03  0.64510421484E+03  0.46999998093E+01 0. -1.
</event>
<event>
 5   0  0.2356769E-03  0.1296212E+04  0.7818609E-02  0.9032575E-01
       -1   -1    0    0    0  501  0.00000000000E+00  0.00000000000E+00  0.24492781148E+03  0.24492781153E+03  0.50400001928E-02 0. -1.
        1   -1    0    0  501    0  0.00000000000E+00  0.00000000000E+00 -0.17149592933E+04  0.17149592933E+04  0.50400001928E-02 0.  1.
    10030    2    1    2    0    0  0.00000000000E+00  0.00000000000E+00 -0.14700314818E+04  0.19598871049E+04  0.12962117521E+04 0.  0.
        1    1    3    3  502    0 -0.45463113134E+01  0.13409924757E+03  0.22369727900E+03  0.26085196913E+03  0.50400001928E-02 0. -1.
       -1    1    3    3    0  502  0.45463113134E+01 -0.13409924757E+03 -0.16937287608E+04  0.16990351357E+04  0.50400001928E-02 0.  1.
</event>
<event>
 5   0  0.1661750E-03  0.1289000E+04  0.7818609E-02  0.9038334E-01
        3   -1    0    0  501    0  0.00000000000E+00  0.00000000000E+00  0.28146873048E+03  0.28146874860E+03  0.10100000352E+00 0. -1.
       -3   -1    0    0    0  501  0.00000000000E+00  0.00000000000E+00 -0.14757605451E+04  0.14757605486E+04  0.10100000352E+00 0.  1.
    10030    2    1    2    0    0  0.00000000000E+00  0.00000000000E+00 -0.11942918146E+04  0.17572292971E+04  0.12890003353E+04 0.  0.
        3    1    3    3  502    0 -0.42032236558E+03  0.41834162921E+03 -0.94121415585E+03  0.11124588564E+04  0.10100000352E+00 0.  1.
       -3    1    3    3    0  502  0.42032236558E+03 -0.41834162921E+03 -0.25307765877E+03  0.64477044078E+03  0.10100000352E+00 0. -1.
</event>
<event>
 5   0  0.4263540E-03  0.1269456E+04  0.7818609E-02  0.9054143E-01
       -2   -1    0    0    0  501  0.00000000000E+00  0.00000000000E+00  0.35820255602E+03  0.35820255603E+03  0.25500000920E-02 0.  1.
        2   -1    0    0  501    0  0.00000000000E+00  0.00000000000E+00 -0.11247265111E+04  0.11247265111E+04  0.25500000920E-02 0. -1.
    10030    2    1    2    0    0  0.00000000000E+00  0.00000000000E+00 -0.76652395509E+03  0.14829290671E+04  0.12694564366E+04 0.  0.
        2    1    3    3  502    0  0.52624919708E+03 -0.29324352656E+03 -0.14977612253E+03  0.62077602256E+03  0.25500000920E-02 0.  1.
       -2    1    3    3    0  502 -0.52624919708E+03  0.29324352656E+03 -0.61674783255E+03  0.86215304457E+03  0.25500000920E-02 0. -1.
</event>
<event>
 5   0  0.2462055E-03  0.1292000E+04  0.7818609E-02  0.9035933E-01
       -1   -1    0    0    0  501  0.00000000000E+00  0.00000000000E+00  0.94831856777E+03  0.94831856778E+03  0.50400001928E-02 0. -1.
        1   -1    0    0  501    0  0.00000000000E+00  0.00000000000E+00 -0.44005899530E+03  0.44005899533E+03  0.50400001928E-02 0.  1.
    10030    2    1    2    0    0  0.00000000000E+00  0.00000000000E+00  0.50825957247E+03  0.13883775631E+04  0.12920001799E+04 0.  0.
        2    1    3    3  502    0 -0.40149469730E+03  0.26848975189E+03 -0.20685962593E+03  0.52542900917E+03  0.25500000920E-02 0.  1.
       -2    1    3    3    0  502  0.40149469730E+03 -0.26848975189E+03  0.71511919840E+03  0.86294855394E+03  0.25500000920E-02 0. -1.
</event>
<event>
 5   0  0.4453011E-03  0.1307215E+04  0.7818609E-02  0.9023863E-01
        2   -1    0    0  501    0  0.00000000000E+00  0.00000000000E+00  0.26305594008E+03  0.26305594010E+03  0.25500000920E-02 0. -1.
       -2   -1    0    0    0  501  0.00000000000E+00  0.00000000000E+00 -0.16239988756E+04  0.16239988756E+04  0.25500000920E-02 0.  1.
    10030    2    1    2    0    0  0.00000000000E+00  0.00000000000E+00 -0.13609429355E+04  0.18870548157E+04  0.13072146739E+04 0.  0.
        1    1    3    3  502    0  0.15884863959E+02  0.36176223564E+03 -0.14659618935E+04  0.15100226877E+04  0.50400001928E-02 0.  1.
       -1    1    3    3    0  502 -0.15884863959E+02 -0.36176223564E+03  0.10501895796E+03  0.37703212806E+03  0.50400001928E-02 0. -1.
</event>
<event>
 5   0  0.4388937E-03  0.1304703E+04  0.7818609E-02  0.9025844E-01
       -2   -1    0    0    0  501  0.00000000000E+00  0.00000000000E+00  0.25337995838E+03  0.25337995839E+03  0.25500000920E-02 0. -1.
        2   -1    0    0  501    0  0.00000000000E+00  0.00000000000E+00 -0.16795417800E+04  0.16795417800E+04  0.25500000920E-02 0.  1.
    10030    2    1    2    0    0  0.00000000000E+00  0.00000000000E+00 -0.14261618216E+04  0.19329217384E+04  0.13047026118E+04 0.  0.
        5    1    3    3  502    0  0.31181354239E+03  0.57290276712E+03 -0.72751097978E+03  0.97710776349E+03  0.46999998093E+01 0.  1.
       -5    1    3    3    0  502 -0.31181354239E+03 -0.57290276712E+03 -0.69865084182E+03  0.95581397487E+03  0.46999998093E+01 0. -1.
</event>
<event>
 5   0  0.1661750E-03  0.1285808E+04  0.7818609E-02  0.9040896E-01
       -3   -1    0    0    0  501  0.00000000000E+00  0.00000000000E+00  0.11935696633E+04  0.11935696676E+04  0.10100000352E+00 0.  1.
        3   -1    0    0  501    0  0.00000000000E+00  0.00000000000E+00 -0.34629355764E+03  0.34629357237E+03  0.10100000352E+00 0. -1.
    10030    2    1    2    0    0  0.00000000000E+00  0.00000000000E+00  0.84727610570E+03  0.15398632400E+04  0.12858079167E+04 0.  0.
        3    1    3    3  502    0 -0.44367745698E+03 -0.34309683710E+03  0.79999279887E+03  0.97701259659E+03  0.10100000352E+00 0.  1.
       -3    1    3    3    0  502  0.44367745698E+03  0.34309683710E+03  0.47283306836E+02  0.56285064339E+03  0.10100000352E+00 0. -1.
</event>
<event>
 5   0  0.2370801E-03  0.1302757E+04  0.7818609E-02  0.9027382E-01
       -1   -1    0    0    0  501  0.00000000000E+00  0.00000000000E+00  0.40575172792E+03  0.40575172795E+03  0.50400001928E-02 0.  1.
        1   -1    0    0  501    0  0.00000000000E+00  0.00000000000E+00 -0.10456985430E+04  0.10456985430E+04  0.50400001928E-02 0. -1.
    10030    2    1    2    0    0  0.00000000000E+00  0.00000000000E+00 -0.63994681510E+03  0.14514502710E+04  0.13027570622E+04 0.  0.
        3    1    3    3  502    0 -0.14644107296E+03  0.18891509421E+03  0.35512401905E+03  0.42807356818E+03  0.10100000352E+00 0.  1.
       -3    1    3    3    0  502  0.14644107296E+03 -0.18891509421E+03 -0.99507083415E+03  0.10233767028E+04  0.10100000352E+00 0. -1.
</event>
<event>
 5   0  0.2458456E-03  0.1345928E+04  0.7818609E-02  0.8993916E-01
       -1   -1    0    0    0  501  0.00000000000E+00  0.00000000000E+00  0.13083623143E+04  0.13083623143E+04  0.50400001928E-02 0. -1.
        1   -1    0    0  501    0  0.00000000000E+00  0.00000000000E+00 -0.34614296096E+03  0.34614296099E+03  0.50400001928E-02 0.  1.
    10030    2    1    2    0    0  0.00000000000E+00  0.00000000000E+00  0.96221935330E+03  0.16545052753E+04  0.13459277923E+04 0.  0.
        5    1    3    3  502    0 -0.44391412623E+03  0.14473271544E+03  0.10768302609E+04  0.11737089977E+04  0.46999998093E+01 0. -1.
       -5    1    3    3    0  502  0.44391412623E+03 -0.14473271544E+03 -0.11461090764E+03  0.48079627757E+03  0.46999998093E+01 0.  1.
</event>
<event>
 5   0  0.4453011E-03  0.1285577E+04  0.7818609E-02  0.9041081E-01
       -2   -1    0    0    0  501  0.00000000000E+00  0.00000000000E+00  0.12362013862E+04  0.12362013862E+04  0.25500000920E-02 0.  1.
        2   -1    0    0  501    0  0.00000000000E+00  0.00000000000E+00 -0.33423138958E+03  0.33423138959E+03  0.25500000920E-02 0. -1.
    10030    2    1    2    0    0  0.00000000000E+00  0.00000000000E+00  0.90196999665E+03  0.15704327758E+04  0.12855773911E+04 0.  0.
        1    1    3    3  502    0 -0.25568315029E+03 -0.40652141887E+03  0.97290583084E+03  0.10849789367E+04  0.50400001928E-02 0.  1.
       -1    1    3    3    0  502  0.25568315029E+03  0.40652141887E+03 -0.70935834191E+02  0.48545383914E+03  0.50400001928E-02 0. -1.
</event>
<event>
 5   0  0.4310889E-03  0.1382111E+04  0.7818609E-02  0.8966870E-01
        2   -1    0    0  501    0  0.00000000000E+00  0.00000000000E+00  0.12286070689E+04  0.12286070689E+04  0.25500000920E-02 0.  1.
       -2   -1    0    0    0  501  0.00000000000E+00  0.00000000000E+00 -0.38869849527E+03  0.38869849528E+03  0.25500000920E-02 0. -1.
    10030    2    1    2    0    0  0.00000000000E+00  0.00000000000E+00  0.83990857367E+03  0.16173055642E+04  0.13821110216E+04 0.  0.
        4    1    3    3  502    0  0.48439673049E+03  0.21911099444E+03 -0.96654838328E+02  0.54036431328E+03  0.12699999809E+01 0. -1.
       -4    1    3    3    0  502 -0.48439673049E+03 -0.21911099444E+03  0.93656341200E+03  0.10769412509E+04  0.12699999809E+01 0.  1.
</event>
<event>
 5   0  0.1661750E-03  0.1304950E+04  0.7818609E-02  0.9025649E-01
        4   -1    0    0  501    0  0.00000000000E+00  0.00000000000E+00  0.45936757778E+03  0.45936933334E+03  0.12699999809E+01 0. -1.
       -4   -1    0    0    0  501  0.00000000000E+00  0.00000000000E+00 -0.92675563048E+03  0.92675650067E+03  0.12699999809E+01 0.  1.
    10030    2    1    2    0    0  0.00000000000E+00  0.00000000000E+00 -0.46738805270E+03  0.13861258340E+04  0.13049495147E+04 0.  0.
        1    1    3    3  502    0 -0.19191260160E+03  0.17054968841E+03 -0.87084587375E+03  0.90790427839E+03  0.50400001928E-02 0.  1.
       -1    1    3    3    0  502  0.19191260160E+03 -0.17054968841E+03  0.40345782105E+03  0.47822155562E+03  0.50400001928E-02 0. -1.
</event>
<event>
 5   0  0.2511542E-03  0.1317932E+04  0.7818609E-02  0.9015464E-01
        1   -1    0    0  501    0  0.00000000000E+00  0.00000000000E+00  0.55183198172E+03  0.55183198175E+03  0.50400001928E-02 0.  1.
       -1   -1    0    0    0  501  0.00000000000E+00  0.00000000000E+00 -0.78689981889E+03  0.78689981890E+03  0.50400001928E-02 0. -1.
    10030    2    1    2    0    0  0.00000000000E+00  0.00000000000E+00 -0.23506783716E+03  0.13387318006E+04  0.13179324512E+04 0.  0.
        4    1    3    3  502    0 -0.54908495091E+03 -0.24371826657E+03 -0.39262517901E+03  0.71766915836E+03  0.12699999809E+01 0. -1.
       -4    1    3    3    0  502  0.54908495091E+03  0.24371826657E+03  0.15755734184E+03  0.62106264229E+03  0.12699999809E+01 0.  1.
</event>
<event>
 5   0  0.4306214E-03  0.1300543E+04  0.7818609E-02  0.9029135E-01
        2   -1    0    0  501    0  0.00000000000E+00  0.00000000000E+00  0.13831021217E+04  0.13831021217E+04  0.25500000920E-02 0.  1.
       -2   -1    0    0    0  501  0.00000000000E+00  0.00000000000E+00 -0.30572789490E+03  0.30572789491E+03  0.25500000920E-02 0. -1.
    10030    2    1    2    0    0  0.00000000000E+00  0.00000000000E+00  0.10773742268E+04  0.16888300166E+04  0.13005428099E+04 0.  0.
        3    1    3    3  502    0 -0.99402258795E+02  0.30693721288E+03  0.12718395886E+04  0.13121231692E+04  0.10100000352E+00 0.  1.
       -3    1    3    3    0  502  0.99402258795E+02 -0.30693721288E+03 -0.19446536187E+03  0.37670684739E+03  0.10100000352E+00 0. -1.
</event>
<event>
 5   0  0.2356769E-03  0.1350905E+04  0.7818609E-02  0.8990144E-01
        1   -1    0    0  501    0  0.00000000000E+00  0.00000000000E+00  0.88616107170E+03  0.88616107171E+03  0.50400001928E-02 0. -1.
       -1   -1    0    0    0  501  0.00000000000E+00  0.00000000000E+00 -0.51484517433E+03  0.51484517435E+03  0.50400001928E-02 0.  1.
    10030    2    1    2    0    0  0.00000000000E+00  0.00000000000E+00  0.37131589737E+03  0.14010062461E+04  0.13509045140E+04 0.  0.
        1    1    3    3  502    0 -0.51019194408E+03 -0.83839408971E+02 -0.26510053583E+03  0.58103628150E+03  0.50400001928E-02 0.  1.
       -1    1    3    3    0  502  0.51019194408E+03  0.83839408971E+02  0.63641643321E+03  0.81996996456E+03  0.50400001928E-02 0. -1.
</event>
<event>
 5   0  0.4388937E-03  0.1286640E+04  0.7818609E-02  0.9040227E-01
       -2   -1    0    0    0  501  0.00000000000E+00  0.00000000000E+00  0.52774132306E+03  0.52774132307E+03  0.25500000920E-02 0. -1.
        2   -1    0    0  501    0  0.00000000000E+00  0.00000000000E+00 -0.78421126879E+03  0.78421126880E+03  0.25500000920E-02 0.  1.
    10030    2    1    2    0    0  0.00000000000E+00  0.00000000000E+00 -0.25646994573E+03  0.13119525919E+04  0.12866401091E+04 0.  0.
        5    1    3    3  502    0  0.21536305333E+02 -0.42434836423E+03 -0.62075223426E+03  0.75225711895E+03  0.46999998093E+01 0.  1.
       -5    1    3    3    0  502 -0.21536305333E+02  0.42434836423E+03  0.36428228853E+03  0.55969547292E+03  0.46999998093E+01 0. -1.
</event>
<event>
 5   0  0.2462055E-03  0.1301730E+04  0.7818609E-02  0.9028194E-01
        1   -1    0    0  501    0  0.00000000000E+00  0.00000000000E+00  0.13214253765E+04  0.13214253765E+04  0.50400001928E-02 0. -1.
       -1   -1    0    0    0  501  0.00000000000E+00  0.00000000000E+00 -0.32058218685E+03  0.32058218689E+03  0.50400001928E-02 0.  1.
    10030    2    1    2    0    0  0.00000000000E+00  0.00000000000E+00  0.10008431897E+04  0.16420075634E+04  0.13017302900E+04 0.  0.
        2    1    3    3  502    0 -0.15680660857E+03 -0.51600015735E+03  0.96006607412E+03  0.11011681713E+04  0.25500000920E-02 0. -1.
       -2    1    3    3    0  502  0.15680660857E+03  0.51600015735E+03  0.40777115541E+02  0.54083939208E+03  0.25500000920E-02 0.  1.
</event>
<event>
 5   0  0.4453011E-03  0.1336828E+04  0.7818609E-02  0.9000860E-01
        2   -1    0    0  501    0  0.00000000000E+00  0.00000000000E+00  0.11215244951E+04  0.11215244951E+04  0.25500000920E-02 0.  1.
       -2   -1    0    0    0  501  0.00000000000E+00  0.00000000000E+00 -0.39836594636E+03  0.39836594637E+03  0.25500000920E-02 0. -1.
    10030    2    1    2    0    0  0.00000000000E+00  0.00000000000E+00  0.72315854876E+03  0.15198904415E+04  0.13368278376E+04 0.  0.
        1    1    3    3  502    0 -0.38483038431E+03  0.39293217000E+03  0.79344673515E+03  0.96542624600E+03  0.50400001928E-02 0.  1.
       -1    1    3    3    0  502  0.38483038431E+03 -0.39293217000E+03 -0.70288186392E+02  0.55446419549E+03  0.50400001928E-02 0. -1.
</event>
<event>
 5   0  0.4263540E-03  0.1184377E+04  0.7818609E-02  0.9126643E-01
        2   -1    0    0  501    0  0.00000000000E+00  0.00000000000E+00  0.16945976654E+04  0.16945976654E+04  0.25500000920E-02 0.  1.
       -2   -1    0    0    0  501  0.00000000000E+00  0.00000000000E+00 -0.20694409396E+03  0.20694409398E+03  0.25500000920E-02 0. -1.
    10030    2    1    2    0    0  0.00000000000E+00  0.00000000000E+00  0.14876535714E+04  0.19015417594E+04  0.11843765930E+04 0.  0.
        2    1    3    3  502    0  0.42293758196E+03  0.40318179248E+03  0.58936911423E+03  0.82993235196E+03  0.25500000920E-02 0.  1.
       -2    1    3    3    0  502 -0.42293758196E+03 -0.40318179248E+03  0.89828445721E+03  0.10716094074E+04  0.25500000920E-02 0. -1.
</event>
<event>
 5   0  0.2458456E-03  0.1300763E+04  0.7818609E-02  0.9028960E-01
       -1   -1    0    0    0  501  0.00000000000E+00  0.00000000000E+00  0.10799884004E+04  0.10799884005E+04  0.50400001928E-02 0. -1.
        1   -1    0    0  501    0  0.00000000000E+00  0.00000000000E+00 -0.39166723509E+03  0.39166723512E+03  0.50400001928E-02 0.  1.
    10030    2    1    2    0    0  0.00000000000E+00  0.00000000000E+00  0.68832116535E+03  0.14716556356E+04  0.13007629619E+04 0.  0.
        5    1    3    3  502    0 -0.90298143190E+02 -0.41935060755E+02  0.10712963159E+04  0.10759229482E+04  0.46999998093E+01 0. -1.
       -5    1    3    3    0  502  0.90298143190E+02  0.41935060755E+02 -0.38297515051E+03  0.39573268742E+03  0.46999998093E+01 0.  1.
</event>
<event>
 5   0  0.2511542E-03  0.1373453E+04  0.7818609E-02  0.8973262E-01
       -1   -1    0    0    0  501  0.00000000000E+00  0.00000000000E+00  0.55394878635E+03  0.55394878637E+03  0.50400001928E-02 0.  1.
        1   -1    0    0  501    0  0.00000000000E+00  0.00000000000E+00 -0.85132967504E+03  0.85132967506E+03  0.50400001928E-02 0. -1.
    10030    2    1    2    0    0  0.00000000000E+00  0.00000000000E+00 -0.29738088869E+03  0.14052784614E+04  0.13734526425E+04 0.  0.
        4    1    3    3  502    0  0.24553132631E+03  0.17811463593E+03  0.48168736586E+03  0.56924053533E+03  0.12699999809E+01 0.  1.
       -4    1    3    3    0  502 -0.24553132631E+03 -0.17811463593E+03 -0.77906825455E+03  0.83603792610E+03  0.12699999809E+01 0. -1.
</event>
<event>
 5   0  0.1661750E-03  0.1288373E+04  0.7818609E-02  0.9038837E-01
        3   -1    0    0  501    0  0.00000000000E+00  0.00000000000E+00  0.32456728447E+03  0.32456730019E+03  0.10100000352E+00 0. -1.
       -3   -1    0    0    0  501  0.00000000000E+00  0.00000000000E+00 -0.12785524190E+04  0.12785524230E+04  0.10100000352E+00 0.  1.
    10030    2    1    2    0    0  0.00000000000E+00  0.00000000000E+00 -0.95398513454E+03  0.16031197232E+04  0.12883730865E+04 0.  0.
        4    1    3    3  502    0 -0.21953547491E+03  0.49943527582E+03 -0.50753348945E+02  0.54791325482E+03  0.12699999809E+01 0. -1.
       -4    1    3    3    0  502  0.21953547491E+03 -0.49943527582E+03 -0.90323178560E+03  0.10552064684E+04  0.12699999809E+01 0.  1.
</event>
<event>
 5   0  0.4310889E-03  0.1403631E+04  0.7818609E-02  0.8951195E-01
       -2   -1    0    0    0  501  0.00000000000E+00  0.00000000000E+00  0.62263752421E+03  0.62263752421E+03  0.25500000920E-02 0. -1.
        2   -1    0    0  501    0  0.00000000000E+00  0.00000000000E+00 -0.79106175409E+03  0.79106175409E+03  0.25500000920E-02 0.  1.
    10030    2    1    2    0    0  0.00000000000E+00  0.00000000000E+00 -0.16842422988E+03  0.14136992783E+04  0.14036306239E+04 0.  0.
        4    1    3    3  502    0 -0.58464807392E+03 -0.25107327858E+03  0.21404037910E+03  0.67131666026E+03  0.12699999809E+01 0. -1.
       -4    1    3    3    0  502  0.58464807392E+03  0.25107327858E+03 -0.38246460898E+03  0.74238261805E+03  0.12699999809E+01 0.  1.
</event>
<event>
 5   0  0.4388937E-03  0.1450193E+04  0.7818609E-02  0.8918266E-01
       -2   -1    0    0    0  501  0.00000000000E+00  0.00000000000E+00  0.28648844194E+03  0.28648844195E+03  0.25500000920E-02 0.  1.
        2   -1    0    0  501    0  0.00000000000E+00  0.00000000000E+00 -0.18352056660E+04  0.18352056660E+04  0.25500000920E-02 0. -1.
    10030    2    1    2    0    0  0.00000000000E+00  0.00000000000E+00 -0.15487172240E+04  0.21216941079E+04  0.14501933828E+04 0.  0.
        5    1    3    3  502    0 -0.10246517359E+03 -0.70611285714E+03 -0.58558283231E+03  0.92305136493E+03  0.46999998093E+01 0.  1.
       -5    1    3    3    0  502  0.10246517359E+03  0.70611285714E+03 -0.96313439173E+03  0.11986427430E+04  0.46999998093E+01 0. -1.
</event>
<event>
 5   0  0.2356769E-03  0.1483517E+04  0.7818609E-02  0.8895488E-01
       -1   -1    0    0    0  501  0.00000000000E+00  0.00000000000E+00  0.55719341689E+03  0.55719341691E+03  0.50400001928E-02 0. -1.
        1   -1    0    0  501    0  0.00000000000E+00  0.00000000000E+00 -0.98745963986E+03  0.98745963987E+03  0.50400001928E-02 0.  1.
    10030    2    1    2    0    0  0.00000000000E+00  0.00000000000E+00 -0.43026622297E+03  0.15446530568E+04  0.14835174563E+04 0.  0.
        1    1    3    3  502    0  0.90422728352E+02  0.25351161901E+03 -0.93482052504E+03  0.97279690832E+03  0.50400001928E-02 0.  1.
       -1    1    3    3    0  502 -0.90422728352E+02 -0.25351161901E+03  0.50455430207E+03  0.57185614847E+03  0.50400001928E-02 0. -1.
</event>
<event>
 5   0  0.4310889E-03  0.1309991E+04  0.7818609E-02  0.9021680E-01
        2   -1    0    0  501    0  0.00000000000E+00  0.00000000000E+00  0.10727002060E+04  0.10727002060E+04  0.25500000920E-02 0.  1.
       -2   -1    0    0    0  501  0.00000000000E+00  0.00000000000E+00 -0.39994315822E+03  0.39994315823E+03  0.25500000920E-02 0. -1.
    10030    2    1    2    0    0  0.00000000000E+00  0.00000000000E+00  0.67275704776E+03  0.14726433642E+04  0.13099910049E+04 0.  0.
        4    1    3    3  502    0 -0.12086038830E+03  0.29788013866E+03  0.97791783326E+03  0.10294001710E+04  0.12699999809E+01 0.  1.
       -4    1    3    3    0  502  0.12086038830E+03 -0.29788013866E+03 -0.30516078550E+03  0.44324319326E+03  0.12699999809E+01 0. -1.
</event>
<event>
 5   0  0.1661750E-03  0.1282893E+04  0.7818609E-02  0.9043242E-01
        3   -1    0    0  501    0  0.00000000000E+00  0.00000000000E+00  0.13499557944E+04  0.13499557982E+04  0.10100000352E+00 0.  1.
       -3   -1    0    0    0  501  0.00000000000E+00  0.00000000000E+00 -0.30479062998E+03  0.30479064671E+03  0.10100000352E+00 0. -1.
    10030    2    1    2    0    0  0.00000000000E+00  0.00000000000E+00  0.10451651644E+04  0.16547464449E+04  0.12828934390E+04 0.  0.
        4    1    3    3  502    0  0.20599517600E+02 -0.62777110965E+03  0.69041930280E+03  0.93338166513E+03  0.12699999809E+01 0.  1.
       -4    1    3    3    0  502 -0.20599517600E+02  0.62777110965E+03  0.35474586161E+03  0.72136477975E+03  0.12699999809E+01 0. -1.
</event>
<event>
 5   0  0.2370801E-03  0.1226376E+04  0.7818609E-02  0.9090078E-01
       -1   -1    0    0    0  501  0.00000000000E+00  0.00000000000E+00  0.40578834228E+03  0.40578834231E+03  0.50400001928E-02 0. -1.
        1   -1    0    0  501    0  0.00000000000E+00  0.00000000000E+00 -0.92659022058E+03  0.92659022059E+03  0.50400001928E-02 0.  1.
    10030    2    1    2    0    0  0.00000000000E+00  0.00000000000E+00 -0.52080187830E+03  0.13323785629E+04  0.12263759776E+04 0.  0.
        3    1    3    3  502    0  0.78243547118E+02 -0.75662057527E+01 -0.92109334626E+03  0.92444159516E+03  0.10100000352E+00 0.  1.
       -3    1    3    3    0  502 -0.78243547118E+02  0.75662057527E+01  0.40029146795E+03  0.40793696775E+03  0.10100000352E+00 0. -1.
</event>
<event>
 5   0  0.2462055E-03  0.1308437E+04  0.7818609E-02  0.9022901E-01
        1   -1    0    0  501    0  0.00000000000E+00  0.00000000000E+00  0.25460765650E+04  0.25460765650E+04  0.50400001928E-02 0. -1.
       -1   -1    0    0    0  501  0.00000000000E+00  0.00000000000E+00 -0.16810252990E+03  0.16810252998E+03  0.50400001928E-02 0.  1.
    10030    2    1    2    0    0  0.00000000000E+00  0.00000000000E+00  0.23779740351E+04  0.27141790949E+04  0.13084371013E+04 0.  0.
        2    1    3    3  502    0  0.17443395960E+02 -0.59663208875E+03  0.17445449817E+04  0.18438306090E+04  0.25500000920E-02 0.  1.
       -2    1    3    3    0  502 -0.17443395960E+02  0.59663208875E+03  0.63342905337E+03  0.87034848598E+03  0.25500000920E-02 0. -1.
</event>
<event>
 5   0  0.2462055E-03  0.1334997E+04  0.7818609E-02  0.9002264E-01
        1   -1    0    0  501    0  0.00000000000E+00  0.00000000000E+00  0.10624617965E+04  0.10624617965E+04  0.50400001928E-02 0.  1.
       -1   -1    0    0    0  501  0.00000000000E+00  0.00000000000E+00 -0.41936009134E+03  0.41936009137E+03  0.50400001928E-02 0. -1.
    10030    2    1    2    0    0  0.00000000000E+00  0.00000000000E+00  0.64310170513E+03  0.14818218878E+04  0.13349967431E+04 0.  0.
        2    1    3    3  502    0 -0.19094750517E+03  0.61746841445E+02 -0.38508168104E+03  0.43423671337E+03  0.25500000920E-02 0. -1.
       -2    1    3    3    0  502  0.19094750517E+03 -0.61746841445E+02  0.10281833862E+04  0.10475851745E+04  0.25500000920E-02 0.  1.
</event>
<event>
 5   0  0.2356769E-03  0.1293736E+04  0.7818609E-02  0.9034548E-01
        1   -1    0    0  501    0  0.00000000000E+00  0.00000000000E+00  0.12174354964E+04  0.12174354964E+04  0.50400001928E-02 0. -1.
       -1   -1    0    0    0  501  0.00000000000E+00  0.00000000000E+00 -0.34370449314E+03  0.34370449318E+03  0.50400001928E-02 0.  1.
    10030    2    1    2    0    0  0.00000000000E+00  0.00000000000E+00  0.87373100325E+03  0.15611399896E+04  0.12937357539E+04 0.  0.
        1    1    3    3  502    0  0.17920104834E+02 -0.63549655496E+03  0.29276284096E+03  0.69991934006E+03  0.50400001928E-02 0. -1.
       -1    1    3    3    0  502 -0.17920104834E+02  0.63549655496E+03  0.58096816230E+03  0.86122064952E+03  0.50400001928E-02 0.  1.
</event>
<event>
 5   0  0.2458456E-03  0.1222243E+04  0.7818609E-02  0.9093607E-01
        1   -1    0    0  501    0  0.00000000000E+00  0.00000000000E+00  0.80590527852E+03  0.80590527854E+03  0.50400001928E-02 0. -1.
       -1   -1    0    0    0  501  0.00000000000E+00  0.00000000000E+00 -0.46341637666E+03  0.46341637669E+03  0.50400001928E-02 0.  1.
    10030    2    1    2    0    0  0.00000000000E+00  0.00000000000E+00  0.34248890186E+03  0.12693216552E+04  0.12222433541E+04 0.  0.
        5    1    3    3  502    0 -0.48544421092E+03  0.22682813193E+03 -0.13391116155E+03  0.55232361215E+03  0.46999998093E+01 0.  1.
       -5    1    3    3    0  502  0.48544421092E+03 -0.22682813193E+03  0.47640006341E+03  0.71699804307E+03  0.46999998093E+01 0. -1.
</event>
<event>
 5   0  0.2462055E-03  0.1242489E+04  0.7818609E-02  0.9076458E-01
        1   -1    0    0  501    0  0.00000000000E+00  0.00000000000E+00  0.39923147385E+03  0.39923147388E+03  0.50400001928E-02 0. -1.
       -1   -1    0    0    0  501  0.00000000000E+00  0.00000000000E+00 -0.96671889659E+03  0.96671889660E+03  0.50400001928E-02 0.  1.
    10030    2    1    2    0    0  0.00000000000E+00  0.00000000000E+00 -0.56748742274E+03  0.13659503705E+04  0.12424888087E+04 0.  0.
        2    1    3    3  502    0  0.40350915787E+02  0.22595518379E+03  0.35090655278E+03  0.41930818055E+03  0.25500000920E-02 0. -1.
       -2    1    3    3    0  502 -0.40350915787E+02 -0.22595518379E+03 -0.91839397552E+03  0.94664218993E+03  0.25500000920E-02 0.  1.
</event>
<event>
 5   0  0.4310889E-03  0.1364760E+04  0.7818609E-02  0.8979729E-01
       -2   -1    0    0    0  501  0.00000000000E+00  0.00000000000E+00  0.36058142929E+03  0.36058142930E+03  0.25500000920E-02 0.  1.
        2   -1    0    0  501    0  0.00000000000E+00  0.00000000000E+00 -0.12913665566E+04  0.12913665566E+04  0.25500000920E-02 0. -1.
    10030    2    1    2    0    0  0.00000000000E+00  0.00000000000E+00 -0.93078512732E+03  0.16519479859E+04  0.13647604900E+04 0.  0.
        4    1    3    3  502    0 -0.28628312020E+03 -0.42580235578E+03 -0.10099189268E+04  0.11327857355E+04  0.12699999809E+01 0. -1.
       -4    1    3    3    0  502  0.28628312020E+03  0.42580235578E+03  0.79133799445E+02  0.51916225038E+03  0.12699999809E+01 0.  1.
</event>
<event>
 5   0  0.4310889E-03  0.1311004E+04  0.7818609E-02  0.9020884E-01
        2   -1    0    0  501    0  0.00000000000E+00  0.00000000000E+00  0.12088372264E+04  0.12088372264E+04  0.25500000920E-02 0. -1.
       -2   -1    0    0    0  501  0.00000000000E+00  0.00000000000E+00 -0.35545147154E+03  0.35545147155E+03  0.25500000920E-02 0.  1.
    10030    2    1    2    0    0  0.00000000000E+00  0.00000000000E+00  0.85338575488E+03  0.15642886980E+04  0.13110041510E+04 0.  0.
        4    1    3    3  502    0  0.48013355146E+03 -0.40599474754E+03  0.64774531675E+03  0.90273781938E+03  0.12699999809E+01 0. -1.
       -4    1    3    3    0  502 -0.48013355146E+03  0.40599474754E+03  0.20564043812E+03  0.66155087859E+03  0.12699999809E+01 0.  1.
</event>
<event>
 5   0  0.4453011E-03  0.1257773E+04  0.7818609E-02  0.9063739E-01
        2   -1    0    0  501    0  0.00000000000E+00  0.00000000000E+00  0.47932136994E+03  0.47932136995E+03  0.25500000920E-02 0. -1.
       -2   -1    0    0    0  501  0.00000000000E+00  0.00000000000E+00 -0.82512095919E+03  0.82512095919E+03  0.25500000920E-02 0.  1.
    10030    2    1    2    0    0  0.00000000000E+00  0.00000000000E+00 -0.34579958925E+03  0.13044423291E+04  0.12577728070E+04 0.  0.
        1    1    3    3  502    0  0.26939528829E+03  0.55169251626E+03 -0.31611030074E+02  0.61476638742E+03  0.50400001928E-02 0. -1.
       -1    1    3    3    0  502 -0.26939528829E+03 -0.55169251626E+03 -0.31418855917E+03  0.68967594172E+03  0.50400001928E-02 0.  1.
</event>
<event>
 5   0  0.2511542E-03  0.1178957E+04  0.7818609E-02  0.9131478E-01
       -1   -1    0    0    0  501  0.00000000000E+00  0.00000000000E+00  0.39402035011E+03  0.39402035014E+03  0.50400001928E-02 0.  1.
        1   -1    0    0  501    0  0.00000000000E+00  0.00000000000E+00 -0.88189521550E+03  0.88189521551E+03  0.50400001928E-02 0. -1.
    10030    2    1    2    0    0  0.00000000000E+00  0.00000000000E+00 -0.48787486539E+03  0.12759155657E+04  0.11789565922E+04 0.  0.
        4    1    3    3  502    0  0.36799860877E+03 -0.85079780970E+02  0.24585480197E+03  0.45067476271E+03  0.12699999809E+01 0.  1.
       -4    1    3    3    0  502 -0.36799860877E+03  0.85079780970E+02 -0.73372966736E+03  0.82524080295E+03  0.12699999809E+01 0. -1.
</event>
<event>
 5   0  0.2511542E-03  0.1279319E+04  0.7818609E-02  0.9046128E-01
        1   -1    0    0  501    0  0.00000000000E+00  0.00000000000E+00  0.28630105055E+04  0.28630105055E+04  0.50400001928E-02 0. -1.
       -1   -1    0    0    0  501  0.00000000000E+00  0.00000000000E+00 -0.14291410523E+03  0.14291410532E+03  0.50400001928E-02 0.  1.
    10030    2    1    2    0    0  0.00000000000E+00  0.00000000000E+00  0.27200964003E+04  0.30059246108E+04  0.12793194829E+04 0.  0.
        4    1    3    3  502    0 -0.32304464068E+03 -0.19784674879E+03  0.14899388193E+03  0.40706506314E+03  0.12699999809E+01 0.  1.
       -4    1    3    3    0  502  0.32304464068E+03  0.19784674879E+03  0.25711025183E+04  0.25988595477E+04  0.12699999809E+01 0. -1.
</event>
<event>
 5   0  0.4388937E-03  0.1343017E+04  0.7818609E-02  0.8996131E-01
        2   -1    0    0  501    0  0.00000000000E+00  0.00000000000E+00  0.14460939129E+04  0.14460939129E+04  0.25500000920E-02 0. -1.
       -2   -1    0    0    0  501  0.00000000000E+00  0.00000000000E+00 -0.31182176202E+03  0.31182176203E+03  0.25500000920E-02 0.  1.
    10030    2    1    2    0    0  0.00000000000E+00  0.00000000000E+00  0.11342721509E+04  0.17579156749E+04  0.13430168308E+04 0.  0.
        5    1    3    3  502    0 -0.40293945875E+03  0.45449166340E+03  0.94190777270E+03  0.11207743849E+04  0.46999998093E+01 0. -1.
       -5    1    3    3    0  502  0.40293945875E+03 -0.45449166340E+03  0.19236437819E+03  0.63714129006E+03  0.46999998093E+01 0.  1.
</event>
<event>
 5   0  0.2458456E-03  0.1501740E+04  0.7818609E-02  0.8883297E-01
        1   -1    0    0  501    0  0.00000000000E+00  0.00000000000E+00  0.11361004890E+04  0.11361004890E+04  0.50400001928E-02 0. -1.
       -1   -1    0    0    0  501  0.00000000000E+00  0.00000000000E+00 -0.49626407374E+03  0.49626407377E+03  0.50400001928E-02 0.  1.
    10030    2    1    2    0    0  0.00000000000E+00  0.00000000000E+00  0.63983641528E+03  0.16323645628E+04  0.15017401332E+04 0.  0.
        5    1    3    3  502    0 -0.11807553220E+03  0.16948053619E+03  0.11045944907E+04  0.11237511122E+04  0.46999998093E+01 0. -1.
       -5    1    3    3    0  502  0.11807553220E+03 -0.16948053619E+03 -0.46475807539E+03  0.50861345056E+03  0.46999998093E+01 0.  1.
</event>
<event>
 5   0  0.2458456E-03  0.1300442E+04  0.7818609E-02  0.9029215E-01
       -1   -1    0    0    0  501  0.00000000000E+00  0.00000000000E+00  0.50908376847E+03  0.50908376849E+03  0.50400001928E-02 0.  1.
        1   -1    0    0  501    0  0.00000000000E+00  0.00000000000E+00 -0.83048648991E+03  0.83048648992E+03  0.50400001928E-02 0. -1.
    10030    2    1    2    0    0  0.00000000000E+00  0.00000000000E+00 -0.32140272144E+03  0.13395702584E+04  0.13004417587E+04 0.  0.
        5    1    3    3  502    0  0.50818366350E+03  0.16673205033E+02  0.25675337419E+03  0.56962533017E+03  0.46999998093E+01 0.  1.
       -5    1    3    3    0  502 -0.50818366350E+03 -0.16673205033E+02 -0.57815609563E+03  0.76994492824E+03  0.46999998093E+01 0. -1.
</event>
<event>
 5   0  0.4263540E-03  0.1303927E+04  0.7818609E-02  0.9026457E-01
        2   -1    0    0  501    0  0.00000000000E+00  0.00000000000E+00  0.57539275072E+03  0.57539275072E+03  0.25500000920E-02 0.  1.
       -2   -1    0    0    0  501  0.00000000000E+00  0.00000000000E+00 -0.73872353238E+03  0.73872353238E+03  0.25500000920E-02 0. -1.
    10030    2    1    2    0    0  0.00000000000E+00  0.00000000000E+00 -0.16333078166E+03  0.13141162831E+04  0.13039266319E+04 0.  0.
        2    1    3    3  502    0 -0.47464017318E+03  0.38992646174E+03  0.13851436475E+03  0.62969212224E+03  0.25500000920E-02 0.  1.
       -2    1    3    3    0  502  0.47464017318E+03 -0.38992646174E+03 -0.30184514641E+03  0.68442416087E+03  0.25500000920E-02 0. -1.
</event>
<event>
 5   0  0.2370801E-03  0.1310660E+04  0.7818609E-02  0.9021154E-01
        1   -1    0    0  501    0  0.00000000000E+00  0.00000000000E+00  0.46611770548E+03  0.46611770551E+03  0.50400001928E-02 0.  1.
       -1   -1    0    0    0  501  0.00000000000E+00  0.00000000000E+00 -0.92134940397E+03  0.92134940398E+03  0.50400001928E-02 0. -1.
    10030    2    1    2    0    0  0.00000000000E+00  0.00000000000E+00 -0.45523169849E+03  0.13874671095E+04  0.13106597883E+04 0.  0.
        3    1    3    3  502    0  0.95000635455E+02 -0.48283011859E+03  0.23053656108E+03  0.54341251398E+03  0.10100000352E+00 0.  1.
       -3    1    3    3    0  502 -0.95000635455E+02  0.48283011859E+03 -0.68576825957E+03  0.84405459551E+03  0.10100000352E+00 0. -1.
</event>
<event>
 5   0  0.4306214E-03  0.1362824E+04  0.7818609E-02  0.8981177E-01
       -2   -1    0    0    0  501  0.00000000000E+00  0.00000000000E+00  0.75427541758E+03  0.75427541759E+03  0.25500000920E-02 0. -1.
        2   -1    0    0  501    0  0.00000000000E+00  0.00000000000E+00 -0.61558755579E+03  0.61558755579E+03  0.25500000920E-02 0.  1.
    10030    2    1    2    0    0  0.00000000000E+00  0.00000000000E+00  0.13868786179E+03  0.13698629734E+04  0.13628243624E+04 0.  0.
        3    1    3    3  502    0 -0.28081364708E+03 -0.58496408795E+03  0.27846473004E+03  0.70610332435E+03  0.10100000352E+00 0. -1.
       -3    1    3    3    0  502  0.28081364708E+03  0.58496408795E+03 -0.13977686825E+03  0.66375964903E+03  0.10100000352E+00 0.  1.
</event>
<event>
 5   0  0.1661750E-03  0.1290048E+04  0.7818609E-02  0.9037495E-01
        3   -1    0    0  501    0  0.00000000000E+00  0.00000000000E+00  0.12124199652E+04  0.12124199695E+04  0.10100000352E+00 0.  1.
       -3   -1    0    0    0  501  0.00000000000E+00  0.00000000000E+00 -0.34316146341E+03  0.34316147828E+03  0.10100000352E+00 0. -1.
    10030    2    1    2    0    0  0.00000000000E+00  0.00000000000E+00  0.86925850183E+03  0.15555814477E+04  0.12900477888E+04 0.  0.
        1    1    3    3  502    0  0.76755888652E-01  0.64459115430E+03  0.40614345985E+03  0.76187287135E+03  0.50400001928E-02 0. -1.
       -1    1    3    3    0  502 -0.76755888652E-01 -0.64459115430E+03  0.46311504198E+03  0.79370857638E+03  0.50400001928E-02 0.  1.
</event>
<event>
 5   0  0.4310889E-03  0.1354172E+04  0.7818609E-02  0.8987676E-01
       -2   -1    0    0    0  501  0.00000000000E+00  0.00000000000E+00  0.12429137261E+04  0.12429137261E+04  0.25500000920E-02 0.  1.
        2   -1    0    0  501    0  0.00000000000E+00  0.00000000000E+00 -0.36884760584E+03  0.36884760585E+03  0.25500000920E-02 0. -1.
    10030    2    1    2    0    0  0.00000000000E+00  0.00000000000E+00  0.87406612024E+03  0.16117613319E+04  0.13541724442E+04 0.  0.
        4    1    3    3  502    0  0.39031431325E+03 -0.32293771392E+03 -0.97652208349E+02  0.51591820756E+03  0.12699999809E+01 0. -1.
       -4    1    3    3    0  502 -0.39031431325E+03  0.32293771392E+03  0.97171832859E+03  0.10958431244E+04  0.12699999809E+01 0.  1.
</event>
<event>
 5   0  0.4310889E-03  0.1297585E+04  0.7818609E-02  0.9031482E-01
       -2   -1    0    0    0  501  0.00000000000E+00  0.00000000000E+00  0.22190282312E+03  0.22190282314E+03  0.25500000920E-02 0. -1.
        2   -1    0    0  501    0  0.00000000000E+00  0.00000000000E+00 -0.18969194635E+04  0.18969194635E+04  0.25500000920E-02 0.  1.
    10030    2    1    2    0    0  0.00000000000E+00  0.00000000000E+00 -0.16750166404E+04  0.21188222867E+04  0.12975851174E+04 0.  0.
        4    1    3    3  502    0 -0.59934472008E+03  0.10250601439E+03 -0.12070216469E+04  0.13515267091E+04  0.12699999809E+01 0.  1.
       -4    1    3    3    0  502  0.59934472008E+03 -0.10250601439E+03 -0.46799499352E+03  0.76729557756E+03  0.12699999809E+01 0. -1.
</event>
<event>
 5   0  0.2462055E-03  0.1284216E+04  0.7818609E-02  0.9042177E-01
       -1   -1    0    0    0  501  0.00000000000E+00  0.00000000000E+00  0.46024197010E+03  0.46024197013E+03  0.50400001928E-02 0.  1.
        1   -1    0    0  501    0  0.00000000000E+00  0.00000000000E+00 -0.89583889193E+03  0.89583889195E+03  0.50400001928E-02 0. -1.
    10030    2    1    2    0    0  0.00000000000E+00  0.00000000000E+00 -0.43559692183E+03  0.13560808621E+04  0.12842159578E+04 0.  0.
        2    1    3    3  502    0  0.31284284649E+03 -0.11084738184E+03  0.36263860180E+03  0.49159388135E+03  0.25500000920E-02 0.  1.
       -2    1    3    3    0  502 -0.31284284649E+03  0.11084738184E+03 -0.79823552363E+03  0.86448698073E+03  0.25500000920E-02 0. -1.
</event>
<event>
 5   0  0.4453011E-03  0.1276521E+04  0.7818609E-02  0.9048394E-01
        2   -1    0    0  501    0  0.00000000000E+00  0.00000000000E+00  0.81629064064E+03  0.81629064064E+03  0.25500000920E-02 0.  1.
       -2   -1    0    0    0  501  0.00000000000E+00  0.00000000000E+00 -0.49905831825E+03  0.49905831826E+03  0.25500000920E-02 0. -1.
    10030    2    1    2    0    0  0.00000000000E+00  0.00000000000E+00  0.31723232238E+03  0.13153489589E+04  0.12765212639E+04 0.  0.
        1    1    3    3  502    0 -0.40956116875E+03  0.45596485243E+03  0.34217020586E+03  0.70194355001E+03  0.50400001928E-02 0.  1.
       -1    1    3    3    0  502  0.40956116875E+03 -0.45596485243E+03 -0.24937883482E+02  0.61340540889E+03  0.50400001928E-02 0. -1.
</event>
<event>
 5   0  0.2356769E-03  0.1276105E+04  0.7818609E-02  0.9048731E-01
        1   -1    0    0  501    0  0.00000000000E+00  0.00000000000E+00  0.76862742786E+03  0.76862742788E+03  0.50400001928E-02 0. -1.
       -1   -1    0    0    0  501  0.00000000000E+00  0.00000000000E+00 -0.52966002461E+03  0.52966002463E+03  0.50400001928E-02 0.  1.
    10030    2    1    2    0    0  0.00000000000E+00  0.00000000000E+00  0.23896740326E+03  0.12982874525E+04  0.12761053599E+04 0.  0.
        1    1    3    3  502    0  0.35131857217E+03 -0.35716477417E+03  0.52147192509E+03  0.72313510753E+03  0.50400001928E-02 0. -1.
       -1    1    3    3    0  502 -0.35131857217E+03  0.35716477417E+03 -0.28250452183E+03  0.57515234498E+03  0.50400001928E-02 0.  1.
</event>
<event>
 5   0  0.2458456E-03  0.1311396E+04  0.7818609E-02  0.9020576E-01
        1   -1    0    0  501    0  0.00000000000E+00  0.00000000000E+00  0.68589406187E+03  0.68589406189E+03  0.50400001928E-02 0. -1.
       -1   -1    0    0    0  501  0.00000000000E+00  0.00000000000E+00 -0.62683145325E+03  0.62683145327E+03  0.50400001928E-02 0.  1.
    10030    2    1    2    0    0  0.00000000000E+00  0.00000000000E+00  0.59062608625E+02  0.13127255152E+04  0.13113961592E+04 0.  0.
        5    1    3    3  502    0  0.51162242993E+03  0.26008157567E+03 -0.28783573430E+03  0.64208366803E+03  0.46999998093E+01 0.  1.
       -5    1    3    3    0  502 -0.51162242993E+03 -0.26008157567E+03  0.34689834292E+03  0.67064184714E+03  0.46999998093E+01 0. -1.
</event>
<event>
 5   0  0.4453011E-03  0.1297815E+04  0.7818609E-02  0.9031299E-01
        2   -1    0    0  501    0  0.00000000000E+00  0.00000000000E+00  0.34867654444E+03  0.34867654445E+03  0.25500000920E-02 0. -1.
       -2   -1    0    0    0  501  0.00000000000E+00  0.00000000000E+00 -0.12076555753E+04  0.12076555753E+04  0.25500000920E-02 0.  1.
    10030    2    1    2    0    0  0.00000000000E+00  0.00000000000E+00 -0.85897903084E+03  0.15563321197E+04  0.12978153534E+04 0.  0.
        1    1    3    3  502    0 -0.57401510978E+03 -0.88836618767E+02 -0.82559865807E+02  0.58668681812E+03  0.50400001928E-02 0. -1.
       -1    1    3    3    0  502  0.57401510978E+03  0.88836618767E+02 -0.77641916503E+03  0.96964530162E+03  0.50400001928E-02 0.  1.
</event>
<event>
 5   0  0.2458456E-03  0.1299007E+04  0.7818609E-02  0.9030353E-01
       -1   -1    0    0    0  501  0.00000000000E+00  0.00000000000E+00  0.24956677389E+03  0.24956677395E+03  0.50400001928E-02 0.  1.
        1   -1    0    0  501    0  0.00000000000E+00  0.00000000000E+00 -0.16903481093E+04  0.16903481093E+04  0.50400001928E-02 0. -1.
    10030    2    1    2    0    0  0.00000000000E+00  0.00000000000E+00 -0.14407813354E+04  0.19399148833E+04  0.12990068891E+04 0.  0.
        5    1    3    3  502    0  0.39624236561E+03 -0.36007206128E+03 -0.12694455628E+04  0.13777423665E+04  0.46999998093E+01 0. -1.
       -5    1    3    3    0  502 -0.39624236561E+03  0.36007206128E+03 -0.17133577266E+03  0.56217251677E+03  0.46999998093E+01 0.  1.
</event>
<event>
 5   0  0.2370801E-03  0.1325757E+04  0.7818609E-02  0.9009385E-01
       -1   -1    0    0    0  501  0.00000000000E+00  0.00000000000E+00  0.18614054988E+03  0.18614054995E+03  0.50400001928E-02 0. -1.
        1   -1    0    0  501    0  0.00000000000E+00  0.00000000000E+00 -0.23606260619E+04  0.23606260619E+04  0.50400001928E-02 0.  1.
    10030    2    1    2    0    0  0.00000000000E+00  0.00000000000E+00 -0.21744855120E+04  0.25467666119E+04  0.13257574941E+04 0.  0.
        3    1    3    3  502    0  0.38079016440E+03  0.45929592217E+03 -0.53229833015E+03  0.79955951367E+03  0.10100000352E+00 0. -1.
       -3    1    3    3    0  502 -0.38079016440E+03 -0.45929592217E+03 -0.16421871819E+04  0.17472070982E+04  0.10100000352E+00 0.  1.
</event>
<event>
 5   0  0.2511542E-03  0.1281296E+04  0.7818609E-02  0.9044531E-01
        1   -1    0    0  501    0  0.00000000000E+00  0.00000000000E+00  0.65291549277E+03  0.65291549279E+03  0.50400001928E-02 0.  1.
       -1   -1    0    0    0  501  0.00000000000E+00  0.00000000000E+00 -0.62861086876E+03  0.62861086878E+03  0.50400001928E-02 0. -1.
    10030    2    1    2    0    0  0.00000000000E+00  0.00000000000E+00  0.24304624009E+02  0.12815263616E+04  0.12812958677E+04 0.  0.
        4    1    3    3  502    0  0.18117644878E+03 -0.18458473410E+03  0.59837355044E+03  0.65188108457E+03  0.12699999809E+01 0.  1.
       -4    1    3    3    0  502 -0.18117644878E+03  0.18458473410E+03 -0.57406892644E+03  0.62964527700E+03  0.12699999809E+01 0. -1.
</event>
<event>
 5   0  0.4388937E-03  0.1398263E+04  0.7818609E-02  0.8955077E-01
       -2   -1    0    0    0  501  0.00000000000E+00  0.00000000000E+00  0.10545171690E+04  0.10545171690E+04  0.25500000920E-02 0. -1.
        2   -1    0    0  501    0  0.00000000000E+00  0.00000000000E+00 -0.46351548846E+03  0.46351548847E+03  0.25500000920E-02 0.  1.
    10030    2    1    2    0    0  0.00000000000E+00  0.00000000000E+00  0.59100168054E+03  0.15180326575E+04  0.13982632666E+04 0.  0.
        5    1    3    3  502    0 -0.42983091477E+03 -0.52587063285E+03  0.11556861557E+03  0.68896497203E+03  0.46999998093E+01 0.  1.
       -5    1    3    3    0  502  0.42983091477E+03  0.52587063285E+03  0.47543306497E+03  0.82906768544E+03  0.46999998093E+01 0. -1.
</event>
<event>
 5   0  0.4453011E-03  0.1291137E+04  0.7818609E-02  0.9036623E-01
        2   -1    0    0  501    0  0.00000000000E+00  0.00000000000E+00  0.66158001465E+03  0.66158001466E+03  0.25500000920E-02 0. -1.
       -2   -1    0    0    0  501  0.00000000000E+00  0.00000000000E+00 -0.62994447816E+03  0.62994447816E+03  0.25500000920E-02 0.  1.
    10030    2    1    2    0    0  0.00000000000E+00  0.00000000000E+00  0.31635536495E+02  0.12915244928E+04  0.12911369828E+04 0.  0.
        1    1    3    3  502    0 -0.26304052454E+03  0.53479854426E+03  0.26400284748E+03  0.65184147152E+03  0.50400001928E-02 0. -1.
       -1    1    3    3    0  502  0.26304052454E+03 -0.53479854426E+03 -0.23236731098E+03  0.63968302130E+03  0.50400001928E-02 0.  1.
</event>
<event>
 5   0  0.2462055E-03  0.1321667E+04  0.7818609E-02  0.9012557E-01
        1   -1    0    0  501    0  0.00000000000E+00  0.00000000000E+00  0.10173182931E+04  0.10173182931E+04  0.50400001928E-02 0. -1.
       -1   -1    0    0    0  501  0.00000000000E+00  0.00000000000E+00 -0.42926697078E+03  0.42926697081E+03  0.50400001928E-02 0.  1.
    10030    2    1    2    0    0  0.00000000000E+00  0.00000000000E+00  0.58805132234E+03  0.14465852639E+04  0.13216673440E+04 0.  0.
        2    1    3    3  502    0  0.59559874420E+02 -0.29934214127E+02  0.10136291322E+04  0.10158186124E+04  0.25500000920E-02 0. -1.
       -2    1    3    3    0  502 -0.59559874420E+02  0.29934214127E+02 -0.42557780982E+03  0.43076665149E+03  0.25500000920E-02 0.  1.
</event>
<event>
 5   0  0.2458456E-03  0.1296451E+04  0.7818609E-02  0.9032385E-01
        1   -1    0    0  501    0  0.00000000000E+00  0.00000000000E+00  0.56399336696E+03  0.56399336698E+03  0.50400001928E-02 0. -1.
       -1   -1    0    0    0  501  0.00000000000E+00  0.00000000000E+00 -0.74503720123E+03  0.74503720125E+03  0.50400001928E-02 0.  1.
    10030    2    1    2    0    0  0.00000000000E+00  0.00000000000E+00 -0.18104383428E+03  0.13090305682E+04  0.12964506001E+04 0.  0.
        5    1    3    3  502    0  0.61265752517E+03 -0.15687625063E+03  0.53035566761E+02  0.63466074599E+03  0.46999998093E+01 0. -1.
       -5    1    3    3    0  502 -0.61265752517E+03  0.15687625063E+03 -0.23407940104E+03  0.67436982224E+03  0.46999998093E+01 0.  1.
</event>
<event>
 5   0  0.4306214E-03  0.1254154E+04  0.7818609E-02  0.9066733E-01
        2   -1    0    0  501    0  0.00000000000E+00  0.00000000000E+00  0.73848810902E+03  0.73848810903E+03  0.25500000920E-02 0. -1.
       -2   -1    0    0    0  501  0.00000000000E+00  0.00000000000E+00 -0.53247386720E+03  0.53247386721E+03  0.25500000920E-02 0.  1.
    10030    2    1    2    0    0  0.00000000000E+00  0.00000000000E+00  0.20601424182E+03  0.12709619762E+04  0.12541540883E+04 0.  0.
        3    1    3    3  502    0 -0.30817134469E+03  0.39350120905E+03 -0.28076697956E+03  0.57327383180E+03  0.10100000352E+00 0.  1.
       -3    1    3    3    0  502  0.30817134469E+03 -0.39350120905E+03  0.48678122138E+03  0.69768814444E+03  0.10100000352E+00 0. -1.
</event>
<event>
 5   0  0.4453011E-03  0.1314856E+04  0.7818609E-02  0.9017866E-01
       -2   -1    0    0    0  501  0.00000000000E+00  0.00000000000E+00  0.34294348703E+03  0.34294348704E+03  0.25500000920E-02 0. -1.
        2   -1    0    0  501    0  0.00000000000E+00  0.00000000000E+00 -0.12602997274E+04  0.12602997274E+04  0.25500000920E-02 0.  1.
    10030    2    1    2    0    0  0.00000000000E+00  0.00000000000E+00 -0.91735624038E+03  0.16032432145E+04  0.13148560122E+04 0.  0.
        1    1    3    3  502    0 -0.58649978539E+03  0.28544937699E+03 -0.55884321660E+03  0.85893485542E+03  0.50400001928E-02 0.  1.
       -1    1    3    3    0  502  0.58649978539E+03 -0.28544937699E+03 -0.35851302379E+03  0.74430835904E+03  0.50400001928E-02 0. -1.
</event>
<event>
 5   0  0.1661750E-03  0.1314349E+04  0.7818609E-02  0.9018263E-01
       -3   -1    0    0    0  501  0.00000000000E+00  0.00000000000E+00  0.35336327072E+03  0.35336328515E+03  0.10100000352E+00 0.  1.
        3   -1    0    0  501    0  0.00000000000E+00  0.00000000000E+00 -0.12221938276E+04  0.12221938318E+04  0.10100000352E+00 0. -1.
    10030    2    1    2    0    0  0.00000000000E+00  0.00000000000E+00 -0.86883055686E+03  0.15755571169E+04  0.13143491515E+04 0.  0.
        3    1    3    3  502    0  0.32065574208E+03 -0.52148454155E+03 -0.14793958809E+03  0.62980343277E+03  0.10100000352E+00 0.  1.
       -3    1    3    3    0  502 -0.32065574208E+03  0.52148454155E+03 -0.72089096878E+03  0.94575368414E+03  0.10100000352E+00 0. -1.
</event>
<event>
 5   0  0.2458456E-03  0.1306648E+04  0.7818609E-02  0.9024310E-01
        1   -1    0    0  501    0  0.00000000000E+00  0.00000000000E+00  0.57050330309E+03  0.57050330311E+03  0.50400001928E-02 0.  1.
       -1   -1    0    0    0  501  0.00000000000E+00  0.00000000000E+00 -0.74816762834E+03  0.74816762836E+03  0.50400001928E-02 0. -1.
    10030    2    1    2    0    0  0.00000000000E+00  0.00000000000E+00 -0.17766432525E+03  0.13186709315E+04  0.13066477770E+04 0.  0.
        5    1    3    3  502    0  0.61894863414E+02  0.37020728415E+03  0.45080819809E+03  0.58662980560E+03  0.46999998093E+01 0.  1.
       -5    1    3    3    0  502 -0.61894863414E+02 -0.37020728415E+03 -0.62847252335E+03  0.73204112586E+03  0.46999998093E+01 0. -1.
</event>
<event>
 5   0  0.2462055E-03  0.1092630E+04  0.7818609E-02  0.9212405E-01
       -1   -1    0    0    0  501  0.00000000000E+00  0.00000000000E+00  0.48954066831E+03  0.48954066833E+03  0.50400001928E-02 0. -1.
        1   -1    0    0  501    0  0.00000000000E+00  0.00000000000E+00 -0.60967384660E+03  0.60967384662E+03  0.50400001928E-02 0.  1.
    10030    2    1    2    0    0  0.00000000000E+00  0.00000000000E+00 -0.12013317829E+03  0.10992145150E+04  0.10926301155E+04 0.  0.
        2    1    3    3  502    0 -0.19980533809E+03 -0.17144654384E+03 -0.54164119968E+03  0.60223855716E+03  0.25500000920E-02 0.  1.
       -2    1    3    3    0  502  0.19980533809E+03  0.17144654384E+03  0.42150802139E+03  0.49697595780E+03  0.25500000920E-02 0. -1.
</event>
<event>
 5   0  0.2458456E-03  0.1290091E+04  0.7818609E-02  0.9037461E-01
       -1   -1    0    0    0  501  0.00000000000E+00  0.00000000000E+00  0.46109064606E+03  0.46109064609E+03  0.50400001928E-02 0.  1.
        1   -1    0    0  501    0  0.00000000000E+00  0.00000000000E+00 -0.90238966931E+03  0.90238966932E+03  0.50400001928E-02 0. -1.
    10030    2    1    2    0    0  0.00000000000E+00  0.00000000000E+00 -0.44129902324E+03  0.13634803154E+04  0.12900905947E+04 0.  0.
        5    1    3    3  502    0 -0.62685650695E+03  0.12617296332E+03 -0.13101544776E+03  0.65272952632E+03  0.46999998093E+01 0.  1.
       -5    1    3    3    0  502  0.62685650695E+03 -0.12617296332E+03 -0.31028357548E+03  0.71075078909E+03  0.46999998093E+01 0. -1.
</event>
<event>
 5   0  0.2462055E-03  0.1372834E+04  0.7818609E-02  0.8973721E-01
       -1   -1    0    0    0  501  0.00000000000E+00  0.00000000000E+00  0.57115122717E+03  0.57115122719E+03  0.50400001928E-02 0.  1.
        1   -1    0    0  501    0  0.00000000000E+00  0.00000000000E+00 -0.82494433875E+03  0.82494433876E+03  0.50400001928E-02 0. -1.
    10030    2    1    2    0    0  0.00000000000E+00  0.00000000000E+00 -0.25379311158E+03  0.13960955660E+04  0.13728335244E+04 0.  0.
        2    1    3    3  502    0  0.51142829248E+03 -0.16372634872E+03 -0.56169566036E+03  0.77708894631E+03  0.25500000920E-02 0. -1.
       -2    1    3    3    0  502 -0.51142829248E+03  0.16372634872E+03  0.30790254877E+03  0.61900661964E+03  0.25500000920E-02 0.  1.
</event>
<event>
 5   0  0.2458456E-03  0.1290015E+04  0.7818609E-02  0.9037521E-01
       -1   -1    0    0    0  501  0.00000000000E+00  0.00000000000E+00  0.47714182747E+03  0.47714182750E+03  0.50400001928E-02 0.  1.
        1   -1    0    0  501    0  0.00000000000E+00  0.00000000000E+00 -0.87193032638E+03  0.87193032639E+03  0.50400001928E-02 0. -1.
    10030    2    1    2    0    0  0.00000000000E+00  0.00000000000E+00 -0.39478849891E+03  0.13490721539E+04  0.12900146191E+04 0.  0.
        5    1    3    3  502    0 -0.11690948311E+03  0.33216587320E+03 -0.76251293152E+03  0.83991074246E+03  0.46999998093E+01 0. -1.
       -5    1    3    3    0  502  0.11690948311E+03 -0.33216587320E+03  0.36772443261E+03  0.50916141144E+03  0.46999998093E+01 0.  1.
</event>
<event>
 5   0  0.1661750E-03  0.1378534E+04  0.7818609E-02  0.8969505E-01
       -4   -1    0    0    0  501  0.00000000000E+00  0.00000000000E+00  0.56656193380E+03  0.56656335721E+03  0.12699999809E+01 0. -1.
        4   -1    0    0  501    0  0.00000000000E+00  0.00000000000E+00 -0.83854413945E+03  0.83854510118E+03  0.12699999809E+01 0.  1.
    10030    2    1    2    0    0  0.00000000000E+00  0.00000000000E+00 -0.27198220566E+03  0.14051084584E+04  0.13785338079E+04 0.  0.
        5    1    3    3  502    0  0.18085920621E+03 -0.15975050954E+03 -0.79406595595E+03  0.82993560603E+03  0.46999998093E+01 0.  1.
       -5    1    3    3    0  502 -0.18085920621E+03  0.15975050954E+03  0.52208375029E+03  0.57517285235E+03  0.46999998093E+01 0. -1.
</event>
<event>
 5   0  0.4306214E-03  0.1257634E+04  0.7818609E-02  0.9063853E-01
       -2   -1    0    0    0  501  0.00000000000E+00  0.00000000000E+00  0.40797347120E+03  0.40797347120E+03  0.25500000920E-02 0. -1.
        2   -1    0    0  501    0  0.00000000000E+00  0.00000000000E+00 -0.96920739313E+03  0.96920739313E+03  0.25500000920E-02 0.  1.
    10030    2    1    2    0    0  0.00000000000E+00  0.00000000000E+00 -0.56123392193E+03  0.13771808643E+04  0.12576341352E+04 0.  0.
        3    1    3    3  502    0 -0.36672744216E+03 -0.45881414325E+03 -0.52648455885E+03  0.78878731974E+03  0.10100000352E+00 0.  1.
       -3    1    3    3    0  502  0.36672744216E+03  0.45881414325E+03 -0.34749363083E+02  0.58839354459E+03  0.10100000352E+00 0. -1.
</event>
<event>
 5   0  0.4263540E-03  0.1290146E+04  0.7818609E-02  0.9037417E-01
       -2   -1    0    0    0  501  0.00000000000E+00  0.00000000000E+00  0.56029801028E+03  0.56029801029E+03  0.25500000920E-02 0. -1.
        2   -1    0    0  501    0  0.00000000000E+00  0.00000000000E+00 -0.74267418618E+03  0.74267418618E+03  0.25500000920E-02 0.  1.
    10030    2    1    2    0    0  0.00000000000E+00  0.00000000000E+00 -0.18237617590E+03  0.13029721965E+04  0.12901455248E+04 0.  0.
        2    1    3    3  502    0  0.63795331817E+03 -0.74576650726E+01  0.50420375872E+01  0.63801682978E+03  0.25500000920E-02 0.  1.
       -2    1    3    3    0  502 -0.63795331817E+03  0.74576650726E+01 -0.18741821348E+03  0.66495536669E+03  0.25500000920E-02 0. -1.
</event>
<event>
 5   0  0.4453011E-03  0.1308760E+04  0.7818609E-02  0.9022647E-01
        2   -1    0    0  501    0  0.00000000000E+00  0.00000000000E+00  0.11293278077E+04  0.11293278077E+04  0.25500000920E-02 0.  1.
       -2   -1    0    0    0  501  0.00000000000E+00  0.00000000000E+00 -0.37917499357E+03  0.37917499358E+03  0.25500000920E-02 0. -1.
    10030    2    1    2    0    0  0.00000000000E+00  0.00000000000E+00  0.75015281408E+03  0.15085028012E+04  0.13087595107E+04 0.  0.
        1    1    3    3  502    0  0.61738116127E+03 -0.21031241210E+03  0.43630707878E+03  0.78470037339E+03  0.50400001928E-02 0.  1.
       -1    1    3    3    0  502 -0.61738116127E+03  0.21031241210E+03  0.31384573529E+03  0.72380242785E+03  0.50400001928E-02 0. -1.
</event>
<event>
 5   0  0.2462055E-03  0.1352810E+04  0.7818609E-02  0.8988704E-01
        1   -1    0    0  501    0  0.00000000000E+00  0.00000000000E+00  0.59866858069E+03  0.59866858071E+03  0.50400001928E-02 0.  1.
       -1   -1    0    0    0  501  0.00000000000E+00  0.00000000000E+00 -0.76423528948E+03  0.76423528949E+03  0.50400001928E-02 0. -1.
    10030    2    1    2    0    0  0.00000000000E+00  0.00000000000E+00 -0.16556670879E+03  0.13629038702E+04  0.13528098996E+04 0.  0.
        2    1    3    3  502    0 -0.31421389626E+03 -0.50936467234E+03  0.23475232265E+03  0.64287743390E+03  0.25500000920E-02 0.  1.
       -2    1    3    3    0  502  0.31421389626E+03  0.50936467234E+03 -0.40031903144E+03  0.72002643630E+03  0.25500000920E-02 0. -1.
</event>
<event>
 5   0  0.4310889E-03  0.1359790E+04  0.7818609E-02  0.8983450E-01
        2   -1    0    0  501    0  0.00000000000E+00  0.00000000000E+00  0.21946282171E+04  0.21946282171E+04  0.25500000920E-02 0. -1.
       -2   -1    0    0    0  501  0.00000000000E+00  0.00000000000E+00 -0.21063121766E+03  0.21063121767E+03  0.25500000920E-02 0.  1.
    10030    2    1    2    0    0  0.00000000000E+00  0.00000000000E+00  0.19839969994E+04  0.24052594348E+04  0.13597900039E+04 0.  0.
        4    1    3    3  502    0  0.30774135532E+03  0.59641026410E+03  0.79948125429E+03  0.10438303664E+04  0.12699999809E+01 0.  1.
       -4    1    3    3    0  502 -0.30774135532E+03 -0.59641026410E+03  0.11845157452E+04  0.13614290684E+04  0.12699999809E+01 0. -1.
</event>
<event>
 5   0  0.2356769E-03  0.1331602E+04  0.7818609E-02  0.9004873E-01
       -1   -1    0    0    0  501  0.00000000000E+00  0.00000000000E+00  0.72247233811E+03  0.72247233813E+03  0.50400001928E-02 0.  1.
        1   -1    0    0  501    0  0.00000000000E+00  0.00000000000E+00 -0.61357518394E+03  0.61357518396E+03  0.50400001928E-02 0. -1.
    10030    2    1    2    0    0  0.00000000000E+00  0.00000000000E+00  0.10889715417E+03  0.13360475221E+04  0.13316021895E+04 0.  0.
        1    1    3    3  502    0 -0.58654054353E+03 -0.25697354572E+03 -0.12843962324E+03  0.65311710225E+03  0.50400001928E-02 0.  1.
       -1    1    3    3    0  502  0.58654054353E+03  0.25697354572E+03  0.23733677742E+03  0.68293041984E+03  0.50400001928E-02 0. -1.
</event>
<event>
 5   0  0.2511542E-03  0.1385862E+04  0.7818609E-02  0.8964116E-01
       -1   -1    0    0    0  501  0.00000000000E+00  0.00000000000E+00  0.13164892462E+04  0.13164892462E+04  0.50400001928E-02 0.  1.
        1   -1    0    0  501    0  0.00000000000E+00  0.00000000000E+00 -0.36472269496E+03  0.36472269499E+03  0.50400001928E-02 0. -1.
    10030    2    1    2    0    0  0.00000000000E+00  0.00000000000E+00  0.95176655125E+03  0.16812119412E+04  0.13858621949E+04 0.  0.
        4    1    3    3  502    0  0.64770645286E+02  0.18121649541E+03 -0.33165244293E+03  0.38344440340E+03  0.12699999809E+01 0. -1.
       -4    1    3    3    0  502 -0.64770645286E+02 -0.18121649541E+03  0.12834189942E+04  0.12977675378E+04  0.12699999809E+01 0.  1.
</event>
<event>
 5   0  0.4306214E-03  0.1296013E+04  0.7818609E-02  0.9032733E-01
       -2   -1    0    0    0  501  0.00000000000E+00  0.00000000000E+00  0.19521869714E+03  0.19521869716E+03  0.25500000920E-02 0.  1.
        2   -1    0    0  501    0  0.00000000000E+00  0.00000000000E+00 -0.21509853679E+04  0.21509853679E+04  0.25500000920E-02 0. -1.
    10030    2    1    2    0    0  0.00000000000E+00  0.00000000000E+00 -0.19557666708E+04  0.23462040651E+04  0.12960132115E+04 0.  0.
        3    1    3    3  502    0 -0.23678290743E+03  0.39007918491E+03 -0.18107989856E+04  0.18674102100E+04  0.10100000352E+00 0. -1.
       -3    1    3    3    0  502  0.23678290743E+03 -0.39007918491E+03 -0.14496768514E+03  0.47879385510E+03  0.10100000352E+00 0.  1.
</event>
<event>
 5   0  0.2458456E-03  0.1311345E+04  0.7818609E-02  0.9020616E-01
        1   -1    0    0  501    0  0.00000000000E+00  0.00000000000E+00  0.47965483328E+03  0.47965483331E+03  0.50400001928E-02 0. -1.
       -1   -1    0    0    0  501  0.00000000000E+00  0.00000000000E+00 -0.89628338099E+03  0.89628338101E+03  0.50400001928E-02 0.  1.
    10030    2    1    2    0    0  0.00000000000E+00  0.00000000000E+00 -0.41662854771E+03  0.13759382143E+04  0.13113453484E+04 0.  0.
        5    1    3    3  502    0  0.22365820872E+03 -0.27801169064E+03 -0.78547338243E+03  0.86273055989E+03  0.46999998093E+01 0.  1.
       -5    1    3    3    0  502 -0.22365820872E+03  0.27801169064E+03  0.36884483472E+03  0.51320765442E+03  0.46999998093E+01 0. -1.
</event>
<event>
 5   0  0.4306214E-03  0.1336793E+04  0.7818609E-02  0.9000887E-01
        2   -1    0    0  501    0  0.00000000000E+00  0.00000000000E+00  0.60666688351E+03  0.60666688351E+03  0.25500000920E-02 0. -1.
       -2   -1    0    0    0  501  0.00000000000E+00  0.00000000000E+00 -0.73640678817E+03  0.73640678817E+03  0.25500000920E-02 0.  1.
    10030    2    1    2    0    0  0.00000000000E+00  0.00000000000E+00 -0.12973990466E+03  0.13430736717E+04  0.13367925960E+04 0.  0.
        3    1    3    3  502    0  0.49940932423E+01  0.58823560514E+03  0.25396562961E+03  0.64073755887E+03  0.10100000352E+00 0. -1.
       -3    1    3    3    0  502 -0.49940932423E+01 -0.58823560514E+03 -0.38370553427E+03  0.70233611281E+03  0.10100000352E+00 0.  1.
</event>
<event>
 5   0  0.2511542E-03  0.1288407E+04  0.7818609E-02  0.9038809E-01
        1   -1    0    0  501    0  0.00000000000E+00  0.00000000000E+00  0.14208809100E+04  0.14208809101E+04  0.50400001928E-02 0. -1.
       -1   -1    0    0    0  501  0.00000000000E+00  0.00000000000E+00 -0.29207112861E+03  0.29207112866E+03  0.50400001928E-02 0.  1.
    10030    2    1    2    0    0  0.00000000000E+00  0.00000000000E+00  0.11288097814E+04  0.17129520387E+04  0.12884072199E+04 0.  0.
        4    1    3    3  502    0  0.24901634307E+03  0.55884419949E+03  0.83256011391E+03  0.10331863020E+04  0.12699999809E+01 0. -1.
       -4    1    3    3    0  502 -0.24901634307E+03 -0.55884419949E+03  0.29624966752E+03  0.67976573673E+03  0.12699999809E+01 0.  1.
</event>
<event>
 5   0  0.2458456E-03  0.1301507E+04  0.7818609E-02  0.9028371E-01
       -1   -1    0    0    0  501  0.00000000000E+00  0.00000000000E+00  0.51037387646E+03  0.51037387648E+03  0.50400001928E-02 0.  1.
        1   -1    0    0  501    0  0.00000000000E+00  0.00000000000E+00 -0.82974464677E+03  0.82974464679E+03  0.50400001928E-02 0. -1.
    10030    2    1    2    0    0  0.00000000000E+00  0.00000000000E+00 -0.31937077031E+03  0.13401185233E+04  0.13015068065E+04 0.  0.
        5    1    3    3  502    0 -0.46229954351E+03  0.45788531912E+03 -0.16878314816E+03  0.67222739791E+03  0.46999998093E+01 0.  1.
       -5    1    3    3    0  502  0.46229954351E+03 -0.45788531912E+03 -0.15058762215E+03  0.66789112536E+03  0.46999998093E+01 0. -1.
</event>
<event>
 5   0  0.4388937E-03  0.1298910E+04  0.7818609E-02  0.9030430E-01
       -2   -1    0    0    0  501  0.00000000000E+00  0.00000000000E+00  0.82487636737E+03  0.82487636737E+03  0.25500000920E-02 0. -1.
        2   -1    0    0  501    0  0.00000000000E+00  0.00000000000E+00 -0.51133977835E+03  0.51133977836E+03  0.25500000920E-02 0.  1.
    10030    2    1    2    0    0  0.00000000000E+00  0.00000000000E+00  0.31353658902E+03  0.13362161457E+04  0.12989104648E+04 0.  0.
        5    1    3    3  502    0 -0.44801634568E+03  0.13236726528E+03 -0.30733217062E+03  0.55920916660E+03  0.46999998093E+01 0.  1.
       -5    1    3    3    0  502  0.44801634568E+03 -0.13236726528E+03  0.62086875964E+03  0.77700697913E+03  0.46999998093E+01 0. -1.
</event>
<event>
 5   0  0.2356769E-03  0.1299008E+04  0.7818609E-02  0.9030352E-01
        1   -1    0    0  501    0  0.00000000000E+00  0.00000000000E+00  0.84560841874E+03  0.84560841875E+03  0.50400001928E-02 0. -1.
       -1   -1    0    0    0  501  0.00000000000E+00  0.00000000000E+00 -0.49887801386E+03  0.49887801388E+03  0.50400001928E-02 0.  1.
    10030    2    1    2    0    0  0.00000000000E+00  0.00000000000E+00  0.34673040488E+03  0.13444864326E+04  0.12990080038E+04 0.  0.
        1    1    3    3  502    0  0.35841118215E+03  0.29607204406E+03 -0.29609856938E+03  0.55117292529E+03  0.50400001928E-02 0.  1.
       -1    1    3    3    0  502 -0.35841118215E+03 -0.29607204406E+03  0.64282897426E+03  0.79331350734E+03  0.50400001928E-02 0. -1.
</event>
<event>
 5   0  0.4388937E-03  0.1430107E+04  0.7818609E-02  0.8932309E-01
       -2   -1    0    0    0  501  0.00000000000E+00  0.00000000000E+00  0.37148464108E+03  0.37148464109E+03  0.25500000920E-02 0. -1.
        2   -1    0    0  501    0  0.00000000000E+00  0.00000000000E+00 -0.13763741007E+04  0.13763741007E+04  0.25500000920E-02 0.  1.
    10030    2    1    2    0    0  0.00000000000E+00  0.00000000000E+00 -0.10048894596E+04  0.17478587418E+04  0.14301074628E+04 0.  0.
        5    1    3    3  502    0 -0.65863702460E+03  0.22887697211E+03 -0.69604605628E+03  0.98523580985E+03  0.46999998093E+01 0.  1.
       -5    1    3    3    0  502  0.65863702460E+03 -0.22887697211E+03 -0.30884340332E+03  0.76262293193E+03  0.46999998093E+01 0. -1.
</event>
<event>
 5   0  0.2462055E-03  0.1211261E+04  0.7818609E-02  0.9103057E-01
       -1   -1    0    0    0  501  0.00000000000E+00  0.00000000000E+00  0.57921629145E+03  0.57921629147E+03  0.50400001928E-02 0.  1.
        1   -1    0    0  501    0  0.00000000000E+00  0.00000000000E+00 -0.63324923299E+03  0.63324923301E+03  0.50400001928E-02 0. -1.
    10030    2    1    2    0    0  0.00000000000E+00  0.00000000000E+00 -0.54032941536E+02  0.12124655245E+04  0.12112609501E+04 0.  0.
        2    1    3    3  502    0 -0.54574770718E+03 -0.11406652128E+03  0.20972780469E+03  0.59568236774E+03  0.25500000920E-02 0. -1.
       -2    1    3    3    0  502  0.54574770718E+03  0.11406652128E+03 -0.26376074623E+03  0.61678315673E+03  0.25500000920E-02 0.  1.
</event>
<event>
 5   0  0.2370801E-03  0.1285808E+04  0.7818609E-02  0.9040896E-01
        1   -1    0    0  501    0  0.00000000000E+00  0.00000000000E+00  0.42818465057E+03  0.42818465060E+03  0.50400001928E-02 0.  1.
       -1   -1    0    0    0  501  0.00000000000E+00  0.00000000000E+00 -0.96529763580E+03  0.96529763582E+03  0.50400001928E-02 0. -1.
    10030    2    1    2    0    0  0.00000000000E+00  0.00000000000E+00 -0.53711298524E+03  0.13934822864E+04  0.12858081208E+04 0.  0.
        3    1    3    3  502    0  0.17380753225E+03 -0.49780812365E+03  0.13008272279E+03  0.54308701993E+03  0.10100000352E+00 0.  1.
       -3    1    3    3    0  502 -0.17380753225E+03  0.49780812365E+03 -0.66719570803E+03  0.85039526649E+03  0.10100000352E+00 0. -1.
</event>
<event>
 5   0  0.1661750E-03  0.1211892E+04  0.7818609E-02  0.9102510E-01
        3   -1    0    0  501    0  0.00000000000E+00  0.00000000000E+00  0.17262201152E+04  0.17262201182E+04  0.10100000352E+00 0. -1.
       -3   -1    0    0    0  501  0.00000000000E+00  0.00000000000E+00 -0.21270219945E+03  0.21270222343E+03  0.10100000352E+00 0.  1.
    10030    2    1    2    0    0  0.00000000000E+00  0.00000000000E+00  0.15135179158E+04  0.19389223416E+04  0.12118924727E+04 0.  0.
        5    1    3    3  502    0 -0.42276616783E+03 -0.15952771522E+01  0.14512298284E+04  0.15115633901E+04  0.46999998093E+01 0. -1.
       -5    1    3    3    0  502  0.42276616783E+03  0.15952771522E+01  0.62288087368E+02  0.42735895147E+03  0.46999998093E+01 0.  1.
</event>
<event>
 5   0  0.2458456E-03  0.1297775E+04  0.7818609E-02  0.9031332E-01
       -1   -1    0    0    0  501  0.00000000000E+00  0.00000000000E+00  0.63014242376E+03  0.63014242378E+03  0.50400001928E-02 0.  1.
        1   -1    0    0  501    0  0.00000000000E+00  0.00000000000E+00 -0.66819013191E+03  0.66819013193E+03  0.50400001928E-02 0. -1.
    10030    2    1    2    0    0  0.00000000000E+00  0.00000000000E+00 -0.38047708147E+02  0.12983325557E+04  0.12977749409E+04 0.  0.
        5    1    3    3  502    0 -0.38839219934E+03  0.18257116112E+03  0.46785981796E+03  0.63489812462E+03  0.46999998093E+01 0.  1.
       -5    1    3    3    0  502  0.38839219934E+03 -0.18257116112E+03 -0.50590752611E+03  0.66343443109E+03  0.46999998093E+01 0. -1.
</event>
<event>
 5   0  0.4263540E-03  0.1011529E+04  0.7818609E-02  0.9295989E-01
       -2   -1    0    0    0  501  0.00000000000E+00  0.00000000000E+00  0.24589111178E+03  0.24589111180E+03  0.25500000920E-02 0.  1.
        2   -1    0    0  501    0  0.00000000000E+00  0.00000000000E+00 -0.10402888921E+04  0.10402888921E+04  0.25500000920E-02 0. -1.
    10030    2    1    2    0    0  0.00000000000E+00  0.00000000000E+00 -0.79439778027E+03  0.12861800039E+04  0.10115291242E+04 0.  0.
        2    1    3    3  502    0 -0.13059197890E+03  0.82486686468E+02  0.21516658244E+03  0.26486784743E+03  0.25500000920E-02 0.  1.
       -2    1    3    3    0  502  0.13059197890E+03 -0.82486686468E+02 -0.10095643627E+04  0.10213121564E+04  0.25500000920E-02 0. -1.
</event>
<event>
 5   0  0.4453011E-03  0.1300828E+04  0.7818609E-02  0.9028909E-01
       -2   -1    0    0    0  501  0.00000000000E+00  0.00000000000E+00  0.17481021539E+03  0.17481021541E+03  0.25500000920E-02 0. -1.
        2   -1    0    0  501    0  0.00000000000E+00  0.00000000000E+00 -0.24199869301E+04  0.24199869301E+04  0.25500000920E-02 0.  1.
    10030    2    1    2    0    0  0.00000000000E+00  0.00000000000E+00 -0.22451767147E+04  0.25947971455E+04  0.13008281001E+04 0.  0.
        1    1    3    3  502    0 -0.30737158448E+03  0.31993368904E+03 -0.20712978340E+04  0.21182798620E+04  0.50400001928E-02 0.  1.
       -1    1    3    3    0  502  0.30737158448E+03 -0.31993368904E+03 -0.17387888067E+03  0.47651728352E+03  0.50400001928E-02 0. -1.
</event>
<event>
 5   0  0.2356769E-03  0.1440668E+04  0.7818609E-02  0.8924896E-01
        1   -1    0    0  501    0  0.00000000000E+00  0.00000000000E+00  0.71736695329E+03  0.71736695331E+03  0.50400001928E-02 0. -1.
       -1   -1    0    0    0  501  0.00000000000E+00  0.00000000000E+00 -0.72331282476E+03  0.72331282477E+03  0.50400001928E-02 0.  1.
    10030    2    1    2    0    0  0.00000000000E+00  0.00000000000E+00 -0.59458714633E+01  0.14406797781E+04  0.14406675083E+04 0.  0.
        1    1    3    3  502    0  0.96817239849E+02 -0.69882795405E+03  0.14244711200E+03  0.71973972173E+03  0.50400001928E-02 0. -1.
       -1    1    3    3    0  502 -0.96817239849E+02  0.69882795405E+03 -0.14839298346E+03  0.72094005635E+03  0.50400001928E-02 0.  1.
</event>
<event>
 5   0  0.2370801E-03  0.1292726E+04  0.7818609E-02  0.9035354E-01
       -1   -1    0    0    0  501  0.00000000000E+00  0.00000000000E+00  0.26442041677E+03  0.26442041682E+03  0.50400001928E-02 0.  1.
        1   -1    0    0  501    0  0.00000000000E+00  0.00000000000E+00 -0.15800029154E+04  0.15800029154E+04  0.50400001928E-02 0. -1.
    10030    2    1    2    0    0  0.00000000000E+00  0.00000000000E+00 -0.13155824987E+04  0.18444233322E+04  0.12927258479E+04 0.  0.
        3    1    3    3  502    0 -0.53035515082E+03  0.93600825829E+02 -0.11677441560E+04  0.12859487255E+04  0.10100000352E+00 0. -1.
       -3    1    3    3    0  502  0.53035515082E+03 -0.93600825829E+02 -0.14783834266E+03  0.55847460673E+03  0.10100000352E+00 0.  1.
</event>
<event>
 5   0  0.2370801E-03  0.1327833E+04  0.7818609E-02  0.9007780E-01
       -1   -1    0    0    0  501  0.00000000000E+00  0.00000000000E+00  0.75212172996E+03  0.75212172998E+03  0.50400001928E-02 0.  1.
        1   -1    0    0  501    0  0.00000000000E+00  0.00000000000E+00 -0.58605520332E+03  0.58605520334E+03  0.50400001928E-02 0. -1.
    10030    2    1    2    0    0  0.00000000000E+00  0.00000000000E+00  0.16606652664E+03  0.13381769333E+04  0.13278326000E+04 0.  0.
        3    1    3    3  502    0  0.51921307334E+03 -0.24905294708E+03  0.41602413208E+03  0.71041232721E+03  0.10100000352E+00 0.  1.
       -3    1    3    3    0  502 -0.51921307334E+03  0.24905294708E+03 -0.24995760544E+03  0.62776460612E+03  0.10100000352E+00 0. -1.
</event>
<event>
 5   0  0.2462055E-03  0.1285185E+04  0.7818609E-02  0.9041397E-01
        1   -1    0    0  501    0  0.00000000000E+00  0.00000000000E+00  0.35759876871E+03  0.35759876875E+03  0.50400001928E-02 0.  1.
       -1   -1    0    0    0  501  0.00000000000E+00  0.00000000000E+00 -0.11547164635E+04  0.11547164635E+04  0.50400001928E-02 0. -1.
    10030    2    1    2    0    0  0.00000000000E+00  0.00000000000E+00 -0.79711769478E+03  0.15123152323E+04  0.12851851004E+04 0.  0.
        2    1    3    3  502    0 -0.14553137612E+03  0.32971338542E+03  0.22747329246E+03  0.42618587113E+03  0.25500000920E-02 0.  1.
       -2    1    3    3    0  502  0.14553137612E+03 -0.32971338542E+03 -0.10245909872E+04  0.10861293611E+04  0.25500000920E-02 0. -1.
</event>
<event>
 5   0  0.4453011E-03  0.1304325E+04  0.7818609E-02  0.9026143E-01
        2   -1    0    0  501    0  0.00000000000E+00  0.00000000000E+00  0.11920210099E+04  0.11920210099E+04  0.25500000920E-02 0. -1.
       -2   -1    0    0    0  501  0.00000000000E+00  0.00000000000E+00 -0.35680210845E+03  0.35680210846E+03  0.25500000920E-02 0.  1.
    10030    2    1    2    0    0  0.00000000000E+00  0.00000000000E+00  0.83521890148E+03  0.15488231184E+04  0.13043245143E+04 0.  0.
        1    1    3    3  502    0  0.28998773184E+03 -0.59456051323E+02  0.11076486915E+04  0.11465223637E+04  0.50400001928E-02 0. -1.
       -1    1    3    3    0  502 -0.28998773184E+03  0.59456051323E+02 -0.27242979006E+03  0.40230075465E+03  0.50400001928E-02 0.  1.
</event>
<event>
 5   0  0.4306214E-03  0.1161713E+04  0.7818609E-02  0.9147046E-01
        2   -1    0    0  501    0  0.00000000000E+00  0.00000000000E+00  0.91166044533E+03  0.91166044533E+03  0.25500000920E-02 0. -1.
       -2   -1    0    0    0  501  0.00000000000E+00  0.00000000000E+00 -0.37008733403E+03  0.37008733404E+03  0.25500000920E-02 0.  1.
    10030    2    1    2    0    0  0.00000000000E+00  0.00000000000E+00  0.54157311130E+03  0.12817477794E+04  0.11617125010E+04 0.  0.
        3    1    3    3  502    0  0.44746824343E+03 -0.42969638701E+02 -0.13508116458E+03  0.46938379814E+03  0.10100000352E+00 0.  1.
       -3    1    3    3    0  502 -0.44746824343E+03  0.42969638701E+02  0.67665427588E+03  0.81236398123E+03  0.10100000352E+00 0. -1.
</event>
<event>
 5   0  0.2370801E-03  0.1270532E+04  0.7818609E-02  0.9053265E-01
       -1   -1    0    0    0  501  0.00000000000E+00  0.00000000000E+00  0.71814131980E+03  0.71814131982E+03  0.50400001928E-02 0. -1.
        1   -1    0    0  501    0  0.00000000000E+00  0.00000000000E+00 -0.56195494528E+03  0.56195494530E+03  0.50400001928E-02 0.  1.
    10030    2    1    2    0    0  0.00000000000E+00  0.00000000000E+00  0.15618637452E+03  0.12800962651E+04  0.12705322760E+04 0.  0.
        3    1    3    3  502    0 -0.23450736512E+03 -0.52123667217E+03  0.35745585529E+03  0.67413357088E+03  0.10100000352E+00 0. -1.
       -3    1    3    3    0  502  0.23450736512E+03  0.52123667217E+03 -0.20126948077E+03  0.60596269423E+03  0.10100000352E+00 0.  1.
</event>
<event>
 5   0  0.4310889E-03  0.1237055E+04  0.7818609E-02  0.9081027E-01
       -2   -1    0    0    0  501  0.00000000000E+00  0.00000000000E+00  0.42442542526E+03  0.42442542527E+03  0.25500000920E-02 0.  1.
        2   -1    0    0  501    0  0.00000000000E+00  0.00000000000E+00 -0.90139742761E+03  0.90139742761E+03  0.25500000920E-02 0. -1.
    10030    2    1    2    0    0  0.00000000000E+00  0.00000000000E+00 -0.47697200235E+03  0.13258228529E+04  0.12370545446E+04 0.  0.
        4    1    3    3  502    0 -0.31576942801E+02 -0.12067158982E+03  0.41080433046E+03  0.42932568841E+03  0.12699999809E+01 0.  1.
       -4    1    3    3    0  502  0.31576942801E+02  0.12067158982E+03 -0.88777633281E+03  0.89649716447E+03  0.12699999809E+01 0. -1.
</event>
<event>
 5   0  0.2370801E-03  0.1297725E+04  0.7818609E-02  0.9031371E-01
       -1   -1    0    0    0  501  0.00000000000E+00  0.00000000000E+00  0.30585722390E+03  0.30585722394E+03  0.50400001928E-02 0. -1.
        1   -1    0    0  501    0  0.00000000000E+00  0.00000000000E+00 -0.13765326511E+04  0.13765326511E+04  0.50400001928E-02 0.  1.
    10030    2    1    2    0    0  0.00000000000E+00  0.00000000000E+00 -0.10706754272E+04  0.16823898751E+04  0.12977248635E+04 0.  0.
        3    1    3    3  502    0 -0.56284617970E+03 -0.30037243070E+03 -0.38192725506E+03  0.74356429277E+03  0.10100000352E+00 0.  1.
       -3    1    3    3    0  502  0.56284617970E+03  0.30037243070E+03 -0.68874817216E+03  0.93882558230E+03  0.10100000352E+00 0. -1.
</event>
<event>
 5   0  0.2370801E-03  0.1032467E+04  0.7818609E-02  0.9273636E-01
        1   -1    0    0  501    0  0.00000000000E+00  0.00000000000E+00  0.11664700734E+04  0.11664700734E+04  0.50400001928E-02 0. -1.
       -1   -1    0    0    0  501  0.00000000000E+00  0.00000000000E+00 -0.22846435072E+03  0.22846435078E+03  0.50400001928E-02 0.  1.
    10030    2    1    2    0    0  0.00000000000E+00  0.00000000000E+00  0.93800572270E+03  0.13949344242E+04  0.10324666155E+04 0.  0.
        3    1    3    3  502    0  0.26097197918E+03 -0.44540320603E+03  0.47242828151E+03  0.69977059186E+03  0.10100000352E+00 0. -1.
       -3    1    3    3    0  502 -0.26097197918E+03  0.44540320603E+03  0.46557744119E+03  0.69516383235E+03  0.10100000352E+00 0.  1.
</event>
<event>
 5   0  0.4306214E-03  0.1316821E+04  0.7818609E-02  0.9016331E-01
        2   -1    0    0  501    0  0.00000000000E+00  0.00000000000E+00  0.22766278078E+04  0.22766278078E+04  0.25500000920E-02 0. -1.
       -2   -1    0    0    0  501  0.00000000000E+00  0.00000000000E+00 -0.19041506550E+03  0.19041506552E+03  0.25500000920E-02 0.  1.
    10030    2    1    2    0    0  0.00000000000E+00  0.00000000000E+00  0.20862127423E+04  0.24670428734E+04  0.13168207671E+04 0.  0.
        3    1    3    3  502    0 -0.25054335516E+03  0.57919067112E+03  0.69125817818E+03  0.93598701136E+03  0.10100000352E+00 0. -1.
       -3    1    3    3    0  502  0.25054335516E+03 -0.57919067112E+03  0.13949545642E+04  0.15310558620E+04  0.10100000352E+00 0.  1.
</event>
<event>
 5   0  0.2511542E-03  0.1309872E+04  0.7818609E-02  0.9021773E-01
        1   -1    0    0  501    0  0.00000000000E+00  0.00000000000E+00  0.80635370114E+03  0.80635370116E+03  0.50400001928E-02 0. -1.
       -1   -1    0    0    0  501  0.00000000000E+00  0.00000000000E+00 -0.53195134918E+03  0.53195134920E+03  0.50400001928E-02 0.  1.
    10030    2    1    2    0    0  0.00000000000E+00  0.00000000000E+00  0.27440235197E+03  0.13383050504E+04  0.13098716567E+04 0.  0.
        4    1    3    3  502    0  0.40701470546E+03 -0.15641817881E+03 -0.36209033302E+03  0.56677918036E+03  0.12699999809E+01 0.  1.
       -4    1    3    3    0  502 -0.40701470546E+03  0.15641817881E+03  0.63649268499E+03  0.77152586999E+03  0.12699999809E+01 0. -1.
</event>
<event>
 5   0  0.2370801E-03  0.9279305E+03  0.7818609E-02  0.9391325E-01
        1   -1    0    0  501    0  0.00000000000E+00  0.00000000000E+00  0.48726522403E+03  0.48726522406E+03  0.50400001928E-02 0.  1.
       -1   -1    0    0    0  501  0.00000000000E+00  0.00000000000E+00 -0.44177946566E+03  0.44177946569E+03  0.50400001928E-02 0. -1.
    10030    2    1    2    0    0  0.00000000000E+00  0.00000000000E+00  0.45485758370E+02  0.92904468975E+03  0.92793053691E+03 0.  0.
        3    1    3    3  502    0 -0.41948558207E+03 -0.16855547130E+03 -0.81711960150E+02  0.45940826626E+03  0.10100000352E+00 0. -1.
       -3    1    3    3    0  502  0.41948558207E+03  0.16855547130E+03  0.12719771852E+03  0.46963642349E+03  0.10100000352E+00 0.  1.
</event>
<event>
 5   0  0.4263540E-03  0.1288258E+04  0.7818609E-02  0.9038929E-01
        2   -1    0    0  501    0  0.00000000000E+00  0.00000000000E+00  0.59045464831E+03  0.59045464832E+03  0.25500000920E-02 0. -1.
       -2   -1    0    0    0  501  0.00000000000E+00  0.00000000000E+00 -0.70268244884E+03  0.70268244884E+03  0.25500000920E-02 0.  1.
    10030    2    1    2    0    0  0.00000000000E+00  0.00000000000E+00 -0.11222780052E+03  0.12931370972E+04  0.12882579217E+04 0.  0.
        2    1    3    3  502    0 -0.11205090500E+03  0.62484074183E+02  0.57749978937E+03  0.59157896478E+03  0.25500000920E-02 0. -1.
       -2    1    3    3    0  502  0.11205090500E+03 -0.62484074183E+02 -0.68972758990E+03  0.70155813238E+03  0.25500000920E-02 0.  1.
</event>
<event>
 5   0  0.2511542E-03  0.1297475E+04  0.7818609E-02  0.9031570E-01
        1   -1    0    0  501    0  0.00000000000E+00  0.00000000000E+00  0.72106331294E+03  0.72106331296E+03  0.50400001928E-02 0. -1.
       -1   -1    0    0    0  501  0.00000000000E+00  0.00000000000E+00 -0.58366617824E+03  0.58366617826E+03  0.50400001928E-02 0.  1.
    10030    2    1    2    0    0  0.00000000000E+00  0.00000000000E+00  0.13739713470E+03  0.13047294912E+04  0.12974748832E+04 0.  0.
        4    1    3    3  502    0  0.73305846137E+02 -0.26146343007E+03 -0.52376609711E+03  0.58997407547E+03  0.12699999809E+01 0.  1.
       -4    1    3    3    0  502 -0.73305846137E+02  0.26146343007E+03  0.66116323181E+03  0.71475541575E+03  0.12699999809E+01 0. -1.
</event>
<event>
 5   0  0.4453011E-03  0.6790135E+03  0.7818609E-02  0.9753811E-01
        2   -1    0    0  501    0  0.00000000000E+00  0.00000000000E+00  0.18092650738E+04  0.18092650738E+04  0.25500000920E-02 0. -1.
       -2   -1    0    0    0  501  0.00000000000E+00  0.00000000000E+00 -0.63708104434E+02  0.63708104485E+02  0.25500000920E-02 0.  1.
    10030    2    1    2    0    0  0.00000000000E+00  0.00000000000E+00  0.17455569694E+04  0.18729731783E+04  0.67901354426E+03 0.  0.
        1    1    3    3  502    0  0.20035404155E+03 -0.61802374022E+02  0.13621740460E+03  0.25003291132E+03  0.50400001928E-02 0.  1.
       -1    1    3    3    0  502 -0.20035404155E+03  0.61802374022E+02  0.16093395648E+04  0.16229402670E+04  0.50400001928E-02 0. -1.
</event>
<event>
 5   0  0.1661750E-03  0.1288400E+04  0.7818609E-02  0.9038815E-01
        4   -1    0    0  501    0  0.00000000000E+00  0.00000000000E+00  0.12128457685E+04  0.12128464334E+04  0.12699999809E+01 0.  1.
       -4   -1    0    0    0  501  0.00000000000E+00  0.00000000000E+00 -0.34216325488E+03  0.34216561179E+03  0.12699999809E+01 0. -1.
    10030    2    1    2    0    0  0.00000000000E+00  0.00000000000E+00  0.87068251364E+03  0.15550120452E+04  0.12883999462E+04 0.  0.
        5    1    3    3  502    0 -0.31589636476E+03 -0.19876876125E+03  0.10690349334E+04  0.11323238550E+04  0.46999998093E+01 0.  1.
       -5    1    3    3    0  502  0.31589636476E+03  0.19876876125E+03 -0.19835241980E+03  0.42268819023E+03  0.46999998093E+01 0. -1.
</event>
<event>
 5   0  0.2511542E-03  0.1189379E+04  0.7818609E-02  0.9122204E-01
       -1   -1    0    0    0  501  0.00000000000E+00  0.00000000000E+00  0.17774855754E+03  0.17774855761E+03  0.50400001928E-02 0.  1.
        1   -1    0    0  501    0  0.00000000000E+00  0.00000000000E+00 -0.19896396531E+04  0.19896396531E+04  0.50400001928E-02 0. -1.
    10030    2    1    2    0    0  0.00000000000E+00  0.00000000000E+00 -0.18118910956E+04  0.21673882107E+04  0.11893789614E+04 0.  0.
        4    1    3    3  502    0  0.22965813057E+03  0.41509598067E+03 -0.15594488782E+04  0.16300091861E+04  0.12699999809E+01 0. -1.
       -4    1    3    3    0  502 -0.22965813057E+03 -0.41509598067E+03 -0.25244221738E+03  0.53737902464E+03  0.12699999809E+01 0.  1.
</event>
<event>
 5   0  0.4306214E-03  0.1373550E+04  0.7818609E-02  0.8973190E-01
        2   -1    0    0  501    0  0.00000000000E+00  0.00000000000E+00  0.27826482543E+04  0.27826482543E+04  0.25500000920E-02 0.  1.
       -2   -1    0    0    0  501  0.00000000000E+00  0.00000000000E+00 -0.16950047182E+03  0.16950047184E+03  0.25500000920E-02 0. -1.
    10030    2    1    2    0    0  0.00000000000E+00  0.00000000000E+00  0.26131477825E+04  0.29521487262E+04  0.13735504243E+04 0.  0.
        3    1    3    3  502    0 -0.24441831577E+03 -0.54643956387E+03  0.58304822066E+03  0.83563254357E+03  0.10100000352E+00 0.  1.
       -3    1    3    3    0  502  0.24441831577E+03  0.54643956387E+03  0.20300995618E+04  0.21165161826E+04  0.10100000352E+00 0. -1.
</event>
<event>
 5   0  0.2370801E-03  0.1242038E+04  0.7818609E-02  0.9076836E-01
       -1   -1    0    0    0  501  0.00000000000E+00  0.00000000000E+00  0.22776118903E+03  0.22776118908E+03  0.50400001928E-02 0.  1.
        1   -1    0    0  501    0  0.00000000000E+00  0.00000000000E+00 -0.16932861571E+04  0.16932861571E+04  0.50400001928E-02 0. -1.
    10030    2    1    2    0    0  0.00000000000E+00  0.00000000000E+00 -0.14655249681E+04  0.19210473462E+04  0.12420384351E+04 0.  0.
        3    1    3    3  502    0 -0.44803055780E+03  0.42420792132E+03 -0.62360175921E+03  0.87724734569E+03  0.10100000352E+00 0. -1.
       -3    1    3    3    0  502  0.44803055780E+03 -0.42420792132E+03 -0.84192320885E+03  0.10438000005E+04  0.10100000352E+00 0.  1.
</event>
<event>
 5   0  0.4263540E-03  0.1298273E+04  0.7818609E-02  0.9030936E-01
       -2   -1    0    0    0  501  0.00000000000E+00  0.00000000000E+00  0.33409662388E+03  0.33409662389E+03  0.25500000920E-02 0. -1.
        2   -1    0    0  501    0  0.00000000000E+00  0.00000000000E+00 -0.12612455307E+04  0.12612455307E+04  0.25500000920E-02 0.  1.
    10030    2    1    2    0    0  0.00000000000E+00  0.00000000000E+00 -0.92714890681E+03  0.15953421546E+04  0.12982725041E+04 0.  0.
        2    1    3    3  502    0  0.65386510345E+02 -0.19419650606E+03 -0.12204614307E+04  0.12375434467E+04  0.25500000920E-02 0.  1.
       -2    1    3    3    0  502 -0.65386510345E+02  0.19419650606E+03  0.29331252387E+03  0.35779870789E+03  0.25500000920E-02 0. -1.
</event>
<event>
 5   0  0.4306214E-03  0.1283571E+04  0.7818609E-02  0.9042696E-01
       -2   -1    0    0    0  501  0.00000000000E+00  0.00000000000E+00  0.12329127820E+04  0.12329127820E+04  0.25500000920E-02 0. -1.
        2   -1    0    0  501    0  0.00000000000E+00  0.00000000000E+00 -0.33407741547E+03  0.33407741548E+03  0.25500000920E-02 0.  1.
    10030    2    1    2    0    0  0.00000000000E+00  0.00000000000E+00  0.89883536651E+03  0.15669901975E+04  0.12835705134E+04 0.  0.
        3    1    3    3  502    0  0.21574172595E+03 -0.17942146172E+03 -0.25522281302E+03  0.37930890806E+03  0.10100000352E+00 0.  1.
       -3    1    3    3    0  502 -0.21574172595E+03  0.17942146172E+03  0.11540581795E+04  0.11876812894E+04  0.10100000352E+00 0. -1.
</event>
<event>
 5   0  0.4263540E-03  0.1293735E+04  0.7818609E-02  0.9034548E-01
        2   -1    0    0  501    0  0.00000000000E+00  0.00000000000E+00  0.89193807265E+03  0.89193807265E+03  0.25500000920E-02 0. -1.
       -2   -1    0    0    0  501  0.00000000000E+00  0.00000000000E+00 -0.46913307995E+03  0.46913307995E+03  0.25500000920E-02 0.  1.
    10030    2    1    2    0    0  0.00000000000E+00  0.00000000000E+00  0.42280499270E+03  0.13610711526E+04  0.12937351431E+04 0.  0.
        2    1    3    3  502    0  0.47199246841E+03 -0.11013755649E+03 -0.23929957943E+03  0.54052887092E+03  0.25500000920E-02 0.  1.
       -2    1    3    3    0  502 -0.47199246841E+03  0.11013755649E+03  0.66210457213E+03  0.82054228168E+03  0.25500000920E-02 0. -1.
</event>
<event>
 5   0  0.4263540E-03  0.1438685E+04  0.7818609E-02  0.8926283E-01
        2   -1    0    0  501    0  0.00000000000E+00  0.00000000000E+00  0.10802635013E+04  0.10802635013E+04  0.25500000920E-02 0.  1.
       -2   -1    0    0    0  501  0.00000000000E+00  0.00000000000E+00 -0.47900664914E+03  0.47900664915E+03  0.25500000920E-02 0. -1.
    10030    2    1    2    0    0  0.00000000000E+00  0.00000000000E+00  0.60125685213E+03  0.15592701504E+04  0.14386846770E+04 0.  0.
        2    1    3    3  502    0  0.16306091282E+03 -0.41944918742E+03  0.90884834423E+03  0.10141655658E+04  0.25500000920E-02 0.  1.
       -2    1    3    3    0  502 -0.16306091282E+03  0.41944918742E+03 -0.30759149210E+03  0.54510458459E+03  0.25500000920E-02 0. -1.
</event>
<event>
 5   0  0.2458456E-03  0.1313605E+04  0.7818609E-02  0.9018846E-01
        1   -1    0    0  501    0  0.00000000000E+00  0.00000000000E+00  0.14699445310E+04  0.14699445310E+04  0.50400001928E-02 0.  1.
       -1   -1    0    0    0  501  0.00000000000E+00  0.00000000000E+00 -0.29347314745E+03  0.29347314750E+03  0.50400001928E-02 0. -1.
    10030    2    1    2    0    0  0.00000000000E+00  0.00000000000E+00  0.11764713835E+04  0.17634176785E+04  0.13136045800E+04 0.  0.
        5    1    3    3  502    0 -0.99885925881E+02  0.41515341059E+03  0.12581557826E+04  0.13286487933E+04  0.46999998093E+01 0.  1.
       -5    1    3    3    0  502  0.99885925881E+02 -0.41515341059E+03 -0.81684399078E+02  0.43476888523E+03  0.46999998093E+01 0. -1.
</event>
<event>
 5   0  0.2511542E-03  0.1334542E+04  0.7818609E-02  0.9002613E-01
        1   -1    0    0  501    0  0.00000000000E+00  0.00000000000E+00  0.12368249768E+04  0.12368249768E+04  0.50400001928E-02 0. -1.
       -1   -1    0    0    0  501  0.00000000000E+00  0.00000000000E+00 -0.35999492042E+03  0.35999492046E+03  0.50400001928E-02 0.  1.
    10030    2    1    2    0    0  0.00000000000E+00  0.00000000000E+00  0.87683005636E+03  0.15968198973E+04  0.13345421824E+04 0.  0.
        4    1    3    3  502    0  0.55311490552E+03  0.83844498748E+01  0.88490308422E+03  0.10435810841E+04  0.12699999809E+01 0. -1.
       -4    1    3    3    0  502 -0.55311490552E+03 -0.83844498748E+01 -0.80730278602E+01  0.55323881316E+03  0.12699999809E+01 0.  1.
</event>
<event>
 5   0  0.4263540E-03  0.1353583E+04  0.7818609E-02  0.8988120E-01
        2   -1    0    0  501    0  0.00000000000E+00  0.00000000000E+00  0.44370086429E+03  0.44370086429E+03  0.25500000920E-02 0. -1.
       -2   -1    0    0    0  501  0.00000000000E+00  0.00000000000E+00 -0.10323328792E+04  0.10323328792E+04  0.25500000920E-02 0.  1.
    10030    2    1    2    0    0  0.00000000000E+00  0.00000000000E+00 -0.58863201491E+03  0.14760337435E+04  0.13535833786E+04 0.  0.
        2    1    3    3  502    0 -0.21598454898E+03 -0.44063948131E+03  0.21393200077E+03  0.53533109273E+03  0.25500000920E-02 0. -1.
       -2    1    3    3    0  502  0.21598454898E+03  0.44063948131E+03 -0.80256401567E+03  0.94070265076E+03  0.25500000920E-02 0.  1.
</event>
<event>
 5   0  0.4263540E-03  0.1276729E+04  0.7818609E-02  0.9048226E-01
       -2   -1    0    0    0  501  0.00000000000E+00  0.00000000000E+00  0.25173732994E+03  0.25173732995E+03  0.25500000920E-02 0. -1.
        2   -1    0    0  501    0  0.00000000000E+00  0.00000000000E+00 -0.16187871097E+04  0.16187871097E+04  0.25500000920E-02 0.  1.
    10030    2    1    2    0    0  0.00000000000E+00  0.00000000000E+00 -0.13670497797E+04  0.18705244396E+04  0.12767288588E+04 0.  0.
        2    1    3    3  502    0 -0.51348281289E+03 -0.20323078101E+03 -0.11526786161E+04  0.12781374501E+04  0.25500000920E-02 0.  1.
       -2    1    3    3    0  502  0.51348281289E+03  0.20323078101E+03 -0.21437116365E+03  0.59238698948E+03  0.25500000920E-02 0. -1.
</event>
<event>
 5   0  0.1661750E-03  0.1314373E+04  0.7818609E-02  0.9018245E-01
        3   -1    0    0  501    0  0.00000000000E+00  0.00000000000E+00  0.10177345415E+04  0.10177345465E+04  0.10100000352E+00 0.  1.
       -3   -1    0    0    0  501  0.00000000000E+00  0.00000000000E+00 -0.42436787070E+03  0.42436788272E+03  0.10100000352E+00 0. -1.
    10030    2    1    2    0    0  0.00000000000E+00  0.00000000000E+00  0.59336667079E+03  0.14421024292E+04  0.13143726299E+04 0.  0.
        4    1    3    3  502    0  0.61576606943E+03 -0.12867196845E+03  0.50534339156E+03  0.80690636633E+03  0.12699999809E+01 0.  1.
       -4    1    3    3    0  502 -0.61576606943E+03  0.12867196845E+03  0.88023279237E+02  0.63519606289E+03  0.12699999809E+01 0. -1.
</event>
<event>
 5   0  0.4306214E-03  0.1301194E+04  0.7818609E-02  0.9028619E-01
       -2   -1    0    0    0  501  0.00000000000E+00  0.00000000000E+00  0.42078590110E+03  0.42078590111E+03  0.25500000920E-02 0.  1.
        2   -1    0    0  501    0  0.00000000000E+00  0.00000000000E+00 -0.10059183419E+04  0.10059183419E+04  0.25500000920E-02 0. -1.
    10030    2    1    2    0    0  0.00000000000E+00  0.00000000000E+00 -0.58513244081E+03  0.14267042430E+04  0.13011936919E+04 0.  0.
        3    1    3    3  502    0  0.36110484995E+03  0.29903122870E+03  0.20200788203E+03  0.51051305859E+03  0.10100000352E+00 0.  1.
       -3    1    3    3    0  502 -0.36110484995E+03 -0.29903122870E+03 -0.78714032284E+03  0.91619118443E+03  0.10100000352E+00 0. -1.
</event>
<event>
 5   0  0.1661750E-03  0.1302120E+04  0.7818609E-02  0.9027886E-01
       -4   -1    0    0    0  501  0.00000000000E+00  0.00000000000E+00  0.11607477030E+04  0.11607483977E+04  0.12699999809E+01 0.  1.
        4   -1    0    0  501    0  0.00000000000E+00  0.00000000000E+00 -0.36517578284E+03  0.36517799122E+03  0.12699999809E+01 0. -1.
    10030    2    1    2    0    0  0.00000000000E+00  0.00000000000E+00  0.79557192011E+03  0.15259263889E+04  0.13021200653E+04 0.  0.
        1    1    3    3  502    0  0.41879605453E+03 -0.23738506508E+03 -0.11588908039E+03  0.49514854680E+03  0.50400001928E-02 0. -1.
       -1    1    3    3    0  502 -0.41879605453E+03  0.23738506508E+03  0.91146100050E+03  0.10307778422E+04  0.50400001928E-02 0.  1.
</event>
<event>
 5   0  0.2356769E-03  0.1362971E+04  0.7818609E-02  0.8981067E-01
       -1   -1    0    0    0  501  0.00000000000E+00  0.00000000000E+00  0.93390491874E+03  0.93390491875E+03  0.50400001928E-02 0.  1.
        1   -1    0    0  501    0  0.00000000000E+00  0.00000000000E+00 -0.49729103788E+03  0.49729103790E+03  0.50400001928E-02 0. -1.
    10030    2    1    2    0    0  0.00000000000E+00  0.00000000000E+00  0.43661388086E+03  0.14311959567E+04  0.13629710875E+04 0.  0.
        1    1    3    3  502    0 -0.15987802237E+03 -0.65477174929E+03  0.32402166632E+03  0.74784829075E+03  0.50400001928E-02 0. -1.
       -1    1    3    3    0  502  0.15987802237E+03  0.65477174929E+03  0.11259221454E+03  0.68334766591E+03  0.50400001928E-02 0.  1.
</event>
<event>
 5   0  0.4263540E-03  0.1247815E+04  0.7818609E-02  0.9072004E-01
       -2   -1    0    0    0  501  0.00000000000E+00  0.00000000000E+00  0.63036829338E+03  0.63036829339E+03  0.25500000920E-02 0. -1.
        2   -1    0    0  501    0  0.00000000000E+00  0.00000000000E+00 -0.61751288991E+03  0.61751288992E+03  0.25500000920E-02 0.  1.
    10030    2    1    2    0    0  0.00000000000E+00  0.00000000000E+00  0.12855403469E+02  0.12478811833E+04  0.12478149647E+04 0.  0.
        2    1    3    3  502    0 -0.46175940515E+03  0.23148202809E+02 -0.41252526288E+03  0.61962462835E+03  0.25500000920E-02 0.  1.
       -2    1    3    3    0  502  0.46175940515E+03 -0.23148202809E+02  0.42538066635E+03  0.62825655496E+03  0.25500000920E-02 0. -1.
</event>
<event>
 5   0  0.4388937E-03  0.1284579E+04  0.7818609E-02  0.9041884E-01
       -2   -1    0    0    0  501  0.00000000000E+00  0.00000000000E+00  0.45705500308E+03  0.45705500308E+03  0.25500000920E-02 0.  1.
        2   -1    0    0  501    0  0.00000000000E+00  0.00000000000E+00 -0.90259614241E+03  0.90259614241E+03  0.25500000920E-02 0. -1.
    10030    2    1    2    0    0  0.00000000000E+00  0.00000000000E+00 -0.44554113933E+03  0.13596511455E+04  0.12845794373E+04 0.  0.
        5    1    3    3  502    0 -0.11169599248E+03  0.12308955311E+02  0.44655110919E+03  0.46049700132E+03  0.46999998093E+01 0.  1.
       -5    1    3    3    0  502  0.11169599248E+03 -0.12308955311E+02 -0.89209224852E+03  0.89915414417E+03  0.46999998093E+01 0. -1.
</event>
<event>
 5   0  0.1661750E-03  0.1296376E+04  0.7818609E-02  0.9032444E-01
       -4   -1    0    0    0  501  0.00000000000E+00  0.00000000000E+00  0.42498645655E+03  0.42498835414E+03  0.12699999809E+01 0. -1.
        4   -1    0    0  501    0  0.00000000000E+00  0.00000000000E+00 -0.98860997021E+03  0.98861078595E+03  0.12699999809E+01 0.  1.
    10030    2    1    2    0    0  0.00000000000E+00  0.00000000000E+00 -0.56362351366E+03  0.14135991401E+04  0.12963761274E+04 0.  0.
        4    1    3    3  502    0  0.21766949666E+02  0.35985501958E+03 -0.86920173083E+03  0.94100090170E+03  0.12699999809E+01 0.  1.
       -4    1    3    3    0  502 -0.21766949666E+02 -0.35985501958E+03  0.30557821717E+03  0.47259823839E+03  0.12699999809E+01 0. -1.
</event>
<event>
 5   0  0.2458456E-03  0.1467798E+04  0.7818609E-02  0.8906154E-01
        1   -1    0    0  501    0  0.00000000000E+00  0.00000000000E+00  0.76907843892E+03  0.76907843894E+03  0.50400001928E-02 0. -1.
       -1   -1    0    0    0  501  0.00000000000E+00  0.00000000000E+00 -0.70032917401E+03  0.70032917402E+03  0.50400001928E-02 0.  1.
    10030    2    1    2    0    0  0.00000000000E+00  0.00000000000E+00  0.68749264913E+02  0.14694076130E+04  0.14677984438E+04 0.  0.
        5    1    3    3  502    0  0.80590221905E+02  0.18283179395E+03  0.74131007036E+03  0.76777923856E+03  0.46999998093E+01 0. -1.
       -5    1    3    3    0  502 -0.80590221905E+02 -0.18283179395E+03 -0.67256080545E+03  0.70162837440E+03  0.46999998093E+01 0.  1.
</event>
<event>
 5   0  0.4310889E-03  0.1303267E+04  0.7818609E-02  0.9026978E-01
        2   -1    0    0  501    0  0.00000000000E+00  0.00000000000E+00  0.12450767050E+04  0.12450767050E+04  0.25500000920E-02 0. -1.
       -2   -1    0    0    0  501  0.00000000000E+00  0.00000000000E+00 -0.34104446468E+03  0.34104446469E+03  0.25500000920E-02 0.  1.
    10030    2    1    2    0    0  0.00000000000E+00  0.00000000000E+00  0.90403224035E+03  0.15861211697E+04  0.13032674604E+04 0.  0.
        4    1    3    3  502    0  0.41802610719E+03  0.26741391406E+03  0.96601520942E+03  0.10860216506E+04  0.12699999809E+01 0. -1.
       -4    1    3    3    0  502 -0.41802610719E+03 -0.26741391406E+03 -0.61982969073E+02  0.50009951918E+03  0.12699999809E+01 0.  1.
</event>
<event>
 5   0  0.2370801E-03  0.1287110E+04  0.7818609E-02  0.9039850E-01
        1   -1    0    0  501    0  0.00000000000E+00  0.00000000000E+00  0.11514720206E+04  0.11514720206E+04  0.50400001928E-02 0.  1.
       -1   -1    0    0    0  501  0.00000000000E+00  0.00000000000E+00 -0.35968156197E+03  0.35968156200E+03  0.50400001928E-02 0. -1.
    10030    2    1    2    0    0  0.00000000000E+00  0.00000000000E+00  0.79179045861E+03  0.15111535826E+04  0.12871103371E+04 0.  0.
        3    1    3    3  502    0  0.38869085871E+03  0.25165238788E+03  0.92063053173E+03  0.10305193322E+04  0.10100000352E+00 0.  1.
       -3    1    3    3    0  502 -0.38869085871E+03 -0.25165238788E+03 -0.12884007312E+03  0.48063425035E+03  0.10100000352E+00 0. -1.
</event>
<event>
 5   0  0.2462055E-03  0.1324536E+04  0.7818609E-02  0.9010331E-01
        1   -1    0    0  501    0  0.00000000000E+00  0.00000000000E+00  0.12949296773E+04  0.12949296773E+04  0.50400001928E-02 0.  1.
       -1   -1    0    0    0  501  0.00000000000E+00  0.00000000000E+00 -0.33870471303E+03  0.33870471307E+03  0.50400001928E-02 0. -1.
    10030    2    1    2    0    0  0.00000000000E+00  0.00000000000E+00  0.95622496428E+03  0.16336343904E+04  0.13245358203E+04 0.  0.
        2    1    3    3  502    0  0.44025444416E+03 -0.47521922173E+03  0.30836695106E+03  0.71745903075E+03  0.25500000920E-02 0.  1.
       -2    1    3    3    0  502 -0.44025444416E+03  0.47521922173E+03  0.64785801322E+03  0.91617535963E+03  0.25500000920E-02 0. -1.
</event>
<event>
 5   0  0.4263540E-03  0.1306994E+04  0.7818609E-02  0.9024037E-01
       -2   -1    0    0    0  501  0.00000000000E+00  0.00000000000E+00  0.46127801786E+03  0.46127801787E+03  0.25500000920E-02 0.  1.
        2   -1    0    0  501    0  0.00000000000E+00  0.00000000000E+00 -0.92581573516E+03  0.92581573516E+03  0.25500000920E-02 0. -1.
    10030    2    1    2    0    0  0.00000000000E+00  0.00000000000E+00 -0.46453771730E+03  0.13870937530E+04  0.13069941809E+04 0.  0.
        2    1    3    3  502    0 -0.57719223629E+03  0.29653700866E+03 -0.31429304779E+03  0.72101677860E+03  0.25500000920E-02 0. -1.
       -2    1    3    3    0  502  0.57719223629E+03 -0.29653700866E+03 -0.15024466951E+03  0.66607697442E+03  0.25500000920E-02 0.  1.
</event>
<event>
 5   0  0.4306214E-03  0.1091828E+04  0.7818609E-02  0.9213193E-01
       -2   -1    0    0    0  501  0.00000000000E+00  0.00000000000E+00  0.86008905928E+03  0.86008905928E+03  0.25500000920E-02 0. -1.
        2   -1    0    0  501    0  0.00000000000E+00  0.00000000000E+00 -0.34650162821E+03  0.34650162822E+03  0.25500000920E-02 0.  1.
    10030    2    1    2    0    0  0.00000000000E+00  0.00000000000E+00  0.51358743107E+03  0.12065906875E+04  0.10918283005E+04 0.  0.
        3    1    3    3  502    0  0.22381848785E+03 -0.25077158869E+03  0.73217247652E+03  0.80564114268E+03  0.10100000352E+00 0. -1.
       -3    1    3    3    0  502 -0.22381848785E+03  0.25077158869E+03 -0.21858504546E+03  0.40094954482E+03  0.10100000352E+00 0.  1.
</event>
<event>
 5   0  0.2511542E-03  0.1297492E+04  0.7818609E-02  0.9031556E-01
       -1   -1    0    0    0  501  0.00000000000E+00  0.00000000000E+00  0.46308657071E+03  0.46308657074E+03  0.50400001928E-02 0.  1.
        1   -1    0    0  501    0  0.00000000000E+00  0.00000000000E+00 -0.90883948085E+03  0.90883948087E+03  0.50400001928E-02 0. -1.
    10030    2    1    2    0    0  0.00000000000E+00  0.00000000000E+00 -0.44575291014E+03  0.13719260516E+04  0.12974919785E+04 0.  0.
        4    1    3    3  502    0 -0.22538219512E+03 -0.42527119949E+03  0.23706877482E+03  0.53652208146E+03  0.12699999809E+01 0.  1.
       -4    1    3    3    0  502  0.22538219512E+03  0.42527119949E+03 -0.68282168496E+03  0.83540397015E+03  0.12699999809E+01 0. -1.
</event>
<event>
 5   0  0.4306214E-03  0.1281240E+04  0.7818609E-02  0.9044576E-01
       -2   -1    0    0    0  501  0.00000000000E+00  0.00000000000E+00  0.32858219449E+03  0.32858219450E+03  0.25500000920E-02 0. -1.
        2   -1    0    0  501    0  0.00000000000E+00  0.00000000000E+00 -0.12489834556E+04  0.12489834556E+04  0.25500000920E-02 0.  1.
    10030    2    1    2    0    0  0.00000000000E+00  0.00000000000E+00 -0.92040126109E+03  0.15775656501E+04  0.12812395947E+04 0.  0.
        3    1    3    3  502    0  0.22541305298E+03 -0.32547950222E+03 -0.10803137172E+04  0.11505762420E+04  0.10100000352E+00 0.  1.
       -3    1    3    3    0  502 -0.22541305298E+03  0.32547950222E+03  0.15991245612E+03  0.42698940811E+03  0.10100000352E+00 0. -1.
</event>
<event>
 5   0  0.2370801E-03  0.1309731E+04  0.7818609E-02  0.9021884E-01
        1   -1    0    0  501    0  0.00000000000E+00  0.00000000000E+00  0.12483852212E+04  0.12483852212E+04  0.50400001928E-02 0. -1.
       -1   -1    0    0    0  501  0.00000000000E+00  0.00000000000E+00 -0.34352260340E+03  0.34352260344E+03  0.50400001928E-02 0.  1.
    10030    2    1    2    0    0  0.00000000000E+00  0.00000000000E+00  0.90486261777E+03  0.15919078246E+04  0.13097305696E+04 0.  0.
        3    1    3    3  502    0 -0.20872410230E+03  0.12551658307E+03 -0.28642475996E+03  0.37597781428E+03  0.10100000352E+00 0.  1.
       -3    1    3    3    0  502  0.20872410230E+03 -0.12551658307E+03  0.11912873777E+04  0.12159300103E+04  0.10100000352E+00 0. -1.
</event>
<event>
 5   0  0.4263540E-03  0.1265034E+04  0.7818609E-02  0.9057762E-01
        2   -1    0    0  501    0  0.00000000000E+00  0.00000000000E+00  0.18185511840E+04  0.18185511840E+04  0.25500000920E-02 0.  1.
       -2   -1    0    0    0  501  0.00000000000E+00  0.00000000000E+00 -0.21999808681E+03  0.21999808682E+03  0.25500000920E-02 0. -1.
    10030    2    1    2    0    0  0.00000000000E+00  0.00000000000E+00  0.15985530971E+04  0.20385492708E+04  0.12650340410E+04 0.  0.
        2    1    3    3  502    0 -0.18640361014E+03  0.15706757806E+03  0.17398232596E+04  0.17568157287E+04  0.25500000920E-02 0.  1.
       -2    1    3    3    0  502  0.18640361014E+03 -0.15706757806E+03 -0.14127016243E+03  0.28173354211E+03  0.25500000920E-02 0. -1.
</event>
<event>
 5   0  0.4306214E-03  0.1330137E+04  0.7818609E-02  0.9006002E-01
        2   -1    0    0  501    0  0.00000000000E+00  0.00000000000E+00  0.40846614807E+03  0.40846614808E+03  0.25500000920E-02 0. -1.
       -2   -1    0    0    0  501  0.00000000000E+00  0.00000000000E+00 -0.10828709634E+04  0.10828709634E+04  0.25500000920E-02 0.  1.
    10030    2    1    2    0    0  0.00000000000E+00  0.00000000000E+00 -0.67440481531E+03  0.14913371115E+04  0.13301370325E+04 0.  0.
        3    1    3    3  502    0 -0.42589821499E+03 -0.28346818157E+03  0.13923449439E+03  0.53021670486E+03  0.10100000352E+00 0. -1.
       -3    1    3    3    0  502  0.42589821499E+03  0.28346818157E+03 -0.81363930970E+03  0.96112040660E+03  0.10100000352E+00 0.  1.
</event>
<event>
 5   0  0.4453011E-03  0.1301085E+04  0.7818609E-02  0.9028705E-01
       -2   -1    0    0    0  501  0.00000000000E+00  0.00000000000E+00  0.42809961182E+03  0.42809961182E+03  0.25500000920E-02 0. -1.
        2   -1    0    0  501    0  0.00000000000E+00  0.00000000000E+00 -0.98856855330E+03  0.98856855331E+03  0.25500000920E-02 0.  1.
    10030    2    1    2    0    0  0.00000000000E+00  0.00000000000E+00 -0.56046894149E+03  0.14166681651E+04  0.13010854145E+04 0.  0.
        1    1    3    3  502    0 -0.54323717488E+03 -0.12636415348E+03 -0.64484208059E+03  0.85258186492E+03  0.50400001928E-02 0.  1.
       -1    1    3    3    0  502  0.54323717488E+03  0.12636415348E+03  0.84373139100E+02  0.56408630021E+03  0.50400001928E-02 0. -1.
</event>
<event>
 5   0  0.2356769E-03  0.1296408E+04  0.7818609E-02  0.9032419E-01
       -1   -1    0    0    0  501  0.00000000000E+00  0.00000000000E+00  0.50289858364E+03  0.50289858367E+03  0.50400001928E-02 0. -1.
        1   -1    0    0  501    0  0.00000000000E+00  0.00000000000E+00 -0.83549335124E+03  0.83549335125E+03  0.50400001928E-02 0.  1.
    10030    2    1    2    0    0  0.00000000000E+00  0.00000000000E+00 -0.33259476759E+03  0.13383919349E+04  0.12964079960E+04 0.  0.
        1    1    3    3  502    0  0.12037917906E+03 -0.25211644685E+03  0.43755028956E+03  0.51913784821E+03  0.50400001928E-02 0. -1.
       -1    1    3    3    0  502 -0.12037917906E+03  0.25211644685E+03 -0.77014505715E+03  0.81925408672E+03  0.50400001928E-02 0.  1.
</event>
<event>
 5   0  0.4306214E-03  0.8887735E+03  0.7818609E-02  0.9439725E-01
       -2   -1    0    0    0  501  0.00000000000E+00  0.00000000000E+00  0.12391304419E+03  0.12391304421E+03  0.25500000920E-02 0.  1.
        2   -1    0    0  501    0  0.00000000000E+00  0.00000000000E+00 -0.15936949102E+04  0.15936949102E+04  0.25500000920E-02 0. -1.
    10030    2    1    2    0    0  0.00000000000E+00  0.00000000000E+00 -0.14697818660E+04  0.17176079544E+04  0.88877350963E+03 0.  0.
        3    1    3    3  502    0  0.33271461283E+03 -0.25757330946E+03 -0.10111628733E+04  0.10952138558E+04  0.10100000352E+00 0.  1.
       -3    1    3    3    0  502 -0.33271461283E+03  0.25757330946E+03 -0.45861899267E+03  0.62239409860E+03  0.10100000352E+00 0. -1.
</event>
<event>
 5   0  0.2511542E-03  0.1312083E+04  0.7818609E-02  0.9020038E-01
       -1   -1    0    0    0  501  0.00000000000E+00  0.00000000000E+00  0.39912791084E+03  0.39912791088E+03  0.50400001928E-02 0. -1.
        1   -1    0    0  501    0  0.00000000000E+00  0.00000000000E+00 -0.10783274836E+04  0.10783274836E+04  0.50400001928E-02 0.  1.
    10030    2    1    2    0    0  0.00000000000E+00  0.00000000000E+00 -0.67919957273E+03  0.14774553945E+04  0.13120832226E+04 0.  0.
        4    1    3    3  502    0 -0.16822073134E+03  0.21476502884E+03 -0.10114271875E+04  0.10475728140E+04  0.12699999809E+01 0.  1.
       -4    1    3    3    0  502  0.16822073134E+03 -0.21476502884E+03  0.33222761479E+03  0.42988258047E+03  0.12699999809E+01 0. -1.
</event>
<event>
 5   0  0.4388937E-03  0.1322850E+04  0.7818609E-02  0.9011639E-01
        2   -1    0    0  501    0  0.00000000000E+00  0.00000000000E+00  0.22841968812E+03  0.22841968814E+03  0.25500000920E-02 0.  1.
       -2   -1    0    0    0  501  0.00000000000E+00  0.00000000000E+00 -0.19152584701E+04  0.19152584701E+04  0.25500000920E-02 0. -1.
    10030    2    1    2    0    0  0.00000000000E+00  0.00000000000E+00 -0.16868387820E+04  0.21436781582E+04  0.13228495643E+04 0.  0.
        5    1    3    3  502    0  0.37918785951E+03  0.28475847182E+03 -0.96247768434E+02  0.48389724425E+03  0.46999998093E+01 0.  1.
       -5    1    3    3    0  502 -0.37918785951E+03 -0.28475847182E+03 -0.15905910135E+04  0.16597809140E+04  0.46999998093E+01 0. -1.
</event>
<event>
 5   0  0.2511542E-03  0.1296457E+04  0.7818609E-02  0.9032380E-01
        1   -1    0    0  501    0  0.00000000000E+00  0.00000000000E+00  0.11991645206E+04  0.11991645206E+04  0.50400001928E-02 0.  1.
       -1   -1    0    0    0  501  0.00000000000E+00  0.00000000000E+00 -0.35041065795E+03  0.35041065798E+03  0.50400001928E-02 0. -1.
    10030    2    1    2    0    0  0.00000000000E+00  0.00000000000E+00  0.84875386268E+03  0.15495751786E+04  0.12964567539E+04 0.  0.
        4    1    3    3  502    0 -0.16769369240E+03 -0.40441327198E+03 -0.14700106967E+03  0.46182485469E+03  0.12699999809E+01 0. -1.
       -4    1    3    3    0  502  0.16769369240E+03  0.40441327198E+03  0.99575493234E+03  0.10877503239E+04  0.12699999809E+01 0.  1.
</event>
<event>
 5   0  0.2370801E-03  0.1297079E+04  0.7818609E-02  0.9031884E-01
       -1   -1    0    0    0  501  0.00000000000E+00  0.00000000000E+00  0.36714905417E+03  0.36714905421E+03  0.50400001928E-02 0.  1.
        1   -1    0    0  501    0  0.00000000000E+00  0.00000000000E+00 -0.11455941065E+04  0.11455941065E+04  0.50400001928E-02 0. -1.
    10030    2    1    2    0    0  0.00000000000E+00  0.00000000000E+00 -0.77844505232E+03  0.15127431607E+04  0.12970794774E+04 0.  0.
        3    1    3    3  502    0 -0.50289217029E+03 -0.18963940009E+03 -0.81253169909E+03  0.97420296101E+03  0.10100000352E+00 0. -1.
       -3    1    3    3    0  502  0.50289217029E+03  0.18963940009E+03  0.34086646773E+02  0.53854019970E+03  0.10100000352E+00 0.  1.
</event>
<event>
 5   0  0.4453011E-03  0.1437501E+04  0.7818609E-02  0.8927112E-01
        2   -1    0    0  501    0  0.00000000000E+00  0.00000000000E+00  0.88816914507E+03  0.88816914507E+03  0.25500000920E-02 0.  1.
       -2   -1    0    0    0  501  0.00000000000E+00  0.00000000000E+00 -0.58164886620E+03  0.58164886621E+03  0.25500000920E-02 0. -1.
    10030    2    1    2    0    0  0.00000000000E+00  0.00000000000E+00  0.30652027887E+03  0.14698180113E+04  0.14375014104E+04 0.  0.
        1    1    3    3  502    0  0.37715798013E+03  0.12798030057E+03 -0.45850105293E+03  0.60733048242E+03  0.50400001928E-02 0. -1.
       -1    1    3    3    0  502 -0.37715798013E+03 -0.12798030057E+03  0.76502133180E+03  0.86248752886E+03  0.50400001928E-02 0.  1.
</event>
<event>
 5   0  0.4310889E-03  0.1278377E+04  0.7818609E-02  0.9046891E-01
        2   -1    0    0  501    0  0.00000000000E+00  0.00000000000E+00  0.12783094776E+04  0.12783094776E+04  0.25500000920E-02 0. -1.
       -2   -1    0    0    0  501  0.00000000000E+00  0.00000000000E+00 -0.31961090460E+03  0.31961090461E+03  0.25500000920E-02 0.  1.
    10030    2    1    2    0    0  0.00000000000E+00  0.00000000000E+00  0.95869857301E+03  0.15979203822E+04  0.12783765463E+04 0.  0.
        4    1    3    3  502    0 -0.63384176891E+03 -0.51923629107E+02  0.39922900905E+03  0.75089071498E+03  0.12699999809E+01 0.  1.
       -4    1    3    3    0  502  0.63384176891E+03  0.51923629107E+02  0.55946956397E+03  0.84702966724E+03  0.12699999809E+01 0. -1.
</event>
<event>
 5   0  0.4306214E-03  0.1157797E+04  0.7818609E-02  0.9150620E-01
       -2   -1    0    0    0  501  0.00000000000E+00  0.00000000000E+00  0.15200961951E+03  0.15200961953E+03  0.25500000920E-02 0.  1.
        2   -1    0    0  501    0  0.00000000000E+00  0.00000000000E+00 -0.22046218434E+04  0.22046218434E+04  0.25500000920E-02 0. -1.
    10030    2    1    2    0    0  0.00000000000E+00  0.00000000000E+00 -0.20526122238E+04  0.23566314629E+04  0.11577974393E+04 0.  0.
        3    1    3    3  502    0 -0.42636554292E+03  0.38749235095E+03 -0.91141944049E+03  0.10782501124E+04  0.10100000352E+00 0.  1.
       -3    1    3    3    0  502  0.42636554292E+03 -0.38749235095E+03 -0.11411927834E+04  0.12783813505E+04  0.10100000352E+00 0. -1.
</event>
<event>
 5   0  0.2462055E-03  0.1277867E+04  0.7818609E-02  0.9047304E-01
       -1   -1    0    0    0  501  0.00000000000E+00  0.00000000000E+00  0.46302798931E+03  0.46302798934E+03  0.50400001928E-02 0. -1.
        1   -1    0    0  501    0  0.00000000000E+00  0.00000000000E+00 -0.88166540272E+03  0.88166540274E+03  0.50400001928E-02 0.  1.
    10030    2    1    2    0    0  0.00000000000E+00  0.00000000000E+00 -0.41863741341E+03  0.13446933921E+04  0.12778665951E+04 0.  0.
        2    1    3    3  502    0 -0.60064380946E+03 -0.16252330859E+03 -0.56648975546E+02  0.62481670761E+03  0.25500000920E-02 0. -1.
       -2    1    3    3    0  502  0.60064380946E+03  0.16252330859E+03 -0.36198843787E+03  0.71987668446E+03  0.25500000920E-02 0.  1.
</event>
<event>
 5   0  0.2462055E-03  0.1279535E+04  0.7818609E-02  0.9045953E-01
       -1   -1    0    0    0  501  0.00000000000E+00  0.00000000000E+00  0.61069273937E+03  0.61069273939E+03  0.50400001928E-02 0. -1.
        1   -1    0    0  501    0  0.00000000000E+00  0.00000000000E+00 -0.67022639310E+03  0.67022639312E+03  0.50400001928E-02 0.  1.
    10030    2    1    2    0    0  0.00000000000E+00  0.00000000000E+00 -0.59533653731E+02  0.12809191325E+04  0.12795349030E+04 0.  0.
        2    1    3    3  502    0 -0.13852265217E+03  0.55908896765E+03 -0.30851624582E+03  0.65341508465E+03  0.25500000920E-02 0.  1.
       -2    1    3    3    0  502  0.13852265217E+03 -0.55908896765E+03  0.24898259209E+03  0.62750404786E+03  0.25500000920E-02 0. -1.
</event>
<event>
 5   0  0.4388937E-03  0.1185979E+04  0.7818609E-02  0.9125218E-01
       -2   -1    0    0    0  501  0.00000000000E+00  0.00000000000E+00  0.39316123093E+03  0.39316123094E+03  0.25500000920E-02 0.  1.
        2   -1    0    0  501    0  0.00000000000E+00  0.00000000000E+00 -0.89438311679E+03  0.89438311679E+03  0.25500000920E-02 0. -1.
    10030    2    1    2    0    0  0.00000000000E+00  0.00000000000E+00 -0.50122188586E+03  0.12875443477E+04  0.11859793710E+04 0.  0.
        5    1    3    3  502    0  0.83341071162E+02 -0.54787968474E+03 -0.47961829354E+03  0.73292133316E+03  0.46999998093E+01 0. -1.
       -5    1    3    3    0  502 -0.83341071162E+02  0.54787968474E+03 -0.21603592319E+02  0.55462301458E+03  0.46999998093E+01 0.  1.
</event>
<event>
 5   0  0.2356769E-03  0.1287967E+04  0.7818609E-02  0.9039162E-01
       -1   -1    0    0    0  501  0.00000000000E+00  0.00000000000E+00  0.44240638594E+03  0.44240638597E+03  0.50400001928E-02 0. -1.
        1   -1    0    0  501    0  0.00000000000E+00  0.00000000000E+00 -0.93740665590E+03  0.93740665592E+03  0.50400001928E-02 0.  1.
    10030    2    1    2    0    0  0.00000000000E+00  0.00000000000E+00 -0.49500026996E+03  0.13798130419E+04  0.12879669108E+04 0.  0.
        1    1    3    3  502    0  0.13302796902E+03  0.57533797341E+03  0.27733941675E+02  0.59116782366E+03  0.50400001928E-02 0.  1.
       -1    1    3    3    0  502 -0.13302796902E+03 -0.57533797341E+03 -0.52273421164E+03  0.78864521822E+03  0.50400001928E-02 0. -1.
</event>
<event>
 5   0  0.4306214E-03  0.1273534E+04  0.7818609E-02  0.9050820E-01
       -2   -1    0    0    0  501  0.00000000000E+00  0.00000000000E+00  0.32742671348E+03  0.32742671349E+03  0.25500000920E-02 0. -1.
        2   -1    0    0  501    0  0.00000000000E+00  0.00000000000E+00 -0.12383598515E+04  0.12383598516E+04  0.25500000920E-02 0.  1.
    10030    2    1    2    0    0  0.00000000000E+00  0.00000000000E+00 -0.91093313807E+03  0.15657865650E+04  0.12735338179E+04 0.  0.
        3    1    3    3  502    0  0.58410543428E+03 -0.23550195760E+03 -0.33992304621E+03  0.71567312226E+03  0.10100000352E+00 0. -1.
       -3    1    3    3    0  502 -0.58410543428E+03  0.23550195760E+03 -0.57101009186E+03  0.85011344277E+03  0.10100000352E+00 0.  1.
</event>
<event>
 5   0  0.2462055E-03  0.1265241E+04  0.7818609E-02  0.9057593E-01
        1   -1    0    0  501    0  0.00000000000E+00  0.00000000000E+00  0.35008468550E+03  0.35008468554E+03  0.50400001928E-02 0. -1.
       -1   -1    0    0    0  501  0.00000000000E+00  0.00000000000E+00 -0.11431767417E+04  0.11431767417E+04  0.50400001928E-02 0.  1.
    10030    2    1    2    0    0  0.00000000000E+00  0.00000000000E+00 -0.79309205623E+03  0.14932614273E+04  0.12652409575E+04 0.  0.
        2    1    3    3  502    0 -0.16009386888E+03  0.37862866059E+03  0.17096502841E+03  0.44521764388E+03  0.25500000920E-02 0. -1.
       -2    1    3    3    0  502  0.16009386888E+03 -0.37862866059E+03 -0.96405708464E+03  0.10480437834E+04  0.25500000920E-02 0.  1.
</event>
<event>
 5   0  0.2511542E-03  0.1325132E+04  0.7818609E-02  0.9009870E-01
        1   -1    0    0  501    0  0.00000000000E+00  0.00000000000E+00  0.78357779777E+03  0.78357779779E+03  0.50400001928E-02 0. -1.
       -1   -1    0    0    0  501  0.00000000000E+00  0.00000000000E+00 -0.56024238997E+03  0.56024238999E+03  0.50400001928E-02 0.  1.
    10030    2    1    2    0    0  0.00000000000E+00  0.00000000000E+00  0.22333540780E+03  0.13438201878E+04  0.13251316888E+04 0.  0.
        4    1    3    3  502    0  0.58047874433E+03  0.46890412394E+02  0.43209476880E+03  0.72516328197E+03  0.12699999809E+01 0. -1.
       -4    1    3    3    0  502 -0.58047874433E+03 -0.46890412394E+02 -0.20875936100E+03  0.61865690581E+03  0.12699999809E+01 0.  1.
</event>
<event>
 5   0  0.2458456E-03  0.1133852E+04  0.7818609E-02  0.9172811E-01
       -1   -1    0    0    0  501  0.00000000000E+00  0.00000000000E+00  0.47582418485E+03  0.47582418488E+03  0.50400001928E-02 0.  1.
        1   -1    0    0  501    0  0.00000000000E+00  0.00000000000E+00 -0.67547082578E+03  0.67547082579E+03  0.50400001928E-02 0. -1.
    10030    2    1    2    0    0  0.00000000000E+00  0.00000000000E+00 -0.19964664092E+03  0.11512950107E+04  0.11338524685E+04 0.  0.
        5    1    3    3  502    0 -0.28308268858E+03 -0.26462841210E+03  0.32032862669E+03  0.50278874703E+03  0.46999998093E+01 0.  1.
       -5    1    3    3    0  502  0.28308268858E+03  0.26462841210E+03 -0.51997526761E+03  0.64850626365E+03  0.46999998093E+01 0. -1.
</event>
<event>
 5   0  0.4310889E-03  0.1303197E+04  0.7818609E-02  0.9027034E-01
        2   -1    0    0  501    0  0.00000000000E+00  0.00000000000E+00  0.13361072733E+04  0.13361072733E+04  0.25500000920E-02 0. -1.
       -2   -1    0    0    0  501  0.00000000000E+00  0.00000000000E+00 -0.31777447749E+03  0.31777447750E+03  0.25500000920E-02 0.  1.
    10030    2    1    2    0    0  0.00000000000E+00  0.00000000000E+00  0.10183327958E+04  0.16538817508E+04  0.13031972846E+04 0.  0.
        4    1    3    3  502    0  0.25957975727E+03 -0.11464364841E+03 -0.23523610114E+03  0.36859524235E+03  0.12699999809E+01 0.  1.
       -4    1    3    3    0  502 -0.25957975727E+03  0.11464364841E+03  0.12535688970E+04  0.12852865085E+04  0.12699999809E+01 0. -1.
</event>
<event>
 5   0  0.2458456E-03  0.1309749E+04  0.7818609E-02  0.9021870E-01
        1   -1    0    0  501    0  0.00000000000E+00  0.00000000000E+00  0.15922275587E+04  0.15922275587E+04  0.50400001928E-02 0. -1.
       -1   -1    0    0    0  501  0.00000000000E+00  0.00000000000E+00 -0.26934611454E+03  0.26934611459E+03  0.50400001928E-02 0.  1.
    10030    2    1    2    0    0  0.00000000000E+00  0.00000000000E+00  0.13228814442E+04  0.18615736733E+04  0.13097485353E+04 0.  0.
        5    1    3    3  502    0 -0.35947402334E+03 -0.13444440985E+03  0.14156005526E+04  0.14667119306E+04  0.46999998093E+01 0. -1.
       -5    1    3    3    0  502  0.35947402334E+03  0.13444440985E+03 -0.92719108429E+02  0.39486174272E+03  0.46999998093E+01 0.  1.
</event>
<event>
 5   0  0.4263540E-03  0.1351247E+04  0.7818609E-02  0.8989885E-01
        2   -1    0    0  501    0  0.00000000000E+00  0.00000000000E+00  0.33350273867E+03  0.33350273867E+03  0.25500000920E-02 0.  1.
       -2   -1    0    0    0  501  0.00000000000E+00  0.00000000000E+00 -0.13687061451E+04  0.13687061451E+04  0.25500000920E-02 0. -1.
    10030    2    1    2    0    0  0.00000000000E+00  0.00000000000E+00 -0.10352034064E+04  0.17022088838E+04  0.13512471984E+04 0.  0.
        2    1    3    3  502    0  0.13600674474E+03 -0.70198000160E+02  0.31137606306E+03  0.34695914240E+03  0.25500000920E-02 0.  1.
       -2    1    3    3    0  502 -0.13600674474E+03  0.70198000160E+02 -0.13465794695E+04  0.13552497414E+04  0.25500000920E-02 0. -1.
</event>
<event>
 5   0  0.2462055E-03  0.1298442E+04  0.7818609E-02  0.9030802E-01
       -1   -1    0    0    0  501  0.00000000000E+00  0.00000000000E+00  0.22445982950E+03  0.22445982956E+03  0.50400001928E-02 0.  1.
        1   -1    0    0  501    0  0.00000000000E+00  0.00000000000E+00 -0.18777871238E+04  0.18777871238E+04  0.50400001928E-02 0. -1.
    10030    2    1    2    0    0  0.00000000000E+00  0.00000000000E+00 -0.16533272943E+04  0.21022469534E+04  0.12984418011E+04 0.  0.
        2    1    3    3  502    0 -0.56402838631E+03  0.27395049058E+03 -0.10990830100E+04  0.12653696514E+04  0.25500000920E-02 0. -1.
       -2    1    3    3    0  502  0.56402838631E+03 -0.27395049058E+03 -0.55424428434E+03  0.83687730199E+03  0.25500000920E-02 0.  1.
</event>
<event>
 5   0  0.2356769E-03  0.1249966E+04  0.7818609E-02  0.9070211E-01
        1   -1    0    0  501    0  0.00000000000E+00  0.00000000000E+00  0.56016843366E+03  0.56016843368E+03  0.50400001928E-02 0. -1.
       -1   -1    0    0    0  501  0.00000000000E+00  0.00000000000E+00 -0.69729746582E+03  0.69729746584E+03  0.50400001928E-02 0.  1.
    10030    2    1    2    0    0  0.00000000000E+00  0.00000000000E+00 -0.13712903216E+03  0.12574658995E+04  0.12499664464E+04 0.  0.
        1    1    3    3  502    0  0.52386601394E+03 -0.32598377119E+03 -0.16867543806E+03  0.63965023495E+03  0.50400001928E-02 0.  1.
       -1    1    3    3    0  502 -0.52386601394E+03  0.32598377119E+03  0.31546405894E+02  0.61781566457E+03  0.50400001928E-02 0. -1.
</event>
<event>
 5   0  0.4263540E-03  0.1312856E+04  0.7818609E-02  0.9019432E-01
        2   -1    0    0  501    0  0.00000000000E+00  0.00000000000E+00  0.49268553568E+03  0.49268553569E+03  0.25500000920E-02 0. -1.
       -2   -1    0    0    0  501  0.00000000000E+00  0.00000000000E+00 -0.87459033629E+03  0.87459033629E+03  0.25500000920E-02 0.  1.
    10030    2    1    2    0    0  0.00000000000E+00  0.00000000000E+00 -0.38190480061E+03  0.13672758720E+04  0.13128564405E+04 0.  0.
        2    1    3    3  502    0 -0.60768421836E+03  0.10407800972E+02  0.67339198380E+02  0.61149243594E+03  0.25500000920E-02 0. -1.
       -2    1    3    3    0  502  0.60768421836E+03 -0.10407800972E+02 -0.44924399899E+03  0.75578343604E+03  0.25500000920E-02 0.  1.
</event>
<event>
 5   0  0.4310889E-03  0.1295964E+04  0.7818609E-02  0.9032772E-01
        2   -1    0    0  501    0  0.00000000000E+00  0.00000000000E+00  0.97788564846E+03  0.97788564846E+03  0.25500000920E-02 0. -1.
       -2   -1    0    0    0  501  0.00000000000E+00  0.00000000000E+00 -0.42937611490E+03  0.42937611491E+03  0.25500000920E-02 0.  1.
    10030    2    1    2    0    0  0.00000000000E+00  0.00000000000E+00  0.54850953356E+03  0.14072617634E+04  0.12959641053E+04 0.  0.
        4    1    3    3  502    0 -0.11118123226E+03  0.61008589400E+03  0.47831088019E+03  0.78316599484E+03  0.12699999809E+01 0.  1.
       -4    1    3    3    0  502  0.11118123226E+03 -0.61008589400E+03  0.70198653371E+02  0.62409576853E+03  0.12699999809E+01 0. -1.
</event>
<event>
 5   0  0.2462055E-03  0.1296517E+04  0.7818609E-02  0.9032332E-01
        1   -1    0    0  501    0  0.00000000000E+00  0.00000000000E+00  0.12146607286E+04  0.12146607286E+04  0.50400001928E-02 0.  1.
       -1   -1    0    0    0  501  0.00000000000E+00  0.00000000000E+00 -0.34597215207E+03  0.34597215210E+03  0.50400001928E-02 0. -1.
    10030    2    1    2    0    0  0.00000000000E+00  0.00000000000E+00  0.86868857655E+03  0.15606328807E+04  0.12965165427E+04 0.  0.
        2    1    3    3  502    0  0.44966966497E+03 -0.28168521158E+03 -0.13930544057E+02  0.53079508860E+03  0.25500000920E-02 0. -1.
       -2    1    3    3    0  502 -0.44966966497E+03  0.28168521158E+03  0.88261912060E+03  0.10298377921E+04  0.25500000920E-02 0.  1.
</event>
<event>
 5   0  0.2356769E-03  0.1299458E+04  0.7818609E-02  0.9029995E-01
       -1   -1    0    0    0  501  0.00000000000E+00  0.00000000000E+00  0.53668067999E+03  0.53668068002E+03  0.50400001928E-02 0.  1.
        1   -1    0    0  501    0  0.00000000000E+00  0.00000000000E+00 -0.78658991161E+03  0.78658991163E+03  0.50400001928E-02 0. -1.
    10030    2    1    2    0    0  0.00000000000E+00  0.00000000000E+00 -0.24990923162E+03  0.13232705916E+04  0.12994577464E+04 0.  0.
        1    1    3    3  502    0  0.29782716997E+03  0.15609916409E+03 -0.69109181864E+03  0.76855440537E+03  0.50400001928E-02 0. -1.
       -1    1    3    3    0  502 -0.29782716997E+03 -0.15609916409E+03  0.44118258702E+03  0.55471618628E+03  0.50400001928E-02 0.  1.
</event>
<event>
 5   0  0.2511542E-03  0.1306430E+04  0.7818609E-02  0.9024482E-01
        1   -1    0    0  501    0  0.00000000000E+00  0.00000000000E+00  0.73287070753E+03  0.73287070755E+03  0.50400001928E-02 0.  1.
       -1   -1    0    0    0  501  0.00000000000E+00  0.00000000000E+00 -0.58221683159E+03  0.58221683161E+03  0.50400001928E-02 0. -1.
    10030    2    1    2    0    0  0.00000000000E+00  0.00000000000E+00  0.15065387594E+03  0.13150875392E+04  0.13064297323E+04 0.  0.
        4    1    3    3  502    0 -0.44130506517E+03  0.11787517946E+03 -0.39471868184E+03  0.60369625572E+03  0.12699999809E+01 0. -1.
       -4    1    3    3    0  502  0.44130506517E+03 -0.11787517946E+03  0.54537255778E+03  0.71139128344E+03  0.12699999809E+01 0.  1.
</event>
<event>
 5   0  0.4310889E-03  0.1280337E+04  0.7818609E-02  0.9045305E-01
        2   -1    0    0  501    0  0.00000000000E+00  0.00000000000E+00  0.27909297781E+04  0.27909297781E+04  0.25500000920E-02 0.  1.
       -2   -1    0    0    0  501  0.00000000000E+00  0.00000000000E+00 -0.14683847665E+03  0.14683847668E+03  0.25500000920E-02 0. -1.
    10030    2    1    2    0    0  0.00000000000E+00  0.00000000000E+00  0.26440913015E+04  0.29377682548E+04  0.12803372635E+04 0.  0.
        4    1    3    3  502    0 -0.47619895189E+02 -0.16462745773E+03 -0.93222559286E+02  0.19509462503E+03  0.12699999809E+01 0. -1.
       -4    1    3    3    0  502  0.47619895189E+02  0.16462745773E+03  0.27373138607E+04  0.27426736298E+04  0.12699999809E+01 0.  1.
</event>
<event>
 5   0  0.2370801E-03  0.1289797E+04  0.7818609E-02  0.9037696E-01
       -1   -1    0    0    0  501  0.00000000000E+00  0.00000000000E+00  0.32507496640E+03  0.32507496644E+03  0.50400001928E-02 0. -1.
        1   -1    0    0  501    0  0.00000000000E+00  0.00000000000E+00 -0.12793782022E+04  0.12793782022E+04  0.50400001928E-02 0.  1.
    10030    2    1    2    0    0  0.00000000000E+00  0.00000000000E+00 -0.95430323580E+03  0.16044531686E+04  0.12897966136E+04 0.  0.
        3    1    3    3  502    0 -0.19944715185E+02 -0.61916049862E+03 -0.25415218552E+03  0.66959006737E+03  0.10100000352E+00 0. -1.
       -3    1    3    3    0  502  0.19944715185E+02  0.61916049862E+03 -0.70015105028E+03  0.93486310128E+03  0.10100000352E+00 0.  1.
</event>
<event>
 5   0  0.2356769E-03  0.1221324E+04  0.7818609E-02  0.9094393E-01
        1   -1    0    0  501    0  0.00000000000E+00  0.00000000000E+00  0.83108046418E+03  0.83108046419E+03  0.50400001928E-02 0. -1.
       -1   -1    0    0    0  501  0.00000000000E+00  0.00000000000E+00 -0.44870309740E+03  0.44870309742E+03  0.50400001928E-02 0.  1.
    10030    2    1    2    0    0  0.00000000000E+00  0.00000000000E+00  0.38237736678E+03  0.12797835616E+04  0.12213244917E+04 0.  0.
        1    1    3    3  502    0 -0.39993390419E+02  0.81127233731E+02 -0.44164499660E+03  0.45081193682E+03  0.50400001928E-02 0.  1.
       -1    1    3    3    0  502  0.39993390419E+02 -0.81127233731E+02  0.82402236339E+03  0.82897162480E+03  0.50400001928E-02 0. -1.
</event>
<event>
 5   0  0.2356769E-03  0.1295985E+04  0.7818609E-02  0.9032755E-01
        1   -1    0    0  501    0  0.00000000000E+00  0.00000000000E+00  0.56734554162E+03  0.56734554164E+03  0.50400001928E-02 0. -1.
       -1   -1    0    0    0  501  0.00000000000E+00  0.00000000000E+00 -0.74010341094E+03  0.74010341096E+03  0.50400001928E-02 0.  1.
    10030    2    1    2    0    0  0.00000000000E+00  0.00000000000E+00 -0.17275786932E+03  0.13074489526E+04  0.12959851397E+04 0.  0.
        1    1    3    3  502    0  0.98203120912E+02 -0.40425100551E+03  0.41483730739E+03  0.58749699577E+03  0.50400001928E-02 0. -1.
       -1    1    3    3    0  502 -0.98203120912E+02  0.40425100551E+03 -0.58759517671E+03  0.71995195682E+03  0.50400001928E-02 0.  1.
</event>
<event>
 5   0  0.4310889E-03  0.1300515E+04  0.7818609E-02  0.9029156E-01
        2   -1    0    0  501    0  0.00000000000E+00  0.00000000000E+00  0.58613847711E+03  0.58613847712E+03  0.25500000920E-02 0. -1.
       -2   -1    0    0    0  501  0.00000000000E+00  0.00000000000E+00 -0.72139115877E+03  0.72139115878E+03  0.25500000920E-02 0.  1.
    10030    2    1    2    0    0  0.00000000000E+00  0.00000000000E+00 -0.13525268166E+03  0.13075296359E+04  0.13005154597E+04 0.  0.
        4    1    3    3  502    0  0.12882197120E+03 -0.52015550077E+03  0.30270339831E+03  0.61545739535E+03  0.12699999809E+01 0. -1.
       -4    1    3    3    0  502 -0.12882197120E+03  0.52015550077E+03 -0.43795607997E+03  0.69207224054E+03  0.12699999809E+01 0.  1.
</event>
<event>
 5   0  0.4306214E-03  0.1317421E+04  0.7818609E-02  0.9015863E-01
        2   -1    0    0  501    0  0.00000000000E+00  0.00000000000E+00  0.61874320984E+03  0.61874320985E+03  0.25500000920E-02 0. -1.
       -2   -1    0    0    0  501  0.00000000000E+00  0.00000000000E+00 -0.70125907221E+03  0.70125907222E+03  0.25500000920E-02 0.  1.
    10030    2    1    2    0    0  0.00000000000E+00  0.00000000000E+00 -0.82515862374E+02  0.13200022821E+04  0.13174206455E+04 0.  0.
        3    1    3    3  502    0 -0.73142371624E+02  0.19119653693E+03  0.58606269962E+03  0.62078613092E+03  0.10100000352E+00 0. -1.
       -3    1    3    3    0  502  0.73142371624E+02 -0.19119653693E+03 -0.66857856199E+03  0.69921615114E+03  0.10100000352E+00 0.  1.
</event>
<event>
 5   0  0.4388937E-03  0.1347476E+04  0.7818609E-02  0.8992741E-01
        2   -1    0    0  501    0  0.00000000000E+00  0.00000000000E+00  0.55073463440E+03  0.55073463441E+03  0.25500000920E-02 0. -1.
       -2   -1    0    0    0  501  0.00000000000E+00  0.00000000000E+00 -0.82421325374E+03  0.82421325374E+03  0.25500000920E-02 0.  1.
    10030    2    1    2    0    0  0.00000000000E+00  0.00000000000E+00 -0.27347861934E+03  0.13749478882E+04  0.13474758402E+04 0.  0.
        5    1    3    3  502    0 -0.25650061717E+03  0.22964904517E+03 -0.72765700703E+03  0.80500811203E+03  0.46999998093E+01 0.  1.
       -5    1    3    3    0  502  0.25650061717E+03 -0.22964904517E+03  0.45417838770E+03  0.56993977612E+03  0.46999998093E+01 0. -1.
</event>
<event>
 5   0  0.4306214E-03  0.1369648E+04  0.7818609E-02  0.8976087E-01
        2   -1    0    0  501    0  0.00000000000E+00  0.00000000000E+00  0.83143917666E+03  0.83143917667E+03  0.25500000920E-02 0.  1.
       -2   -1    0    0    0  501  0.00000000000E+00  0.00000000000E+00 -0.56406282134E+03  0.56406282135E+03  0.25500000920E-02 0. -1.
    10030    2    1    2    0    0  0.00000000000E+00  0.00000000000E+00  0.26737635532E+03  0.13955019980E+04  0.13696480245E+04 0.  0.
        3    1    3    3  502    0  0.39247305941E+02  0.21750111364E+03  0.79410308124E+03  0.82428562968E+03  0.10100000352E+00 0.  1.
       -3    1    3    3    0  502 -0.39247305941E+02 -0.21750111364E+03 -0.52672672592E+03  0.57121636834E+03  0.10100000352E+00 0. -1.
</event>
<event>
 5   0  0.2458456E-03  0.1336132E+04  0.7818609E-02  0.9001393E-01
       -1   -1    0    0    0  501  0.00000000000E+00  0.00000000000E+00  0.81358380640E+03  0.81358380641E+03  0.50400001928E-02 0. -1.
        1   -1    0    0  501    0  0.00000000000E+00  0.00000000000E+00 -0.54857590300E+03  0.54857590302E+03  0.50400001928E-02 0.  1.
    10030    2    1    2    0    0  0.00000000000E+00  0.00000000000E+00  0.26500790340E+03  0.13621597094E+04  0.13361324355E+04 0.  0.
        5    1    3    3  502    0 -0.60172420773E+03  0.28375446947E+03  0.19453122117E+03  0.69314724779E+03  0.46999998093E+01 0.  1.
       -5    1    3    3    0  502  0.60172420773E+03 -0.28375446947E+03  0.70476682224E+02  0.66901246165E+03  0.46999998093E+01 0. -1.
</event>
<event>
 5   0  0.4388937E-03  0.1303981E+04  0.7818609E-02  0.9026414E-01
        2   -1    0    0  501    0  0.00000000000E+00  0.00000000000E+00  0.11361216702E+04  0.11361216702E+04  0.25500000920E-02 0.  1.
       -2   -1    0    0    0  501  0.00000000000E+00  0.00000000000E+00 -0.37416049235E+03  0.37416049236E+03  0.25500000920E-02 0. -1.
    10030    2    1    2    0    0  0.00000000000E+00  0.00000000000E+00  0.76196117785E+03  0.15102821626E+04  0.13039813549E+04 0.  0.
        5    1    3    3  502    0 -0.32257916420E+03 -0.37399976818E+03 -0.11195460785E+03  0.50644749776E+03  0.46999998093E+01 0. -1.
       -5    1    3    3    0  502  0.32257916420E+03  0.37399976818E+03  0.87391578570E+03  0.10038346648E+04  0.46999998093E+01 0.  1.
</event>
<event>
 5   0  0.4263540E-03  0.1284234E+04  0.7818609E-02  0.9042162E-01
        2   -1    0    0  501    0  0.00000000000E+00  0.00000000000E+00  0.47361377515E+03  0.47361377516E+03  0.25500000920E-02 0. -1.
       -2   -1    0    0    0  501  0.00000000000E+00  0.00000000000E+00 -0.87057017907E+03  0.87057017907E+03  0.25500000920E-02 0.  1.
    10030    2    1    2    0    0  0.00000000000E+00  0.00000000000E+00 -0.39695640391E+03  0.13441839542E+04  0.12842336689E+04 0.  0.
        2    1    3    3  502    0  0.99725121372E+02 -0.52303779060E+03 -0.57411943641E+03  0.78302411042E+03  0.25500000920E-02 0.  1.
       -2    1    3    3    0  502 -0.99725121372E+02  0.52303779060E+03  0.17716303250E+03  0.56115984382E+03  0.25500000920E-02 0. -1.
</event>
<event>
 5   0  0.4388937E-03  0.1413989E+04  0.7818609E-02  0.8943754E-01
        2   -1    0    0  501    0  0.00000000000E+00  0.00000000000E+00  0.25521410206E+04  0.25521410206E+04  0.25500000920E-02 0. -1.
       -2   -1    0    0    0  501  0.00000000000E+00  0.00000000000E+00 -0.19585185122E+03  0.19585185123E+03  0.25500000920E-02 0.  1.
    10030    2    1    2    0    0  0.00000000000E+00  0.00000000000E+00  0.23562891694E+04  0.27479928718E+04  0.14139894532E+04 0.  0.
        5    1    3    3  502    0 -0.27086261631E+03 -0.39436163507E+03  0.16656647962E+03  0.50661044034E+03  0.46999998093E+01 0.  1.
       -5    1    3    3    0  502  0.27086261631E+03  0.39436163507E+03  0.21897226897E+04  0.22413824315E+04  0.46999998093E+01 0. -1.
</event>
<event>
 5   0  0.2356769E-03  0.1291456E+04  0.7818609E-02  0.9036368E-01
       -1   -1    0    0    0  501  0.00000000000E+00  0.00000000000E+00  0.48674500054E+03  0.48674500056E+03  0.50400001928E-02 0. -1.
        1   -1    0    0  501    0  0.00000000000E+00  0.00000000000E+00 -0.85663929903E+03  0.85663929904E+03  0.50400001928E-02 0.  1.
    10030    2    1    2    0    0  0.00000000000E+00  0.00000000000E+00 -0.36989429849E+03  0.13433842996E+04  0.12914563811E+04 0.  0.
        1    1    3    3  502    0  0.35861492818E+03 -0.40817699214E+03  0.17801235409E+03  0.57175302523E+03  0.50400001928E-02 0. -1.
       -1    1    3    3    0  502 -0.35861492818E+03  0.40817699214E+03 -0.54790665258E+03  0.77163127437E+03  0.50400001928E-02 0.  1.
</event>
<event>
 5   0  0.4263540E-03  0.1354139E+04  0.7818609E-02  0.8987701E-01
        2   -1    0    0  501    0  0.00000000000E+00  0.00000000000E+00  0.13543290915E+04  0.13543290915E+04  0.25500000920E-02 0.  1.
       -2   -1    0    0    0  501  0.00000000000E+00  0.00000000000E+00 -0.33848739884E+03  0.33848739885E+03  0.25500000920E-02 0. -1.
    10030    2    1    2    0    0  0.00000000000E+00  0.00000000000E+00  0.10158416927E+04  0.16928164903E+04  0.13541393301E+04 0.  0.
        2    1    3    3  502    0  0.19651996063E+03 -0.44427345812E+03 -0.81652274248E+02  0.49261150455E+03  0.25500000920E-02 0. -1.
       -2    1    3    3    0  502 -0.19651996063E+03  0.44427345812E+03  0.10974939669E+04  0.12002049858E+04  0.25500000920E-02 0.  1.
</event>
<event>
 5   0  0.2458456E-03  0.1318535E+04  0.7818609E-02  0.9014994E-01
       -1   -1    0    0    0  501  0.00000000000E+00  0.00000000000E+00  0.28204344922E+03  0.28204344926E+03  0.50400001928E-02 0. -1.
        1   -1    0    0  501    0  0.00000000000E+00  0.00000000000E+00 -0.15410167169E+04  0.15410167169E+04  0.50400001928E-02 0.  1.
    10030    2    1    2    0    0  0.00000000000E+00  0.00000000000E+00 -0.12589732677E+04  0.18230601662E+04  0.13185350510E+04 0.  0.
        5    1    3    3  502    0  0.47273474090E+03  0.10859992426E+03 -0.12468004632E+04  0.13378361499E+04  0.46999998093E+01 0.  1.
       -5    1    3    3    0  502 -0.47273474090E+03 -0.10859992426E+03 -0.12172804429E+02  0.48522401627E+03  0.46999998093E+01 0. -1.
</event>
<event>
 5   0  0.2370801E-03  0.1052606E+04  0.7818609E-02  0.9252658E-01
       -1   -1    0    0    0  501  0.00000000000E+00  0.00000000000E+00  0.70680620605E+03  0.70680620607E+03  0.50400001928E-02 0.  1.
        1   -1    0    0  501    0  0.00000000000E+00  0.00000000000E+00 -0.39189631771E+03  0.39189631774E+03  0.50400001928E-02 0. -1.
    10030    2    1    2    0    0  0.00000000000E+00  0.00000000000E+00  0.31490988834E+03  0.10987025238E+04  0.10526058132E+04 0.  0.
        3    1    3    3  502    0  0.38579314405E+03 -0.22689695283E+03  0.44648602133E+03  0.63219328899E+03  0.10100000352E+00 0. -1.
       -3    1    3    3    0  502 -0.38579314405E+03  0.22689695283E+03 -0.13157613298E+03  0.46650923482E+03  0.10100000352E+00 0.  1.
</event>
<event>
 5   0  0.4310889E-03  0.1378751E+04  0.7818609E-02  0.8969345E-01
       -2   -1    0    0    0  501  0.00000000000E+00  0.00000000000E+00  0.46836121080E+03  0.46836121081E+03  0.25500000920E-02 0. -1.
        2   -1    0    0  501    0  0.00000000000E+00  0.00000000000E+00 -0.10146845278E+04  0.10146845278E+04  0.25500000920E-02 0.  1.
    10030    2    1    2    0    0  0.00000000000E+00  0.00000000000E+00 -0.54632331703E+03  0.14830457386E+04  0.13787514265E+04 0.  0.
        4    1    3    3  502    0 -0.12383762478E+03 -0.61460069221E+03  0.35170333449E+02  0.62793975303E+03  0.12699999809E+01 0. -1.
       -4    1    3    3    0  502  0.12383762478E+03  0.61460069221E+03 -0.58149365048E+03  0.85510598561E+03  0.12699999809E+01 0.  1.
</event>
<event>
 5   0  0.2370801E-03  0.1284016E+04  0.7818609E-02  0.9042338E-01
        1   -1    0    0  501    0  0.00000000000E+00  0.00000000000E+00  0.78954418509E+03  0.78954418511E+03  0.50400001928E-02 0. -1.
       -1   -1    0    0    0  501  0.00000000000E+00  0.00000000000E+00 -0.52204079568E+03  0.52204079570E+03  0.50400001928E-02 0.  1.
    10030    2    1    2    0    0  0.00000000000E+00  0.00000000000E+00  0.26750338941E+03  0.13115849808E+04  0.12840160040E+04 0.  0.
        3    1    3    3  502    0  0.19014217374E+03  0.57423798248E+03 -0.85973694358E+02  0.61097855370E+03  0.10100000352E+00 0.  1.
       -3    1    3    3    0  502 -0.19014217374E+03 -0.57423798248E+03  0.35347708377E+03  0.70060642711E+03  0.10100000352E+00 0. -1.
</event>
<event>
 5   0  0.2511542E-03  0.1287633E+04  0.7818609E-02  0.9039430E-01
        1   -1    0    0  501    0  0.00000000000E+00  0.00000000000E+00  0.97476671517E+03  0.97476671519E+03  0.50400001928E-02 0. -1.
       -1   -1    0    0    0  501  0.00000000000E+00  0.00000000000E+00 -0.42522942939E+03  0.42522942942E+03  0.50400001928E-02 0.  1.
    10030    2    1    2    0    0  0.00000000000E+00  0.00000000000E+00  0.54953728578E+03  0.13999961446E+04  0.12876327025E+04 0.  0.
        4    1    3    3  502    0  0.54899562175E+03 -0.30886598284E+03  0.41943392733E+03  0.75678320565E+03  0.12699999809E+01 0. -1.
       -4    1    3    3    0  502 -0.54899562175E+03  0.30886598284E+03  0.13010335845E+03  0.64321293895E+03  0.12699999809E+01 0.  1.
</event>
<event>
 5   0  0.2370801E-03  0.1253256E+04  0.7818609E-02  0.9067478E-01
       -1   -1    0    0    0  501  0.00000000000E+00  0.00000000000E+00  0.48349505213E+03  0.48349505216E+03  0.50400001928E-02 0. -1.
        1   -1    0    0  501    0  0.00000000000E+00  0.00000000000E+00 -0.81213354790E+03  0.81213354792E+03  0.50400001928E-02 0.  1.
    10030    2    1    2    0    0  0.00000000000E+00  0.00000000000E+00 -0.32863849577E+03  0.12956286001E+04  0.12532558432E+04 0.  0.
        3    1    3    3  502    0 -0.55376315122E+03  0.22308061867E+03  0.32495917882E+02  0.59789178365E+03  0.10100000352E+00 0.  1.
       -3    1    3    3    0  502  0.55376315122E+03 -0.22308061867E+03 -0.36113441365E+03  0.69773681643E+03  0.10100000352E+00 0. -1.
</event>
<event>
 5   0  0.4388937E-03  0.1247748E+04  0.7818609E-02  0.9072060E-01
       -2   -1    0    0    0  501  0.00000000000E+00  0.00000000000E+00  0.86478939005E+03  0.86478939005E+03  0.25500000920E-02 0.  1.
        2   -1    0    0  501    0  0.00000000000E+00  0.00000000000E+00 -0.45007351351E+03  0.45007351352E+03  0.25500000920E-02 0. -1.
    10030    2    1    2    0    0  0.00000000000E+00  0.00000000000E+00  0.41471587654E+03  0.13148629036E+04  0.12477480503E+04 0.  0.
        5    1    3    3  502    0 -0.56919300420E+03 -0.24959529125E+02  0.47518008446E+03  0.74190420998E+03  0.46999998093E+01 0.  1.
       -5    1    3    3    0  502  0.56919300420E+03  0.24959529125E+02 -0.60464207918E+02  0.57295869359E+03  0.46999998093E+01 0. -1.
</event>
<event>
 5   0  0.2511542E-03  0.1333500E+04  0.7818609E-02  0.9003413E-01
       -1   -1    0    0    0  501  0.00000000000E+00  0.00000000000E+00  0.92617914658E+03  0.92617914659E+03  0.50400001928E-02 0.  1.
        1   -1    0    0  501    0  0.00000000000E+00  0.00000000000E+00 -0.47998895712E+03  0.47998895715E+03  0.50400001928E-02 0. -1.
    10030    2    1    2    0    0  0.00000000000E+00  0.00000000000E+00  0.44619018946E+03  0.14061681037E+04  0.13335003003E+04 0.  0.
        4    1    3    3  502    0 -0.67845944206E+02  0.63521183397E+03  0.21752987063E+02  0.63919633252E+03  0.12699999809E+01 0.  1.
       -4    1    3    3    0  502  0.67845944206E+02 -0.63521183397E+03  0.42443720240E+03  0.76697177122E+03  0.12699999809E+01 0. -1.
</event>
<event>
 5   0  0.2458456E-03  0.1310745E+04  0.7818609E-02  0.9021087E-01
        1   -1    0    0  501    0  0.00000000000E+00  0.00000000000E+00  0.74435166024E+03  0.74435166026E+03  0.50400001928E-02 0.  1.
       -1   -1    0    0    0  501  0.00000000000E+00  0.00000000000E+00 -0.57702980275E+03  0.57702980277E+03  0.50400001928E-02 0. -1.
    10030    2    1    2    0    0  0.00000000000E+00  0.00000000000E+00  0.16732185750E+03  0.13213814630E+04  0.13107449664E+04 0.  0.
        5    1    3    3  502    0  0.21770628741E+03  0.60885747999E+03  0.19123931618E+03  0.67431300193E+03  0.46999998093E+01 0. -1.
       -5    1    3    3    0  502 -0.21770628741E+03 -0.60885747999E+03 -0.23917458682E+02  0.64706846110E+03  0.46999998093E+01 0.  1.
</event>
<event>
 5   0  0.4388937E-03  0.1318163E+04  0.7818609E-02  0.9015284E-01
        2   -1    0    0  501    0  0.00000000000E+00  0.00000000000E+00  0.99225925952E+03  0.99225925952E+03  0.25500000920E-02 0. -1.
       -2   -1    0    0    0  501  0.00000000000E+00  0.00000000000E+00 -0.43777719246E+03  0.43777719247E+03  0.25500000920E-02 0.  1.
    10030    2    1    2    0    0  0.00000000000E+00  0.00000000000E+00  0.55448206706E+03  0.14300364520E+04  0.13181630746E+04 0.  0.
        5    1    3    3  502    0  0.27132245144E+03 -0.34751085486E+03  0.80870223812E+03  0.92108689430E+03  0.46999998093E+01 0. -1.
       -5    1    3    3    0  502 -0.27132245144E+03  0.34751085486E+03 -0.25422017107E+03  0.50894955769E+03  0.46999998093E+01 0.  1.
</event>
<event>
 5   0  0.2458456E-03  0.1280852E+04  0.7818609E-02  0.9044889E-01
       -1   -1    0    0    0  501  0.00000000000E+00  0.00000000000E+00  0.17947852022E+03  0.17947852029E+03  0.50400001928E-02 0.  1.
        1   -1    0    0  501    0  0.00000000000E+00  0.00000000000E+00 -0.22852051932E+04  0.22852051932E+04  0.50400001928E-02 0. -1.
    10030    2    1    2    0    0  0.00000000000E+00  0.00000000000E+00 -0.21057266730E+04  0.24646837135E+04  0.12808516644E+04 0.  0.
        5    1    3    3  502    0  0.50768202370E+03  0.22806665726E+03 -0.16624835883E+04  0.17531768903E+04  0.46999998093E+01 0. -1.
       -5    1    3    3    0  502 -0.50768202370E+03 -0.22806665726E+03 -0.44324308469E+03  0.71150682320E+03  0.46999998093E+01 0.  1.
</event>
<event>
 5   0  0.4310889E-03  0.1312890E+04  0.7818609E-02  0.9019405E-01
        2   -1    0    0  501    0  0.00000000000E+00  0.00000000000E+00  0.17410194883E+04  0.17410194883E+04  0.25500000920E-02 0.  1.
       -2   -1    0    0    0  501  0.00000000000E+00  0.00000000000E+00 -0.24751020755E+03  0.24751020756E+03  0.25500000920E-02 0. -1.
    10030    2    1    2    0    0  0.00000000000E+00  0.00000000000E+00  0.14935092808E+04  0.19885296959E+04  0.13128900867E+04 0.  0.
        4    1    3    3  502    0 -0.11743639898E+03  0.18388426095E+03 -0.19098205822E+03  0.28996635786E+03  0.12699999809E+01 0. -1.
       -4    1    3    3    0  502  0.11743639898E+03 -0.18388426095E+03  0.16844913390E+04  0.16985633380E+04  0.12699999809E+01 0.  1.
</event>
<event>
 5   0  0.2462055E-03  0.1281288E+04  0.7818609E-02  0.9044537E-01
       -1   -1    0    0    0  501  0.00000000000E+00  0.00000000000E+00  0.13507050358E+04  0.13507050358E+04  0.50400001928E-02 0. -1.
        1   -1    0    0  501    0  0.00000000000E+00  0.00000000000E+00 -0.30385966853E+03  0.30385966857E+03  0.50400001928E-02 0.  1.
    10030    2    1    2    0    0  0.00000000000E+00  0.00000000000E+00  0.10468453673E+04  0.16545647044E+04  0.12812880777E+04 0.  0.
        2    1    3    3  502    0 -0.25311074955E+03  0.45042650871E+03  0.34290615812E+02  0.51780781920E+03  0.25500000920E-02 0.  1.
       -2    1    3    3    0  502  0.25311074955E+03 -0.45042650871E+03  0.10125547514E+04  0.11367568852E+04  0.25500000920E-02 0. -1.
</event>
<event>
 5   0  0.2462055E-03  0.1297712E+04  0.7818609E-02  0.9031382E-01
        1   -1    0    0  501    0  0.00000000000E+00  0.00000000000E+00  0.95948394474E+03  0.95948394475E+03  0.50400001928E-02 0. -1.
       -1   -1    0    0    0  501  0.00000000000E+00  0.00000000000E+00 -0.43879192769E+03  0.43879192772E+03  0.50400001928E-02 0.  1.
    10030    2    1    2    0    0  0.00000000000E+00  0.00000000000E+00  0.52069201705E+03  0.13982758725E+04  0.12977115392E+04 0.  0.
        2    1    3    3  502    0  0.56898431906E+03 -0.55752221333E+02 -0.70292420237E+02  0.57601431394E+03  0.25500000920E-02 0.  1.
       -2    1    3    3    0  502 -0.56898431906E+03  0.55752221333E+02  0.59098443728E+03  0.82226155853E+03  0.25500000920E-02 0. -1.
</event>
<event>
 5   0  0.2356769E-03  0.1312849E+04  0.7818609E-02  0.9019438E-01
        1   -1    0    0  501    0  0.00000000000E+00  0.00000000000E+00  0.12076663690E+04  0.12076663690E+04  0.50400001928E-02 0. -1.
       -1   -1    0    0    0  501  0.00000000000E+00  0.00000000000E+00 -0.35679801924E+03  0.35679801928E+03  0.50400001928E-02 0.  1.
    10030    2    1    2    0    0  0.00000000000E+00  0.00000000000E+00  0.85086834973E+03  0.15644643883E+04  0.13128487626E+04 0.  0.
        1    1    3    3  502    0  0.38782062613E+03  0.93333337004E+02 -0.19580287350E+03  0.44435876850E+03  0.50400001928E-02 0.  1.
       -1    1    3    3    0  502 -0.38782062613E+03 -0.93333337004E+02  0.10466712232E+04  0.11201056198E+04  0.50400001928E-02 0. -1.
</event>
<event>
 5   0  0.4306214E-03  0.1224274E+04  0.7818609E-02  0.9091871E-01
       -2   -1    0    0    0  501  0.00000000000E+00  0.00000000000E+00  0.30379803250E+03  0.30379803251E+03  0.25500000920E-02 0.  1.
        2   -1    0    0  501    0  0.00000000000E+00  0.00000000000E+00 -0.12334247284E+04  0.12334247284E+04  0.25500000920E-02 0. -1.
    10030    2    1    2    0    0  0.00000000000E+00  0.00000000000E+00 -0.92962669595E+03  0.15372227610E+04  0.12242744884E+04 0.  0.
        3    1    3    3  502    0  0.60260898007E+03 -0.10577298675E+03 -0.48949794217E+03  0.78353924801E+03  0.10100000352E+00 0. -1.
       -3    1    3    3    0  502 -0.60260898007E+03  0.10577298675E+03 -0.44012875378E+03  0.75368351295E+03  0.10100000352E+00 0.  1.
</event>
<event>
 5   0  0.2462055E-03  0.1217741E+04  0.7818609E-02  0.9097468E-01
        1   -1    0    0  501    0  0.00000000000E+00  0.00000000000E+00  0.12249579350E+04  0.12249579350E+04  0.50400001928E-02 0.  1.
       -1   -1    0    0    0  501  0.00000000000E+00  0.00000000000E+00 -0.30264187225E+03  0.30264187229E+03  0.50400001928E-02 0. -1.
    10030    2    1    2    0    0  0.00000000000E+00  0.00000000000E+00  0.92231606277E+03  0.15275998073E+04  0.12177414552E+04 0.  0.
        2    1    3    3  502    0  0.55174852571E+03 -0.75714301175E+02  0.15243895135E+03  0.57740516530E+03  0.25500000920E-02 0. -1.
       -2    1    3    3    0  502 -0.55174852571E+03  0.75714301175E+02  0.76987711143E+03  0.95019464202E+03  0.25500000920E-02 0.  1.
</event>
<event>
 5   0  0.1661750E-03  0.1294653E+04  0.7818609E-02  0.9033816E-01
        3   -1    0    0  501    0  0.00000000000E+00  0.00000000000E+00  0.49249603304E+03  0.49249604339E+03  0.10100000352E+00 0. -1.
       -3   -1    0    0    0  501  0.00000000000E+00  0.00000000000E+00 -0.85083290252E+03  0.85083290852E+03  0.10100000352E+00 0.  1.
    10030    2    1    2    0    0  0.00000000000E+00  0.00000000000E+00 -0.35833686949E+03  0.13433289519E+04  0.12946533748E+04 0.  0.
        3    1    3    3  502    0 -0.48900554088E+03 -0.11364437364E+03 -0.60317694876E+03  0.78476996909E+03  0.10100000352E+00 0.  1.
       -3    1    3    3    0  502  0.48900554088E+03  0.11364437364E+03  0.24484007927E+03  0.55855898282E+03  0.10100000352E+00 0. -1.
</event>
<event>
 5   0  0.2462055E-03  0.1282355E+04  0.7818609E-02  0.9043676E-01
        1   -1    0    0  501    0  0.00000000000E+00  0.00000000000E+00  0.11943048156E+04  0.11943048156E+04  0.50400001928E-02 0.  1.
       -1   -1    0    0    0  501  0.00000000000E+00  0.00000000000E+00 -0.34422416404E+03  0.34422416408E+03  0.50400001928E-02 0. -1.
    10030    2    1    2    0    0  0.00000000000E+00  0.00000000000E+00  0.85008065154E+03  0.15385289797E+04  0.12823549848E+04 0.  0.
        2    1    3    3  502    0 -0.39944951462E+03  0.46054444339E+02  0.10242374417E+04  0.11003377952E+04  0.25500000920E-02 0.  1.
       -2    1    3    3    0  502  0.39944951462E+03 -0.46054444339E+02 -0.17415679016E+03  0.43819118446E+03  0.25500000920E-02 0. -1.
</event>
<event>
 5   0  0.4388937E-03  0.1299427E+04  0.7818609E-02  0.9030019E-01
       -2   -1    0    0    0  501  0.00000000000E+00  0.00000000000E+00  0.27620665543E+03  0.27620665544E+03  0.25500000920E-02 0.  1.
        2   -1    0    0  501    0  0.00000000000E+00  0.00000000000E+00 -0.15283043286E+04  0.15283043286E+04  0.25500000920E-02 0. -1.
    10030    2    1    2    0    0  0.00000000000E+00  0.00000000000E+00 -0.12520976732E+04  0.18045109840E+04  0.12994273002E+04 0.  0.
        5    1    3    3  502    0 -0.48401884297E+01  0.50159107446E+03 -0.11994457456E+04  0.13001189254E+04  0.46999998093E+01 0. -1.
       -5    1    3    3    0  502  0.48401884297E+01 -0.50159107446E+03 -0.52651927560E+02  0.50439205869E+03  0.46999998093E+01 0.  1.
</event>
<event>
 5   0  0.4310889E-03  0.1301563E+04  0.7818609E-02  0.9028327E-01
        2   -1    0    0  501    0  0.00000000000E+00  0.00000000000E+00  0.58124984832E+03  0.58124984832E+03  0.25500000920E-02 0. -1.
       -2   -1    0    0    0  501  0.00000000000E+00  0.00000000000E+00 -0.72863082456E+03  0.72863082457E+03  0.25500000920E-02 0.  1.
    10030    2    1    2    0    0  0.00000000000E+00  0.00000000000E+00 -0.14738097625E+03  0.13098806729E+04  0.13015629931E+04 0.  0.
        4    1    3    3  502    0  0.16982784929E+03 -0.50248267608E+03 -0.45317392962E+03  0.69763784412E+03  0.12699999809E+01 0.  1.
       -4    1    3    3    0  502 -0.16982784929E+03  0.50248267608E+03  0.30579295338E+03  0.61224282878E+03  0.12699999809E+01 0. -1.
</event>
<event>
 5   0  0.2462055E-03  0.9765869E+03  0.7818609E-02  0.9334603E-01
       -1   -1    0    0    0  501  0.00000000000E+00  0.00000000000E+00  0.78527747903E+03  0.78527747905E+03  0.50400001928E-02 0. -1.
        1   -1    0    0  501    0  0.00000000000E+00  0.00000000000E+00 -0.30362579607E+03  0.30362579611E+03  0.50400001928E-02 0.  1.
    10030    2    1    2    0    0  0.00000000000E+00  0.00000000000E+00  0.48165168296E+03  0.10889032752E+04  0.97658691316E+03 0.  0.
        2    1    3    3  502    0 -0.36150693850E+03 -0.25051138279E+03  0.47732155468E+03  0.64906015597E+03  0.25500000920E-02 0. -1.
       -2    1    3    3    0  502  0.36150693850E+03  0.25051138279E+03  0.43301282769E+01  0.43984311920E+03  0.25500000920E-02 0.  1.
</event>
<event>
 5   0  0.2356769E-03  0.1228244E+04  0.7818609E-02  0.9088488E-01
        1   -1    0    0  501    0  0.00000000000E+00  0.00000000000E+00  0.86101816269E+03  0.86101816271E+03  0.50400001928E-02 0.  1.
       -1   -1    0    0    0  501  0.00000000000E+00  0.00000000000E+00 -0.43802275852E+03  0.43802275855E+03  0.50400001928E-02 0. -1.
    10030    2    1    2    0    0  0.00000000000E+00  0.00000000000E+00  0.42299540417E+03  0.12990409213E+04  0.12282435439E+04 0.  0.
        1    1    3    3  502    0 -0.21059687189E+03  0.48405641053E+03 -0.12041277435E+03  0.54144333709E+03  0.50400001928E-02 0. -1.
       -1    1    3    3    0  502  0.21059687189E+03 -0.48405641053E+03  0.54340817853E+03  0.75759758417E+03  0.50400001928E-02 0.  1.
</event>
<event>
 5   0  0.2370801E-03  0.1309778E+04  0.7818609E-02  0.9021847E-01
        1   -1    0    0  501    0  0.00000000000E+00  0.00000000000E+00  0.17523635485E+04  0.17523635485E+04  0.50400001928E-02 0.  1.
       -1   -1    0    0    0  501  0.00000000000E+00  0.00000000000E+00 -0.24474345905E+03  0.24474345910E+03  0.50400001928E-02 0. -1.
    10030    2    1    2    0    0  0.00000000000E+00  0.00000000000E+00  0.15076200895E+04  0.19971070076E+04  0.13097778689E+04 0.  0.
        3    1    3    3  502    0 -0.53231518842E+03  0.16930396432E+03  0.23257981733E+03  0.60507575872E+03  0.10100000352E+00 0. -1.
       -3    1    3    3    0  502  0.53231518842E+03 -0.16930396432E+03  0.12750402721E+04  0.13920312489E+04  0.10100000352E+00 0.  1.
</event>
<event>
 5   0  0.4263540E-03  0.1295831E+04  0.7818609E-02  0.9032878E-01
       -2   -1    0    0    0  501  0.00000000000E+00  0.00000000000E+00  0.10146732953E+04  0.10146732954E+04  0.25500000920E-02 0. -1.
        2   -1    0    0  501    0  0.00000000000E+00  0.00000000000E+00 -0.41372379211E+03  0.41372379212E+03  0.25500000920E-02 0.  1.
    10030    2    1    2    0    0  0.00000000000E+00  0.00000000000E+00  0.60094950324E+03  0.14283970875E+04  0.12958309821E+04 0.  0.
        2    1    3    3  502    0  0.24438920196E+03 -0.12722019958E+03  0.94688199863E+03  0.98615241244E+03  0.25500000920E-02 0. -1.
       -2    1    3    3    0  502 -0.24438920196E+03  0.12722019958E+03 -0.34593249540E+03  0.44224467503E+03  0.25500000920E-02 0.  1.
</event>
<event>
 5   0  0.2356769E-03  0.1307277E+04  0.7818609E-02  0.9023814E-01
        1   -1    0    0  501    0  0.00000000000E+00  0.00000000000E+00  0.13351894192E+04  0.13351894192E+04  0.50400001928E-02 0. -1.
       -1   -1    0    0    0  501  0.00000000000E+00  0.00000000000E+00 -0.31998712143E+03  0.31998712147E+03  0.50400001928E-02 0.  1.
    10030    2    1    2    0    0  0.00000000000E+00  0.00000000000E+00  0.10152022978E+04  0.16551765407E+04  0.13072771992E+04 0.  0.
        1    1    3    3  502    0  0.12658966162E+03  0.61279278833E+03  0.74684009444E+03  0.97432544386E+03  0.50400001928E-02 0. -1.
       -1    1    3    3    0  502 -0.12658966162E+03 -0.61279278833E+03  0.26836220335E+03  0.68085109684E+03  0.50400001928E-02 0.  1.
</event>
<event>
 5   0  0.4388937E-03  0.1292669E+04  0.7818609E-02  0.9035399E-01
        2   -1    0    0  501    0  0.00000000000E+00  0.00000000000E+00  0.62879007228E+03  0.62879007229E+03  0.25500000920E-02 0. -1.
       -2   -1    0    0    0  501  0.00000000000E+00  0.00000000000E+00 -0.66436888852E+03  0.66436888852E+03  0.25500000920E-02 0.  1.
    10030    2    1    2    0    0  0.00000000000E+00  0.00000000000E+00 -0.35578816235E+02  0.12931589608E+04  0.12926694263E+04 0.  0.
        5    1    3    3  502    0 -0.53394345797E+02  0.43179315747E+03 -0.49591410987E+03  0.65973417477E+03  0.46999998093E+01 0.  1.
       -5    1    3    3    0  502  0.53394345797E+02 -0.43179315747E+03  0.46033529363E+03  0.63342478603E+03  0.46999998093E+01 0. -1.
</event>
<event>
 5   0  0.2370801E-03  0.1276652E+04  0.7818609E-02  0.9048288E-01
       -1   -1    0    0    0  501  0.00000000000E+00  0.00000000000E+00  0.39310104493E+03  0.39310104496E+03  0.50400001928E-02 0. -1.
        1   -1    0    0  501    0  0.00000000000E+00  0.00000000000E+00 -0.10365280927E+04  0.10365280927E+04  0.50400001928E-02 0.  1.
    10030    2    1    2    0    0  0.00000000000E+00  0.00000000000E+00 -0.64342704773E+03  0.14296291376E+04  0.12766523041E+04 0.  0.
        3    1    3    3  502    0  0.16908463593E+03 -0.24680912754E+03  0.30972955341E+03  0.43062369419E+03  0.10100000352E+00 0. -1.
       -3    1    3    3    0  502 -0.16908463593E+03  0.24680912754E+03 -0.95315660114E+03  0.99900544345E+03  0.10100000352E+00 0.  1.
</event>
<event>
 5   0  0.4263540E-03  0.1304327E+04  0.7818609E-02  0.9026141E-01
        2   -1    0    0  501    0  0.00000000000E+00  0.00000000000E+00  0.97547035151E+03  0.97547035152E+03  0.25500000920E-02 0.  1.
       -2   -1    0    0    0  501  0.00000000000E+00  0.00000000000E+00 -0.43601240848E+03  0.43601240849E+03  0.25500000920E-02 0. -1.
    10030    2    1    2    0    0  0.00000000000E+00  0.00000000000E+00  0.53945794303E+03  0.14114827600E+04  0.13043269182E+04 0.  0.
        2    1    3    3  502    0  0.14567317095E+03 -0.59873161818E+03  0.38601130675E+02  0.61740608245E+03  0.25500000920E-02 0.  1.
       -2    1    3    3    0  502 -0.14567317095E+03  0.59873161818E+03  0.50085681236E+03  0.79407667756E+03  0.25500000920E-02 0. -1.
</event>
<event>
 5   0  0.1661750E-03  0.1275525E+04  0.7818609E-02  0.9049202E-01
        3   -1    0    0  501    0  0.00000000000E+00  0.00000000000E+00  0.54044393639E+03  0.54044394583E+03  0.10100000352E+00 0. -1.
       -3   -1    0    0    0  501  0.00000000000E+00  0.00000000000E+00 -0.75260561839E+03  0.75260562517E+03  0.10100000352E+00 0.  1.
    10030    2    1    2    0    0  0.00000000000E+00  0.00000000000E+00 -0.21216168200E+03  0.12930495710E+04  0.12755252305E+04 0.  0.
        2    1    3    3  502    0  0.41202144631E+03  0.35824774440E+02 -0.59823627941E+03  0.72727692985E+03  0.25500000920E-02 0.  1.
       -2    1    3    3    0  502 -0.41202144631E+03 -0.35824774440E+02  0.38607459741E+03  0.56577264114E+03  0.25500000920E-02 0. -1.
</event>
<event>
 5   0  0.4388937E-03  0.1251981E+04  0.7818609E-02  0.9068536E-01
        2   -1    0    0  501    0  0.00000000000E+00  0.00000000000E+00  0.17395183470E+04  0.17395183470E+04  0.25500000920E-02 0. -1.
       -2   -1    0    0    0  501  0.00000000000E+00  0.00000000000E+00 -0.22527160115E+03  0.22527160116E+03  0.25500000920E-02 0.  1.
    10030    2    1    2    0    0  0.00000000000E+00  0.00000000000E+00  0.15142467459E+04  0.19647899482E+04  0.12519809636E+04 0.  0.
        5    1    3    3  502    0  0.21641239346E+03 -0.48185885386E+03  0.23000166734E+03  0.57614680079E+03  0.46999998093E+01 0.  1.
       -5    1    3    3    0  502 -0.21641239346E+03  0.48185885386E+03  0.12842450786E+04  0.13886431474E+04  0.46999998093E+01 0. -1.
</event>
<event>
 5   0  0.2356769E-03  0.1290383E+04  0.7818609E-02  0.9037226E-01
       -1   -1    0    0    0  501  0.00000000000E+00  0.00000000000E+00  0.40977293146E+03  0.40977293149E+03  0.50400001928E-02 0. -1.
        1   -1    0    0  501    0  0.00000000000E+00  0.00000000000E+00 -0.10158603246E+04  0.10158603246E+04  0.50400001928E-02 0.  1.
    10030    2    1    2    0    0  0.00000000000E+00  0.00000000000E+00 -0.60608739310E+03  0.14256332561E+04  0.12903829868E+04 0.  0.
        1    1    3    3  502    0 -0.51309418473E+02 -0.17510688675E+03 -0.98675935646E+03  0.10034884682E+04  0.50400001928E-02 0.  1.
       -1    1    3    3    0  502  0.51309418473E+02  0.17510688675E+03  0.38067196336E+03  0.42214478787E+03  0.50400001928E-02 0. -1.
</event>
<event>
 5   0  0.2462055E-03  0.1318537E+04  0.7818609E-02  0.9014993E-01
       -1   -1    0    0    0  501  0.00000000000E+00  0.00000000000E+00  0.43002817114E+03  0.43002817117E+03  0.50400001928E-02 0. -1.
        1   -1    0    0  501    0  0.00000000000E+00  0.00000000000E+00 -0.10107130370E+04  0.10107130370E+04  0.50400001928E-02 0.  1.
    10030    2    1    2    0    0  0.00000000000E+00  0.00000000000E+00 -0.58068486584E+03  0.14407412082E+04  0.13185371878E+04 0.  0.
        2    1    3    3  502    0 -0.63256724340E+03  0.16378915568E+03 -0.19466648891E+03  0.68180880520E+03  0.25500000920E-02 0. -1.
       -2    1    3    3    0  502  0.63256724340E+03 -0.16378915568E+03 -0.38601837693E+03  0.75893240297E+03  0.25500000920E-02 0.  1.
</event>
<event>
 5   0  0.4306214E-03  0.1300941E+04  0.7818609E-02  0.9028819E-01
       -2   -1    0    0    0  501  0.00000000000E+00  0.00000000000E+00  0.31428802939E+03  0.31428802940E+03  0.25500000920E-02 0. -1.
        2   -1    0    0  501    0  0.00000000000E+00  0.00000000000E+00 -0.13462560670E+04  0.13462560670E+04  0.25500000920E-02 0.  1.
    10030    2    1    2    0    0  0.00000000000E+00  0.00000000000E+00 -0.10319680376E+04  0.16605440964E+04  0.13009414535E+04 0.  0.
        3    1    3    3  502    0  0.13266132009E+03 -0.26120006323E+03 -0.12572821154E+04  0.12909619773E+04  0.10100000352E+00 0.  1.
       -3    1    3    3    0  502 -0.13266132009E+03  0.26120006323E+03  0.22531407783E+03  0.36958211909E+03  0.10100000352E+00 0. -1.
</event>
<event>
 5   0  0.2370801E-03  0.1289153E+04  0.7818609E-02  0.9038212E-01
       -1   -1    0    0    0  501  0.00000000000E+00  0.00000000000E+00  0.73968574203E+03  0.73968574205E+03  0.50400001928E-02 0. -1.
        1   -1    0    0  501    0  0.00000000000E+00  0.00000000000E+00 -0.56169607390E+03  0.56169607392E+03  0.50400001928E-02 0.  1.
    10030    2    1    2    0    0  0.00000000000E+00  0.00000000000E+00  0.17798966814E+03  0.13013818160E+04  0.12891525546E+04 0.  0.
        3    1    3    3  502    0 -0.42897848373E+03  0.10294438156E+03 -0.38541912794E+03  0.58580542809E+03  0.10100000352E+00 0.  1.
       -3    1    3    3    0  502  0.42897848373E+03 -0.10294438156E+03  0.56340879608E+03  0.71557638788E+03  0.10100000352E+00 0. -1.
</event>
<event>
 5   0  0.4453011E-03  0.1179305E+04  0.7818609E-02  0.9131166E-01
        2   -1    0    0  501    0  0.00000000000E+00  0.00000000000E+00  0.10472577217E+04  0.10472577217E+04  0.25500000920E-02 0.  1.
       -2   -1    0    0    0  501  0.00000000000E+00  0.00000000000E+00 -0.33200070717E+03  0.33200070718E+03  0.25500000920E-02 0. -1.
    10030    2    1    2    0    0  0.00000000000E+00  0.00000000000E+00  0.71525701454E+03  0.13792584289E+04  0.11793053959E+04 0.  0.
        1    1    3    3  502    0  0.19645282447E+03  0.42411466775E+03  0.77805477547E+03  0.90765422783E+03  0.50400001928E-02 0.  1.
       -1    1    3    3    0  502 -0.19645282447E+03 -0.42411466775E+03 -0.62797760935E+02  0.47160420105E+03  0.50400001928E-02 0. -1.
</event>
<event>
 5   0  0.2356769E-03  0.1283181E+04  0.7818609E-02  0.9043010E-01
       -1   -1    0    0    0  501  0.00000000000E+00  0.00000000000E+00  0.40923702254E+03  0.40923702257E+03  0.50400001928E-02 0.  1.
        1   -1    0    0  501    0  0.00000000000E+00  0.00000000000E+00 -0.10058678289E+04  0.10058678290E+04  0.50400001928E-02 0. -1.
    10030    2    1    2    0    0  0.00000000000E+00  0.00000000000E+00 -0.59663080640E+03  0.14151048515E+04  0.12831809778E+04 0.  0.
        1    1    3    3  502    0  0.37021042549E+03  0.21443161561E+03 -0.82559432969E+03  0.92986164248E+03  0.50400001928E-02 0. -1.
       -1    1    3    3    0  502 -0.37021042549E+03 -0.21443161561E+03  0.22896352328E+03  0.48524320906E+03  0.50400001928E-02 0.  1.
</event>
<event>
 5   0  0.4263540E-03  0.1265212E+04  0.7818609E-02  0.9057617E-01
        2   -1    0    0  501    0  0.00000000000E+00  0.00000000000E+00  0.52290555929E+03  0.52290555930E+03  0.25500000920E-02 0. -1.
       -2   -1    0    0    0  501  0.00000000000E+00  0.00000000000E+00 -0.76531997091E+03  0.76531997091E+03  0.25500000920E-02 0.  1.
    10030    2    1    2    0    0  0.00000000000E+00  0.00000000000E+00 -0.24241441161E+03  0.12882255302E+04  0.12652115514E+04 0.  0.
        2    1    3    3  502    0  0.57447292285E+03  0.13540368693E+03 -0.35302550716E+03  0.68773563688E+03  0.25500000920E-02 0.  1.
       -2    1    3    3    0  502 -0.57447292285E+03 -0.13540368693E+03  0.11061109555E+03  0.60048989333E+03  0.25500000920E-02 0. -1.
</event>
<event>
 5   0  0.2370801E-03  0.1225336E+04  0.7818609E-02  0.9090965E-01
       -1   -1    0    0    0  501  0.00000000000E+00  0.00000000000E+00  0.32662863333E+03  0.32662863336E+03  0.50400001928E-02 0.  1.
        1   -1    0    0  501    0  0.00000000000E+00  0.00000000000E+00 -0.11492005785E+04  0.11492005785E+04  0.50400001928E-02 0. -1.
    10030    2    1    2    0    0  0.00000000000E+00  0.00000000000E+00 -0.82257194514E+03  0.14758292118E+04  0.12253355694E+04 0.  0.
        3    1    3    3  502    0 -0.14705765917E+03  0.25194747783E+03 -0.10601794348E+04  0.10995835261E+04  0.10100000352E+00 0. -1.
       -3    1    3    3    0  502  0.14705765917E+03 -0.25194747783E+03  0.23760748965E+03  0.37624568575E+03  0.10100000352E+00 0.  1.
</event>
<event>
 5   0  0.4310889E-03  0.1348424E+04  0.7818609E-02  0.8992022E-01
        2   -1    0    0  501    0  0.00000000000E+00  0.00000000000E+00  0.10391220357E+04  0.10391220357E+04  0.25500000920E-02 0. -1.
       -2   -1    0    0    0  501  0.00000000000E+00  0.00000000000E+00 -0.43744779426E+03  0.43744779427E+03  0.25500000920E-02 0.  1.
    10030    2    1    2    0    0  0.00000000000E+00  0.00000000000E+00  0.60167424146E+03  0.14765698300E+04  0.13484237353E+04 0.  0.
        4    1    3    3  502    0  0.19608372250E+02  0.20900224697E+03  0.10024229335E+04  0.10241678466E+04  0.12699999809E+01 0. -1.
       -4    1    3    3    0  502 -0.19608372250E+02 -0.20900224697E+03 -0.40074869204E+03  0.45240198339E+03  0.12699999809E+01 0.  1.
</event>
<event>
 5   0  0.4453011E-03  0.1301855E+04  0.7818609E-02  0.9028095E-01
        2   -1    0    0  501    0  0.00000000000E+00  0.00000000000E+00  0.34851921874E+03  0.34851921875E+03  0.25500000920E-02 0. -1.
       -2   -1    0    0    0  501  0.00000000000E+00  0.00000000000E+00 -0.12157337923E+04  0.12157337923E+04  0.25500000920E-02 0.  1.
    10030    2    1    2    0    0  0.00000000000E+00  0.00000000000E+00 -0.86721457357E+03  0.15642530111E+04  0.13018549712E+04 0.  0.
        1    1    3    3  502    0 -0.38624016595E+03  0.44574250951E+03 -0.10271248024E+03  0.59867996809E+03  0.50400001928E-02 0. -1.
       -1    1    3    3    0  502  0.38624016595E+03 -0.44574250951E+03 -0.76450209333E+03  0.96557304297E+03  0.50400001928E-02 0.  1.
</event>
<event>
 5   0  0.2370801E-03  0.1384538E+04  0.7818609E-02  0.8965087E-01
       -1   -1    0    0    0  501  0.00000000000E+00  0.00000000000E+00  0.61428900670E+03  0.61428900672E+03  0.50400001928E-02 0.  1.
        1   -1    0    0  501    0  0.00000000000E+00  0.00000000000E+00 -0.78014823959E+03  0.78014823961E+03  0.50400001928E-02 0. -1.
    10030    2    1    2    0    0  0.00000000000E+00  0.00000000000E+00 -0.16585923290E+03  0.13944372463E+04  0.13845381717E+04 0.  0.
        3    1    3    3  502    0  0.43266171220E+03 -0.40068085384E+03 -0.44814490240E+03  0.74065860394E+03  0.10100000352E+00 0. -1.
       -3    1    3    3    0  502 -0.43266171220E+03  0.40068085384E+03  0.28228566950E+03  0.65377864239E+03  0.10100000352E+00 0.  1.
</event>
<event>
 5   0  0.2458456E-03  0.1272644E+04  0.7818609E-02  0.9051545E-01
       -1   -1    0    0    0  501  0.00000000000E+00  0.00000000000E+00  0.23514090533E+03  0.23514090538E+03  0.50400001928E-02 0. -1.
        1   -1    0    0  501    0  0.00000000000E+00  0.00000000000E+00 -0.17219699121E+04  0.17219699121E+04  0.50400001928E-02 0.  1.
    10030    2    1    2    0    0  0.00000000000E+00  0.00000000000E+00 -0.14868290068E+04  0.19571108175E+04  0.12726438059E+04 0.  0.
        5    1    3    3  502    0  0.21220642087E+03 -0.49632771594E+03 -0.12615304564E+04  0.13721712536E+04  0.46999998093E+01 0.  1.
       -5    1    3    3    0  502 -0.21220642087E+03  0.49632771594E+03 -0.22529855038E+03  0.58493956394E+03  0.46999998093E+01 0. -1.
</event>
<event>
 5   0  0.2370801E-03  0.1306720E+04  0.7818609E-02  0.9024253E-01
        1   -1    0    0  501    0  0.00000000000E+00  0.00000000000E+00  0.59334621814E+03  0.59334621816E+03  0.50400001928E-02 0. -1.
       -1   -1    0    0    0  501  0.00000000000E+00  0.00000000000E+00 -0.71944419808E+03  0.71944419810E+03  0.50400001928E-02 0.  1.
    10030    2    1    2    0    0  0.00000000000E+00  0.00000000000E+00 -0.12609797994E+03  0.13127904163E+04  0.13067203130E+04 0.  0.
        3    1    3    3  502    0  0.27412365364E+03  0.11686021263E+03  0.52109795261E+03  0.60028590955E+03  0.10100000352E+00 0. -1.
       -3    1    3    3    0  502 -0.27412365364E+03 -0.11686021263E+03 -0.64719593255E+03  0.71250450672E+03  0.10100000352E+00 0.  1.
</event>
<event>
 5   0  0.2458456E-03  0.1296086E+04  0.7818609E-02  0.9032675E-01
        1   -1    0    0  501    0  0.00000000000E+00  0.00000000000E+00  0.57016215538E+03  0.57016215540E+03  0.50400001928E-02 0.  1.
       -1   -1    0    0    0  501  0.00000000000E+00  0.00000000000E+00 -0.73656212613E+03  0.73656212614E+03  0.50400001928E-02 0. -1.
    10030    2    1    2    0    0  0.00000000000E+00  0.00000000000E+00 -0.16639997075E+03  0.13067242815E+04  0.12960861845E+04 0.  0.
        5    1    3    3  502    0  0.30829671230E+03 -0.37561436217E+03 -0.51544345661E+03  0.70840458698E+03  0.46999998093E+01 0. -1.
       -5    1    3    3    0  502 -0.30829671230E+03  0.37561436217E+03  0.34904348586E+03  0.59831969457E+03  0.46999998093E+01 0.  1.
</event>
<event>
 5   0  0.4263540E-03  0.1358911E+04  0.7818609E-02  0.8984110E-01
        2   -1    0    0  501    0  0.00000000000E+00  0.00000000000E+00  0.67222977094E+03  0.67222977094E+03  0.25500000920E-02 0.  1.
       -2   -1    0    0    0  501  0.00000000000E+00  0.00000000000E+00 -0.68675914995E+03  0.68675914996E+03  0.25500000920E-02 0. -1.
    10030    2    1    2    0    0  0.00000000000E+00  0.00000000000E+00 -0.14529379017E+02  0.13589889209E+04  0.13589112496E+04 0.  0.
        2    1    3    3  502    0  0.20054180882E+03  0.52057926784E+03  0.38062363564E+03  0.67534742407E+03  0.25500000920E-02 0.  1.
       -2    1    3    3    0  502 -0.20054180882E+03 -0.52057926784E+03 -0.39515301465E+03  0.68364149683E+03  0.25500000920E-02 0. -1.
</event>
<event>
 5   0  0.2370801E-03  0.1271848E+04  0.7818609E-02  0.9052193E-01
        1   -1    0    0  501    0  0.00000000000E+00  0.00000000000E+00  0.91210016212E+03  0.91210016213E+03  0.50400001928E-02 0. -1.
       -1   -1    0    0    0  501  0.00000000000E+00  0.00000000000E+00 -0.44337171084E+03  0.44337171087E+03  0.50400001928E-02 0.  1.
    10030    2    1    2    0    0  0.00000000000E+00  0.00000000000E+00  0.46872845127E+03  0.13554718730E+04  0.12718481189E+04 0.  0.
        3    1    3    3  502    0 -0.75301668337E+01 -0.17498135009E+03 -0.41716046976E+03  0.45243567943E+03  0.10100000352E+00 0.  1.
       -3    1    3    3    0  502  0.75301668337E+01  0.17498135009E+03  0.88588892103E+03  0.90303619357E+03  0.10100000352E+00 0. -1.
</event>
<event>
 5   0  0.4453011E-03  0.1273355E+04  0.7818609E-02  0.9050966E-01
        2   -1    0    0  501    0  0.00000000000E+00  0.00000000000E+00  0.29605716103E+04  0.29605716103E+04  0.25500000920E-02 0.  1.
       -2   -1    0    0    0  501  0.00000000000E+00  0.00000000000E+00 -0.13691894645E+03  0.13691894647E+03  0.25500000920E-02 0. -1.
    10030    2    1    2    0    0  0.00000000000E+00  0.00000000000E+00  0.28236526639E+04  0.30974905568E+04  0.12733551677E+04 0.  0.
        1    1    3    3  502    0 -0.63350939343E+03 -0.61355960742E+02  0.14510227588E+04  0.15844764915E+04  0.50400001928E-02 0.  1.
       -1    1    3    3    0  502  0.63350939343E+03  0.61355960742E+02  0.13726299050E+04  0.15130140653E+04  0.50400001928E-02 0. -1.
</event>
<event>
 5   0  0.4310889E-03  0.1287488E+04  0.7818609E-02  0.9039546E-01
       -2   -1    0    0    0  501  0.00000000000E+00  0.00000000000E+00  0.81072166381E+03  0.81072166382E+03  0.25500000920E-02 0. -1.
        2   -1    0    0  501    0  0.00000000000E+00  0.00000000000E+00 -0.51115761304E+03  0.51115761304E+03  0.25500000920E-02 0.  1.
    10030    2    1    2    0    0  0.00000000000E+00  0.00000000000E+00  0.29956405077E+03  0.13218792769E+04  0.12874883309E+04 0.  0.
        4    1    3    3  502    0  0.36856577333E+03  0.33977893020E+03  0.56444452365E+03  0.75491038134E+03  0.12699999809E+01 0. -1.
       -4    1    3    3    0  502 -0.36856577333E+03 -0.33977893020E+03 -0.26488047287E+03  0.56696889552E+03  0.12699999809E+01 0.  1.
</event>
<event>
 5   0  0.2370801E-03  0.1285658E+04  0.7818609E-02  0.9041016E-01
        1   -1    0    0  501    0  0.00000000000E+00  0.00000000000E+00  0.18966919017E+04  0.18966919017E+04  0.50400001928E-02 0. -1.
       -1   -1    0    0    0  501  0.00000000000E+00  0.00000000000E+00 -0.21786846012E+03  0.21786846018E+03  0.50400001928E-02 0.  1.
    10030    2    1    2    0    0  0.00000000000E+00  0.00000000000E+00  0.16788234416E+04  0.21145603619E+04  0.12856583435E+04 0.  0.
        3    1    3    3  502    0  0.45196931886E+03 -0.44294153379E+03  0.10251705620E+04  0.12047606231E+04  0.10100000352E+00 0. -1.
       -3    1    3    3    0  502 -0.45196931886E+03  0.44294153379E+03  0.65365287958E+03  0.90979973880E+03  0.10100000352E+00 0.  1.
</event>
<event>
 5   0  0.4306214E-03  0.7449478E+03  0.7818609E-02  0.9643310E-01
        2   -1    0    0  501    0  0.00000000000E+00  0.00000000000E+00  0.15402715586E+04  0.15402715586E+04  0.25500000920E-02 0.  1.
       -2   -1    0    0    0  501  0.00000000000E+00  0.00000000000E+00 -0.90072958959E+02  0.90072958995E+02  0.25500000920E-02 0. -1.
    10030    2    1    2    0    0  0.00000000000E+00  0.00000000000E+00  0.14501985996E+04  0.16303445176E+04  0.74494782881E+03 0.  0.
        3    1    3    3  502    0  0.19320082447E+03 -0.26612852654E+03  0.11078481061E+04  0.11556290008E+04  0.10100000352E+00 0.  1.
       -3    1    3    3    0  502 -0.19320082447E+03  0.26612852654E+03  0.34235049353E+03  0.47471551674E+03  0.10100000352E+00 0. -1.
</event>
<event>
 5   0  0.4306214E-03  0.1299688E+04  0.7818609E-02  0.9029813E-01
        2   -1    0    0  501    0  0.00000000000E+00  0.00000000000E+00  0.73290583738E+03  0.73290583739E+03  0.25500000920E-02 0. -1.
       -2   -1    0    0    0  501  0.00000000000E+00  0.00000000000E+00 -0.57619553196E+03  0.57619553196E+03  0.25500000920E-02 0.  1.
    10030    2    1    2    0    0  0.00000000000E+00  0.00000000000E+00  0.15671030542E+03  0.13091013694E+04  0.12996877607E+04 0.  0.
        3    1    3    3  502    0  0.39804643843E+03 -0.25349701436E+03  0.52835199190E+03  0.70841904335E+03  0.10100000352E+00 0.  1.
       -3    1    3    3    0  502 -0.39804643843E+03  0.25349701436E+03 -0.37164168648E+03  0.60068232600E+03  0.10100000352E+00 0. -1.
</event>
<event>
 5   0  0.2462055E-03  0.1241695E+04  0.7818609E-02  0.9077124E-01
        1   -1    0    0  501    0  0.00000000000E+00  0.00000000000E+00  0.94031230580E+03  0.94031230581E+03  0.50400001928E-02 0.  1.
       -1   -1    0    0    0  501  0.00000000000E+00  0.00000000000E+00 -0.40991874874E+03  0.40991874877E+03  0.50400001928E-02 0. -1.
    10030    2    1    2    0    0  0.00000000000E+00  0.00000000000E+00  0.53039355705E+03  0.13502310546E+04  0.12416950412E+04 0.  0.
        2    1    3    3  502    0 -0.40776864578E+02 -0.18117395083E+03 -0.37900954306E+03  0.42206040667E+03  0.25500000920E-02 0. -1.
       -2    1    3    3    0  502  0.40776864578E+02  0.18117395083E+03  0.90940310011E+03  0.92817064791E+03  0.25500000920E-02 0.  1.
</event>
<event>
 5   0  0.2458456E-03  0.1403272E+04  0.7818609E-02  0.8951454E-01
       -1   -1    0    0    0  501  0.00000000000E+00  0.00000000000E+00  0.24956347084E+03  0.24956347089E+03  0.50400001928E-02 0. -1.
        1   -1    0    0  501    0  0.00000000000E+00  0.00000000000E+00 -0.19726154749E+04  0.19726154749E+04  0.50400001928E-02 0.  1.
    10030    2    1    2    0    0  0.00000000000E+00  0.00000000000E+00 -0.17230520041E+04  0.22221789458E+04  0.14032715555E+04 0.  0.
        5    1    3    3  502    0 -0.91463996041E+02  0.42737510220E+03 -0.17306961928E+04  0.17850340451E+04  0.46999998093E+01 0.  1.
       -5    1    3    3    0  502  0.91463996041E+02 -0.42737510220E+03  0.76441887282E+01  0.43714490066E+03  0.46999998093E+01 0. -1.
</event>
<event>
 5   0  0.2356769E-03  0.1310937E+04  0.7818609E-02  0.9020937E-01
        1   -1    0    0  501    0  0.00000000000E+00  0.00000000000E+00  0.99888524622E+03  0.99888524623E+03  0.50400001928E-02 0. -1.
       -1   -1    0    0    0  501  0.00000000000E+00  0.00000000000E+00 -0.43011833426E+03  0.43011833429E+03  0.50400001928E-02 0.  1.
    10030    2    1    2    0    0  0.00000000000E+00  0.00000000000E+00  0.56876691196E+03  0.14290035805E+04  0.13109368532E+04 0.  0.
        1    1    3    3  502    0  0.43677474858E+03 -0.45909652151E+03  0.10166517832E+03  0.64177691262E+03  0.50400001928E-02 0. -1.
       -1    1    3    3    0  502 -0.43677474858E+03  0.45909652151E+03  0.46710173365E+03  0.78722666791E+03  0.50400001928E-02 0.  1.
</event>
<event>
 5   0  0.4388937E-03  0.7371749E+03  0.7818609E-02  0.9655689E-01
        2   -1    0    0  501    0  0.00000000000E+00  0.00000000000E+00  0.12353138050E+04  0.12353138050E+04  0.25500000920E-02 0.  1.
       -2   -1    0    0    0  501  0.00000000000E+00  0.00000000000E+00 -0.10997747336E+03  0.10997747339E+03  0.25500000920E-02 0. -1.
    10030    2    1    2    0    0  0.00000000000E+00  0.00000000000E+00  0.11253363317E+04  0.13452912784E+04  0.73717485337E+03 0.  0.
        5    1    3    3  502    0 -0.17021001298E+03 -0.12940327349E+02 -0.33432043261E+02  0.17400773576E+03  0.46999998093E+01 0. -1.
       -5    1    3    3    0  502  0.17021001298E+03  0.12940327349E+02  0.11587683749E+04  0.11712835427E+04  0.46999998093E+01 0.  1.
</event>
<event>
 5   0  0.4306214E-03  0.1291821E+04  0.7818609E-02  0.9036077E-01
       -2   -1    0    0    0  501  0.00000000000E+00  0.00000000000E+00  0.97373066627E+03  0.97373066627E+03  0.25500000920E-02 0. -1.
        2   -1    0    0  501    0  0.00000000000E+00  0.00000000000E+00 -0.42845551698E+03  0.42845551699E+03  0.25500000920E-02 0.  1.
    10030    2    1    2    0    0  0.00000000000E+00  0.00000000000E+00  0.54527514929E+03  0.14021861833E+04  0.12918208483E+04 0.  0.
        3    1    3    3  502    0 -0.56702190308E+03 -0.16789148077E+03 -0.93640893140E+01  0.59142969511E+03  0.10100000352E+00 0.  1.
       -3    1    3    3    0  502  0.56702190308E+03  0.16789148077E+03  0.55463923860E+03  0.81075648815E+03  0.10100000352E+00 0. -1.
</event>
<event>
 5   0  0.4310889E-03  0.1288295E+04  0.7818609E-02  0.9038899E-01
       -2   -1    0    0    0  501  0.00000000000E+00  0.00000000000E+00  0.33272132112E+03  0.33272132113E+03  0.25500000920E-02 0.  1.
        2   -1    0    0  501    0  0.00000000000E+00  0.00000000000E+00 -0.12470684341E+04  0.12470684341E+04  0.25500000920E-02 0. -1.
    10030    2    1    2    0    0  0.00000000000E+00  0.00000000000E+00 -0.91434711297E+03  0.15797897552E+04  0.12882953961E+04 0.  0.
        4    1    3    3  502    0  0.79070494702E+02  0.26875699912E+03  0.25410391791E+03  0.37822332253E+03  0.12699999809E+01 0.  1.
       -4    1    3    3    0  502 -0.79070494702E+02 -0.26875699912E+03 -0.11684510309E+04  0.12015664327E+04  0.12699999809E+01 0. -1.
</event>
<event>
 5   0  0.4306214E-03  0.1308326E+04  0.7818609E-02  0.9022989E-01
       -2   -1    0    0    0  501  0.00000000000E+00  0.00000000000E+00  0.38177652429E+03  0.38177652430E+03  0.25500000920E-02 0. -1.
        2   -1    0    0  501    0  0.00000000000E+00  0.00000000000E+00 -0.11208893191E+04  0.11208893191E+04  0.25500000920E-02 0.  1.
    10030    2    1    2    0    0  0.00000000000E+00  0.00000000000E+00 -0.73911279476E+03  0.15026658434E+04  0.13083259966E+04 0.  0.
        3    1    3    3  502    0 -0.11398053149E+03  0.67779677464E+02 -0.11052894398E+04  0.11132162423E+04  0.10100000352E+00 0.  1.
       -3    1    3    3    0  502  0.11398053149E+03 -0.67779677464E+02  0.36617664500E+03  0.38944960108E+03  0.10100000352E+00 0. -1.
</event>
<event>
 5   0  0.2458456E-03  0.1495211E+04  0.7818609E-02  0.8887644E-01
       -1   -1    0    0    0  501  0.00000000000E+00  0.00000000000E+00  0.77697299855E+03  0.77697299857E+03  0.50400001928E-02 0.  1.
        1   -1    0    0  501    0  0.00000000000E+00  0.00000000000E+00 -0.71934825172E+03  0.71934825174E+03  0.50400001928E-02 0. -1.
    10030    2    1    2    0    0  0.00000000000E+00  0.00000000000E+00  0.57624746827E+02  0.14963212503E+04  0.14952112468E+04 0.  0.
        5    1    3    3  502    0  0.25189693154E+03 -0.55246297932E+03  0.46528369026E+03  0.76496954845E+03  0.46999998093E+01 0.  1.
       -5    1    3    3    0  502 -0.25189693154E+03  0.55246297932E+03 -0.40765894343E+03  0.73135170185E+03  0.46999998093E+01 0. -1.
</event>
<event>
 5   0  0.2511542E-03  0.1263590E+04  0.7818609E-02  0.9058948E-01
        1   -1    0    0  501    0  0.00000000000E+00  0.00000000000E+00  0.45433034196E+03  0.45433034199E+03  0.50400001928E-02 0.  1.
       -1   -1    0    0    0  501  0.00000000000E+00  0.00000000000E+00 -0.87857820587E+03  0.87857820589E+03  0.50400001928E-02 0. -1.
    10030    2    1    2    0    0  0.00000000000E+00  0.00000000000E+00 -0.42424786391E+03  0.13329085479E+04  0.12635897067E+04 0.  0.
        4    1    3    3  502    0 -0.17297128145E+03 -0.44447631226E+03 -0.64920327577E+03  0.80557107851E+03  0.12699999809E+01 0. -1.
       -4    1    3    3    0  502  0.17297128145E+03  0.44447631226E+03  0.22495541186E+03  0.52733746936E+03  0.12699999809E+01 0.  1.
</event>
<event>
 5   0  0.2458456E-03  0.1314640E+04  0.7818609E-02  0.9018035E-01
        1   -1    0    0  501    0  0.00000000000E+00  0.00000000000E+00  0.11198989745E+04  0.11198989745E+04  0.50400001928E-02 0.  1.
       -1   -1    0    0    0  501  0.00000000000E+00  0.00000000000E+00 -0.38581122413E+03  0.38581122416E+03  0.50400001928E-02 0. -1.
    10030    2    1    2    0    0  0.00000000000E+00  0.00000000000E+00  0.73408775039E+03  0.15057101987E+04  0.13146400181E+04 0.  0.
        5    1    3    3  502    0 -0.28495983907E+02 -0.24505873280E+03 -0.33075107538E+03  0.41265502236E+03  0.46999998093E+01 0. -1.
       -5    1    3    3    0  502  0.28495983907E+02  0.24505873280E+03  0.10648388258E+04  0.10930551763E+04  0.46999998093E+01 0.  1.
</event>
<event>
 5   0  0.2511542E-03  0.1377408E+04  0.7818609E-02  0.8970336E-01
        1   -1    0    0  501    0  0.00000000000E+00  0.00000000000E+00  0.70717585116E+03  0.70717585118E+03  0.50400001928E-02 0. -1.
       -1   -1    0    0    0  501  0.00000000000E+00  0.00000000000E+00 -0.67071439544E+03  0.67071439546E+03  0.50400001928E-02 0.  1.
    10030    2    1    2    0    0  0.00000000000E+00  0.00000000000E+00  0.36461455722E+02  0.13778902466E+04  0.13774077443E+04 0.  0.
        4    1    3    3  502    0  0.25350784134E+03  0.13850608400E+03  0.64363870111E+03  0.70549454384E+03  0.12699999809E+01 0. -1.
       -4    1    3    3    0  502 -0.25350784134E+03 -0.13850608400E+03 -0.60717724539E+03  0.67239570280E+03  0.12699999809E+01 0.  1.
</event>
<event>
 5   0  0.4306214E-03  0.1300254E+04  0.7818609E-02  0.9029364E-01
        2   -1    0    0  501    0  0.00000000000E+00  0.00000000000E+00  0.70281258688E+03  0.70281258689E+03  0.25500000920E-02 0. -1.
       -2   -1    0    0    0  501  0.00000000000E+00  0.00000000000E+00 -0.60139098592E+03  0.60139098592E+03  0.25500000920E-02 0.  1.
    10030    2    1    2    0    0  0.00000000000E+00  0.00000000000E+00  0.10142160097E+03  0.13042035728E+04  0.13002540591E+04 0.  0.
        3    1    3    3  502    0 -0.10736347166E+03 -0.11274397186E+03  0.68383886133E+03  0.70133709206E+03  0.10100000352E+00 0. -1.
       -3    1    3    3    0  502  0.10736347166E+03  0.11274397186E+03 -0.58241726036E+03  0.60286648075E+03  0.10100000352E+00 0.  1.
</event>
<event>
 5   0  0.2370801E-03  0.1334457E+04  0.7818609E-02  0.9002678E-01
        1   -1    0    0  501    0  0.00000000000E+00  0.00000000000E+00  0.68531854409E+03  0.68531854411E+03  0.50400001928E-02 0.  1.
       -1   -1    0    0    0  501  0.00000000000E+00  0.00000000000E+00 -0.64961580063E+03  0.64961580065E+03  0.50400001928E-02 0. -1.
    10030    2    1    2    0    0  0.00000000000E+00  0.00000000000E+00  0.35702743461E+02  0.13349343448E+04  0.13344568254E+04 0.  0.
        3    1    3    3  502    0  0.34977429685E+03  0.31052943904E+03  0.49386106480E+03  0.68019802467E+03  0.10100000352E+00 0.  1.
       -3    1    3    3    0  502 -0.34977429685E+03 -0.31052943904E+03 -0.45815832133E+03  0.65473632009E+03  0.10100000352E+00 0. -1.
</event>
<event>
 5   0  0.4388937E-03  0.1304613E+04  0.7818609E-02  0.9025915E-01
       -2   -1    0    0    0  501  0.00000000000E+00  0.00000000000E+00  0.43460472448E+03  0.43460472449E+03  0.25500000920E-02 0.  1.
        2   -1    0    0  501    0  0.00000000000E+00  0.00000000000E+00 -0.97905988769E+03  0.97905988770E+03  0.25500000920E-02 0. -1.
    10030    2    1    2    0    0  0.00000000000E+00  0.00000000000E+00 -0.54445516321E+03  0.14136646122E+04  0.13046134335E+04 0.  0.
        5    1    3    3  502    0  0.57382112101E+03  0.30068078134E+03 -0.18968718331E+03  0.67504290878E+03  0.46999998093E+01 0. -1.
       -5    1    3    3    0  502 -0.57382112101E+03 -0.30068078134E+03 -0.35476797991E+03  0.73862170341E+03  0.46999998093E+01 0.  1.
</event>
<event>
 5   0  0.4306214E-03  0.1313603E+04  0.7818609E-02  0.9018847E-01
        2   -1    0    0  501    0  0.00000000000E+00  0.00000000000E+00  0.52480738896E+03  0.52480738896E+03  0.25500000920E-02 0. -1.
       -2   -1    0    0    0  501  0.00000000000E+00  0.00000000000E+00 -0.82199347426E+03  0.82199347427E+03  0.25500000920E-02 0.  1.
    10030    2    1    2    0    0  0.00000000000E+00  0.00000000000E+00 -0.29718608531E+03  0.13468008632E+04  0.13136030587E+04 0.  0.
        3    1    3    3  502    0  0.24144436709E+03 -0.72020113395E+02 -0.77047455567E+03  0.81062527117E+03  0.10100000352E+00 0.  1.
       -3    1    3    3    0  502 -0.24144436709E+03  0.72020113395E+02  0.47328847036E+03  0.53617559205E+03  0.10100000352E+00 0. -1.
</event>
<event>
 5   0  0.2370801E-03  0.1306165E+04  0.7818609E-02  0.9024690E-01
        1   -1    0    0  501    0  0.00000000000E+00  0.00000000000E+00  0.82434409596E+03  0.82434409598E+03  0.50400001928E-02 0.  1.
       -1   -1    0    0    0  501  0.00000000000E+00  0.00000000000E+00 -0.51740135752E+03  0.51740135754E+03  0.50400001928E-02 0. -1.
    10030    2    1    2    0    0  0.00000000000E+00  0.00000000000E+00  0.30694273845E+03  0.13417454535E+04  0.13061650039E+04 0.  0.
        3    1    3    3  502    0  0.11123444220E+03 -0.30007518196E+03 -0.43133301286E+03  0.53709067591E+03  0.10100000352E+00 0. -1.
       -3    1    3    3    0  502 -0.11123444220E+03  0.30007518196E+03  0.73827575131E+03  0.80465477761E+03  0.10100000352E+00 0.  1.
</event>
<event>
 5   0  0.4310889E-03  0.1284099E+04  0.7818609E-02  0.9042271E-01
       -2   -1    0    0    0  501  0.00000000000E+00  0.00000000000E+00  0.51068160953E+03  0.51068160954E+03  0.25500000920E-02 0.  1.
        2   -1    0    0  501    0  0.00000000000E+00  0.00000000000E+00 -0.80720993227E+03  0.80720993228E+03  0.25500000920E-02 0. -1.
    10030    2    1    2    0    0  0.00000000000E+00  0.00000000000E+00 -0.29652832274E+03  0.13178915418E+04  0.12840985436E+04 0.  0.
        4    1    3    3  502    0 -0.33279265020E+03  0.53410256258E+03 -0.17598473018E+02  0.62954572077E+03  0.12699999809E+01 0.  1.
       -4    1    3    3    0  502  0.33279265020E+03 -0.53410256258E+03 -0.27892984972E+03  0.68834582105E+03  0.12699999809E+01 0. -1.
</event>
<event>
 5   0  0.4388937E-03  0.1303271E+04  0.7818609E-02  0.9026976E-01
        2   -1    0    0  501    0  0.00000000000E+00  0.00000000000E+00  0.61240588028E+03  0.61240588029E+03  0.25500000920E-02 0.  1.
       -2   -1    0    0    0  501  0.00000000000E+00  0.00000000000E+00 -0.69337765562E+03  0.69337765562E+03  0.25500000920E-02 0. -1.
    10030    2    1    2    0    0  0.00000000000E+00  0.00000000000E+00 -0.80971775339E+02  0.13057835359E+04  0.13032705837E+04 0.  0.
        5    1    3    3  502    0  0.56369497195E+03 -0.17426831744E+03  0.23660657912E+03  0.63570923475E+03  0.46999998093E+01 0.  1.
       -5    1    3    3    0  502 -0.56369497195E+03  0.17426831744E+03 -0.31757835446E+03  0.67007430116E+03  0.46999998093E+01 0. -1.
</event>
<event>
 5   0  0.2462055E-03  0.1273780E+04  0.7818609E-02  0.9050621E-01
        1   -1    0    0  501    0  0.00000000000E+00  0.00000000000E+00  0.47596855133E+03  0.47596855135E+03  0.50400001928E-02 0.  1.
       -1   -1    0    0    0  501  0.00000000000E+00  0.00000000000E+00 -0.85221730248E+03  0.85221730249E+03  0.50400001928E-02 0. -1.
    10030    2    1    2    0    0  0.00000000000E+00  0.00000000000E+00 -0.37624875115E+03  0.13281858538E+04  0.12737796276E+04 0.  0.
        2    1    3    3  502    0  0.59393103527E+03 -0.15389516735E+03 -0.99735534117E+01  0.61362632682E+03  0.25500000920E-02 0.  1.
       -2    1    3    3    0  502 -0.59393103527E+03  0.15389516735E+03 -0.36627519774E+03  0.71455952703E+03  0.25500000920E-02 0. -1.
</event>
<event>
 5   0  0.2511542E-03  0.1300587E+04  0.7818609E-02  0.9029100E-01
        1   -1    0    0  501    0  0.00000000000E+00  0.00000000000E+00  0.14242574819E+04  0.14242574819E+04  0.50400001928E-02 0. -1.
       -1   -1    0    0    0  501  0.00000000000E+00  0.00000000000E+00 -0.29691370285E+03  0.29691370289E+03  0.50400001928E-02 0.  1.
    10030    2    1    2    0    0  0.00000000000E+00  0.00000000000E+00  0.11273437790E+04  0.17211711848E+04  0.13005868872E+04 0.  0.
        4    1    3    3  502    0  0.39288391020E+03 -0.29033991406E+03 -0.43419021732E+01  0.48854426371E+03  0.12699999809E+01 0.  1.
       -4    1    3    3    0  502 -0.39288391020E+03  0.29033991406E+03  0.11316856812E+04  0.12326269211E+04  0.12699999809E+01 0. -1.
</event>
<event>
 5   0  0.2370801E-03  0.1304917E+04  0.7818609E-02  0.9025675E-01
        1   -1    0    0  501    0  0.00000000000E+00  0.00000000000E+00  0.73434018073E+03  0.73434018075E+03  0.50400001928E-02 0. -1.
       -1   -1    0    0    0  501  0.00000000000E+00  0.00000000000E+00 -0.57970674543E+03  0.57970674546E+03  0.50400001928E-02 0.  1.
    10030    2    1    2    0    0  0.00000000000E+00  0.00000000000E+00  0.15463343530E+03  0.13140469262E+04  0.13049167885E+04 0.  0.
        3    1    3    3  502    0 -0.34527182289E+03  0.33362701473E+03  0.52220227223E+03  0.70937637398E+03  0.10100000352E+00 0. -1.
       -3    1    3    3    0  502  0.34527182289E+03 -0.33362701473E+03 -0.36756883693E+03  0.60467055222E+03  0.10100000352E+00 0.  1.
</event>
<event>
 5   0  0.2458456E-03  0.1317871E+04  0.7818609E-02  0.9015512E-01
       -1   -1    0    0    0  501  0.00000000000E+00  0.00000000000E+00  0.47311437275E+03  0.47311437277E+03  0.50400001928E-02 0. -1.
        1   -1    0    0  501    0  0.00000000000E+00  0.00000000000E+00 -0.91773941268E+03  0.91773941269E+03  0.50400001928E-02 0.  1.
    10030    2    1    2    0    0  0.00000000000E+00  0.00000000000E+00 -0.44462503993E+03  0.13908537855E+04  0.13178705651E+04 0.  0.
        5    1    3    3  502    0 -0.41360785143E+03 -0.49281165290E+03 -0.72170763959E+02  0.64742991062E+03  0.46999998093E+01 0. -1.
       -5    1    3    3    0  502  0.41360785143E+03  0.49281165290E+03 -0.37245427597E+03  0.74342387484E+03  0.46999998093E+01 0.  1.
</event>
<event>
 5   0  0.4306214E-03  0.1188870E+04  0.7818609E-02  0.9122655E-01
        2   -1    0    0  501    0  0.00000000000E+00  0.00000000000E+00  0.88617847875E+03  0.88617847875E+03  0.25500000920E-02 0. -1.
       -2   -1    0    0    0  501  0.00000000000E+00  0.00000000000E+00 -0.39873773698E+03  0.39873773698E+03  0.25500000920E-02 0.  1.
    10030    2    1    2    0    0  0.00000000000E+00  0.00000000000E+00  0.48744074177E+03  0.12849162157E+04  0.11888697173E+04 0.  0.
        3    1    3    3  502    0  0.84824126682E+02  0.13408803141E+02  0.87943865232E+03  0.88362168481E+03  0.10100000352E+00 0. -1.
       -3    1    3    3    0  502 -0.84824126682E+02 -0.13408803141E+02 -0.39199791055E+03  0.40129453092E+03  0.10100000352E+00 0.  1.
</event>
<event>
 5   0  0.2356769E-03  0.1336305E+04  0.7818609E-02  0.9001260E-01
        1   -1    0    0  501    0  0.00000000000E+00  0.00000000000E+00  0.12675006992E+04  0.12675006992E+04  0.50400001928E-02 0.  1.
       -1   -1    0    0    0  501  0.00000000000E+00  0.00000000000E+00 -0.35221111200E+03  0.35221111203E+03  0.50400001928E-02 0. -1.
    10030    2    1    2    0    0  0.00000000000E+00  0.00000000000E+00  0.91528958716E+03  0.16197118112E+04  0.13363051010E+04 0.  0.
        1    1    3    3  502    0  0.19517655744E+03 -0.43067278175E+02 -0.31512699803E+03  0.37316712602E+03  0.50400001928E-02 0. -1.
       -1    1    3    3    0  502 -0.19517655744E+03  0.43067278175E+02  0.12304165852E+04  0.12465446852E+04  0.50400001928E-02 0.  1.
</event>
<event>
 5   0  0.4453011E-03  0.1297518E+04  0.7818609E-02  0.9031535E-01
       -2   -1    0    0    0  501  0.00000000000E+00  0.00000000000E+00  0.59540183073E+03  0.59540183073E+03  0.25500000920E-02 0.  1.
        2   -1    0    0  501    0  0.00000000000E+00  0.00000000000E+00 -0.70689810567E+03  0.70689810568E+03  0.25500000920E-02 0. -1.
    10030    2    1    2    0    0  0.00000000000E+00  0.00000000000E+00 -0.11149627494E+03  0.13022999364E+04  0.12975182870E+04 0.  0.
        1    1    3    3  502    0 -0.30144379310E+03 -0.15342160150E+03 -0.61139636334E+03  0.69872173384E+03  0.50400001928E-02 0. -1.
       -1    1    3    3    0  502  0.30144379310E+03  0.15342160150E+03  0.49990008840E+03  0.60357820257E+03  0.50400001928E-02 0.  1.
</event>
<event>
 5   0  0.2370801E-03  0.1387949E+04  0.7818609E-02  0.8962588E-01
       -1   -1    0    0    0  501  0.00000000000E+00  0.00000000000E+00  0.42447579419E+03  0.42447579422E+03  0.50400001928E-02 0. -1.
        1   -1    0    0  501    0  0.00000000000E+00  0.00000000000E+00 -0.11345771919E+04  0.11345771919E+04  0.50400001928E-02 0.  1.
    10030    2    1    2    0    0  0.00000000000E+00  0.00000000000E+00 -0.71010139772E+03  0.15590529861E+04  0.13879489251E+04 0.  0.
        3    1    3    3  502    0 -0.56706309337E+02  0.40835241458E+03  0.27200956538E+03  0.49391954190E+03  0.10100000352E+00 0. -1.
       -3    1    3    3    0  502  0.56706309337E+02 -0.40835241458E+03 -0.98211096310E+03  0.10651334442E+04  0.10100000352E+00 0.  1.
</event>
<event>
 5   0  0.2462055E-03  0.1330893E+04  0.7818609E-02  0.9005420E-01
        1   -1    0    0  501    0  0.00000000000E+00  0.00000000000E+00  0.18940653619E+04  0.18940653619E+04  0.50400001928E-02 0.  1.
       -1   -1    0    0    0  501  0.00000000000E+00  0.00000000000E+00 -0.23379275615E+03  0.23379275620E+03  0.50400001928E-02 0. -1.
    10030    2    1    2    0    0  0.00000000000E+00  0.00000000000E+00  0.16602726057E+04  0.21278581181E+04  0.13308925747E+04 0.  0.
        2    1    3    3  502    0 -0.36284948095E+03  0.25978316319E+03  0.40908761601E+02  0.44813007540E+03  0.25500000920E-02 0. -1.
       -2    1    3    3    0  502  0.36284948095E+03 -0.25978316319E+03  0.16193638441E+04  0.16797280427E+04  0.25500000920E-02 0.  1.
</event>
<event>
 5   0  0.2458456E-03  0.1283110E+04  0.7818609E-02  0.9043067E-01
        1   -1    0    0  501    0  0.00000000000E+00  0.00000000000E+00  0.89084236952E+03  0.89084236954E+03  0.50400001928E-02 0. -1.
       -1   -1    0    0    0  501  0.00000000000E+00  0.00000000000E+00 -0.46202660444E+03  0.46202660446E+03  0.50400001928E-02 0.  1.
    10030    2    1    2    0    0  0.00000000000E+00  0.00000000000E+00  0.42881576508E+03  0.13528689740E+04  0.12831100890E+04 0.  0.
        5    1    3    3  502    0 -0.13757610111E+03  0.94389567094E+02  0.86754907835E+03  0.88345914864E+03  0.46999998093E+01 0. -1.
       -5    1    3    3    0  502  0.13757610111E+03 -0.94389567094E+02 -0.43873331327E+03  0.46940982536E+03  0.46999998093E+01 0.  1.
</event>
<event>
 5   0  0.4388937E-03  0.1273569E+04  0.7818609E-02  0.9050792E-01
       -2   -1    0    0    0  501  0.00000000000E+00  0.00000000000E+00  0.27421432632E+03  0.27421432633E+03  0.25500000920E-02 0. -1.
        2   -1    0    0  501    0  0.00000000000E+00  0.00000000000E+00 -0.14787505020E+04  0.14787505020E+04  0.25500000920E-02 0.  1.
    10030    2    1    2    0    0  0.00000000000E+00  0.00000000000E+00 -0.12045361757E+04  0.17529648283E+04  0.12735691151E+04 0.  0.
        5    1    3    3  502    0  0.63543257628E+03 -0.16503851149E+02 -0.55029944241E+03  0.84077256283E+03  0.46999998093E+01 0. -1.
       -5    1    3    3    0  502 -0.63543257628E+03  0.16503851149E+02 -0.65423673328E+03  0.91219226552E+03  0.46999998093E+01 0.  1.
</event>
<event>
 5   0  0.4388937E-03  0.1350549E+04  0.7818609E-02  0.8990413E-01
        2   -1    0    0  501    0  0.00000000000E+00  0.00000000000E+00  0.13103180185E+04  0.13103180185E+04  0.25500000920E-02 0. -1.
       -2   -1    0    0    0  501  0.00000000000E+00  0.00000000000E+00 -0.34800365398E+03  0.34800365399E+03  0.25500000920E-02 0.  1.
    10030    2    1    2    0    0  0.00000000000E+00  0.00000000000E+00  0.96231436452E+03  0.16583216725E+04  0.13505487156E+04 0.  0.
        5    1    3    3  502    0  0.16150819051E+03  0.64262799267E+03  0.64086627438E+03  0.92183908802E+03  0.46999998093E+01 0. -1.
       -5    1    3    3    0  502 -0.16150819051E+03 -0.64262799267E+03  0.32144809014E+03  0.73648258447E+03  0.46999998093E+01 0.  1.
</event>
<event>
 5   0  0.4388937E-03  0.1390995E+04  0.7818609E-02  0.8960363E-01
       -2   -1    0    0    0  501  0.00000000000E+00  0.00000000000E+00  0.50975891866E+03  0.50975891867E+03  0.25500000920E-02 0.  1.
        2   -1    0    0  501    0  0.00000000000E+00  0.00000000000E+00 -0.94891319355E+03  0.94891319355E+03  0.25500000920E-02 0. -1.
    10030    2    1    2    0    0  0.00000000000E+00  0.00000000000E+00 -0.43915427488E+03  0.14586721122E+04  0.13909952745E+04 0.  0.
        5    1    3    3  502    0  0.44672083695E+03  0.57660496276E+02 -0.77527509516E+03  0.89663694000E+03  0.46999998093E+01 0. -1.
       -5    1    3    3    0  502 -0.44672083695E+03 -0.57660496276E+02  0.33612082028E+03  0.56203517222E+03  0.46999998093E+01 0.  1.
</event>
<event>
 5   0  0.2511542E-03  0.7032188E+03  0.7818609E-02  0.9711743E-01
       -1   -1    0    0    0  501  0.00000000000E+00  0.00000000000E+00  0.26305134395E+03  0.26305134400E+03  0.50400001928E-02 0. -1.
        1   -1    0    0  501    0  0.00000000000E+00  0.00000000000E+00 -0.46998113843E+03  0.46998113846E+03  0.50400001928E-02 0.  1.
    10030    2    1    2    0    0  0.00000000000E+00  0.00000000000E+00 -0.20692979448E+03  0.73303248246E+03  0.70321879988E+03 0.  0.
        4    1    3    3  502    0 -0.49579129225E+02  0.27569873245E+03 -0.32498245580E+03  0.42904905385E+03  0.12699999809E+01 0.  1.
       -4    1    3    3    0  502  0.49579129225E+02 -0.27569873245E+03  0.11805266132E+03  0.30398342862E+03  0.12699999809E+01 0. -1.
</event>
<event>
 5   0  0.4263540E-03  0.1300312E+04  0.7818609E-02  0.9029318E-01
       -2   -1    0    0    0  501  0.00000000000E+00  0.00000000000E+00  0.72924739306E+03  0.72924739306E+03  0.25500000920E-02 0. -1.
        2   -1    0    0  501    0  0.00000000000E+00  0.00000000000E+00 -0.57964252332E+03  0.57964252333E+03  0.25500000920E-02 0.  1.
    10030    2    1    2    0    0  0.00000000000E+00  0.00000000000E+00  0.14960486973E+03  0.13088899164E+04  0.13003119611E+04 0.  0.
        2    1    3    3  502    0  0.52867448630E+03 -0.34207098932E+03 -0.88109363168E+02  0.63582429497E+03  0.25500000920E-02 0. -1.
       -2    1    3    3    0  502 -0.52867448630E+03  0.34207098932E+03  0.23771423290E+03  0.67306562141E+03  0.25500000920E-02 0.  1.
</event>
<event>
 5   0  0.4306214E-03  0.1318142E+04  0.7818609E-02  0.9015301E-01
        2   -1    0    0  501    0  0.00000000000E+00  0.00000000000E+00  0.16567627943E+04  0.16567627943E+04  0.25500000920E-02 0.  1.
       -2   -1    0    0    0  501  0.00000000000E+00  0.00000000000E+00 -0.26218267347E+03  0.26218267348E+03  0.25500000920E-02 0. -1.
    10030    2    1    2    0    0  0.00000000000E+00  0.00000000000E+00  0.13945801208E+04  0.19189454678E+04  0.13181418721E+04 0.  0.
        3    1    3    3  502    0  0.35076244187E+03 -0.35188476271E+03  0.66882865378E+02  0.50132873919E+03  0.10100000352E+00 0. -1.
       -3    1    3    3    0  502 -0.35076244187E+03  0.35188476271E+03  0.13276972555E+04  0.14176167286E+04  0.10100000352E+00 0.  1.
</event>
<event>
 5   0  0.2356769E-03  0.1294981E+04  0.7818609E-02  0.9033555E-01
       -1   -1    0    0    0  501  0.00000000000E+00  0.00000000000E+00  0.29404811213E+03  0.29404811217E+03  0.50400001928E-02 0.  1.
        1   -1    0    0  501    0  0.00000000000E+00  0.00000000000E+00 -0.14257659280E+04  0.14257659280E+04  0.50400001928E-02 0. -1.
    10030    2    1    2    0    0  0.00000000000E+00  0.00000000000E+00 -0.11317178159E+04  0.17198140402E+04  0.12949807404E+04 0.  0.
        1    1    3    3  502    0  0.62750789789E+03 -0.15865142028E+03 -0.58914147411E+03  0.87522803407E+03  0.50400001928E-02 0.  1.
       -1    1    3    3    0  502 -0.62750789789E+03  0.15865142028E+03 -0.54257634179E+03  0.84458600614E+03  0.50400001928E-02 0. -1.
</event>
<event>
 5   0  0.4306214E-03  0.7923109E+03  0.7818609E-02  0.9571214E-01
       -2   -1    0    0    0  501  0.00000000000E+00  0.00000000000E+00  0.89469602086E+02  0.89469602123E+02  0.25500000920E-02 0. -1.
        2   -1    0    0  501    0  0.00000000000E+00  0.00000000000E+00 -0.17541056856E+04  0.17541056856E+04  0.25500000920E-02 0.  1.
    10030    2    1    2    0    0  0.00000000000E+00  0.00000000000E+00 -0.16646360835E+04  0.18435752877E+04  0.79231089288E+03 0.  0.
        3    1    3    3  502    0 -0.76666716563E+02 -0.22293512307E+03 -0.91517520317E+02  0.25288993901E+03  0.10100000352E+00 0. -1.
       -3    1    3    3    0  502  0.76666716563E+02  0.22293512307E+03 -0.15731185632E+04  0.15906853487E+04  0.10100000352E+00 0.  1.
</event>
<event>
 5   0  0.2511542E-03  0.1299900E+04  0.7818609E-02  0.9029644E-01
       -1   -1    0    0    0  501  0.00000000000E+00  0.00000000000E+00  0.29772912714E+03  0.29772912718E+03  0.50400001928E-02 0.  1.
        1   -1    0    0  501    0  0.00000000000E+00  0.00000000000E+00 -0.14188573900E+04  0.14188573900E+04  0.50400001928E-02 0. -1.
    10030    2    1    2    0    0  0.00000000000E+00  0.00000000000E+00 -0.11211282628E+04  0.17165865172E+04  0.12999002612E+04 0.  0.
        4    1    3    3  502    0  0.18420999910E+03  0.38750614430E+03 -0.12052578315E+04  0.12793523318E+04  0.12699999809E+01 0. -1.
       -4    1    3    3    0  502 -0.18420999910E+03 -0.38750614430E+03  0.84129568642E+02  0.43723418537E+03  0.12699999809E+01 0.  1.
</event>
<event>
 5   0  0.4388937E-03  0.1218838E+04  0.7818609E-02  0.9096526E-01
       -2   -1    0    0    0  501  0.00000000000E+00  0.00000000000E+00  0.17784549331E+03  0.17784549333E+03  0.25500000920E-02 0. -1.
        2   -1    0    0  501    0  0.00000000000E+00  0.00000000000E+00 -0.20882803568E+04  0.20882803568E+04  0.25500000920E-02 0.  1.
    10030    2    1    2    0    0  0.00000000000E+00  0.00000000000E+00 -0.19104348635E+04  0.22661258501E+04  0.12188375614E+04 0.  0.
        5    1    3    3  502    0 -0.26609134997E+03 -0.29324972290E+03 -0.93982097469E+02  0.40700704067E+03  0.46999998093E+01 0. -1.
       -5    1    3    3    0  502  0.26609134997E+03  0.29324972290E+03 -0.18164527660E+04  0.18591188094E+04  0.46999998093E+01 0.  1.
</event>
<event>
 5   0  0.2370801E-03  0.1296719E+04  0.7818609E-02  0.9032171E-01
        1   -1    0    0  501    0  0.00000000000E+00  0.00000000000E+00  0.62530335534E+03  0.62530335536E+03  0.50400001928E-02 0.  1.
       -1   -1    0    0    0  501  0.00000000000E+00  0.00000000000E+00 -0.67226564876E+03  0.67226564878E+03  0.50400001928E-02 0. -1.
    10030    2    1    2    0    0  0.00000000000E+00  0.00000000000E+00 -0.46962293420E+02  0.12975690041E+04  0.12967188838E+04 0.  0.
        3    1    3    3  502    0  0.48660868412E+03  0.45845737924E+02 -0.44976525956E+03  0.66421279877E+03  0.10100000352E+00 0. -1.
       -3    1    3    3    0  502 -0.48660868412E+03 -0.45845737924E+02  0.40280296614E+03  0.63335620537E+03  0.10100000352E+00 0.  1.
</event>
<event>
 5   0  0.4263540E-03  0.1305413E+04  0.7818609E-02  0.9025284E-01
       -2   -1    0    0    0  501  0.00000000000E+00  0.00000000000E+00  0.98662465693E+03  0.98662465694E+03  0.25500000920E-02 0. -1.
        2   -1    0    0  501    0  0.00000000000E+00  0.00000000000E+00 -0.43180131819E+03  0.43180131820E+03  0.25500000920E-02 0.  1.
    10030    2    1    2    0    0  0.00000000000E+00  0.00000000000E+00  0.55482333874E+03  0.14184259751E+04  0.13054130801E+04 0.  0.
        2    1    3    3  502    0  0.31118226088E+02 -0.29989964576E+03 -0.35159809900E+03  0.46317314770E+03  0.25500000920E-02 0.  1.
       -2    1    3    3    0  502 -0.31118226088E+02  0.29989964576E+03  0.90642143774E+03  0.95525282744E+03  0.25500000920E-02 0. -1.
</event>
<event>
 5   0  0.2458456E-03  0.1286083E+04  0.7818609E-02  0.9040675E-01
        1   -1    0    0  501    0  0.00000000000E+00  0.00000000000E+00  0.67639971036E+03  0.67639971038E+03  0.50400001928E-02 0. -1.
       -1   -1    0    0    0  501  0.00000000000E+00  0.00000000000E+00 -0.61132831143E+03  0.61132831145E+03  0.50400001928E-02 0.  1.
    10030    2    1    2    0    0  0.00000000000E+00  0.00000000000E+00  0.65071398934E+02  0.12877280218E+04  0.12860828788E+04 0.  0.
        5    1    3    3  502    0 -0.25832448607E+03 -0.36405769073E+03 -0.43088532170E+03  0.62044644631E+03  0.46999998093E+01 0.  1.
       -5    1    3    3    0  502  0.25832448607E+03  0.36405769073E+03  0.49595672064E+03  0.66728157552E+03  0.46999998093E+01 0. -1.
</event>
<event>
 5   0  0.2462055E-03  0.1271480E+04  0.7818609E-02  0.9052492E-01
        1   -1    0    0  501    0  0.00000000000E+00  0.00000000000E+00  0.74233064228E+03  0.74233064229E+03  0.50400001928E-02 0.  1.
       -1   -1    0    0    0  501  0.00000000000E+00  0.00000000000E+00 -0.54445502510E+03  0.54445502512E+03  0.50400001928E-02 0. -1.
    10030    2    1    2    0    0  0.00000000000E+00  0.00000000000E+00  0.19787561718E+03  0.12867856674E+04  0.12714804733E+04 0.  0.
        2    1    3    3  502    0 -0.60306458343E+03  0.16058702191E+03 -0.23725809652E+02  0.62453022140E+03  0.25500000920E-02 0. -1.
       -2    1    3    3    0  502  0.60306458343E+03 -0.16058702191E+03  0.22160142683E+03  0.66225544601E+03  0.25500000920E-02 0.  1.
</event>
<event>
 5   0  0.2458456E-03  0.1309684E+04  0.7818609E-02  0.9021921E-01
       -1   -1    0    0    0  501  0.00000000000E+00  0.00000000000E+00  0.48303866438E+03  0.48303866441E+03  0.50400001928E-02 0. -1.
        1   -1    0    0  501    0  0.00000000000E+00  0.00000000000E+00 -0.88775070052E+03  0.88775070053E+03  0.50400001928E-02 0.  1.
    10030    2    1    2    0    0  0.00000000000E+00  0.00000000000E+00 -0.40471203614E+03  0.13707893649E+04  0.13096837980E+04 0.  0.
        5    1    3    3  502    0  0.20708392084E+03  0.26174071593E+03 -0.79202784710E+03  0.85948947244E+03  0.46999998093E+01 0.  1.
       -5    1    3    3    0  502 -0.20708392084E+03 -0.26174071593E+03  0.38731581096E+03  0.51129989250E+03  0.46999998093E+01 0. -1.
</event>
<event>
 5   0  0.4388937E-03  0.1272654E+04  0.7818609E-02  0.9051537E-01
        2   -1    0    0  501    0  0.00000000000E+00  0.00000000000E+00  0.69020710779E+03  0.69020710779E+03  0.25500000920E-02 0.  1.
       -2   -1    0    0    0  501  0.00000000000E+00  0.00000000000E+00 -0.58665259225E+03  0.58665259226E+03  0.25500000920E-02 0. -1.
    10030    2    1    2    0    0  0.00000000000E+00  0.00000000000E+00  0.10355451553E+03  0.12768597000E+04  0.12726535883E+04 0.  0.
        5    1    3    3  502    0  0.79191067051E+02 -0.54845472928E+03 -0.26201170627E+03  0.61298127165E+03  0.46999998093E+01 0. -1.
       -5    1    3    3    0  502 -0.79191067051E+02  0.54845472928E+03  0.36556622181E+03  0.66387842840E+03  0.46999998093E+01 0.  1.
</event>
<event>
 5   0  0.2458456E-03  0.1321425E+04  0.7818609E-02  0.9012746E-01
        1   -1    0    0  501    0  0.00000000000E+00  0.00000000000E+00  0.18485831109E+04  0.18485831109E+04  0.50400001928E-02 0. -1.
       -1   -1    0    0    0  501  0.00000000000E+00  0.00000000000E+00 -0.23614892344E+03  0.23614892349E+03  0.50400001928E-02 0.  1.
    10030    2    1    2    0    0  0.00000000000E+00  0.00000000000E+00  0.16124341875E+04  0.20847320344E+04  0.13214248546E+04 0.  0.
        5    1    3    3  502    0  0.84428589245E+02  0.16612608685E+03 -0.19380321795E+03  0.26890117274E+03  0.46999998093E+01 0.  1.
       -5    1    3    3    0  502 -0.84428589245E+02 -0.16612608685E+03  0.18062374054E+04  0.18158308617E+04  0.46999998093E+01 0. -1.
</event>
<event>
 5   0  0.4453011E-03  0.1334724E+04  0.7818609E-02  0.9002473E-01
        2   -1    0    0  501    0  0.00000000000E+00  0.00000000000E+00  0.10996253893E+04  0.10996253893E+04  0.25500000920E-02 0. -1.
       -2   -1    0    0    0  501  0.00000000000E+00  0.00000000000E+00 -0.40502182674E+03  0.40502182675E+03  0.25500000920E-02 0.  1.
    10030    2    1    2    0    0  0.00000000000E+00  0.00000000000E+00  0.69460356260E+03  0.15046472161E+04  0.13347243669E+04 0.  0.
        1    1    3    3  502    0  0.54487752067E+03 -0.36523583994E+03  0.20885115722E+03  0.68840942557E+03  0.50400001928E-02 0.  1.
       -1    1    3    3    0  502 -0.54487752067E+03  0.36523583994E+03  0.48575240538E+03  0.81623779052E+03  0.50400001928E-02 0. -1.
</event>
<event>
 5   0  0.4388937E-03  0.1306789E+04  0.7818609E-02  0.9024199E-01
       -2   -1    0    0    0  501  0.00000000000E+00  0.00000000000E+00  0.36144697723E+03  0.36144697724E+03  0.25500000920E-02 0.  1.
        2   -1    0    0  501    0  0.00000000000E+00  0.00000000000E+00 -0.11811537600E+04  0.11811537600E+04  0.25500000920E-02 0. -1.
    10030    2    1    2    0    0  0.00000000000E+00  0.00000000000E+00 -0.81970678275E+03  0.15426007372E+04  0.13067891279E+04 0.  0.
        5    1    3    3  502    0  0.55399996433E+02  0.53032587231E+03 -0.85560099484E+03  0.10081616154E+04  0.46999998093E+01 0. -1.
       -5    1    3    3    0  502 -0.55399996433E+02 -0.53032587231E+03  0.35894212089E+02  0.53443912179E+03  0.46999998093E+01 0.  1.
</event>
<event>
 5   0  0.4388937E-03  0.1911429E+04  0.7818609E-02  0.8649188E-01
       -2   -1    0    0    0  501  0.00000000000E+00  0.00000000000E+00  0.83648723541E+03  0.83648723542E+03  0.25500000920E-02 0.  1.
        2   -1    0    0  501    0  0.00000000000E+00  0.00000000000E+00 -0.10919360339E+04  0.10919360339E+04  0.25500000920E-02 0. -1.
    10030    2    1    2    0    0  0.00000000000E+00  0.00000000000E+00 -0.25544879847E+03  0.19284232693E+04  0.19114293649E+04 0.  0.
        5    1    3    3  502    0  0.64226632156E+03  0.44073747154E+03  0.43092499661E+03  0.89021008157E+03  0.46999998093E+01 0.  1.
       -5    1    3    3    0  502 -0.64226632156E+03 -0.44073747154E+03 -0.68637379508E+03  0.10382131877E+04  0.46999998093E+01 0. -1.
</event>
<event>
 5   0  0.2370801E-03  0.1264257E+04  0.7818609E-02  0.9058400E-01
       -1   -1    0    0    0  501  0.00000000000E+00  0.00000000000E+00  0.43553818552E+03  0.43553818555E+03  0.50400001928E-02 0.  1.
        1   -1    0    0  501    0  0.00000000000E+00  0.00000000000E+00 -0.91745417571E+03  0.91745417573E+03  0.50400001928E-02 0. -1.
    10030    2    1    2    0    0  0.00000000000E+00  0.00000000000E+00 -0.48191599019E+03  0.13529923613E+04  0.12642568205E+04 0.  0.
        3    1    3    3  502    0 -0.22008262468E+03  0.51286224787E+03 -0.55864750667E+03  0.78965251465E+03  0.10100000352E+00 0. -1.
       -3    1    3    3    0  502  0.22008262468E+03 -0.51286224787E+03  0.76731516484E+02  0.56333984663E+03  0.10100000352E+00 0.  1.
</event>
<event>
 5   0  0.2458456E-03  0.1310108E+04  0.7818609E-02  0.9021588E-01
       -1   -1    0    0    0  501  0.00000000000E+00  0.00000000000E+00  0.52958416468E+03  0.52958416470E+03  0.50400001928E-02 0.  1.
        1   -1    0    0  501    0  0.00000000000E+00  0.00000000000E+00 -0.81025035512E+03  0.81025035513E+03  0.50400001928E-02 0. -1.
    10030    2    1    2    0    0  0.00000000000E+00  0.00000000000E+00 -0.28066619044E+03  0.13398345198E+04  0.13101080223E+04 0.  0.
        5    1    3    3  502    0 -0.51300096134E+03  0.11623826782E+03 -0.53956536207E+03  0.75354773650E+03  0.46999998093E+01 0. -1.
       -5    1    3    3    0  502  0.51300096134E+03 -0.11623826782E+03  0.25889917163E+03  0.58628678333E+03  0.46999998093E+01 0.  1.
</event>
<event>
 5   0  0.4388937E-03  0.1299326E+04  0.7818609E-02  0.9030100E-01
        2   -1    0    0  501    0  0.00000000000E+00  0.00000000000E+00  0.13253343511E+04  0.13253343511E+04  0.25500000920E-02 0.  1.
       -2   -1    0    0    0  501  0.00000000000E+00  0.00000000000E+00 -0.31845707126E+03  0.31845707127E+03  0.25500000920E-02 0. -1.
    10030    2    1    2    0    0  0.00000000000E+00  0.00000000000E+00  0.10068772799E+04  0.16437914224E+04  0.12993261267E+04 0.  0.
        5    1    3    3  502    0  0.23600432770E+03  0.58657561353E+03  0.69223713260E+03  0.93754110887E+03  0.46999998093E+01 0.  1.
       -5    1    3    3    0  502 -0.23600432770E+03 -0.58657561353E+03  0.31464014727E+03  0.70625031353E+03  0.46999998093E+01 0. -1.
</event>
<event>
 5   0  0.2511542E-03  0.1319739E+04  0.7818609E-02  0.9014057E-01
       -1   -1    0    0    0  501  0.00000000000E+00  0.00000000000E+00  0.49427643130E+03  0.49427643132E+03  0.50400001928E-02 0. -1.
        1   -1    0    0  501    0  0.00000000000E+00  0.00000000000E+00 -0.88094002439E+03  0.88094002440E+03  0.50400001928E-02 0.  1.
    10030    2    1    2    0    0  0.00000000000E+00  0.00000000000E+00 -0.38666359309E+03  0.13752164557E+04  0.13197392037E+04 0.  0.
        4    1    3    3  502    0 -0.34968572109E+03  0.55831838776E+03 -0.23269199931E+03  0.69867496384E+03  0.12699999809E+01 0. -1.
       -4    1    3    3    0  502  0.34968572109E+03 -0.55831838776E+03 -0.15397159378E+03  0.67654149188E+03  0.12699999809E+01 0.  1.
</event>
<event>
 5   0  0.4453011E-03  0.1294339E+04  0.7818609E-02  0.9034067E-01
       -2   -1    0    0    0  501  0.00000000000E+00  0.00000000000E+00  0.81675060288E+03  0.81675060289E+03  0.25500000920E-02 0. -1.
        2   -1    0    0  501    0  0.00000000000E+00  0.00000000000E+00 -0.51279830661E+03  0.51279830662E+03  0.25500000920E-02 0.  1.
    10030    2    1    2    0    0  0.00000000000E+00  0.00000000000E+00  0.30395229627E+03  0.13295489095E+04  0.12943389449E+04 0.  0.
        1    1    3    3  502    0 -0.33886009100E+03 -0.47939072668E+03  0.43175785425E+03  0.72873621759E+03  0.50400001928E-02 0.  1.
       -1    1    3    3    0  502  0.33886009100E+03  0.47939072668E+03 -0.12780555797E+03  0.60081269192E+03  0.50400001928E-02 0. -1.
</event>
<event>
 5   0  0.2458456E-03  0.1290928E+04  0.7818609E-02  0.9036791E-01
        1   -1    0    0  501    0  0.00000000000E+00  0.00000000000E+00  0.52280998408E+03  0.52280998411E+03  0.50400001928E-02 0.  1.
       -1   -1    0    0    0  501  0.00000000000E+00  0.00000000000E+00 -0.79689297950E+03  0.79689297952E+03  0.50400001928E-02 0. -1.
    10030    2    1    2    0    0  0.00000000000E+00  0.00000000000E+00 -0.27408299542E+03  0.13197029636E+04  0.12909277376E+04 0.  0.
        5    1    3    3  502    0 -0.15928587428E+03  0.57747786932E+03 -0.38270796432E+03  0.71087281229E+03  0.46999998093E+01 0. -1.
       -5    1    3    3    0  502  0.15928587428E+03 -0.57747786932E+03  0.10862496890E+03  0.60883015133E+03  0.46999998093E+01 0.  1.
</event>
<event>
 5   0  0.2356769E-03  0.9498173E+03  0.7818609E-02  0.9365364E-01
       -1   -1    0    0    0  501  0.00000000000E+00  0.00000000000E+00  0.23494711368E+03  0.23494711373E+03  0.50400001928E-02 0. -1.
        1   -1    0    0  501    0  0.00000000000E+00  0.00000000000E+00 -0.95995315879E+03  0.95995315880E+03  0.50400001928E-02 0.  1.
    10030    2    1    2    0    0  0.00000000000E+00  0.00000000000E+00 -0.72500604511E+03  0.11949002725E+04  0.94981729604E+03 0.  0.
        1    1    3    3  502    0  0.34820218040E+03  0.30103257949E+03 -0.21540015579E+03  0.50819543434E+03  0.50400001928E-02 0. -1.
       -1    1    3    3    0  502 -0.34820218040E+03 -0.30103257949E+03 -0.50960588932E+03  0.68670483819E+03  0.50400001928E-02 0.  1.
</event>
<event>
 5   0  0.2356769E-03  0.1050380E+04  0.7818609E-02  0.9254952E-01
        1   -1    0    0  501    0  0.00000000000E+00  0.00000000000E+00  0.49098165738E+03  0.49098165740E+03  0.50400001928E-02 0.  1.
       -1   -1    0    0    0  501  0.00000000000E+00  0.00000000000E+00 -0.56178146141E+03  0.56178146143E+03  0.50400001928E-02 0. -1.
    10030    2    1    2    0    0  0.00000000000E+00  0.00000000000E+00 -0.70799804030E+02  0.10527631188E+04  0.10503797276E+04 0.  0.
        1    1    3    3  502    0 -0.14332832535E+03  0.50818220007E+02  0.46843239116E+03  0.49249812735E+03  0.50400001928E-02 0.  1.
       -1    1    3    3    0  502  0.14332832535E+03 -0.50818220007E+02 -0.53923219519E+03  0.56026499148E+03  0.50400001928E-02 0. -1.
</event>
<event>
 5   0  0.2511542E-03  0.1292391E+04  0.7818609E-02  0.9035621E-01
       -1   -1    0    0    0  501  0.00000000000E+00  0.00000000000E+00  0.45497681324E+03  0.45497681327E+03  0.50400001928E-02 0.  1.
        1   -1    0    0  501    0  0.00000000000E+00  0.00000000000E+00 -0.91777962974E+03  0.91777962976E+03  0.50400001928E-02 0. -1.
    10030    2    1    2    0    0  0.00000000000E+00  0.00000000000E+00 -0.46280281651E+03  0.13727564430E+04  0.12923907323E+04 0.  0.
        4    1    3    3  502    0  0.17975066789E+01  0.64584215052E+03 -0.20883096793E+03  0.67876895957E+03  0.12699999809E+01 0. -1.
       -4    1    3    3    0  502 -0.17975066789E+01 -0.64584215052E+03 -0.25397184858E+03  0.69398748345E+03  0.12699999809E+01 0.  1.
</event>
<event>
 5   0  0.4310889E-03  0.1279044E+04  0.7818609E-02  0.9046350E-01
        2   -1    0    0  501    0  0.00000000000E+00  0.00000000000E+00  0.14494830754E+04  0.14494830754E+04  0.25500000920E-02 0. -1.
       -2   -1    0    0    0  501  0.00000000000E+00  0.00000000000E+00 -0.28216159026E+03  0.28216159027E+03  0.25500000920E-02 0.  1.
    10030    2    1    2    0    0  0.00000000000E+00  0.00000000000E+00  0.11673214852E+04  0.17316446657E+04  0.12790440956E+04 0.  0.
        4    1    3    3  502    0  0.22322750282E+03  0.35272052102E+03  0.12396111767E+04  0.13080060268E+04  0.12699999809E+01 0. -1.
       -4    1    3    3    0  502 -0.22322750282E+03 -0.35272052102E+03 -0.72289691489E+02  0.42363863889E+03  0.12699999809E+01 0.  1.
</event>
<event>
 5   0  0.4306214E-03  0.1298365E+04  0.7818609E-02  0.9030862E-01
       -2   -1    0    0    0  501  0.00000000000E+00  0.00000000000E+00  0.49226367184E+03  0.49226367185E+03  0.25500000920E-02 0. -1.
        2   -1    0    0  501    0  0.00000000000E+00  0.00000000000E+00 -0.85612278225E+03  0.85612278226E+03  0.25500000920E-02 0.  1.
    10030    2    1    2    0    0  0.00000000000E+00  0.00000000000E+00 -0.36385911041E+03  0.13483864541E+04  0.12983653482E+04 0.  0.
        3    1    3    3  502    0 -0.12108476481E+03 -0.63080775002E+03 -0.84185553138E+02  0.64781722369E+03  0.10100000352E+00 0.  1.
       -3    1    3    3    0  502  0.12108476481E+03  0.63080775002E+03 -0.27967355727E+03  0.70056923041E+03  0.10100000352E+00 0. -1.
</event>
<event>
 5   0  0.2511542E-03  0.1298161E+04  0.7818609E-02  0.9031025E-01
       -1   -1    0    0    0  501  0.00000000000E+00  0.00000000000E+00  0.49137633418E+03  0.49137633421E+03  0.50400001928E-02 0. -1.
        1   -1    0    0  501    0  0.00000000000E+00  0.00000000000E+00 -0.85739877333E+03  0.85739877334E+03  0.50400001928E-02 0.  1.
    10030    2    1    2    0    0  0.00000000000E+00  0.00000000000E+00 -0.36602243915E+03  0.13487751075E+04  0.12981609549E+04 0.  0.
        4    1    3    3  502    0 -0.19532496457E+03  0.52306659681E+03 -0.52690460649E+03  0.76771126325E+03  0.12699999809E+01 0.  1.
       -4    1    3    3    0  502  0.19532496457E+03 -0.52306659681E+03  0.16088216735E+03  0.58106384430E+03  0.12699999809E+01 0. -1.
</event>
<event>
 5   0  0.4388937E-03  0.1266633E+04  0.7818609E-02  0.9056452E-01
        2   -1    0    0  501    0  0.00000000000E+00  0.00000000000E+00  0.97435195972E+03  0.97435195972E+03  0.25500000920E-02 0.  1.
       -2   -1    0    0    0  501  0.00000000000E+00  0.00000000000E+00 -0.41164762171E+03  0.41164762172E+03  0.25500000920E-02 0. -1.
    10030    2    1    2    0    0  0.00000000000E+00  0.00000000000E+00  0.56270433800E+03  0.13859995814E+04  0.12666328070E+04 0.  0.
        5    1    3    3  502    0 -0.54746443136E+03  0.29725482862E+03  0.40606589968E+03  0.74363253131E+03  0.46999998093E+01 0. -1.
       -5    1    3    3    0  502  0.54746443136E+03 -0.29725482862E+03  0.15663843832E+03  0.64236705013E+03  0.46999998093E+01 0.  1.
</event>
<event>
 5   0  0.4306214E-03  0.1302300E+04  0.7818609E-02  0.9027743E-01
       -2   -1    0    0    0  501  0.00000000000E+00  0.00000000000E+00  0.56482560433E+03  0.56482560433E+03  0.25500000920E-02 0. -1.
        2   -1    0    0  501    0  0.00000000000E+00  0.00000000000E+00 -0.75066728394E+03  0.75066728395E+03  0.25500000920E-02 0.  1.
    10030    2    1    2    0    0  0.00000000000E+00  0.00000000000E+00 -0.18584167962E+03  0.13154928883E+04  0.13022996618E+04 0.  0.
        3    1    3    3  502    0  0.43172869105E+03 -0.44352507914E+03 -0.29718698834E+03  0.68660343339E+03  0.10100000352E+00 0. -1.
       -3    1    3    3    0  502 -0.43172869105E+03  0.44352507914E+03  0.11134530872E+03  0.62888945489E+03  0.10100000352E+00 0.  1.
</event>
<event>
 5   0  0.4310889E-03  0.1293158E+04  0.7818609E-02  0.9035008E-01
        2   -1    0    0  501    0  0.00000000000E+00  0.00000000000E+00  0.23854366758E+04  0.23854366758E+04  0.25500000920E-02 0. -1.
       -2   -1    0    0    0  501  0.00000000000E+00  0.00000000000E+00 -0.17525710083E+03  0.17525710085E+03  0.25500000920E-02 0.  1.
    10030    2    1    2    0    0  0.00000000000E+00  0.00000000000E+00  0.22101795749E+04  0.25606937766E+04  0.12931584838E+04 0.  0.
        4    1    3    3  502    0 -0.54384328687E+02  0.41113249216E+03  0.12279893437E+03  0.43251447663E+03  0.12699999809E+01 0.  1.
       -4    1    3    3    0  502  0.54384328687E+02 -0.41113249216E+03  0.20873806406E+04  0.21281793000E+04  0.12699999809E+01 0. -1.
</event>
<event>
 5   0  0.4263540E-03  0.1302722E+04  0.7818609E-02  0.9027409E-01
       -2   -1    0    0    0  501  0.00000000000E+00  0.00000000000E+00  0.35330264533E+03  0.35330264534E+03  0.25500000920E-02 0.  1.
        2   -1    0    0  501    0  0.00000000000E+00  0.00000000000E+00 -0.12008721529E+04  0.12008721529E+04  0.25500000920E-02 0. -1.
    10030    2    1    2    0    0  0.00000000000E+00  0.00000000000E+00 -0.84756950759E+03  0.15541747983E+04  0.13027222395E+04 0.  0.
        2    1    3    3  502    0  0.42623989557E+03  0.25285645448E+03 -0.92804529128E+03  0.10520859745E+04  0.25500000920E-02 0. -1.
       -2    1    3    3    0  502 -0.42623989557E+03 -0.25285645448E+03  0.80475783692E+02  0.50208882373E+03  0.25500000920E-02 0.  1.
</event>
<event>
 5   0  0.4263540E-03  0.1621518E+04  0.7818609E-02  0.8807437E-01
        2   -1    0    0  501    0  0.00000000000E+00  0.00000000000E+00  0.91710794580E+03  0.91710794581E+03  0.25500000920E-02 0.  1.
       -2   -1    0    0    0  501  0.00000000000E+00  0.00000000000E+00 -0.71674243131E+03  0.71674243131E+03  0.25500000920E-02 0. -1.
    10030    2    1    2    0    0  0.00000000000E+00  0.00000000000E+00  0.20036551449E+03  0.16338503771E+04  0.16215180281E+04 0.  0.
        2    1    3    3  502    0 -0.26199812423E+03 -0.55949561604E+03 -0.42883582981E+03  0.75204955316E+03  0.25500000920E-02 0. -1.
       -2    1    3    3    0  502  0.26199812423E+03  0.55949561604E+03  0.62920134430E+03  0.88180082396E+03  0.25500000920E-02 0.  1.
</event>
<event>
 5   0  0.4263540E-03  0.1294016E+04  0.7818609E-02  0.9034324E-01
       -2   -1    0    0    0  501  0.00000000000E+00  0.00000000000E+00  0.41639120671E+03  0.41639120671E+03  0.25500000920E-02 0. -1.
        2   -1    0    0  501    0  0.00000000000E+00  0.00000000000E+00 -0.10053507998E+04  0.10053507998E+04  0.25500000920E-02 0.  1.
    10030    2    1    2    0    0  0.00000000000E+00  0.00000000000E+00 -0.58895959306E+03  0.14217420065E+04  0.12940158155E+04 0.  0.
        2    1    3    3  502    0  0.57125290378E+03  0.16010373455E+02 -0.62779340767E+03  0.84894686221E+03  0.25500000920E-02 0.  1.
       -2    1    3    3    0  502 -0.57125290378E+03 -0.16010373455E+02  0.38833814611E+02  0.57279514427E+03  0.25500000920E-02 0. -1.
</event>
<event>
 5   0  0.4306214E-03  0.1277844E+04  0.7818609E-02  0.9047322E-01
       -2   -1    0    0    0  501  0.00000000000E+00  0.00000000000E+00  0.61103862376E+03  0.61103862376E+03  0.25500000920E-02 0.  1.
        2   -1    0    0  501    0  0.00000000000E+00  0.00000000000E+00 -0.66807757803E+03  0.66807757803E+03  0.25500000920E-02 0. -1.
    10030    2    1    2    0    0  0.00000000000E+00  0.00000000000E+00 -0.57038954271E+02  0.12791162018E+04  0.12778438149E+04 0.  0.
        3    1    3    3  502    0 -0.45534999256E+02  0.60875093244E+03 -0.21730753640E+03  0.64797662727E+03  0.10100000352E+00 0. -1.
       -3    1    3    3    0  502  0.45534999256E+02 -0.60875093244E+03  0.16026858213E+03  0.63113957452E+03  0.10100000352E+00 0.  1.
</event>
<event>
 5   0  0.4310889E-03  0.1339085E+04  0.7818609E-02  0.8999132E-01
       -2   -1    0    0    0  501  0.00000000000E+00  0.00000000000E+00  0.64100812101E+03  0.64100812102E+03  0.25500000920E-02 0. -1.
        2   -1    0    0  501    0  0.00000000000E+00  0.00000000000E+00 -0.69934731384E+03  0.69934731385E+03  0.25500000920E-02 0.  1.
    10030    2    1    2    0    0  0.00000000000E+00  0.00000000000E+00 -0.58339192829E+02  0.13403554349E+04  0.13390852215E+04 0.  0.
        4    1    3    3  502    0  0.33324189430E+03  0.28743753059E+03 -0.53424233310E+03  0.69216109215E+03  0.12699999809E+01 0.  1.
       -4    1    3    3    0  502 -0.33324189430E+03 -0.28743753059E+03  0.47590314027E+03  0.64819434272E+03  0.12699999809E+01 0. -1.
</event>
<event>
 5   0  0.4453011E-03  0.1230633E+04  0.7818609E-02  0.9086458E-01
        2   -1    0    0  501    0  0.00000000000E+00  0.00000000000E+00  0.12563665126E+04  0.12563665126E+04  0.25500000920E-02 0. -1.
       -2   -1    0    0    0  501  0.00000000000E+00  0.00000000000E+00 -0.30135645056E+03  0.30135645057E+03  0.25500000920E-02 0.  1.
    10030    2    1    2    0    0  0.00000000000E+00  0.00000000000E+00  0.95501006205E+03  0.15577229632E+04  0.12306326062E+04 0.  0.
        1    1    3    3  502    0 -0.32538359572E+03  0.25628192193E+02 -0.18275103474E+03  0.37407115543E+03  0.50400001928E-02 0.  1.
       -1    1    3    3    0  502  0.32538359572E+03 -0.25628192193E+02  0.11377610968E+04  0.11836518077E+04  0.50400001928E-02 0. -1.
</event>
<event>
 5   0  0.2356769E-03  0.1302828E+04  0.7818609E-02  0.9027326E-01
        1   -1    0    0  501    0  0.00000000000E+00  0.00000000000E+00  0.98999143953E+03  0.98999143954E+03  0.50400001928E-02 0.  1.
       -1   -1    0    0    0  501  0.00000000000E+00  0.00000000000E+00 -0.42863016137E+03  0.42863016140E+03  0.50400001928E-02 0. -1.
    10030    2    1    2    0    0  0.00000000000E+00  0.00000000000E+00  0.56136127816E+03  0.14186216009E+04  0.13028279864E+04 0.  0.
        1    1    3    3  502    0 -0.31945255229E+03 -0.54337538769E+03  0.45971244356E+03  0.78015528960E+03  0.50400001928E-02 0.  1.
       -1    1    3    3    0  502  0.31945255229E+03  0.54337538769E+03  0.10164883460E+03  0.63846631133E+03  0.50400001928E-02 0. -1.
</event>
<event>
 5   0  0.2370801E-03  0.1288109E+04  0.7818609E-02  0.9039048E-01
        1   -1    0    0  501    0  0.00000000000E+00  0.00000000000E+00  0.12232240631E+04  0.12232240631E+04  0.50400001928E-02 0.  1.
       -1   -1    0    0    0  501  0.00000000000E+00  0.00000000000E+00 -0.33910899951E+03  0.33910899955E+03  0.50400001928E-02 0. -1.
    10030    2    1    2    0    0  0.00000000000E+00  0.00000000000E+00  0.88411506358E+03  0.15623330626E+04  0.12881091386E+04 0.  0.
        3    1    3    3  502    0 -0.91365673644E+02  0.59226773213E+03  0.72825179481E+03  0.94312217644E+03  0.10100000352E+00 0. -1.
       -3    1    3    3    0  502  0.91365673644E+02 -0.59226773213E+03  0.15586326877E+03  0.61921088621E+03  0.10100000352E+00 0.  1.
</event>
<event>
 5   0  0.2356769E-03  0.1306656E+04  0.7818609E-02  0.9024304E-01
        1   -1    0    0  501    0  0.00000000000E+00  0.00000000000E+00  0.13231397555E+04  0.13231397556E+04  0.50400001928E-02 0. -1.
       -1   -1    0    0    0  501  0.00000000000E+00  0.00000000000E+00 -0.32259423753E+03  0.32259423757E+03  0.50400001928E-02 0.  1.
    10030    2    1    2    0    0  0.00000000000E+00  0.00000000000E+00  0.10005455180E+04  0.16457339931E+04  0.13066556710E+04 0.  0.
        1    1    3    3  502    0  0.34756922920E+03  0.52501547789E+03  0.71984404551E+03  0.95635823361E+03  0.50400001928E-02 0. -1.
       -1    1    3    3    0  502 -0.34756922920E+03 -0.52501547789E+03  0.28070147250E+03  0.68937575951E+03  0.50400001928E-02 0.  1.
</event>
<event>
 5   0  0.4310889E-03  0.1307036E+04  0.7818609E-02  0.9024004E-01
       -2   -1    0    0    0  501  0.00000000000E+00  0.00000000000E+00  0.34652217628E+03  0.34652217628E+03  0.25500000920E-02 0. -1.
        2   -1    0    0  501    0  0.00000000000E+00  0.00000000000E+00 -0.12324920291E+04  0.12324920291E+04  0.25500000920E-02 0.  1.
    10030    2    1    2    0    0  0.00000000000E+00  0.00000000000E+00 -0.88596985283E+03  0.15790142054E+04  0.13070360671E+04 0.  0.
        4    1    3    3  502    0  0.52114554304E+02 -0.57054586305E+03 -0.63165343188E+02  0.57639394697E+03  0.12699999809E+01 0. -1.
       -4    1    3    3    0  502 -0.52114554304E+02  0.57054586305E+03 -0.82280450964E+03  0.10026202584E+04  0.12699999809E+01 0.  1.
</event>
<event>
 5   0  0.4263540E-03  0.1227873E+04  0.7818609E-02  0.9088803E-01
       -2   -1    0    0    0  501  0.00000000000E+00  0.00000000000E+00  0.34346257674E+03  0.34346257675E+03  0.25500000920E-02 0. -1.
        2   -1    0    0  501    0  0.00000000000E+00  0.00000000000E+00 -0.10974067547E+04  0.10974067547E+04  0.25500000920E-02 0.  1.
    10030    2    1    2    0    0  0.00000000000E+00  0.00000000000E+00 -0.75394417798E+03  0.14408693315E+04  0.12278732047E+04 0.  0.
        2    1    3    3  502    0 -0.15744440394E+03  0.49143054160E+03  0.13327927482E+02  0.51620766287E+03  0.25500000920E-02 0. -1.
       -2    1    3    3    0  502  0.15744440394E+03 -0.49143054160E+03 -0.76727210546E+03  0.92466166860E+03  0.25500000920E-02 0.  1.
</event>
<event>
 5   0  0.4263540E-03  0.1186994E+04  0.7818609E-02  0.9124317E-01
        2   -1    0    0  501    0  0.00000000000E+00  0.00000000000E+00  0.21093675800E+04  0.21093675800E+04  0.25500000920E-02 0. -1.
       -2   -1    0    0    0  501  0.00000000000E+00  0.00000000000E+00 -0.16698788279E+03  0.16698788281E+03  0.25500000920E-02 0.  1.
    10030    2    1    2    0    0  0.00000000000E+00  0.00000000000E+00  0.19423796972E+04  0.22763554628E+04  0.11869942312E+04 0.  0.
        2    1    3    3  502    0  0.13005625681E+03  0.25465166992E+03  0.19685601220E+04  0.19892187052E+04  0.25500000920E-02 0. -1.
       -2    1    3    3    0  502 -0.13005625681E+03 -0.25465166992E+03 -0.26180424830E+02  0.28713675763E+03  0.25500000920E-02 0.  1.
</event>
<event>
 5   0  0.4453011E-03  0.1294581E+04  0.7818609E-02  0.9033874E-01
       -2   -1    0    0    0  501  0.00000000000E+00  0.00000000000E+00  0.57968525397E+03  0.57968525398E+03  0.25500000920E-02 0. -1.
        2   -1    0    0  501    0  0.00000000000E+00  0.00000000000E+00 -0.72278015192E+03  0.72278015193E+03  0.25500000920E-02 0.  1.
    10030    2    1    2    0    0  0.00000000000E+00  0.00000000000E+00 -0.14309489795E+03  0.13024654059E+04  0.12945810070E+04 0.  0.
        1    1    3    3  502    0  0.18516911944E+03 -0.36777864599E+03 -0.57402511091E+03  0.70643723232E+03  0.50400001928E-02 0.  1.
       -1    1    3    3    0  502 -0.18516911944E+03  0.36777864599E+03  0.43093021296E+03  0.59602817358E+03  0.50400001928E-02 0. -1.
</event>
<event>
 5   0  0.4388937E-03  0.1308403E+04  0.7818609E-02  0.9022928E-01
       -2   -1    0    0    0  501  0.00000000000E+00  0.00000000000E+00  0.47146252937E+03  0.47146252938E+03  0.25500000920E-02 0.  1.
        2   -1    0    0  501    0  0.00000000000E+00  0.00000000000E+00 -0.90776959455E+03  0.90776959456E+03  0.25500000920E-02 0. -1.
    10030    2    1    2    0    0  0.00000000000E+00  0.00000000000E+00 -0.43630706518E+03  0.13792321239E+04  0.13084026126E+04 0.  0.
        5    1    3    3  502    0 -0.17169115554E+03 -0.42284534622E+02  0.44577658103E+03  0.47958803671E+03  0.46999998093E+01 0.  1.
       -5    1    3    3    0  502  0.17169115554E+03  0.42284534622E+02 -0.88208364622E+03  0.89964408722E+03  0.46999998093E+01 0. -1.
</event>
<event>
 5   0  0.2462055E-03  0.1304850E+04  0.7818609E-02  0.9025728E-01
       -1   -1    0    0    0  501  0.00000000000E+00  0.00000000000E+00  0.31259244152E+03  0.31259244156E+03  0.50400001928E-02 0.  1.
        1   -1    0    0  501    0  0.00000000000E+00  0.00000000000E+00 -0.13617037522E+04  0.13617037522E+04  0.50400001928E-02 0. -1.
    10030    2    1    2    0    0  0.00000000000E+00  0.00000000000E+00 -0.10491113107E+04  0.16742961938E+04  0.13048498773E+04 0.  0.
        2    1    3    3  502    0  0.28321069962E+03 -0.58025910107E+03 -0.40453381642E+03  0.76194260504E+03  0.25500000920E-02 0. -1.
       -2    1    3    3    0  502 -0.28321069962E+03  0.58025910107E+03 -0.64457749424E+03  0.91235358871E+03  0.25500000920E-02 0.  1.
</event>
<event>
 5   0  0.2370801E-03  0.1250107E+04  0.7818609E-02  0.9070094E-01
        1   -1    0    0  501    0  0.00000000000E+00  0.00000000000E+00  0.11878847156E+04  0.11878847156E+04  0.50400001928E-02 0. -1.
       -1   -1    0    0    0  501  0.00000000000E+00  0.00000000000E+00 -0.32889734730E+03  0.32889734734E+03  0.50400001928E-02 0.  1.
    10030    2    1    2    0    0  0.00000000000E+00  0.00000000000E+00  0.85898736830E+03  0.15167820630E+04  0.12501074064E+04 0.  0.
        3    1    3    3  502    0  0.25593568615E+03 -0.43811773663E+03 -0.13396705428E+02  0.50757236776E+03  0.10100000352E+00 0.  1.
       -3    1    3    3    0  502 -0.25593568615E+03  0.43811773663E+03  0.87238407373E+03  0.10092096952E+04  0.10100000352E+00 0. -1.
</event>
<event>
 5   0  0.2356769E-03  0.1508501E+04  0.7818609E-02  0.8878819E-01
       -1   -1    0    0    0  501  0.00000000000E+00  0.00000000000E+00  0.28242841897E+03  0.28242841901E+03  0.50400001928E-02 0.  1.
        1   -1    0    0  501    0  0.00000000000E+00  0.00000000000E+00 -0.20142949757E+04  0.20142949757E+04  0.50400001928E-02 0. -1.
    10030    2    1    2    0    0  0.00000000000E+00  0.00000000000E+00 -0.17318665567E+04  0.22967233947E+04  0.15085014357E+04 0.  0.
        1    1    3    3  502    0  0.31346324736E+03  0.61667363002E+03 -0.13235728945E+04  0.14934492895E+04  0.50400001928E-02 0. -1.
       -1    1    3    3    0  502 -0.31346324736E+03 -0.61667363002E+03 -0.40829366228E+03  0.80327410520E+03  0.50400001928E-02 0.  1.
</event>
<event>
 5   0  0.2462055E-03  0.1264243E+04  0.7818609E-02  0.9058411E-01
       -1   -1    0    0    0  501  0.00000000000E+00  0.00000000000E+00  0.41309644052E+03  0.41309644055E+03  0.50400001928E-02 0. -1.
        1   -1    0    0  501    0  0.00000000000E+00  0.00000000000E+00 -0.96727497128E+03  0.96727497129E+03  0.50400001928E-02 0.  1.
    10030    2    1    2    0    0  0.00000000000E+00  0.00000000000E+00 -0.55417853076E+03  0.13803714118E+04  0.12642434064E+04 0.  0.
        2    1    3    3  502    0 -0.47371708625E+03  0.48756551478E+02  0.17677714266E+03  0.50797168945E+03  0.25500000920E-02 0. -1.
       -2    1    3    3    0  502  0.47371708625E+03 -0.48756551478E+02 -0.73095567342E+03  0.87239972239E+03  0.25500000920E-02 0.  1.
</event>
<event>
 5   0  0.4306214E-03  0.1290378E+04  0.7818609E-02  0.9037230E-01
       -2   -1    0    0    0  501  0.00000000000E+00  0.00000000000E+00  0.14916136480E+03  0.14916136482E+03  0.25500000920E-02 0. -1.
        2   -1    0    0  501    0  0.00000000000E+00  0.00000000000E+00 -0.27907300083E+04  0.27907300083E+04  0.25500000920E-02 0.  1.
    10030    2    1    2    0    0  0.00000000000E+00  0.00000000000E+00 -0.26415686435E+04  0.29398913731E+04  0.12903783893E+04 0.  0.
        3    1    3    3  502    0  0.38586554910E+02 -0.86560034829E+02 -0.27747854942E+04  0.27764034489E+04  0.10100000352E+00 0.  1.
       -3    1    3    3    0  502 -0.38586554910E+02  0.86560034829E+02  0.13321685073E+03  0.16348792423E+03  0.10100000352E+00 0. -1.
</event>
<event>
 5   0  0.2462055E-03  0.1382744E+04  0.7818609E-02  0.8966405E-01
        1   -1    0    0  501    0  0.00000000000E+00  0.00000000000E+00  0.76142917562E+03  0.76142917564E+03  0.50400001928E-02 0.  1.
       -1   -1    0    0    0  501  0.00000000000E+00  0.00000000000E+00 -0.62776057728E+03  0.62776057730E+03  0.50400001928E-02 0. -1.
    10030    2    1    2    0    0  0.00000000000E+00  0.00000000000E+00  0.13366859835E+03  0.13891897529E+04  0.13827439660E+04 0.  0.
        2    1    3    3  502    0  0.51745205443E+03 -0.32890418162E+03 -0.25412422963E+03  0.66371207116E+03  0.25500000920E-02 0. -1.
       -2    1    3    3    0  502 -0.51745205443E+03  0.32890418162E+03  0.38779282797E+03  0.72547768177E+03  0.25500000920E-02 0.  1.
</event>
<event>
 5   0  0.4388937E-03  0.1143529E+04  0.7818609E-02  0.9163774E-01
        2   -1    0    0  501    0  0.00000000000E+00  0.00000000000E+00  0.44286464193E+03  0.44286464194E+03  0.25500000920E-02 0. -1.
       -2   -1    0    0    0  501  0.00000000000E+00  0.00000000000E+00 -0.73818246901E+03  0.73818246901E+03  0.25500000920E-02 0.  1.
    10030    2    1    2    0    0  0.00000000000E+00  0.00000000000E+00 -0.29531782708E+03  0.11810471110E+04  0.11435294746E+04 0.  0.
        5    1    3    3  502    0  0.16143555483E+03 -0.42218893630E+03 -0.50927158540E+03  0.68094388461E+03  0.46999998093E+01 0. -1.
       -5    1    3    3    0  502 -0.16143555483E+03  0.42218893630E+03  0.21395375832E+03  0.50010322634E+03  0.46999998093E+01 0.  1.
</event>
<event>
 5   0  0.4310889E-03  0.1336663E+04  0.7818609E-02  0.9000986E-01
        2   -1    0    0  501    0  0.00000000000E+00  0.00000000000E+00  0.80136242334E+03  0.80136242335E+03  0.25500000920E-02 0. -1.
       -2   -1    0    0    0  501  0.00000000000E+00  0.00000000000E+00 -0.55738434247E+03  0.55738434247E+03  0.25500000920E-02 0.  1.
    10030    2    1    2    0    0  0.00000000000E+00  0.00000000000E+00  0.24397808088E+03  0.13587467658E+04  0.13366628108E+04 0.  0.
        4    1    3    3  502    0  0.91314019750E+02 -0.62928674911E+03 -0.87140857365E+02  0.64182178580E+03  0.12699999809E+01 0.  1.
       -4    1    3    3    0  502 -0.91314019750E+02  0.62928674911E+03  0.33111893824E+03  0.71692498002E+03  0.12699999809E+01 0. -1.
</event>
<event>
 5   0  0.2458456E-03  0.1293489E+04  0.7818609E-02  0.9034745E-01
        1   -1    0    0  501    0  0.00000000000E+00  0.00000000000E+00  0.83851443201E+03  0.83851443202E+03  0.50400001928E-02 0.  1.
       -1   -1    0    0    0  501  0.00000000000E+00  0.00000000000E+00 -0.49883253233E+03  0.49883253236E+03  0.50400001928E-02 0. -1.
    10030    2    1    2    0    0  0.00000000000E+00  0.00000000000E+00  0.33968189968E+03  0.13373469644E+04  0.12934887360E+04 0.  0.
        5    1    3    3  502    0  0.29111607205E+03  0.56528787046E+03  0.47694380146E+02  0.63764863977E+03  0.46999998093E+01 0. -1.
       -5    1    3    3    0  502 -0.29111607205E+03 -0.56528787046E+03  0.29198751953E+03  0.69969832461E+03  0.46999998093E+01 0.  1.
</event>
<event>
 5   0  0.2370801E-03  0.1116374E+04  0.7818609E-02  0.9189378E-01
       -1   -1    0    0    0  501  0.00000000000E+00  0.00000000000E+00  0.51044121437E+03  0.51044121439E+03  0.50400001928E-02 0. -1.
        1   -1    0    0  501    0  0.00000000000E+00  0.00000000000E+00 -0.61039835329E+03  0.61039835331E+03  0.50400001928E-02 0.  1.
    10030    2    1    2    0    0  0.00000000000E+00  0.00000000000E+00 -0.99957138924E+02  0.11208395677E+04  0.11163735517E+04 0.  0.
        3    1    3    3  502    0 -0.39966035867E+03 -0.57954285840E+02 -0.43685808951E+03  0.59492192943E+03  0.10100000352E+00 0.  1.
       -3    1    3    3    0  502  0.39966035867E+03  0.57954285840E+02  0.33690095059E+03  0.52591763827E+03  0.10100000352E+00 0. -1.
</event>
<event>
 5   0  0.2511542E-03  0.1268784E+04  0.7818609E-02  0.9054693E-01
       -1   -1    0    0    0  501  0.00000000000E+00  0.00000000000E+00  0.40796947610E+03  0.40796947613E+03  0.50400001928E-02 0.  1.
        1   -1    0    0  501    0  0.00000000000E+00  0.00000000000E+00 -0.98647803190E+03  0.98647803191E+03  0.50400001928E-02 0. -1.
    10030    2    1    2    0    0  0.00000000000E+00  0.00000000000E+00 -0.57850855580E+03  0.13944475080E+04  0.12687835527E+04 0.  0.
        4    1    3    3  502    0  0.28486814118E+03  0.94353356360E+02 -0.90353852431E+03  0.95206926824E+03  0.12699999809E+01 0. -1.
       -4    1    3    3    0  502 -0.28486814118E+03 -0.94353356360E+02  0.32502996851E+03  0.44237823980E+03  0.12699999809E+01 0.  1.
</event>
<event>
 5   0  0.2458456E-03  0.1273610E+04  0.7818609E-02  0.9050758E-01
        1   -1    0    0  501    0  0.00000000000E+00  0.00000000000E+00  0.10777749915E+04  0.10777749916E+04  0.50400001928E-02 0. -1.
       -1   -1    0    0    0  501  0.00000000000E+00  0.00000000000E+00 -0.37625744961E+03  0.37625744965E+03  0.50400001928E-02 0.  1.
    10030    2    1    2    0    0  0.00000000000E+00  0.00000000000E+00  0.70151754192E+03  0.14540324412E+04  0.12736104108E+04 0.  0.
        5    1    3    3  502    0 -0.55291789123E+03  0.11431363259E+03  0.14572829690E+02  0.56481878369E+03  0.46999998093E+01 0.  1.
       -5    1    3    3    0  502  0.55291789123E+03 -0.11431363259E+03  0.68694471223E+03  0.88921365751E+03  0.46999998093E+01 0. -1.
</event>
<event>
 5   0  0.4263540E-03  0.1308620E+04  0.7818609E-02  0.9022757E-01
       -2   -1    0    0    0  501  0.00000000000E+00  0.00000000000E+00  0.32177289433E+03  0.32177289434E+03  0.25500000920E-02 0.  1.
        2   -1    0    0  501    0  0.00000000000E+00  0.00000000000E+00 -0.13305081028E+04  0.13305081028E+04  0.25500000920E-02 0. -1.
    10030    2    1    2    0    0  0.00000000000E+00  0.00000000000E+00 -0.10087352085E+04  0.16522809972E+04  0.13086197969E+04 0.  0.
        2    1    3    3  502    0 -0.31043902050E+03 -0.52126538780E+03 -0.19501067342E+03  0.63727478588E+03  0.25500000920E-02 0.  1.
       -2    1    3    3    0  502  0.31043902050E+03  0.52126538780E+03 -0.81372453506E+03  0.10150062113E+04  0.25500000920E-02 0. -1.
</event>
<event>
 5   0  0.2462055E-03  0.1349299E+04  0.7818609E-02  0.8991359E-01
       -1   -1    0    0    0  501  0.00000000000E+00  0.00000000000E+00  0.26139488344E+03  0.26139488349E+03  0.50400001928E-02 0. -1.
        1   -1    0    0  501    0  0.00000000000E+00  0.00000000000E+00 -0.17412420881E+04  0.17412420881E+04  0.50400001928E-02 0.  1.
    10030    2    1    2    0    0  0.00000000000E+00  0.00000000000E+00 -0.14798472047E+04  0.20026369716E+04  0.13492987404E+04 0.  0.
        2    1    3    3  502    0  0.98325594831E+01  0.40976603085E+03 -0.15352514255E+04  0.15890254305E+04  0.25500000920E-02 0.  1.
       -2    1    3    3    0  502 -0.98325594831E+01 -0.40976603085E+03  0.55404220810E+02  0.41361154113E+03  0.25500000920E-02 0. -1.
</event>
<event>
 5   0  0.4388937E-03  0.1313720E+04  0.7818609E-02  0.9018755E-01
       -2   -1    0    0    0  501  0.00000000000E+00  0.00000000000E+00  0.30967183760E+03  0.30967183761E+03  0.25500000920E-02 0. -1.
        2   -1    0    0  501    0  0.00000000000E+00  0.00000000000E+00 -0.13932975841E+04  0.13932975841E+04  0.25500000920E-02 0.  1.
    10030    2    1    2    0    0  0.00000000000E+00  0.00000000000E+00 -0.10836257465E+04  0.17029694217E+04  0.13137199446E+04 0.  0.
        5    1    3    3  502    0 -0.44339691519E+03  0.47320160071E+03 -0.40633693167E+03  0.76527927671E+03  0.46999998093E+01 0.  1.
       -5    1    3    3    0  502  0.44339691519E+03 -0.47320160071E+03 -0.67728881479E+03  0.93769014496E+03  0.46999998093E+01 0. -1.
</event>
<event>
 5   0  0.2356769E-03  0.1305249E+04  0.7818609E-02  0.9025413E-01
        1   -1    0    0  501    0  0.00000000000E+00  0.00000000000E+00  0.70417194467E+03  0.70417194469E+03  0.50400001928E-02 0.  1.
       -1   -1    0    0    0  501  0.00000000000E+00  0.00000000000E+00 -0.60485044188E+03  0.60485044190E+03  0.50400001928E-02 0. -1.
    10030    2    1    2    0    0  0.00000000000E+00  0.00000000000E+00  0.99321502790E+02  0.13090223866E+04  0.13052489600E+04 0.  0.
        1    1    3    3  502    0  0.42843920007E+03  0.44393763076E+03  0.26306205383E+03  0.67070292407E+03  0.50400001928E-02 0.  1.
       -1    1    3    3    0  502 -0.42843920007E+03 -0.44393763076E+03 -0.16374055104E+03  0.63831946253E+03  0.50400001928E-02 0. -1.
</event>
<event>
 5   0  0.4306214E-03  0.1257224E+04  0.7818609E-02  0.9064192E-01
       -2   -1    0    0    0  501  0.00000000000E+00  0.00000000000E+00  0.55958840517E+03  0.55958840518E+03  0.25500000920E-02 0.  1.
        2   -1    0    0  501    0  0.00000000000E+00  0.00000000000E+00 -0.70614903086E+03  0.70614903086E+03  0.25500000920E-02 0. -1.
    10030    2    1    2    0    0  0.00000000000E+00  0.00000000000E+00 -0.14656062569E+03  0.12657374360E+04  0.12572236237E+04 0.  0.
        3    1    3    3  502    0 -0.16052754746E+03  0.23091934912E+03 -0.63927953320E+03  0.69840616482E+03  0.10100000352E+00 0. -1.
       -3    1    3    3    0  502  0.16052754746E+03 -0.23091934912E+03  0.49271890751E+03  0.56733127122E+03  0.10100000352E+00 0.  1.
</event>
<event>
 5   0  0.4388937E-03  0.1292355E+04  0.7818609E-02  0.9035650E-01
       -2   -1    0    0    0  501  0.00000000000E+00  0.00000000000E+00  0.38217327473E+03  0.38217327474E+03  0.25500000920E-02 0. -1.
        2   -1    0    0  501    0  0.00000000000E+00  0.00000000000E+00 -0.10925553222E+04  0.10925553222E+04  0.25500000920E-02 0.  1.
    10030    2    1    2    0    0  0.00000000000E+00  0.00000000000E+00 -0.71038204750E+03  0.14747285970E+04  0.12923551297E+04 0.  0.
        5    1    3    3  502    0  0.14084458772E+02  0.41426326558E+03 -0.92083409134E+03  0.10098365902E+04  0.46999998093E+01 0.  1.
       -5    1    3    3    0  502 -0.14084458772E+02 -0.41426326558E+03  0.21045204384E+03  0.46489200675E+03  0.46999998093E+01 0. -1.
</event>
<event>
 5   0  0.4388937E-03  0.1297287E+04  0.7818609E-02  0.9031720E-01
        2   -1    0    0  501    0  0.00000000000E+00  0.00000000000E+00  0.13152742236E+04  0.13152742236E+04  0.25500000920E-02 0.  1.
       -2   -1    0    0    0  501  0.00000000000E+00  0.00000000000E+00 -0.31988635358E+03  0.31988635359E+03  0.25500000920E-02 0. -1.
    10030    2    1    2    0    0  0.00000000000E+00  0.00000000000E+00  0.99538786998E+03  0.16351605772E+04  0.12972868231E+04 0.  0.
        5    1    3    3  502    0 -0.42833087536E+03 -0.39491260682E+03  0.85707124596E+03  0.10363476813E+04  0.46999998093E+01 0.  1.
       -5    1    3    3    0  502  0.42833087536E+03  0.39491260682E+03  0.13831662402E+03  0.59881289589E+03  0.46999998093E+01 0. -1.
</event>
<event>
 5   0  0.4306214E-03  0.1151324E+04  0.7818609E-02  0.9156563E-01
       -2   -1    0    0    0  501  0.00000000000E+00  0.00000000000E+00  0.28604159789E+03  0.28604159790E+03  0.25500000920E-02 0.  1.
        2   -1    0    0  501    0  0.00000000000E+00  0.00000000000E+00 -0.11585266143E+04  0.11585266143E+04  0.25500000920E-02 0. -1.
    10030    2    1    2    0    0  0.00000000000E+00  0.00000000000E+00 -0.87248501641E+03  0.14445682122E+04  0.11513241142E+04 0.  0.
        3    1    3    3  502    0 -0.38935595625E+03 -0.19466135284E+03  0.36391596253E+02  0.43682429126E+03  0.10100000352E+00 0.  1.
       -3    1    3    3    0  502  0.38935595625E+03  0.19466135284E+03 -0.90887661267E+03  0.10077439210E+04  0.10100000352E+00 0. -1.
</event>
<event>
 5   0  0.2356769E-03  0.1305232E+04  0.7818609E-02  0.9025427E-01
        1   -1    0    0  501    0  0.00000000000E+00  0.00000000000E+00  0.16267487648E+04  0.16267487648E+04  0.50400001928E-02 0.  1.
       -1   -1    0    0    0  501  0.00000000000E+00  0.00000000000E+00 -0.26181519595E+03  0.26181519600E+03  0.50400001928E-02 0. -1.
    10030    2    1    2    0    0  0.00000000000E+00  0.00000000000E+00  0.13649335688E+04  0.18885639608E+04  0.13052318517E+04 0.  0.
        1    1    3    3  502    0  0.11456899694E+03  0.61452296369E+03  0.41122064472E+03  0.74824257205E+03  0.50400001928E-02 0. -1.
       -1    1    3    3    0  502 -0.11456899694E+03 -0.61452296369E+03  0.95371292410E+03  0.11403213887E+04  0.50400001928E-02 0.  1.
</event>
<event>
 5   0  0.2462055E-03  0.1319935E+04  0.7818609E-02  0.9013904E-01
        1   -1    0    0  501    0  0.00000000000E+00  0.00000000000E+00  0.26164459506E+03  0.26164459511E+03  0.50400001928E-02 0.  1.
       -1   -1    0    0    0  501  0.00000000000E+00  0.00000000000E+00 -0.16646903853E+04  0.16646903853E+04  0.50400001928E-02 0. -1.
    10030    2    1    2    0    0  0.00000000000E+00  0.00000000000E+00 -0.14030457902E+04  0.19263349804E+04  0.13199352133E+04 0.  0.
        2    1    3    3  502    0  0.47675603418E+03  0.45622014707E+03 -0.71778102191E+03  0.97500909439E+03  0.25500000920E-02 0.  1.
       -2    1    3    3    0  502 -0.47675603418E+03 -0.45622014707E+03 -0.68526476832E+03  0.95132588603E+03  0.25500000920E-02 0. -1.
</event>
<event>
 5   0  0.2458456E-03  0.1154716E+04  0.7818609E-02  0.9153444E-01
        1   -1    0    0  501    0  0.00000000000E+00  0.00000000000E+00  0.48943718585E+03  0.48943718588E+03  0.50400001928E-02 0. -1.
       -1   -1    0    0    0  501  0.00000000000E+00  0.00000000000E+00 -0.68107258361E+03  0.68107258363E+03  0.50400001928E-02 0.  1.
    10030    2    1    2    0    0  0.00000000000E+00  0.00000000000E+00 -0.19163539775E+03  0.11705097695E+04  0.11547159802E+04 0.  0.
        5    1    3    3  502    0 -0.29526754890E+03 -0.19573280535E+03 -0.55793231400E+03  0.66091210726E+03  0.46999998093E+01 0.  1.
       -5    1    3    3    0  502  0.29526754890E+03  0.19573280535E+03  0.36629691624E+03  0.50959766225E+03  0.46999998093E+01 0. -1.
</event>
<event>
 5   0  0.4263540E-03  0.1315608E+04  0.7818609E-02  0.9017278E-01
       -2   -1    0    0    0  501  0.00000000000E+00  0.00000000000E+00  0.32205471128E+03  0.32205471129E+03  0.25500000920E-02 0. -1.
        2   -1    0    0  501    0  0.00000000000E+00  0.00000000000E+00 -0.13435799891E+04  0.13435799892E+04  0.25500000920E-02 0.  1.
    10030    2    1    2    0    0  0.00000000000E+00  0.00000000000E+00 -0.10215252779E+04  0.16656347004E+04  0.13156082479E+04 0.  0.
        2    1    3    3  502    0 -0.97396073259E+02  0.64647424223E+03 -0.41866778321E+03  0.77633604429E+03  0.25500000920E-02 0.  1.
       -2    1    3    3    0  502  0.97396073259E+02 -0.64647424223E+03 -0.60285749466E+03  0.88929865615E+03  0.25500000920E-02 0. -1.
</event>
<event>
 5   0  0.2370801E-03  0.1631043E+04  0.7818609E-02  0.8801701E-01
        1   -1    0    0  501    0  0.00000000000E+00  0.00000000000E+00  0.83850879221E+03  0.83850879222E+03  0.50400001928E-02 0.  1.
       -1   -1    0    0    0  501  0.00000000000E+00  0.00000000000E+00 -0.79316485279E+03  0.79316485281E+03  0.50400001928E-02 0. -1.
    10030    2    1    2    0    0  0.00000000000E+00  0.00000000000E+00  0.45343939414E+02  0.16316736450E+04  0.16310434731E+04 0.  0.
        3    1    3    3  502    0  0.49009178785E+03  0.52570459758E+03  0.40820432288E+03  0.82655070253E+03  0.10100000352E+00 0.  1.
       -3    1    3    3    0  502 -0.49009178785E+03 -0.52570459758E+03 -0.36286038347E+03  0.80512294249E+03  0.10100000352E+00 0. -1.
</event>
<event>
 5   0  0.2511542E-03  0.1287346E+04  0.7818609E-02  0.9039660E-01
        1   -1    0    0  501    0  0.00000000000E+00  0.00000000000E+00  0.10591126650E+04  0.10591126650E+04  0.50400001928E-02 0.  1.
       -1   -1    0    0    0  501  0.00000000000E+00  0.00000000000E+00 -0.39119066437E+03  0.39119066440E+03  0.50400001928E-02 0. -1.
    10030    2    1    2    0    0  0.00000000000E+00  0.00000000000E+00  0.66792200064E+03  0.14503033294E+04  0.12873460873E+04 0.  0.
        4    1    3    3  502    0 -0.23019709973E+03 -0.19713035208E+02 -0.34286566953E+03  0.41344623438E+03  0.12699999809E+01 0. -1.
       -4    1    3    3    0  502  0.23019709973E+03  0.19713035208E+02  0.10107876702E+04  0.10368570951E+04  0.12699999809E+01 0.  1.
</event>
<event>
 5   0  0.4310889E-03  0.1315491E+04  0.7818609E-02  0.9017370E-01
        2   -1    0    0  501    0  0.00000000000E+00  0.00000000000E+00  0.12599914035E+04  0.12599914035E+04  0.25500000920E-02 0. -1.
       -2   -1    0    0    0  501  0.00000000000E+00  0.00000000000E+00 -0.34335873858E+03  0.34335873859E+03  0.25500000920E-02 0.  1.
    10030    2    1    2    0    0  0.00000000000E+00  0.00000000000E+00  0.91663266491E+03  0.16033501421E+04  0.13154908725E+04 0.  0.
        4    1    3    3  502    0  0.24249520892E+03 -0.40666751427E+03 -0.98146716865E+02  0.48354605204E+03  0.12699999809E+01 0.  1.
       -4    1    3    3    0  502 -0.24249520892E+03  0.40666751427E+03  0.10147793818E+04  0.11198040901E+04  0.12699999809E+01 0. -1.
</event>
<event>
 5   0  0.1661750E-03  0.1307358E+04  0.7818609E-02  0.9023751E-01
       -3   -1    0    0    0  501  0.00000000000E+00  0.00000000000E+00  0.98576256934E+03  0.98576257452E+03  0.10100000352E+00 0.  1.
        3   -1    0    0  501    0  0.00000000000E+00  0.00000000000E+00 -0.43346743647E+03  0.43346744824E+03  0.10100000352E+00 0. -1.
    10030    2    1    2    0    0  0.00000000000E+00  0.00000000000E+00  0.55229513287E+03  0.14192300228E+04  0.13073576189E+04 0.  0.
        5    1    3    3  502    0 -0.83279182639E+02  0.23989797506E+03 -0.37771203626E+03  0.45516473175E+03  0.46999998093E+01 0. -1.
       -5    1    3    3    0  502  0.83279182639E+02 -0.23989797506E+03  0.93000716913E+03  0.96406529101E+03  0.46999998093E+01 0.  1.
</event>
<event>
 5   0  0.2511542E-03  0.1339728E+04  0.7818609E-02  0.8998640E-01
       -1   -1    0    0    0  501  0.00000000000E+00  0.00000000000E+00  0.21597932093E+03  0.21597932099E+03  0.50400001928E-02 0. -1.
        1   -1    0    0  501    0  0.00000000000E+00  0.00000000000E+00 -0.20775961814E+04  0.20775961814E+04  0.50400001928E-02 0.  1.
    10030    2    1    2    0    0  0.00000000000E+00  0.00000000000E+00 -0.18616168604E+04  0.22935755024E+04  0.13397280508E+04 0.  0.
        4    1    3    3  502    0 -0.24618987872E+02 -0.62457490443E+03 -0.13431635409E+04  0.14814823038E+04  0.12699999809E+01 0.  1.
       -4    1    3    3    0  502  0.24618987872E+02  0.62457490443E+03 -0.51845331954E+03  0.81209319862E+03  0.12699999809E+01 0. -1.
</event>
<event>
 5   0  0.2511542E-03  0.1301407E+04  0.7818609E-02  0.9028450E-01
        1   -1    0    0  501    0  0.00000000000E+00  0.00000000000E+00  0.11051537971E+04  0.11051537971E+04  0.50400001928E-02 0.  1.
       -1   -1    0    0    0  501  0.00000000000E+00  0.00000000000E+00 -0.38312770670E+03  0.38312770673E+03  0.50400001928E-02 0. -1.
    10030    2    1    2    0    0  0.00000000000E+00  0.00000000000E+00  0.72202609038E+03  0.14882815038E+04  0.13014069922E+04 0.  0.
        4    1    3    3  502    0  0.16471756147E+03  0.54670132661E+03  0.71791560997E+03  0.91728875034E+03  0.12699999809E+01 0.  1.
       -4    1    3    3    0  502 -0.16471756147E+03 -0.54670132661E+03  0.41104804063E+01  0.57099275347E+03  0.12699999809E+01 0. -1.
</event>
<event>
 5   0  0.2356769E-03  0.1311469E+04  0.7818609E-02  0.9020519E-01
        1   -1    0    0  501    0  0.00000000000E+00  0.00000000000E+00  0.33389499245E+03  0.33389499248E+03  0.50400001928E-02 0.  1.
       -1   -1    0    0    0  501  0.00000000000E+00  0.00000000000E+00 -0.12877941016E+04  0.12877941016E+04  0.50400001928E-02 0. -1.
    10030    2    1    2    0    0  0.00000000000E+00  0.00000000000E+00 -0.95389910911E+03  0.16216890941E+04  0.13114694077E+04 0.  0.
        1    1    3    3  502    0 -0.35041981568E+03  0.47479364535E+02 -0.11597855250E+04  0.12124977531E+04  0.50400001928E-02 0. -1.
       -1    1    3    3    0  502  0.35041981568E+03 -0.47479364535E+02  0.20588641585E+03  0.40919134098E+03  0.50400001928E-02 0.  1.
</event>
<event>
 5   0  0.4453011E-03  0.1288551E+04  0.7818609E-02  0.9038694E-01
        2   -1    0    0  501    0  0.00000000000E+00  0.00000000000E+00  0.17510895512E+04  0.17510895512E+04  0.25500000920E-02 0. -1.
       -2   -1    0    0    0  501  0.00000000000E+00  0.00000000000E+00 -0.23704724374E+03  0.23704724375E+03  0.25500000920E-02 0.  1.
    10030    2    1    2    0    0  0.00000000000E+00  0.00000000000E+00  0.15140423075E+04  0.19881367950E+04  0.12885510493E+04 0.  0.
        1    1    3    3  502    0 -0.94475968115E+02 -0.16298594818E+03 -0.19360160434E+03  0.27013276196E+03  0.50400001928E-02 0.  1.
       -1    1    3    3    0  502  0.94475968115E+02  0.16298594818E+03  0.17076439118E+04  0.17180040330E+04  0.50400001928E-02 0. -1.
</event>
<event>
 5   0  0.2370801E-03  0.1642248E+04  0.7818609E-02  0.8795006E-01
       -1   -1    0    0    0  501  0.00000000000E+00  0.00000000000E+00  0.56844337512E+03  0.56844337514E+03  0.50400001928E-02 0. -1.
        1   -1    0    0  501    0  0.00000000000E+00  0.00000000000E+00 -0.11861247418E+04  0.11861247418E+04  0.50400001928E-02 0.  1.
    10030    2    1    2    0    0  0.00000000000E+00  0.00000000000E+00 -0.61768136666E+03  0.17545681169E+04  0.16422481561E+04 0.  0.
        3    1    3    3  502    0  0.37767988279E+03 -0.10840355691E+03  0.46147905188E+03  0.60609929099E+03  0.10100000352E+00 0. -1.
       -3    1    3    3    0  502 -0.37767988279E+03  0.10840355691E+03 -0.10791604185E+04  0.11484688259E+04  0.10100000352E+00 0.  1.
</event>
<event>
 5   0  0.4263540E-03  0.1092162E+04  0.7818609E-02  0.9212865E-01
        2   -1    0    0  501    0  0.00000000000E+00  0.00000000000E+00  0.12297176016E+04  0.12297176016E+04  0.25500000920E-02 0.  1.
       -2   -1    0    0    0  501  0.00000000000E+00  0.00000000000E+00 -0.24249825545E+03  0.24249825546E+03  0.25500000920E-02 0. -1.
    10030    2    1    2    0    0  0.00000000000E+00  0.00000000000E+00  0.98721934614E+03  0.14722158571E+04  0.10921618435E+04 0.  0.
        2    1    3    3  502    0  0.83444497173E+02  0.39422853872E+03 -0.31825003100E+01  0.40297549946E+03  0.25500000920E-02 0. -1.
       -2    1    3    3    0  502 -0.83444497173E+02 -0.39422853872E+03  0.99040184645E+03  0.10692403576E+04  0.25500000920E-02 0.  1.
</event>
<event>
 5   0  0.4306214E-03  0.1446926E+04  0.7818609E-02  0.8920534E-01
       -2   -1    0    0    0  501  0.00000000000E+00  0.00000000000E+00  0.31953099678E+03  0.31953099679E+03  0.25500000920E-02 0.  1.
        2   -1    0    0  501    0  0.00000000000E+00  0.00000000000E+00 -0.16380219333E+04  0.16380219333E+04  0.25500000920E-02 0. -1.
    10030    2    1    2    0    0  0.00000000000E+00  0.00000000000E+00 -0.13184909365E+04  0.19575529300E+04  0.14469260950E+04 0.  0.
        3    1    3    3  502    0 -0.58454316738E+03 -0.36796776803E+03 -0.36811065789E+03  0.78268541541E+03  0.10100000352E+00 0. -1.
       -3    1    3    3    0  502  0.58454316738E+03  0.36796776803E+03 -0.95038027859E+03  0.11748675146E+04  0.10100000352E+00 0.  1.
</event>
<event>
 5   0  0.1661750E-03  0.1318513E+04  0.7818609E-02  0.9015012E-01
       -3   -1    0    0    0  501  0.00000000000E+00  0.00000000000E+00  0.30629738209E+03  0.30629739874E+03  0.10100000352E+00 0. -1.
        3   -1    0    0  501    0  0.00000000000E+00  0.00000000000E+00 -0.14189446134E+04  0.14189446170E+04  0.10100000352E+00 0.  1.
    10030    2    1    2    0    0  0.00000000000E+00  0.00000000000E+00 -0.11126472313E+04  0.17252420157E+04  0.13185128560E+04 0.  0.
        4    1    3    3  502    0  0.60662277105E+02  0.50742554638E+03 -0.11367717241E+02  0.51116673882E+03  0.12699999809E+01 0. -1.
       -4    1    3    3    0  502 -0.60662277105E+02 -0.50742554638E+03 -0.11012795141E+04  0.12140752769E+04  0.12699999809E+01 0.  1.
</event>
<event>
 5   0  0.2458456E-03  0.1283489E+04  0.7818609E-02  0.9042762E-01
       -1   -1    0    0    0  501  0.00000000000E+00  0.00000000000E+00  0.33468699289E+03  0.33468699293E+03  0.50400001928E-02 0.  1.
        1   -1    0    0  501    0  0.00000000000E+00  0.00000000000E+00 -0.12305114669E+04  0.12305114669E+04  0.50400001928E-02 0. -1.
    10030    2    1    2    0    0  0.00000000000E+00  0.00000000000E+00 -0.89582447402E+03  0.15651984598E+04  0.12834892794E+04 0.  0.
        5    1    3    3  502    0  0.35110428705E+03 -0.29117248161E+03  0.10255945365E+03  0.46754268892E+03  0.46999998093E+01 0.  1.
       -5    1    3    3    0  502 -0.35110428705E+03  0.29117248161E+03 -0.99838392767E+03  0.10976557709E+04  0.46999998093E+01 0. -1.
</event>
<event>
 5   0  0.4310889E-03  0.1364667E+04  0.7818609E-02  0.8979799E-01
        2   -1    0    0  501    0  0.00000000000E+00  0.00000000000E+00  0.14697230642E+04  0.14697230642E+04  0.25500000920E-02 0. -1.
       -2   -1    0    0    0  501  0.00000000000E+00  0.00000000000E+00 -0.31678007502E+03  0.31678007503E+03  0.25500000920E-02 0.  1.
    10030    2    1    2    0    0  0.00000000000E+00  0.00000000000E+00  0.11529429892E+04  0.17865031392E+04  0.13646669668E+04 0.  0.
        4    1    3    3  502    0  0.56072697076E+03 -0.31429645468E+03  0.27685798228E+03  0.69989210055E+03  0.12699999809E+01 0.  1.
       -4    1    3    3    0  502 -0.56072697076E+03  0.31429645468E+03  0.87608500688E+03  0.10866110387E+04  0.12699999809E+01 0. -1.
</event>
<event>
 5   0  0.4310889E-03  0.1107751E+04  0.7818609E-02  0.9197670E-01
        2   -1    0    0  501    0  0.00000000000E+00  0.00000000000E+00  0.21519625914E+03  0.21519625915E+03  0.25500000920E-02 0. -1.
       -2   -1    0    0    0  501  0.00000000000E+00  0.00000000000E+00 -0.14255744698E+04  0.14255744698E+04  0.25500000920E-02 0.  1.
    10030    2    1    2    0    0  0.00000000000E+00  0.00000000000E+00 -0.12103782107E+04  0.16407707290E+04  0.11077514036E+04 0.  0.
        4    1    3    3  502    0  0.29420164702E+03  0.22893187403E+03 -0.12119498062E+04  0.12679859454E+04  0.12699999809E+01 0.  1.
       -4    1    3    3    0  502 -0.29420164702E+03 -0.22893187403E+03  0.15715955132E+01  0.37278478358E+03  0.12699999809E+01 0. -1.
</event>
<event>
 5   0  0.4263540E-03  0.1236541E+04  0.7818609E-02  0.9081460E-01
        2   -1    0    0  501    0  0.00000000000E+00  0.00000000000E+00  0.23527387303E+03  0.23527387304E+03  0.25500000920E-02 0.  1.
       -2   -1    0    0    0  501  0.00000000000E+00  0.00000000000E+00 -0.16247377078E+04  0.16247377078E+04  0.25500000920E-02 0. -1.
    10030    2    1    2    0    0  0.00000000000E+00  0.00000000000E+00 -0.13894638347E+04  0.18600115808E+04  0.12365408739E+04 0.  0.
        2    1    3    3  502    0  0.27741587745E+03 -0.10399253812E+02 -0.15257161094E+04  0.15507667007E+04  0.25500000920E-02 0. -1.
       -2    1    3    3    0  502 -0.27741587745E+03  0.10399253812E+02  0.13625227462E+03  0.30924488013E+03  0.25500000920E-02 0.  1.
</event>
<event>
 5   0  0.2370801E-03  0.1253887E+04  0.7818609E-02  0.9066954E-01
       -1   -1    0    0    0  501  0.00000000000E+00  0.00000000000E+00  0.14155771955E+04  0.14155771955E+04  0.50400001928E-02 0.  1.
        1   -1    0    0  501    0  0.00000000000E+00  0.00000000000E+00 -0.27766646097E+03  0.27766646102E+03  0.50400001928E-02 0. -1.
    10030    2    1    2    0    0  0.00000000000E+00  0.00000000000E+00  0.11379107345E+04  0.16932436565E+04  0.12538872519E+04 0.  0.
        3    1    3    3  502    0  0.53528829096E+03 -0.41378529464E+02  0.13176796371E+03  0.55281872580E+03  0.10100000352E+00 0. -1.
       -3    1    3    3    0  502 -0.53528829096E+03  0.41378529464E+02  0.10061427708E+04  0.11404249307E+04  0.10100000352E+00 0.  1.
</event>
<event>
 5   0  0.4306214E-03  0.1101046E+04  0.7818609E-02  0.9204173E-01
       -2   -1    0    0    0  501  0.00000000000E+00  0.00000000000E+00  0.20978195571E+03  0.20978195573E+03  0.25500000920E-02 0. -1.
        2   -1    0    0  501    0  0.00000000000E+00  0.00000000000E+00 -0.14447180850E+04  0.14447180850E+04  0.25500000920E-02 0.  1.
    10030    2    1    2    0    0  0.00000000000E+00  0.00000000000E+00 -0.12349361292E+04  0.16545000407E+04  0.11010463847E+04 0.  0.
        3    1    3    3  502    0  0.37398090121E+03 -0.36541297209E+03 -0.35855891467E+03  0.63399752375E+03  0.10100000352E+00 0. -1.
       -3    1    3    3    0  502 -0.37398090121E+03  0.36541297209E+03 -0.87637721458E+03  0.10205025169E+04  0.10100000352E+00 0.  1.
</event>
<event>
 5   0  0.2458456E-03  0.1292274E+04  0.7818609E-02  0.9035714E-01
        1   -1    0    0  501    0  0.00000000000E+00  0.00000000000E+00  0.10221612939E+04  0.10221612939E+04  0.50400001928E-02 0.  1.
       -1   -1    0    0    0  501  0.00000000000E+00  0.00000000000E+00 -0.40844170259E+03  0.40844170262E+03  0.50400001928E-02 0. -1.
    10030    2    1    2    0    0  0.00000000000E+00  0.00000000000E+00  0.61371959127E+03  0.14306029965E+04  0.12922744279E+04 0.  0.
        5    1    3    3  502    0  0.18507827976E+03 -0.60176450370E+03  0.14606504496E+03  0.64632157237E+03  0.46999998093E+01 0. -1.
       -5    1    3    3    0  502 -0.18507827976E+03  0.60176450370E+03  0.46765454632E+03  0.78428142413E+03  0.46999998093E+01 0.  1.
</event>
<event>
 5   0  0.2370801E-03  0.1327328E+04  0.7818609E-02  0.9008170E-01
        1   -1    0    0  501    0  0.00000000000E+00  0.00000000000E+00  0.35328402855E+03  0.35328402859E+03  0.50400001928E-02 0.  1.
       -1   -1    0    0    0  501  0.00000000000E+00  0.00000000000E+00 -0.12467311859E+04  0.12467311860E+04  0.50400001928E-02 0. -1.
    10030    2    1    2    0    0  0.00000000000E+00  0.00000000000E+00 -0.89344715740E+03  0.16000152145E+04  0.13273284687E+04 0.  0.
        3    1    3    3  502    0 -0.28173295044E+03  0.44893857598E+03  0.34745186598E+02  0.53115585148E+03  0.10100000352E+00 0.  1.
       -3    1    3    3    0  502  0.28173295044E+03 -0.44893857598E+03 -0.92819234399E+03  0.10688593631E+04  0.10100000352E+00 0. -1.
</event>
<event>
 5   0  0.2458456E-03  0.1242020E+04  0.7818609E-02  0.9076852E-01
       -1   -1    0    0    0  501  0.00000000000E+00  0.00000000000E+00  0.45960910833E+03  0.45960910835E+03  0.50400001928E-02 0.  1.
        1   -1    0    0  501    0  0.00000000000E+00  0.00000000000E+00 -0.83908953966E+03  0.83908953968E+03  0.50400001928E-02 0. -1.
    10030    2    1    2    0    0  0.00000000000E+00  0.00000000000E+00 -0.37948043134E+03  0.12986986480E+04  0.12420196378E+04 0.  0.
        5    1    3    3  502    0 -0.44876625208E+01 -0.27717516837E+03 -0.77078277962E+03  0.81913026829E+03  0.46999998093E+01 0. -1.
       -5    1    3    3    0  502  0.44876625208E+01  0.27717516837E+03  0.39130234828E+03  0.47956837974E+03  0.46999998093E+01 0.  1.
</event>
<event>
 5   0  0.4310889E-03  0.1290527E+04  0.7818609E-02  0.9037111E-01
        2   -1    0    0  501    0  0.00000000000E+00  0.00000000000E+00  0.11361989490E+04  0.11361989490E+04  0.25500000920E-02 0. -1.
       -2   -1    0    0    0  501  0.00000000000E+00  0.00000000000E+00 -0.36645451139E+03  0.36645451140E+03  0.25500000920E-02 0.  1.
    10030    2    1    2    0    0  0.00000000000E+00  0.00000000000E+00  0.76974443757E+03  0.15026534604E+04  0.12905273816E+04 0.  0.
        4    1    3    3  502    0  0.25962802078E+02 -0.24543071192E+03  0.10790694825E+04  0.11069339919E+04  0.12699999809E+01 0. -1.
       -4    1    3    3    0  502 -0.25962802078E+02  0.24543071192E+03 -0.30932504489E+03  0.39571946850E+03  0.12699999809E+01 0.  1.
</event>
<event>
 5   0  0.2511542E-03  0.1375416E+04  0.7818609E-02  0.8971809E-01
        1   -1    0    0  501    0  0.00000000000E+00  0.00000000000E+00  0.10250646187E+04  0.10250646187E+04  0.50400001928E-02 0.  1.
       -1   -1    0    0    0  501  0.00000000000E+00  0.00000000000E+00 -0.46137789250E+03  0.46137789253E+03  0.50400001928E-02 0. -1.
    10030    2    1    2    0    0  0.00000000000E+00  0.00000000000E+00  0.56368672620E+03  0.14864425112E+04  0.13754157967E+04 0.  0.
        4    1    3    3  502    0  0.37549663334E+03 -0.56461040588E+03  0.40581077676E+03  0.79023201119E+03  0.12699999809E+01 0.  1.
       -4    1    3    3    0  502 -0.37549663334E+03  0.56461040588E+03  0.15787594944E+03  0.69621050005E+03  0.12699999809E+01 0. -1.
</event>
<event>
 5   0  0.2370801E-03  0.1330551E+04  0.7818609E-02  0.9005683E-01
       -1   -1    0    0    0  501  0.00000000000E+00  0.00000000000E+00  0.34963298958E+03  0.34963298961E+03  0.50400001928E-02 0. -1.
        1   -1    0    0  501    0  0.00000000000E+00  0.00000000000E+00 -0.12658736640E+04  0.12658736640E+04  0.50400001928E-02 0.  1.
    10030    2    1    2    0    0  0.00000000000E+00  0.00000000000E+00 -0.91624067443E+03  0.16155066536E+04  0.13305505531E+04 0.  0.
        3    1    3    3  502    0 -0.30375746048E+03  0.54287968431E+03 -0.74442690713E+03  0.97013317472E+03  0.10100000352E+00 0.  1.
       -3    1    3    3    0  502  0.30375746048E+03 -0.54287968431E+03 -0.17181376730E+03  0.64537347891E+03  0.10100000352E+00 0. -1.
</event>
<event>
 5   0  0.4263540E-03  0.1296210E+04  0.7818609E-02  0.9032576E-01
       -2   -1    0    0    0  501  0.00000000000E+00  0.00000000000E+00  0.52875449936E+03  0.52875449937E+03  0.25500000920E-02 0.  1.
        2   -1    0    0  501    0  0.00000000000E+00  0.00000000000E+00 -0.79439506932E+03  0.79439506932E+03  0.25500000920E-02 0. -1.
    10030    2    1    2    0    0  0.00000000000E+00  0.00000000000E+00 -0.26564056996E+03  0.13231495687E+04  0.12962098089E+04 0.  0.
        2    1    3    3  502    0  0.55090073769E+03 -0.17140282936E+03 -0.43420116755E+03  0.72208116345E+03  0.25500000920E-02 0.  1.
       -2    1    3    3    0  502 -0.55090073769E+03  0.17140282936E+03  0.16856059759E+03  0.60106840523E+03  0.25500000920E-02 0. -1.
</event>
<event>
 5   0  0.2370801E-03  0.1306676E+04  0.7818609E-02  0.9024288E-01
       -1   -1    0    0    0  501  0.00000000000E+00  0.00000000000E+00  0.22566457054E+03  0.22566457060E+03  0.50400001928E-02 0. -1.
        1   -1    0    0  501    0  0.00000000000E+00  0.00000000000E+00 -0.18915253146E+04  0.18915253146E+04  0.50400001928E-02 0.  1.
    10030    2    1    2    0    0  0.00000000000E+00  0.00000000000E+00 -0.16658607441E+04  0.21171898852E+04  0.13066755494E+04 0.  0.
        3    1    3    3  502    0 -0.53173703243E+03  0.19251459012E+03 -0.30281132262E+03  0.64148331730E+03  0.10100000352E+00 0. -1.
       -3    1    3    3    0  502  0.53173703243E+03 -0.19251459012E+03 -0.13630494214E+04  0.14757065679E+04  0.10100000352E+00 0.  1.
</event>
<event>
 5   0  0.4310889E-03  0.1334938E+04  0.7818609E-02  0.9002309E-01
       -2   -1    0    0    0  501  0.00000000000E+00  0.00000000000E+00  0.48333053577E+03  0.48333053578E+03  0.25500000920E-02 0. -1.
        2   -1    0    0  501    0  0.00000000000E+00  0.00000000000E+00 -0.92175961244E+03  0.92175961245E+03  0.25500000920E-02 0.  1.
    10030    2    1    2    0    0  0.00000000000E+00  0.00000000000E+00 -0.43842907667E+03  0.14050901482E+04  0.13349375526E+04 0.  0.
        4    1    3    3  502    0  0.43642977790E+03 -0.10590715676E+03  0.30052165161E+03  0.54037223548E+03  0.12699999809E+01 0. -1.
       -4    1    3    3    0  502 -0.43642977790E+03  0.10590715676E+03 -0.73895072828E+03  0.86471791274E+03  0.12699999809E+01 0.  1.
</event>
<event>
 5   0  0.4453011E-03  0.1345544E+04  0.7818609E-02  0.8994208E-01
       -2   -1    0    0    0  501  0.00000000000E+00  0.00000000000E+00  0.80578577013E+03  0.80578577013E+03  0.25500000920E-02 0. -1.
        2   -1    0    0  501    0  0.00000000000E+00  0.00000000000E+00 -0.56171554750E+03  0.56171554750E+03  0.25500000920E-02 0.  1.
    10030    2    1    2    0    0  0.00000000000E+00  0.00000000000E+00  0.24407022263E+03  0.13675013176E+04  0.13455443434E+04 0.  0.
        1    1    3    3  502    0 -0.39772922783E+02 -0.59761872584E+03  0.43345395307E+03  0.73933237202E+03  0.50400001928E-02 0. -1.
       -1    1    3    3    0  502  0.39772922783E+02  0.59761872584E+03 -0.18938373044E+03  0.62816894562E+03  0.50400001928E-02 0.  1.
</event>
<event>
 5   0  0.4453011E-03  0.1297438E+04  0.7818609E-02  0.9031600E-01
        2   -1    0    0  501    0  0.00000000000E+00  0.00000000000E+00  0.22557933522E+04  0.22557933522E+04  0.25500000920E-02 0.  1.
       -2   -1    0    0    0  501  0.00000000000E+00  0.00000000000E+00 -0.18655794399E+03  0.18655794401E+03  0.25500000920E-02 0. -1.
    10030    2    1    2    0    0  0.00000000000E+00  0.00000000000E+00  0.20692354082E+04  0.24423512962E+04  0.12974377363E+04 0.  0.
        1    1    3    3  502    0  0.26503616124E+03  0.54228674145E+03  0.14821367405E+04  0.16003275897E+04  0.50400001928E-02 0.  1.
       -1    1    3    3    0  502 -0.26503616124E+03 -0.54228674145E+03  0.58709866773E+03  0.84202370655E+03  0.50400001928E-02 0. -1.
</event>
<event>
 5   0  0.4306214E-03  0.1260537E+04  0.7818609E-02  0.9061459E-01
       -2   -1    0    0    0  501  0.00000000000E+00  0.00000000000E+00  0.38597779298E+03  0.38597779299E+03  0.25500000920E-02 0. -1.
        2   -1    0    0  501    0  0.00000000000E+00  0.00000000000E+00 -0.10291736454E+04  0.10291736454E+04  0.25500000920E-02 0.  1.
    10030    2    1    2    0    0  0.00000000000E+00  0.00000000000E+00 -0.64319585246E+03  0.14151514384E+04  0.12605366671E+04 0.  0.
        3    1    3    3  502    0 -0.52453407092E+03 -0.21867375719E+03 -0.62757927391E+03  0.84664630093E+03  0.10100000352E+00 0.  1.
       -3    1    3    3    0  502  0.52453407092E+03  0.21867375719E+03 -0.15616578555E+02  0.56850513750E+03  0.10100000352E+00 0. -1.
</event>
<event>
 5   0  0.4388937E-03  0.1289897E+04  0.7818609E-02  0.9037616E-01
       -2   -1    0    0    0  501  0.00000000000E+00  0.00000000000E+00  0.40166135780E+03  0.40166135781E+03  0.25500000920E-02 0.  1.
        2   -1    0    0  501    0  0.00000000000E+00  0.00000000000E+00 -0.10355950273E+04  0.10355950273E+04  0.25500000920E-02 0. -1.
    10030    2    1    2    0    0  0.00000000000E+00  0.00000000000E+00 -0.63393366952E+03  0.14372563851E+04  0.12898969026E+04 0.  0.
        5    1    3    3  502    0  0.43198472995E+03 -0.37712471808E+03 -0.64581444779E+03  0.86367369468E+03  0.46999998093E+01 0. -1.
       -5    1    3    3    0  502 -0.43198472995E+03  0.37712471808E+03  0.11880778274E+02  0.57358269046E+03  0.46999998093E+01 0.  1.
</event>
<event>
 5   0  0.2370801E-03  0.1464818E+04  0.7818609E-02  0.8908191E-01
        1   -1    0    0  501    0  0.00000000000E+00  0.00000000000E+00  0.81782518676E+03  0.81782518677E+03  0.50400001928E-02 0. -1.
       -1   -1    0    0    0  501  0.00000000000E+00  0.00000000000E+00 -0.65591408586E+03  0.65591408588E+03  0.50400001928E-02 0.  1.
    10030    2    1    2    0    0  0.00000000000E+00  0.00000000000E+00  0.16191110089E+03  0.14737392727E+04  0.14648181591E+04 0.  0.
        3    1    3    3  502    0  0.27865965707E+03  0.63621341448E+03 -0.15284808426E+03  0.71118300058E+03  0.10100000352E+00 0.  1.
       -3    1    3    3    0  502 -0.27865965707E+03 -0.63621341448E+03  0.31475918516E+03  0.76255627208E+03  0.10100000352E+00 0. -1.
</event>
<event>
 5   0  0.2511542E-03  0.1310308E+04  0.7818609E-02  0.9021431E-01
       -1   -1    0    0    0  501  0.00000000000E+00  0.00000000000E+00  0.50670870526E+03  0.50670870529E+03  0.50400001928E-02 0. -1.
        1   -1    0    0  501    0  0.00000000000E+00  0.00000000000E+00 -0.84708723002E+03  0.84708723004E+03  0.50400001928E-02 0.  1.
    10030    2    1    2    0    0  0.00000000000E+00  0.00000000000E+00 -0.34037852476E+03  0.13537959353E+04  0.13103075572E+04 0.  0.
        4    1    3    3  502    0  0.10109734359E+03  0.41050402871E+03  0.34691212470E+03  0.54688560561E+03  0.12699999809E+01 0. -1.
       -4    1    3    3    0  502 -0.10109734359E+03 -0.41050402871E+03 -0.68729064946E+03  0.80691032971E+03  0.12699999809E+01 0.  1.
</event>
<event>
 5   0  0.4310889E-03  0.1168655E+04  0.7818609E-02  0.9140744E-01
        2   -1    0    0  501    0  0.00000000000E+00  0.00000000000E+00  0.14944444591E+04  0.14944444591E+04  0.25500000920E-02 0.  1.
       -2   -1    0    0    0  501  0.00000000000E+00  0.00000000000E+00 -0.22847190808E+03  0.22847190810E+03  0.25500000920E-02 0. -1.
    10030    2    1    2    0    0  0.00000000000E+00  0.00000000000E+00  0.12659725510E+04  0.17229163672E+04  0.11686549142E+04 0.  0.
        4    1    3    3  502    0  0.22645539111E+03 -0.44985069680E+03  0.19617018510E+03  0.54049241252E+03  0.12699999809E+01 0. -1.
       -4    1    3    3    0  502 -0.22645539111E+03  0.44985069680E+03  0.10698023659E+04  0.11824239547E+04  0.12699999809E+01 0.  1.
</event>
<event>
 5   0  0.2370801E-03  0.1209511E+04  0.7818609E-02  0.9104572E-01
        1   -1    0    0  501    0  0.00000000000E+00  0.00000000000E+00  0.41836819230E+03  0.41836819233E+03  0.50400001928E-02 0.  1.
       -1   -1    0    0    0  501  0.00000000000E+00  0.00000000000E+00 -0.87417995094E+03  0.87417995095E+03  0.50400001928E-02 0. -1.
    10030    2    1    2    0    0  0.00000000000E+00  0.00000000000E+00 -0.45581175864E+03  0.12925481433E+04  0.12095107868E+04 0.  0.
        3    1    3    3  502    0  0.28902746746E+03  0.43311585206E+03  0.10078610200E+03  0.53036220341E+03  0.10100000352E+00 0.  1.
       -3    1    3    3    0  502 -0.28902746746E+03 -0.43311585206E+03 -0.55659786064E+03  0.76218593986E+03  0.10100000352E+00 0. -1.
</event>
<event>
 5   0  0.2462055E-03  0.1286295E+04  0.7818609E-02  0.9040504E-01
       -1   -1    0    0    0  501  0.00000000000E+00  0.00000000000E+00  0.48438805789E+03  0.48438805792E+03  0.50400001928E-02 0. -1.
        1   -1    0    0  501    0  0.00000000000E+00  0.00000000000E+00 -0.85394112108E+03  0.85394112109E+03  0.50400001928E-02 0.  1.
    10030    2    1    2    0    0  0.00000000000E+00  0.00000000000E+00 -0.36955306318E+03  0.13383291790E+04  0.12862952713E+04 0.  0.
        2    1    3    3  502    0 -0.28060903253E+03  0.34517515219E+02  0.41626471553E+03  0.50319896800E+03  0.25500000920E-02 0. -1.
       -2    1    3    3    0  502  0.28060903253E+03 -0.34517515219E+02 -0.78581777871E+03  0.83513021101E+03  0.25500000920E-02 0.  1.
</event>
<event>
 5   0  0.2370801E-03  0.1221349E+04  0.7818609E-02  0.9094373E-01
       -1   -1    0    0    0  501  0.00000000000E+00  0.00000000000E+00  0.40035387404E+03  0.40035387407E+03  0.50400001928E-02 0. -1.
        1   -1    0    0  501    0  0.00000000000E+00  0.00000000000E+00 -0.93148381052E+03  0.93148381053E+03  0.50400001928E-02 0.  1.
    10030    2    1    2    0    0  0.00000000000E+00  0.00000000000E+00 -0.53112993648E+03  0.13318376846E+04  0.12213486843E+04 0.  0.
        3    1    3    3  502    0 -0.29671777875E+02 -0.52434718705E+03  0.74238186248E+02  0.53040711295E+03  0.10100000352E+00 0. -1.
       -3    1    3    3    0  502  0.29671777875E+02  0.52434718705E+03 -0.60536812273E+03  0.80143057165E+03  0.10100000352E+00 0.  1.
</event>
<event>
 5   0  0.2370801E-03  0.1293942E+04  0.7818609E-02  0.9034383E-01
        1   -1    0    0  501    0  0.00000000000E+00  0.00000000000E+00  0.79748956446E+03  0.79748956448E+03  0.50400001928E-02 0.  1.
       -1   -1    0    0    0  501  0.00000000000E+00  0.00000000000E+00 -0.52486147944E+03  0.52486147946E+03  0.50400001928E-02 0. -1.
    10030    2    1    2    0    0  0.00000000000E+00  0.00000000000E+00  0.27262808502E+03  0.13223510439E+04  0.12939421203E+04 0.  0.
        3    1    3    3  502    0  0.33021750989E+02  0.40851523089E+03  0.64790085041E+03  0.76664897579E+03  0.10100000352E+00 0.  1.
       -3    1    3    3    0  502 -0.33021750989E+02 -0.40851523089E+03 -0.37527276539E+03  0.55570206816E+03  0.10100000352E+00 0. -1.
</event>
<event>
 5   0  0.2458456E-03  0.1210033E+04  0.7818609E-02  0.9104120E-01
       -1   -1    0    0    0  501  0.00000000000E+00  0.00000000000E+00  0.51070346061E+03  0.51070346064E+03  0.50400001928E-02 0.  1.
        1   -1    0    0  501    0  0.00000000000E+00  0.00000000000E+00 -0.71674617678E+03  0.71674617679E+03  0.50400001928E-02 0. -1.
    10030    2    1    2    0    0  0.00000000000E+00  0.00000000000E+00 -0.20604271616E+03  0.12274496374E+04  0.12100326490E+04 0.  0.
        5    1    3    3  502    0  0.38236630856E+02  0.18257639586E+02 -0.71522065939E+03  0.71649009969E+03  0.46999998093E+01 0. -1.
       -5    1    3    3    0  502 -0.38236630856E+02 -0.18257639586E+02  0.50917794323E+03  0.51095953774E+03  0.46999998093E+01 0.  1.
</event>
<event>
 5   0  0.2462055E-03  0.1320334E+04  0.7818609E-02  0.9013594E-01
       -1   -1    0    0    0  501  0.00000000000E+00  0.00000000000E+00  0.25882292018E+03  0.25882292023E+03  0.50400001928E-02 0. -1.
        1   -1    0    0  501    0  0.00000000000E+00  0.00000000000E+00 -0.16838553323E+04  0.16838553323E+04  0.50400001928E-02 0.  1.
    10030    2    1    2    0    0  0.00000000000E+00  0.00000000000E+00 -0.14250324121E+04  0.19426782525E+04  0.13203338280E+04 0.  0.
        2    1    3    3  502    0 -0.53574248066E+03  0.36251823626E+03 -0.51853798486E+03  0.82904832124E+03  0.25500000920E-02 0. -1.
       -2    1    3    3    0  502  0.53574248066E+03 -0.36251823626E+03 -0.90649442725E+03  0.11136299313E+04  0.25500000920E-02 0.  1.
</event>
<event>
 5   0  0.1661750E-03  0.1289703E+04  0.7818609E-02  0.9037771E-01
        3   -1    0    0  501    0  0.00000000000E+00  0.00000000000E+00  0.26721739598E+03  0.26721741506E+03  0.10100000352E+00 0. -1.
       -3   -1    0    0    0  501  0.00000000000E+00  0.00000000000E+00 -0.15561606200E+04  0.15561606232E+04  0.10100000352E+00 0.  1.
    10030    2    1    2    0    0  0.00000000000E+00  0.00000000000E+00 -0.12889432240E+04  0.18233780383E+04  0.12897026153E+04 0.  0.
        4    1    3    3  502    0  0.50274611055E+03  0.35536857622E+03 -0.37329099766E+03  0.71999184611E+03  0.12699999809E+01 0.  1.
       -4    1    3    3    0  502 -0.50274611055E+03 -0.35536857622E+03 -0.91565222633E+03  0.11033861922E+04  0.12699999809E+01 0. -1.
</event>
<event>
 5   0  0.1661750E-03  0.1315977E+04  0.7818609E-02  0.9016991E-01
        4   -1    0    0  501    0  0.00000000000E+00  0.00000000000E+00  0.12743582558E+04  0.12743588886E+04  0.12699999809E+01 0.  1.
       -4   -1    0    0    0  501  0.00000000000E+00  0.00000000000E+00 -0.33973671822E+03  0.33973909196E+03  0.12699999809E+01 0. -1.
    10030    2    1    2    0    0  0.00000000000E+00  0.00000000000E+00  0.93462153755E+03  0.16140979806E+04  0.13159767750E+04 0.  0.
        5    1    3    3  502    0  0.49487274421E+03  0.18927061285E+03  0.94582519012E+03  0.10841262741E+04  0.46999998093E+01 0.  1.
       -5    1    3    3    0  502 -0.49487274421E+03 -0.18927061285E+03 -0.11203652568E+02  0.52997170649E+03  0.46999998093E+01 0. -1.
</event>
<event>
 5   0  0.4388937E-03  0.1214464E+04  0.7818609E-02  0.9100290E-01
        2   -1    0    0  501    0  0.00000000000E+00  0.00000000000E+00  0.95787421113E+03  0.95787421114E+03  0.25500000920E-02 0. -1.
       -2   -1    0    0    0  501  0.00000000000E+00  0.00000000000E+00 -0.38494670544E+03  0.38494670545E+03  0.25500000920E-02 0.  1.
    10030    2    1    2    0    0  0.00000000000E+00  0.00000000000E+00  0.57292750569E+03  0.13428209166E+04  0.12144637036E+04 0.  0.
        5    1    3    3  502    0  0.39387638883E+03 -0.19202081065E+03  0.75124560933E+03  0.86971412369E+03  0.46999998093E+01 0. -1.
       -5    1    3    3    0  502 -0.39387638883E+03  0.19202081065E+03 -0.17831810364E+03  0.47310679290E+03  0.46999998093E+01 0.  1.
</event>
<event>
 5   0  0.2356769E-03  0.1356418E+04  0.7818609E-02  0.8985984E-01
       -1   -1    0    0    0  501  0.00000000000E+00  0.00000000000E+00  0.10784293411E+04  0.10784293411E+04  0.50400001928E-02 0.  1.
        1   -1    0    0  501    0  0.00000000000E+00  0.00000000000E+00 -0.42651630635E+03  0.42651630638E+03  0.50400001928E-02 0. -1.
    10030    2    1    2    0    0  0.00000000000E+00  0.00000000000E+00  0.65191303474E+03  0.15049456475E+04  0.13564183709E+04 0.  0.
        1    1    3    3  502    0  0.25350092757E+03 -0.60921855849E+03  0.49982514859E+03  0.82778931588E+03  0.50400001928E-02 0.  1.
       -1    1    3    3    0  502 -0.25350092757E+03  0.60921855849E+03  0.15208788616E+03  0.67715633160E+03  0.50400001928E-02 0. -1.
</event>
<event>
 5   0  0.4388937E-03  0.1351377E+04  0.7818609E-02  0.8989787E-01
       -2   -1    0    0    0  501  0.00000000000E+00  0.00000000000E+00  0.80387179893E+03  0.80387179894E+03  0.25500000920E-02 0.  1.
        2   -1    0    0  501    0  0.00000000000E+00  0.00000000000E+00 -0.56794484909E+03  0.56794484909E+03  0.25500000920E-02 0. -1.
    10030    2    1    2    0    0  0.00000000000E+00  0.00000000000E+00  0.23592694984E+03  0.13718166480E+04  0.13513768498E+04 0.  0.
        5    1    3    3  502    0  0.65875113001E+03  0.97131217404E+02  0.15766726760E+01  0.66589195864E+03  0.46999998093E+01 0.  1.
       -5    1    3    3    0  502 -0.65875113001E+03 -0.97131217404E+02  0.23435027717E+03  0.70592468939E+03  0.46999998093E+01 0. -1.
</event>
<event>
 5   0  0.2370801E-03  0.1294270E+04  0.7818609E-02  0.9034121E-01
       -1   -1    0    0    0  501  0.00000000000E+00  0.00000000000E+00  0.29364563193E+03  0.29364563197E+03  0.50400001928E-02 0. -1.
        1   -1    0    0  501    0  0.00000000000E+00  0.00000000000E+00 -0.14261543347E+04  0.14261543347E+04  0.50400001928E-02 0.  1.
    10030    2    1    2    0    0  0.00000000000E+00  0.00000000000E+00 -0.11325087027E+04  0.17197999667E+04  0.12942704368E+04 0.  0.
        3    1    3    3  502    0 -0.36479512917E+03  0.14237575944E+03 -0.12508500350E+04  0.13107143714E+04  0.10100000352E+00 0.  1.
       -3    1    3    3    0  502  0.36479512917E+03 -0.14237575944E+03  0.11834133224E+03  0.40908559527E+03  0.10100000352E+00 0. -1.
</event>
<event>
 5   0  0.4310889E-03  0.1734704E+04  0.7818609E-02  0.8741815E-01
        2   -1    0    0  501    0  0.00000000000E+00  0.00000000000E+00  0.12614798706E+04  0.12614798706E+04  0.25500000920E-02 0. -1.
       -2   -1    0    0    0  501  0.00000000000E+00  0.00000000000E+00 -0.59636242661E+03  0.59636242661E+03  0.25500000920E-02 0.  1.
    10030    2    1    2    0    0  0.00000000000E+00  0.00000000000E+00  0.66511744403E+03  0.18578422973E+04  0.17347036597E+04 0.  0.
        4    1    3    3  502    0  0.84619358179E+03 -0.13805791068E+03  0.47299271892E+03  0.97919726798E+03  0.12699999809E+01 0.  1.
       -4    1    3    3    0  502 -0.84619358179E+03  0.13805791068E+03  0.19212472511E+03  0.87864502927E+03  0.12699999809E+01 0. -1.
</event>
<event>
 5   0  0.2511542E-03  0.1276634E+04  0.7818609E-02  0.9048303E-01
        1   -1    0    0  501    0  0.00000000000E+00  0.00000000000E+00  0.23255809718E+04  0.23255809718E+04  0.50400001928E-02 0. -1.
       -1   -1    0    0    0  501  0.00000000000E+00  0.00000000000E+00 -0.17520288776E+03  0.17520288783E+03  0.50400001928E-02 0.  1.
    10030    2    1    2    0    0  0.00000000000E+00  0.00000000000E+00  0.21503780840E+04  0.25007838596E+04  0.12766338583E+04 0.  0.
        4    1    3    3  502    0  0.19850394483E+03 -0.39603829191E+03  0.19754188912E+04  0.20244830337E+04  0.12699999809E+01 0. -1.
       -4    1    3    3    0  502 -0.19850394483E+03  0.39603829191E+03  0.17495919277E+03  0.47630082595E+03  0.12699999809E+01 0.  1.
</event>
<event>
 5   0  0.4310889E-03  0.1291425E+04  0.7818609E-02  0.9036393E-01
       -2   -1    0    0    0  501  0.00000000000E+00  0.00000000000E+00  0.58553615968E+03  0.58553615969E+03  0.25500000920E-02 0.  1.
        2   -1    0    0  501    0  0.00000000000E+00  0.00000000000E+00 -0.71207311047E+03  0.71207311048E+03  0.25500000920E-02 0. -1.
    10030    2    1    2    0    0  0.00000000000E+00  0.00000000000E+00 -0.12653695079E+03  0.12976092702E+04  0.12914248790E+04 0.  0.
        4    1    3    3  502    0 -0.28258852894E+03  0.49979370178E+03 -0.36013710167E+03  0.67775391251E+03  0.12699999809E+01 0. -1.
       -4    1    3    3    0  502  0.28258852894E+03 -0.49979370178E+03  0.23360015088E+03  0.61985535766E+03  0.12699999809E+01 0.  1.
</event>
<event>
 5   0  0.4263540E-03  0.1227206E+04  0.7818609E-02  0.9089371E-01
        2   -1    0    0  501    0  0.00000000000E+00  0.00000000000E+00  0.18333825489E+04  0.18333825489E+04  0.25500000920E-02 0.  1.
       -2   -1    0    0    0  501  0.00000000000E+00  0.00000000000E+00 -0.20536289248E+03  0.20536289249E+03  0.25500000920E-02 0. -1.
    10030    2    1    2    0    0  0.00000000000E+00  0.00000000000E+00  0.16280196564E+04  0.20387454414E+04  0.12272061657E+04 0.  0.
        2    1    3    3  502    0  0.21300697763E+02  0.58029483709E+03  0.11434019112E+04  0.12824054539E+04  0.25500000920E-02 0. -1.
       -2    1    3    3    0  502 -0.21300697763E+02 -0.58029483709E+03  0.48461774523E+03  0.75633998749E+03  0.25500000920E-02 0.  1.
</event>
<event>
 5   0  0.2356769E-03  0.1243387E+04  0.7818609E-02  0.9075705E-01
        1   -1    0    0  501    0  0.00000000000E+00  0.00000000000E+00  0.46349125800E+03  0.46349125803E+03  0.50400001928E-02 0. -1.
       -1   -1    0    0    0  501  0.00000000000E+00  0.00000000000E+00 -0.83389506449E+03  0.83389506450E+03  0.50400001928E-02 0.  1.
    10030    2    1    2    0    0  0.00000000000E+00  0.00000000000E+00 -0.37040380649E+03  0.12973863225E+04  0.12433874256E+04 0.  0.
        1    1    3    3  502    0 -0.53247697803E+03 -0.10575948894E+03 -0.50132170931E+03  0.73894536868E+03  0.50400001928E-02 0.  1.
       -1    1    3    3    0  502  0.53247697803E+03  0.10575948894E+03  0.13091790282E+03  0.55844095385E+03  0.50400001928E-02 0. -1.
</event>
<event>
 5   0  0.1661750E-03  0.1298965E+04  0.7818609E-02  0.9030386E-01
        3   -1    0    0  501    0  0.00000000000E+00  0.00000000000E+00  0.12356278627E+04  0.12356278668E+04  0.10100000352E+00 0. -1.
       -3   -1    0    0    0  501  0.00000000000E+00  0.00000000000E+00 -0.34138719201E+03  0.34138720695E+03  0.10100000352E+00 0.  1.
    10030    2    1    2    0    0  0.00000000000E+00  0.00000000000E+00  0.89424067070E+03  0.15770150738E+04  0.12989650364E+04 0.  0.
        2    1    3    3  502    0 -0.10939347567E+03  0.63056365369E+03  0.31274858330E+03  0.71231252287E+03  0.25500000920E-02 0. -1.
       -2    1    3    3    0  502  0.10939347567E+03 -0.63056365369E+03  0.58149208740E+03  0.86470255093E+03  0.25500000920E-02 0.  1.
</event>
<event>
 5   0  0.2356769E-03  0.1290254E+04  0.7818609E-02  0.9037330E-01
        1   -1    0    0  501    0  0.00000000000E+00  0.00000000000E+00  0.12972466239E+04  0.12972466239E+04  0.50400001928E-02 0. -1.
       -1   -1    0    0    0  501  0.00000000000E+00  0.00000000000E+00 -0.32082451992E+03  0.32082451996E+03  0.50400001928E-02 0.  1.
    10030    2    1    2    0    0  0.00000000000E+00  0.00000000000E+00  0.97642210394E+03  0.16180711438E+04  0.12902535028E+04 0.  0.
        1    1    3    3  502    0  0.84389410459E+02  0.23695655654E+03  0.12332171112E+04  0.12586081303E+04  0.50400001928E-02 0. -1.
       -1    1    3    3    0  502 -0.84389410459E+02 -0.23695655654E+03 -0.25679500729E+03  0.35946301350E+03  0.50400001928E-02 0.  1.
</event>
<event>
 5   0  0.4388937E-03  0.1268943E+04  0.7818609E-02  0.9054563E-01
       -2   -1    0    0    0  501  0.00000000000E+00  0.00000000000E+00  0.44526924553E+03  0.44526924554E+03  0.25500000920E-02 0.  1.
        2   -1    0    0  501    0  0.00000000000E+00  0.00000000000E+00 -0.90406829227E+03  0.90406829228E+03  0.25500000920E-02 0. -1.
    10030    2    1    2    0    0  0.00000000000E+00  0.00000000000E+00 -0.45879904675E+03  0.13493375378E+04  0.12689425620E+04 0.  0.
        5    1    3    3  502    0  0.56011717341E+03 -0.25980200714E+03 -0.38460353826E+03  0.72744092716E+03  0.46999998093E+01 0. -1.
       -5    1    3    3    0  502 -0.56011717341E+03  0.25980200714E+03 -0.74195508490E+02  0.62189661066E+03  0.46999998093E+01 0.  1.
</event>
<event>
 5   0  0.4306214E-03  0.1291668E+04  0.7818609E-02  0.9036199E-01
        2   -1    0    0  501    0  0.00000000000E+00  0.00000000000E+00  0.11368295797E+04  0.11368295797E+04  0.25500000920E-02 0.  1.
       -2   -1    0    0    0  501  0.00000000000E+00  0.00000000000E+00 -0.36689908027E+03  0.36689908028E+03  0.25500000920E-02 0. -1.
    10030    2    1    2    0    0  0.00000000000E+00  0.00000000000E+00  0.76993049940E+03  0.15037286600E+04  0.12916682658E+04 0.  0.
        3    1    3    3  502    0 -0.43612474719E+03  0.40603070884E+03  0.67492674441E+03  0.90032874671E+03  0.10100000352E+00 0.  1.
       -3    1    3    3    0  502  0.43612474719E+03 -0.40603070884E+03  0.95003754995E+02  0.60339991324E+03  0.10100000352E+00 0. -1.
</event>
<event>
 5   0  0.4388937E-03  0.1283157E+04  0.7818609E-02  0.9043029E-01
       -2   -1    0    0    0  501  0.00000000000E+00  0.00000000000E+00  0.59121663286E+03  0.59121663287E+03  0.25500000920E-02 0.  1.
        2   -1    0    0  501    0  0.00000000000E+00  0.00000000000E+00 -0.69623066236E+03  0.69623066236E+03  0.25500000920E-02 0. -1.
    10030    2    1    2    0    0  0.00000000000E+00  0.00000000000E+00 -0.10501402949E+03  0.12874472952E+04  0.12831572747E+04 0.  0.
        5    1    3    3  502    0  0.63859381896E+03  0.21737947897E+02 -0.11037526139E+03  0.64844382357E+03  0.46999998093E+01 0.  1.
       -5    1    3    3    0  502 -0.63859381896E+03 -0.21737947897E+02  0.53612318958E+01  0.63900347167E+03  0.46999998093E+01 0. -1.
</event>
<event>
 5   0  0.2462055E-03  0.1459150E+04  0.7818609E-02  0.8912081E-01
        1   -1    0    0  501    0  0.00000000000E+00  0.00000000000E+00  0.20524819627E+04  0.20524819627E+04  0.50400001928E-02 0. -1.
       -1   -1    0    0    0  501  0.00000000000E+00  0.00000000000E+00 -0.25933467856E+03  0.25933467861E+03  0.50400001928E-02 0.  1.
    10030    2    1    2    0    0  0.00000000000E+00  0.00000000000E+00  0.17931472841E+04  0.23118166413E+04  0.14591500952E+04 0.  0.
        2    1    3    3  502    0 -0.16609369485E+03  0.84022245210E+02 -0.22108185640E+03  0.28900526015E+03  0.25500000920E-02 0.  1.
       -2    1    3    3    0  502  0.16609369485E+03 -0.84022245210E+02  0.20142291405E+04  0.20228113811E+04  0.25500000920E-02 0. -1.
</event>
<event>
 5   0  0.4310889E-03  0.1240173E+04  0.7818609E-02  0.9078402E-01
       -2   -1    0    0    0  501  0.00000000000E+00  0.00000000000E+00  0.27392730476E+03  0.27392730478E+03  0.25500000920E-02 0.  1.
        2   -1    0    0  501    0  0.00000000000E+00  0.00000000000E+00 -0.14036837799E+04  0.14036837799E+04  0.25500000920E-02 0. -1.
    10030    2    1    2    0    0  0.00000000000E+00  0.00000000000E+00 -0.11297564751E+04  0.16776110847E+04  0.12401730760E+04 0.  0.
        4    1    3    3  502    0  0.43134263223E+03  0.41320195830E+03 -0.79007062900E+03  0.99045723605E+03  0.12699999809E+01 0. -1.
       -4    1    3    3    0  502 -0.43134263223E+03 -0.41320195830E+03 -0.33968584613E+03  0.68715384863E+03  0.12699999809E+01 0.  1.
</event>
<event>
 5   0  0.2356769E-03  0.1339225E+04  0.7818609E-02  0.8999025E-01
       -1   -1    0    0    0  501  0.00000000000E+00  0.00000000000E+00  0.78944646384E+03  0.78944646386E+03  0.50400001928E-02 0.  1.
        1   -1    0    0  501    0  0.00000000000E+00  0.00000000000E+00 -0.56796860300E+03  0.56796860302E+03  0.50400001928E-02 0. -1.
    10030    2    1    2    0    0  0.00000000000E+00  0.00000000000E+00  0.22147786084E+03  0.13574150669E+04  0.13392248583E+04 0.  0.
        1    1    3    3  502    0 -0.25869172436E+03  0.10128040965E+03 -0.50679969595E+03  0.57794901286E+03  0.50400001928E-02 0. -1.
       -1    1    3    3    0  502  0.25869172436E+03 -0.10128040965E+03  0.72827755679E+03  0.77946605403E+03  0.50400001928E-02 0.  1.
</event>
<event>
 5   0  0.4306214E-03  0.1359901E+04  0.7818609E-02  0.8983367E-01
       -2   -1    0    0    0  501  0.00000000000E+00  0.00000000000E+00  0.17795483466E+03  0.17795483468E+03  0.25500000920E-02 0.  1.
        2   -1    0    0  501    0  0.00000000000E+00  0.00000000000E+00 -0.25980323369E+04  0.25980323369E+04  0.25500000920E-02 0. -1.
    10030    2    1    2    0    0  0.00000000000E+00  0.00000000000E+00 -0.24200775022E+04  0.27759871716E+04  0.13599006066E+04 0.  0.
        3    1    3    3  502    0 -0.28819866448E+02 -0.22412807310E+02 -0.25960300632E+04  0.25962867749E+04  0.10100000352E+00 0. -1.
       -3    1    3    3    0  502  0.28819866448E+02  0.22412807310E+02  0.17595256096E+03  0.17970039661E+03  0.10100000352E+00 0.  1.
</event>
<event>
 5   0  0.2356769E-03  0.1318437E+04  0.7818609E-02  0.9015071E-01
       -1   -1    0    0    0  501  0.00000000000E+00  0.00000000000E+00  0.16993352859E+04  0.16993352859E+04  0.50400001928E-02 0. -1.
        1   -1    0    0  501    0  0.00000000000E+00  0.00000000000E+00 -0.25572870934E+03  0.25572870939E+03  0.50400001928E-02 0.  1.
    10030    2    1    2    0    0  0.00000000000E+00  0.00000000000E+00  0.14436065766E+04  0.19550639953E+04  0.13184366795E+04 0.  0.
        1    1    3    3  502    0  0.43583762382E+03 -0.16562488595E+01 -0.11595625466E+02  0.43599499545E+03  0.50400001928E-02 0.  1.
       -1    1    3    3    0  502 -0.43583762382E+03  0.16562488595E+01  0.14552022021E+04  0.15190689999E+04  0.50400001928E-02 0. -1.
</event>
<event>
 5   0  0.4388937E-03  0.9967859E+03  0.7818609E-02  0.9312077E-01
       -2   -1    0    0    0  501  0.00000000000E+00  0.00000000000E+00  0.25488828538E+03  0.25488828540E+03  0.25500000920E-02 0.  1.
        2   -1    0    0  501    0  0.00000000000E+00  0.00000000000E+00 -0.97452716182E+03  0.97452716182E+03  0.25500000920E-02 0. -1.
    10030    2    1    2    0    0  0.00000000000E+00  0.00000000000E+00 -0.71963887643E+03  0.12294154472E+04  0.99678594963E+03 0.  0.
        5    1    3    3  502    0  0.53074945979E+02  0.43585002216E+03 -0.69015637831E+02  0.44448559028E+03  0.46999998093E+01 0.  1.
       -5    1    3    3    0  502 -0.53074945979E+02 -0.43585002216E+03 -0.65062323860E+03  0.78492985694E+03  0.46999998093E+01 0. -1.
</event>
<event>
 5   0  0.1661750E-03  0.1304505E+04  0.7818609E-02  0.9026000E-01
       -3   -1    0    0    0  501  0.00000000000E+00  0.00000000000E+00  0.33842407166E+03  0.33842408674E+03  0.10100000352E+00 0.  1.
        3   -1    0    0  501    0  0.00000000000E+00  0.00000000000E+00 -0.12571020925E+04  0.12571020965E+04  0.10100000352E+00 0. -1.
    10030    2    1    2    0    0  0.00000000000E+00  0.00000000000E+00 -0.91867802081E+03  0.15955261833E+04  0.13045054602E+04 0.  0.
        4    1    3    3  502    0  0.27139716558E+03  0.20833835847E+03 -0.11385341983E+04  0.11888326319E+04  0.12699999809E+01 0. -1.
       -4    1    3    3    0  502 -0.27139716558E+03 -0.20833835847E+03  0.21985617745E+03  0.40669355140E+03  0.12699999809E+01 0.  1.
</event>
<event>
 5   0  0.2511542E-03  0.1196762E+04  0.7818609E-02  0.9115696E-01
       -1   -1    0    0    0  501  0.00000000000E+00  0.00000000000E+00  0.19161263768E+03  0.19161263774E+03  0.50400001928E-02 0. -1.
        1   -1    0    0  501    0  0.00000000000E+00  0.00000000000E+00 -0.18686642500E+04  0.18686642500E+04  0.50400001928E-02 0.  1.
    10030    2    1    2    0    0  0.00000000000E+00  0.00000000000E+00 -0.16770516123E+04  0.20602768878E+04  0.11967617740E+04 0.  0.
        4    1    3    3  502    0 -0.30705181649E+03  0.22203850829E+03 -0.41252193890E+02  0.38116305379E+03  0.12699999809E+01 0. -1.
       -4    1    3    3    0  502  0.30705181649E+03 -0.22203850829E+03 -0.16357994184E+04  0.16791138340E+04  0.12699999809E+01 0.  1.
</event>
<event>
 5   0  0.4263540E-03  0.7977254E+03  0.7818609E-02  0.9563315E-01
       -2   -1    0    0    0  501  0.00000000000E+00  0.00000000000E+00  0.10754771969E+03  0.10754771972E+03  0.25500000920E-02 0. -1.
        2   -1    0    0  501    0  0.00000000000E+00  0.00000000000E+00 -0.14792637096E+04  0.14792637096E+04  0.25500000920E-02 0.  1.
    10030    2    1    2    0    0  0.00000000000E+00  0.00000000000E+00 -0.13717159899E+04  0.15868114293E+04  0.79772536328E+03 0.  0.
        2    1    3    3  502    0 -0.32784778873E+03 -0.22555275435E+03 -0.73972085822E+03  0.83996735988E+03  0.25500000920E-02 0.  1.
       -2    1    3    3    0  502  0.32784778873E+03  0.22555275435E+03 -0.63199513168E+03  0.74684406943E+03  0.25500000920E-02 0. -1.
</event>
<event>
 5   0  0.4306214E-03  0.1244145E+04  0.7818609E-02  0.9075071E-01
        2   -1    0    0  501    0  0.00000000000E+00  0.00000000000E+00  0.49098817917E+03  0.49098817917E+03  0.25500000920E-02 0. -1.
       -2   -1    0    0    0  501  0.00000000000E+00  0.00000000000E+00 -0.78815321444E+03  0.78815321444E+03  0.25500000920E-02 0.  1.
    10030    2    1    2    0    0  0.00000000000E+00  0.00000000000E+00 -0.29716503527E+03  0.12791413936E+04  0.12441445441E+04 0.  0.
        3    1    3    3  502    0  0.12988264611E+03  0.36628901827E+03 -0.64797904091E+03  0.75558850859E+03  0.10100000352E+00 0.  1.
       -3    1    3    3    0  502 -0.12988264611E+03 -0.36628901827E+03  0.35081400564E+03  0.52355288502E+03  0.10100000352E+00 0. -1.
</event>
<event>
 5   0  0.2370801E-03  0.1265693E+04  0.7818609E-02  0.9057223E-01
        1   -1    0    0  501    0  0.00000000000E+00  0.00000000000E+00  0.63182813151E+03  0.63182813153E+03  0.50400001928E-02 0. -1.
       -1   -1    0    0    0  501  0.00000000000E+00  0.00000000000E+00 -0.63386612427E+03  0.63386612429E+03  0.50400001928E-02 0.  1.
    10030    2    1    2    0    0  0.00000000000E+00  0.00000000000E+00 -0.20379927658E+01  0.12656942558E+04  0.12656926151E+04 0.  0.
        3    1    3    3  502    0 -0.12123207810E+03 -0.62027692063E+03  0.31442772763E+02  0.63279485869E+03  0.10100000352E+00 0.  1.
       -3    1    3    3    0  502  0.12123207810E+03  0.62027692063E+03 -0.33480765529E+02  0.63289939713E+03  0.10100000352E+00 0. -1.
</event>
<event>
 5   0  0.1661750E-03  0.1290408E+04  0.7818609E-02  0.9037206E-01
        4   -1    0    0  501    0  0.00000000000E+00  0.00000000000E+00  0.38847663646E+03  0.38847871239E+03  0.12699999809E+01 0.  1.
       -4   -1    0    0    0  501  0.00000000000E+00  0.00000000000E+00 -0.10715864252E+04  0.10715871777E+04  0.12699999809E+01 0. -1.
    10030    2    1    2    0    0  0.00000000000E+00  0.00000000000E+00 -0.68310978870E+03  0.14600658901E+04  0.12904082378E+04 0.  0.
        2    1    3    3  502    0  0.35484023546E+03  0.80359124557E+02  0.26134150377E+03  0.44796044826E+03  0.25500000920E-02 0.  1.
       -2    1    3    3    0  502 -0.35484023546E+03 -0.80359124557E+02 -0.94445129247E+03  0.10121054419E+04  0.25500000920E-02 0. -1.
</event>
<event>
 5   0  0.4310889E-03  0.1289514E+04  0.7818609E-02  0.9037922E-01
       -2   -1    0    0    0  501  0.00000000000E+00  0.00000000000E+00  0.38654026660E+03  0.38654026660E+03  0.25500000920E-02 0.  1.
        2   -1    0    0  501    0  0.00000000000E+00  0.00000000000E+00 -0.10754679080E+04  0.10754679080E+04  0.25500000920E-02 0. -1.
    10030    2    1    2    0    0  0.00000000000E+00  0.00000000000E+00 -0.68892764136E+03  0.14620081746E+04  0.12895140974E+04 0.  0.
        4    1    3    3  502    0  0.33809183002E+02 -0.53430449851E+03 -0.75180915060E+03  0.92295339526E+03  0.12699999809E+01 0. -1.
       -4    1    3    3    0  502 -0.33809183002E+02  0.53430449851E+03  0.62881509245E+02  0.53905477930E+03  0.12699999809E+01 0.  1.
</event>
<event>
 5   0  0.4263540E-03  0.6490485E+03  0.7818609E-02  0.9808566E-01
        2   -1    0    0  501    0  0.00000000000E+00  0.00000000000E+00  0.73916319071E+03  0.73916319072E+03  0.25500000920E-02 0. -1.
       -2   -1    0    0    0  501  0.00000000000E+00  0.00000000000E+00 -0.14248004520E+03  0.14248004522E+03  0.25500000920E-02 0.  1.
    10030    2    1    2    0    0  0.00000000000E+00  0.00000000000E+00  0.59668314552E+03  0.88164323594E+03  0.64904854928E+03 0.  0.
        2    1    3    3  502    0  0.94630786310E+02 -0.53469763528E+02  0.71370299201E+03  0.72193210355E+03  0.25500000920E-02 0. -1.
       -2    1    3    3    0  502 -0.94630786310E+02  0.53469763528E+02 -0.11701984649E+03  0.15971113239E+03  0.25500000920E-02 0.  1.
</event>
<event>
 5   0  0.2462055E-03  0.1282288E+04  0.7818609E-02  0.9043730E-01
       -1   -1    0    0    0  501  0.00000000000E+00  0.00000000000E+00  0.57458936173E+03  0.57458936175E+03  0.50400001928E-02 0. -1.
        1   -1    0    0  501    0  0.00000000000E+00  0.00000000000E+00 -0.71540818597E+03  0.71540818599E+03  0.50400001928E-02 0.  1.
    10030    2    1    2    0    0  0.00000000000E+00  0.00000000000E+00 -0.14081882424E+03  0.12899975477E+04  0.12822884745E+04 0.  0.
        2    1    3    3  502    0  0.19249109525E+03 -0.59731769126E+03  0.61622470063E+02  0.63058589809E+03  0.25500000920E-02 0.  1.
       -2    1    3    3    0  502 -0.19249109525E+03  0.59731769126E+03 -0.20244129430E+03  0.65941164965E+03  0.25500000920E-02 0. -1.
</event>
<event>
 5   0  0.4263540E-03  0.8572831E+03  0.7818609E-02  0.9480614E-01
        2   -1    0    0  501    0  0.00000000000E+00  0.00000000000E+00  0.86392030901E+03  0.86392030901E+03  0.25500000920E-02 0.  1.
       -2   -1    0    0    0  501  0.00000000000E+00  0.00000000000E+00 -0.21267424264E+03  0.21267424266E+03  0.25500000920E-02 0. -1.
    10030    2    1    2    0    0  0.00000000000E+00  0.00000000000E+00  0.65124606637E+03  0.10765945517E+04  0.85728314443E+03 0.  0.
        2    1    3    3  502    0  0.84555004055E+02 -0.84441917897E+02  0.84257870790E+03  0.85101049654E+03  0.25500000920E-02 0.  1.
       -2    1    3    3    0  502 -0.84555004055E+02  0.84441917897E+02 -0.19133264153E+03  0.22558405513E+03  0.25500000920E-02 0. -1.
</event>
<event>
 5   0  0.4388937E-03  0.1329870E+04  0.7818609E-02  0.9006208E-01
       -2   -1    0    0    0  501  0.00000000000E+00  0.00000000000E+00  0.18068848356E+03  0.18068848358E+03  0.25500000920E-02 0.  1.
        2   -1    0    0  501    0  0.00000000000E+00  0.00000000000E+00 -0.24469663678E+04  0.24469663678E+04  0.25500000920E-02 0. -1.
    10030    2    1    2    0    0  0.00000000000E+00  0.00000000000E+00 -0.22662778843E+04  0.26276548514E+04  0.13298701325E+04 0.  0.
        5    1    3    3  502    0 -0.18792068149E+03  0.43172435646E+03 -0.20607824047E+04  0.21138936378E+04  0.46999998093E+01 0. -1.
       -5    1    3    3    0  502  0.18792068149E+03 -0.43172435646E+03 -0.20549547961E+03  0.51376121363E+03  0.46999998093E+01 0.  1.
</event>
<event>
 5   0  0.4310889E-03  0.1311352E+04  0.7818609E-02  0.9020611E-01
        2   -1    0    0  501    0  0.00000000000E+00  0.00000000000E+00  0.47125553580E+03  0.47125553581E+03  0.25500000920E-02 0. -1.
       -2   -1    0    0    0  501  0.00000000000E+00  0.00000000000E+00 -0.91226701969E+03  0.91226701969E+03  0.25500000920E-02 0.  1.
    10030    2    1    2    0    0  0.00000000000E+00  0.00000000000E+00 -0.44101148388E+03  0.13835225555E+04  0.13113517959E+04 0.  0.
        4    1    3    3  502    0  0.33245021781E+03 -0.54622399230E+03 -0.37348759515E+03  0.74052575493E+03  0.12699999809E+01 0.  1.
       -4    1    3    3    0  502 -0.33245021781E+03  0.54622399230E+03 -0.67523888732E+02  0.64299680056E+03  0.12699999809E+01 0. -1.
</event>
<event>
 5   0  0.4263540E-03  0.1347733E+04  0.7818609E-02  0.8992546E-01
       -2   -1    0    0    0  501  0.00000000000E+00  0.00000000000E+00  0.32882856860E+03  0.32882856861E+03  0.25500000920E-02 0.  1.
        2   -1    0    0  501    0  0.00000000000E+00  0.00000000000E+00 -0.13809505641E+04  0.13809505641E+04  0.25500000920E-02 0. -1.
    10030    2    1    2    0    0  0.00000000000E+00  0.00000000000E+00 -0.10521219955E+04  0.17097791327E+04  0.13477329072E+04 0.  0.
        2    1    3    3  502    0 -0.61959129056E+02 -0.65515676636E+03 -0.34210181049E+03  0.74168926845E+03  0.25500000920E-02 0.  1.
       -2    1    3    3    0  502  0.61959129056E+02  0.65515676636E+03 -0.71002018498E+03  0.96808986425E+03  0.25500000920E-02 0. -1.
</event>
<event>
 5   0  0.4388937E-03  0.1008816E+04  0.7818609E-02  0.9298928E-01
        2   -1    0    0  501    0  0.00000000000E+00  0.00000000000E+00  0.11137564463E+04  0.11137564463E+04  0.25500000920E-02 0.  1.
       -2   -1    0    0    0  501  0.00000000000E+00  0.00000000000E+00 -0.22844089013E+03  0.22844089015E+03  0.25500000920E-02 0. -1.
    10030    2    1    2    0    0  0.00000000000E+00  0.00000000000E+00  0.88531555616E+03  0.13421973364E+04  0.10088161656E+04 0.  0.
        5    1    3    3  502    0  0.43201432385E+02 -0.33816756169E+03 -0.51914421330E+02  0.34487803740E+03  0.46999998093E+01 0. -1.
       -5    1    3    3    0  502 -0.43201432385E+02  0.33816756169E+03  0.93722997749E+03  0.99731929905E+03  0.46999998093E+01 0.  1.
</event>
<event>
 5   0  0.2356769E-03  0.1293242E+04  0.7818609E-02  0.9034941E-01
       -1   -1    0    0    0  501  0.00000000000E+00  0.00000000000E+00  0.73160471033E+03  0.73160471035E+03  0.50400001928E-02 0. -1.
        1   -1    0    0  501    0  0.00000000000E+00  0.00000000000E+00 -0.57150912822E+03  0.57150912824E+03  0.50400001928E-02 0.  1.
    10030    2    1    2    0    0  0.00000000000E+00  0.00000000000E+00  0.16009558211E+03  0.13031138386E+04  0.12932420813E+04 0.  0.
        1    1    3    3  502    0  0.64008711068E+03  0.58927286211E+02  0.15083240791E+03  0.66025324658E+03  0.50400001928E-02 0.  1.
       -1    1    3    3    0  502 -0.64008711068E+03 -0.58927286211E+02  0.92631742011E+01  0.64286059200E+03  0.50400001928E-02 0. -1.
</event>
<event>
 5   0  0.4306214E-03  0.1306494E+04  0.7818609E-02  0.9024432E-01
       -2   -1    0    0    0  501  0.00000000000E+00  0.00000000000E+00  0.31298268248E+03  0.31298268249E+03  0.25500000920E-02 0. -1.
        2   -1    0    0  501    0  0.00000000000E+00  0.00000000000E+00 -0.13634342955E+04  0.13634342955E+04  0.25500000920E-02 0.  1.
    10030    2    1    2    0    0  0.00000000000E+00  0.00000000000E+00 -0.10504516130E+04  0.16764169779E+04  0.13064935104E+04 0.  0.
        3    1    3    3  502    0  0.11659745857E+03  0.21032372047E+03  0.25411835294E+03  0.34986737807E+03  0.10100000352E+00 0. -1.
       -3    1    3    3    0  502 -0.11659745857E+03 -0.21032372047E+03 -0.13045699659E+04  0.13265495999E+04  0.10100000352E+00 0.  1.
</event>
<event>
 5   0  0.2356769E-03  0.9694987E+03  0.7818609E-02  0.9342646E-01
        1   -1    0    0  501    0  0.00000000000E+00  0.00000000000E+00  0.52440114938E+03  0.52440114940E+03  0.50400001928E-02 0. -1.
       -1   -1    0    0    0  501  0.00000000000E+00  0.00000000000E+00 -0.44809573675E+03  0.44809573678E+03  0.50400001928E-02 0.  1.
    10030    2    1    2    0    0  0.00000000000E+00  0.00000000000E+00  0.76305412624E+02  0.97249688619E+03  0.96949867336E+03 0.  0.
        1    1    3    3  502    0 -0.12319440471E+03 -0.29929250446E+03 -0.32383593612E+03  0.45784558328E+03  0.50400001928E-02 0.  1.
       -1    1    3    3    0  502  0.12319440471E+03  0.29929250446E+03  0.40014134875E+03  0.51465130290E+03  0.50400001928E-02 0. -1.
</event>
<event>
 5   0  0.4263540E-03  0.7512892E+03  0.7818609E-02  0.9633330E-01
        2   -1    0    0  501    0  0.00000000000E+00  0.00000000000E+00  0.11302887293E+04  0.11302887293E+04  0.25500000920E-02 0. -1.
       -2   -1    0    0    0  501  0.00000000000E+00  0.00000000000E+00 -0.12484318727E+03  0.12484318729E+03  0.25500000920E-02 0.  1.
    10030    2    1    2    0    0  0.00000000000E+00  0.00000000000E+00  0.10054455420E+04  0.12551319166E+04  0.75128915209E+03 0.  0.
        2    1    3    3  502    0 -0.22639880211E+03 -0.20365599708E+03  0.13527110822E+03  0.33321232790E+03  0.25500000920E-02 0.  1.
       -2    1    3    3    0  502  0.22639880211E+03  0.20365599708E+03  0.87017443381E+03  0.92191958868E+03  0.25500000920E-02 0. -1.
</event>
<event>
 5   0  0.4388937E-03  0.1288974E+04  0.7818609E-02  0.9038355E-01
        2   -1    0    0  501    0  0.00000000000E+00  0.00000000000E+00  0.93355839627E+03  0.93355839627E+03  0.25500000920E-02 0. -1.
       -2   -1    0    0    0  501  0.00000000000E+00  0.00000000000E+00 -0.44492478957E+03  0.44492478958E+03  0.25500000920E-02 0.  1.
    10030    2    1    2    0    0  0.00000000000E+00  0.00000000000E+00  0.48863360670E+03  0.13784831858E+04  0.12889736584E+04 0.  0.
        5    1    3    3  502    0  0.32402640791E+03  0.42446455010E+03  0.63017354077E+03  0.82601697851E+03  0.46999998093E+01 0. -1.
       -5    1    3    3    0  502 -0.32402640791E+03 -0.42446455010E+03 -0.14153993407E+03  0.55246620733E+03  0.46999998093E+01 0.  1.
</event>
<event>
 5   0  0.2356769E-03  0.1266035E+04  0.7818609E-02  0.9056942E-01
       -1   -1    0    0    0  501  0.00000000000E+00  0.00000000000E+00  0.42857987170E+03  0.42857987173E+03  0.50400001928E-02 0.  1.
        1   -1    0    0  501    0  0.00000000000E+00  0.00000000000E+00 -0.93497405007E+03  0.93497405009E+03  0.50400001928E-02 0. -1.
    10030    2    1    2    0    0  0.00000000000E+00  0.00000000000E+00 -0.50639417837E+03  0.13635539218E+04  0.12660348470E+04 0.  0.
        1    1    3    3  502    0 -0.60962429574E+02 -0.38702542227E+03 -0.78869296270E+03  0.88064844560E+03  0.50400001928E-02 0. -1.
       -1    1    3    3    0  502  0.60962429574E+02  0.38702542227E+03  0.28229878433E+03  0.48290547622E+03  0.50400001928E-02 0.  1.
</event>
<event>
 5   0  0.2511542E-03  0.1290033E+04  0.7818609E-02  0.9037506E-01
        1   -1    0    0  501    0  0.00000000000E+00  0.00000000000E+00  0.72467627841E+03  0.72467627843E+03  0.50400001928E-02 0.  1.
       -1   -1    0    0    0  501  0.00000000000E+00  0.00000000000E+00 -0.57411352664E+03  0.57411352666E+03  0.50400001928E-02 0. -1.
    10030    2    1    2    0    0  0.00000000000E+00  0.00000000000E+00  0.15056275178E+03  0.12987898051E+04  0.12900332614E+04 0.  0.
        4    1    3    3  502    0  0.42143399402E+03 -0.40145868324E+03  0.35514151476E+03  0.68183780628E+03  0.12699999809E+01 0. -1.
       -4    1    3    3    0  502 -0.42143399402E+03  0.40145868324E+03 -0.20457876298E+03  0.61695199881E+03  0.12699999809E+01 0.  1.
</event>
<event>
 5   0  0.2370801E-03  0.1271984E+04  0.7818609E-02  0.9052082E-01
        1   -1    0    0  501    0  0.00000000000E+00  0.00000000000E+00  0.93931009534E+03  0.93931009535E+03  0.50400001928E-02 0.  1.
       -1   -1    0    0    0  501  0.00000000000E+00  0.00000000000E+00 -0.43061980920E+03  0.43061980923E+03  0.50400001928E-02 0. -1.
    10030    2    1    2    0    0  0.00000000000E+00  0.00000000000E+00  0.50869028614E+03  0.13699299046E+04  0.12719835440E+04 0.  0.
        3    1    3    3  502    0 -0.42366287535E+03 -0.44814756481E+03  0.86944624774E+02  0.62280482478E+03  0.10100000352E+00 0. -1.
       -3    1    3    3    0  502  0.42366287535E+03  0.44814756481E+03  0.42174566137E+03  0.74712507980E+03  0.10100000352E+00 0.  1.
</event>
<event>
 5   0  0.1661750E-03  0.1313342E+04  0.7818609E-02  0.9019051E-01
        3   -1    0    0  501    0  0.00000000000E+00  0.00000000000E+00  0.22480996167E+04  0.22480996190E+04  0.10100000352E+00 0. -1.
       -3   -1    0    0    0  501  0.00000000000E+00  0.00000000000E+00 -0.19181384559E+03  0.19181387218E+03  0.10100000352E+00 0.  1.
    10030    2    1    2    0    0  0.00000000000E+00  0.00000000000E+00  0.20562857711E+04  0.24399134911E+04  0.13133417955E+04 0.  0.
        4    1    3    3  502    0  0.56618176271E+03 -0.32269332703E+03  0.11781792366E+04  0.13464028737E+04  0.12699999809E+01 0. -1.
       -4    1    3    3    0  502 -0.56618176271E+03  0.32269332703E+03  0.87810653449E+03  0.10935106175E+04  0.12699999809E+01 0.  1.
</event>
<event>
 5   0  0.2458456E-03  0.1318986E+04  0.7818609E-02  0.9014643E-01
        1   -1    0    0  501    0  0.00000000000E+00  0.00000000000E+00  0.10148038004E+04  0.10148038004E+04  0.50400001928E-02 0.  1.
       -1   -1    0    0    0  501  0.00000000000E+00  0.00000000000E+00 -0.42858625081E+03  0.42858625084E+03  0.50400001928E-02 0. -1.
    10030    2    1    2    0    0  0.00000000000E+00  0.00000000000E+00  0.58621754962E+03  0.14433900513E+04  0.13189859077E+04 0.  0.
        5    1    3    3  502    0 -0.42842937484E+03  0.49625621978E+03  0.21505926029E+03  0.68999604371E+03  0.46999998093E+01 0.  1.
       -5    1    3    3    0  502  0.42842937484E+03 -0.49625621978E+03  0.37115828933E+03  0.75339400757E+03  0.46999998093E+01 0. -1.
</event>
<event>
 5   0  0.2370801E-03  0.1023741E+04  0.7818609E-02  0.9282883E-01
       -1   -1    0    0    0  501  0.00000000000E+00  0.00000000000E+00  0.22310423115E+03  0.22310423121E+03  0.50400001928E-02 0. -1.
        1   -1    0    0  501    0  0.00000000000E+00  0.00000000000E+00 -0.11743895749E+04  0.11743895749E+04  0.50400001928E-02 0.  1.
    10030    2    1    2    0    0  0.00000000000E+00  0.00000000000E+00 -0.95128534372E+03  0.13974938061E+04  0.10237407547E+04 0.  0.
        3    1    3    3  502    0 -0.56300705999E+02 -0.50542482309E+03 -0.55509079376E+03  0.75282788259E+03  0.10100000352E+00 0.  1.
       -3    1    3    3    0  502  0.56300705999E+02  0.50542482309E+03 -0.39619454996E+03  0.64466592349E+03  0.10100000352E+00 0. -1.
</event>
<event>
 5   0  0.4388937E-03  0.1368114E+04  0.7818609E-02  0.8977228E-01
       -2   -1    0    0    0  501  0.00000000000E+00  0.00000000000E+00  0.14981826715E+04  0.14981826715E+04  0.25500000920E-02 0. -1.
        2   -1    0    0  501    0  0.00000000000E+00  0.00000000000E+00 -0.31233454187E+03  0.31233454188E+03  0.25500000920E-02 0.  1.
    10030    2    1    2    0    0  0.00000000000E+00  0.00000000000E+00  0.11858481296E+04  0.18105172134E+04  0.13681143203E+04 0.  0.
        5    1    3    3  502    0  0.33480798136E+03 -0.54258117766E+03  0.92089857212E+03  0.11200745461E+04  0.46999998093E+01 0. -1.
       -5    1    3    3    0  502 -0.33480798136E+03  0.54258117766E+03  0.26494955748E+03  0.69044266724E+03  0.46999998093E+01 0.  1.
</event>
<event>
 5   0  0.2458456E-03  0.1282790E+04  0.7818609E-02  0.9043326E-01
        1   -1    0    0  501    0  0.00000000000E+00  0.00000000000E+00  0.39692593596E+03  0.39692593599E+03  0.50400001928E-02 0.  1.
       -1   -1    0    0    0  501  0.00000000000E+00  0.00000000000E+00 -0.10364335142E+04  0.10364335142E+04  0.50400001928E-02 0. -1.
    10030    2    1    2    0    0  0.00000000000E+00  0.00000000000E+00 -0.63950757827E+03  0.14333594502E+04  0.12827896830E+04 0.  0.
        5    1    3    3  502    0 -0.31844240330E+03  0.54848310518E+02 -0.93881619408E+03  0.99288057572E+03  0.46999998093E+01 0. -1.
       -5    1    3    3    0  502  0.31844240330E+03 -0.54848310518E+02  0.29930861581E+03  0.44047887450E+03  0.46999998093E+01 0.  1.
</event>
<event>
 5   0  0.4388937E-03  0.1335769E+04  0.7818609E-02  0.9001671E-01
       -2   -1    0    0    0  501  0.00000000000E+00  0.00000000000E+00  0.52721017472E+03  0.52721017472E+03  0.25500000920E-02 0. -1.
        2   -1    0    0  501    0  0.00000000000E+00  0.00000000000E+00 -0.84609463886E+03  0.84609463887E+03  0.25500000920E-02 0.  1.
    10030    2    1    2    0    0  0.00000000000E+00  0.00000000000E+00 -0.31888446415E+03  0.13733048136E+04  0.13357689956E+04 0.  0.
        5    1    3    3  502    0 -0.10659110710E+02 -0.10513519213E+03 -0.83742802615E+03  0.84408223192E+03  0.46999998093E+01 0.  1.
       -5    1    3    3    0  502  0.10659110710E+02  0.10513519213E+03  0.51854356200E+03  0.52922258168E+03  0.46999998093E+01 0. -1.
</event>
<event>
 5   0  0.2511542E-03  0.1213230E+04  0.7818609E-02  0.9101355E-01
       -1   -1    0    0    0  501  0.00000000000E+00  0.00000000000E+00  0.26358811166E+03  0.26358811171E+03  0.50400001928E-02 0. -1.
        1   -1    0    0  501    0  0.00000000000E+00  0.00000000000E+00 -0.13960475547E+04  0.13960475547E+04  0.50400001928E-02 0.  1.
    10030    2    1    2    0    0  0.00000000000E+00  0.00000000000E+00 -0.11324594430E+04  0.16596356664E+04  0.12132296382E+04 0.  0.
        4    1    3    3  502    0 -0.47729458529E+03  0.20676887337E+03 -0.99318842445E+03  0.11211549168E+04  0.12699999809E+01 0.  1.
       -4    1    3    3    0  502  0.47729458529E+03 -0.20676887337E+03 -0.13927101856E+03  0.53848074957E+03  0.12699999809E+01 0. -1.
</event>
<event>
 5   0  0.2458456E-03  0.1320296E+04  0.7818609E-02  0.9013624E-01
        1   -1    0    0  501    0  0.00000000000E+00  0.00000000000E+00  0.79774093112E+03  0.79774093114E+03  0.50400001928E-02 0.  1.
       -1   -1    0    0    0  501  0.00000000000E+00  0.00000000000E+00 -0.54628665146E+03  0.54628665149E+03  0.50400001928E-02 0. -1.
    10030    2    1    2    0    0  0.00000000000E+00  0.00000000000E+00  0.25145427966E+03  0.13440275826E+04  0.13202957578E+04 0.  0.
        5    1    3    3  502    0 -0.22789526310E+03  0.38904459259E+03  0.61655686931E+03  0.76384318355E+03  0.46999998093E+01 0.  1.
       -5    1    3    3    0  502  0.22789526310E+03 -0.38904459259E+03 -0.36510258965E+03  0.58018439908E+03  0.46999998093E+01 0. -1.
</event>
<event>
 5   0  0.4306214E-03  0.1331898E+04  0.7818609E-02  0.9004646E-01
        2   -1    0    0  501    0  0.00000000000E+00  0.00000000000E+00  0.16345466634E+04  0.16345466634E+04  0.25500000920E-02 0. -1.
       -2   -1    0    0    0  501  0.00000000000E+00  0.00000000000E+00 -0.27132156911E+03  0.27132156912E+03  0.25500000920E-02 0.  1.
    10030    2    1    2    0    0  0.00000000000E+00  0.00000000000E+00  0.13632250943E+04  0.19058682325E+04  0.13318975419E+04 0.  0.
        3    1    3    3  502    0  0.29282221800E+03 -0.81940733937E+02  0.15294123617E+04  0.15593464392E+04  0.10100000352E+00 0. -1.
       -3    1    3    3    0  502 -0.29282221800E+03  0.81940733937E+02 -0.16618726735E+03  0.34652179334E+03  0.10100000352E+00 0.  1.
</event>
<event>
 5   0  0.4388937E-03  0.1305560E+04  0.7818609E-02  0.9025167E-01
       -2   -1    0    0    0  501  0.00000000000E+00  0.00000000000E+00  0.11821781494E+04  0.11821781494E+04  0.25500000920E-02 0. -1.
        2   -1    0    0  501    0  0.00000000000E+00  0.00000000000E+00 -0.36045501119E+03  0.36045501120E+03  0.25500000920E-02 0.  1.
    10030    2    1    2    0    0  0.00000000000E+00  0.00000000000E+00  0.82172313818E+03  0.15426331606E+04  0.13055604744E+04 0.  0.
        5    1    3    3  502    0 -0.43753173788E+03 -0.40980635162E+03  0.71607871091E+03  0.93389832300E+03  0.46999998093E+01 0.  1.
       -5    1    3    3    0  502  0.43753173788E+03  0.40980635162E+03  0.10564442727E+03  0.60873483758E+03  0.46999998093E+01 0. -1.
</event>
<event>
 5   0  0.1661750E-03  0.1301503E+04  0.7818609E-02  0.9028374E-01
        3   -1    0    0  501    0  0.00000000000E+00  0.00000000000E+00  0.46262133595E+03  0.46262134698E+03  0.10100000352E+00 0. -1.
       -3   -1    0    0    0  501  0.00000000000E+00  0.00000000000E+00 -0.91538745734E+03  0.91538746291E+03  0.10100000352E+00 0.  1.
    10030    2    1    2    0    0  0.00000000000E+00  0.00000000000E+00 -0.45276612139E+03  0.13780088099E+04  0.13015034074E+04 0.  0.
        2    1    3    3  502    0 -0.38116085359E+03  0.50117352461E+03 -0.52345260618E+02  0.63182159222E+03  0.25500000920E-02 0.  1.
       -2    1    3    3    0  502  0.38116085359E+03 -0.50117352461E+03 -0.40042086077E+03  0.74618721768E+03  0.25500000920E-02 0. -1.
</event>
<event>
 5   0  0.4310889E-03  0.1182056E+04  0.7818609E-02  0.9128710E-01
       -2   -1    0    0    0  501  0.00000000000E+00  0.00000000000E+00  0.50886687216E+03  0.50886687217E+03  0.25500000920E-02 0. -1.
        2   -1    0    0  501    0  0.00000000000E+00  0.00000000000E+00 -0.68645430380E+03  0.68645430381E+03  0.25500000920E-02 0.  1.
    10030    2    1    2    0    0  0.00000000000E+00  0.00000000000E+00 -0.17758743164E+03  0.11953211760E+04  0.11820555900E+04 0.  0.
        4    1    3    3  502    0 -0.31917805274E+03 -0.49492136960E+03 -0.38329255165E+02  0.59016314367E+03  0.12699999809E+01 0. -1.
       -4    1    3    3    0  502  0.31917805274E+03  0.49492136960E+03 -0.13925817648E+03  0.60515803230E+03  0.12699999809E+01 0.  1.
</event>
<event>
 5   0  0.2356769E-03  0.1326648E+04  0.7818609E-02  0.9008696E-01
        1   -1    0    0  501    0  0.00000000000E+00  0.00000000000E+00  0.13659194223E+04  0.13659194223E+04  0.50400001928E-02 0. -1.
       -1   -1    0    0    0  501  0.00000000000E+00  0.00000000000E+00 -0.32212626900E+03  0.32212626904E+03  0.50400001928E-02 0.  1.
    10030    2    1    2    0    0  0.00000000000E+00  0.00000000000E+00  0.10437931533E+04  0.16880456914E+04  0.13266476960E+04 0.  0.
        1    1    3    3  502    0  0.42963792158E+03  0.44333141191E+02  0.11624714553E+04  0.12401185651E+04  0.50400001928E-02 0. -1.
       -1    1    3    3    0  502 -0.42963792158E+03 -0.44333141191E+02 -0.11867830199E+03  0.44792712628E+03  0.50400001928E-02 0.  1.
</event>
<event>
 5   0  0.2462055E-03  0.1326382E+04  0.7818609E-02  0.9008902E-01
       -1   -1    0    0    0  501  0.00000000000E+00  0.00000000000E+00  0.40763185335E+03  0.40763185338E+03  0.50400001928E-02 0. -1.
        1   -1    0    0  501    0  0.00000000000E+00  0.00000000000E+00 -0.10789694812E+04  0.10789694813E+04  0.50400001928E-02 0.  1.
    10030    2    1    2    0    0  0.00000000000E+00  0.00000000000E+00 -0.67133762790E+03  0.14866013346E+04  0.13263820406E+04 0.  0.
        2    1    3    3  502    0 -0.26122909162E+03 -0.39634476011E+03  0.18340839833E+03  0.50888942587E+03  0.25500000920E-02 0. -1.
       -2    1    3    3    0  502  0.26122909162E+03  0.39634476011E+03 -0.85474602623E+03  0.97771190877E+03  0.25500000920E-02 0.  1.
</event>
<event>
 5   0  0.2511542E-03  0.1279484E+04  0.7818609E-02  0.9045995E-01
        1   -1    0    0  501    0  0.00000000000E+00  0.00000000000E+00  0.11109556507E+04  0.11109556507E+04  0.50400001928E-02 0. -1.
       -1   -1    0    0    0  501  0.00000000000E+00  0.00000000000E+00 -0.36839429892E+03  0.36839429895E+03  0.50400001928E-02 0.  1.
    10030    2    1    2    0    0  0.00000000000E+00  0.00000000000E+00  0.74256135175E+03  0.14793499496E+04  0.12794838461E+04 0.  0.
        4    1    3    3  502    0 -0.25203150708E+03 -0.37712901616E+03  0.89288565785E+03  0.10014951754E+04  0.12699999809E+01 0. -1.
       -4    1    3    3    0  502  0.25203150708E+03  0.37712901616E+03 -0.15032430609E+03  0.47785477427E+03  0.12699999809E+01 0.  1.
</event>
<event>
 5   0  0.2511542E-03  0.1173241E+04  0.7818609E-02  0.9136607E-01
       -1   -1    0    0    0  501  0.00000000000E+00  0.00000000000E+00  0.50604297957E+03  0.50604297959E+03  0.50400001928E-02 0.  1.
        1   -1    0    0  501    0  0.00000000000E+00  0.00000000000E+00 -0.68002803126E+03  0.68002803128E+03  0.50400001928E-02 0. -1.
    10030    2    1    2    0    0  0.00000000000E+00  0.00000000000E+00 -0.17398505169E+03  0.11860710109E+04  0.11732406593E+04 0.  0.
        4    1    3    3  502    0 -0.27164633588E+03  0.12887629573E+03 -0.59620820198E+03  0.66773247967E+03  0.12699999809E+01 0. -1.
       -4    1    3    3    0  502  0.27164633588E+03 -0.12887629573E+03  0.42222315029E+03  0.51833853121E+03  0.12699999809E+01 0.  1.
</event>
<event>
 5   0  0.2356769E-03  0.1304920E+04  0.7818609E-02  0.9025673E-01
       -1   -1    0    0    0  501  0.00000000000E+00  0.00000000000E+00  0.22135982590E+03  0.22135982596E+03  0.50400001928E-02 0. -1.
        1   -1    0    0  501    0  0.00000000000E+00  0.00000000000E+00 -0.19231304962E+04  0.19231304962E+04  0.50400001928E-02 0.  1.
    10030    2    1    2    0    0  0.00000000000E+00  0.00000000000E+00 -0.17017706703E+04  0.21444903222E+04  0.13049196633E+04 0.  0.
        1    1    3    3  502    0  0.10859194357E+03  0.13671079478E+03  0.18225840903E+03  0.25238894450E+03  0.50400001928E-02 0. -1.
       -1    1    3    3    0  502 -0.10859194357E+03 -0.13671079478E+03 -0.18840290794E+04  0.18921013777E+04  0.50400001928E-02 0.  1.
</event>
<event>
 5   0  0.2458456E-03  0.1303833E+04  0.7818609E-02  0.9026531E-01
       -1   -1    0    0    0  501  0.00000000000E+00  0.00000000000E+00  0.45903055350E+03  0.45903055352E+03  0.50400001928E-02 0.  1.
        1   -1    0    0  501    0  0.00000000000E+00  0.00000000000E+00 -0.92585421687E+03  0.92585421688E+03  0.50400001928E-02 0. -1.
    10030    2    1    2    0    0  0.00000000000E+00  0.00000000000E+00 -0.46682366337E+03  0.13848847704E+04  0.13038333845E+04 0.  0.
        5    1    3    3  502    0  0.12140313531E+03  0.34245110962E+03 -0.80831809492E+03  0.88623457184E+03  0.46999998093E+01 0. -1.
       -5    1    3    3    0  502 -0.12140313531E+03 -0.34245110962E+03  0.34149443155E+03  0.49865019856E+03  0.46999998093E+01 0.  1.
</event>
<event>
 5   0  0.4310889E-03  0.1305970E+04  0.7818609E-02  0.9024844E-01
        2   -1    0    0  501    0  0.00000000000E+00  0.00000000000E+00  0.20753871435E+04  0.20753871435E+04  0.25500000920E-02 0. -1.
       -2   -1    0    0    0  501  0.00000000000E+00  0.00000000000E+00 -0.20545052553E+03  0.20545052554E+03  0.25500000920E-02 0.  1.
    10030    2    1    2    0    0  0.00000000000E+00  0.00000000000E+00  0.18699366180E+04  0.22808376691E+04  0.13059699527E+04 0.  0.
        4    1    3    3  502    0 -0.17071103597E+03 -0.58203360132E+03  0.13573195445E+04  0.14866819867E+04  0.12699999809E+01 0. -1.
       -4    1    3    3    0  502  0.17071103597E+03  0.58203360132E+03  0.51261707352E+03  0.79415568236E+03  0.12699999809E+01 0.  1.
</event>
<event>
 5   0  0.2458456E-03  0.1315451E+04  0.7818609E-02  0.9017401E-01
        1   -1    0    0  501    0  0.00000000000E+00  0.00000000000E+00  0.11087857918E+04  0.11087857918E+04  0.50400001928E-02 0. -1.
       -1   -1    0    0    0  501  0.00000000000E+00  0.00000000000E+00 -0.39015914730E+03  0.39015914733E+03  0.50400001928E-02 0.  1.
    10030    2    1    2    0    0  0.00000000000E+00  0.00000000000E+00  0.71862664450E+03  0.14989449391E+04  0.13154511304E+04 0.  0.
        5    1    3    3  502    0  0.33122722967E+03  0.56580186130E+03  0.41893392588E+03  0.77805587728E+03  0.46999998093E+01 0.  1.
       -5    1    3    3    0  502 -0.33122722967E+03 -0.56580186130E+03  0.29969271862E+03  0.72088906186E+03  0.46999998093E+01 0. -1.
</event>
<event>
 5   0  0.4310889E-03  0.1026564E+04  0.7818609E-02  0.9279880E-01
       -2   -1    0    0    0  501  0.00000000000E+00  0.00000000000E+00  0.19381494751E+03  0.19381494752E+03  0.25500000920E-02 0.  1.
        2   -1    0    0  501    0  0.00000000000E+00  0.00000000000E+00 -0.13593293032E+04  0.13593293032E+04  0.25500000920E-02 0. -1.
    10030    2    1    2    0    0  0.00000000000E+00  0.00000000000E+00 -0.11655143557E+04  0.15531442508E+04  0.10265638559E+04 0.  0.
        4    1    3    3  502    0  0.17806299902E+03  0.75447633144E+02 -0.13020996688E+04  0.13163828992E+04  0.12699999809E+01 0. -1.
       -4    1    3    3    0  502 -0.17806299902E+03 -0.75447633144E+02  0.13658531303E+03  0.23676135158E+03  0.12699999809E+01 0.  1.
</event>
<event>
 5   0  0.2356769E-03  0.1298367E+04  0.7818609E-02  0.9030861E-01
       -1   -1    0    0    0  501  0.00000000000E+00  0.00000000000E+00  0.38973907982E+03  0.38973907986E+03  0.50400001928E-02 0. -1.
        1   -1    0    0  501    0  0.00000000000E+00  0.00000000000E+00 -0.10813373001E+04  0.10813373001E+04  0.50400001928E-02 0.  1.
    10030    2    1    2    0    0  0.00000000000E+00  0.00000000000E+00 -0.69159822028E+03  0.14710763800E+04  0.12983672891E+04 0.  0.
        1    1    3    3  502    0 -0.40419703594E+03 -0.44666229415E+03 -0.71624710506E+02  0.60664037787E+03  0.50400001928E-02 0. -1.
       -1    1    3    3    0  502  0.40419703594E+03  0.44666229415E+03 -0.61997350978E+03  0.86443600210E+03  0.50400001928E-02 0.  1.
</event>
<event>
 5   0  0.1661750E-03  0.1219039E+04  0.7818609E-02  0.9096353E-01
        3   -1    0    0  501    0  0.00000000000E+00  0.00000000000E+00  0.49144591547E+03  0.49144592584E+03  0.10100000352E+00 0. -1.
       -3   -1    0    0    0  501  0.00000000000E+00  0.00000000000E+00 -0.75596113934E+03  0.75596114608E+03  0.10100000352E+00 0.  1.
    10030    2    1    2    0    0  0.00000000000E+00  0.00000000000E+00 -0.26451522387E+03  0.12474070719E+04  0.12190390065E+04 0.  0.
        5    1    3    3  502    0  0.16386779028E+03  0.27391431255E+03 -0.66358081764E+03  0.73637170970E+03  0.46999998093E+01 0.  1.
       -5    1    3    3    0  502 -0.16386779028E+03 -0.27391431255E+03  0.39906559377E+03  0.51103536222E+03  0.46999998093E+01 0. -1.
</event>
<event>
 5   0  0.4453011E-03  0.1254155E+04  0.7818609E-02  0.9066732E-01
       -2   -1    0    0    0  501  0.00000000000E+00  0.00000000000E+00  0.28651289187E+03  0.28651289188E+03  0.25500000920E-02 0. -1.
        2   -1    0    0  501    0  0.00000000000E+00  0.00000000000E+00 -0.13724565326E+04  0.13724565326E+04  0.25500000920E-02 0.  1.
    10030    2    1    2    0    0  0.00000000000E+00  0.00000000000E+00 -0.10859436407E+04  0.16589694245E+04  0.12541554770E+04 0.  0.
        1    1    3    3  502    0 -0.26948912690E+03  0.10125377780E+03 -0.12798788829E+04  0.13118561933E+04  0.50400001928E-02 0.  1.
       -1    1    3    3    0  502  0.26948912690E+03 -0.10125377780E+03  0.19393524220E+03  0.34711323113E+03  0.50400001928E-02 0. -1.
</event>
<event>
 5   0  0.2370801E-03  0.1315926E+04  0.7818609E-02  0.9017030E-01
        1   -1    0    0  501    0  0.00000000000E+00  0.00000000000E+00  0.15529013412E+04  0.15529013412E+04  0.50400001928E-02 0.  1.
       -1   -1    0    0    0  501  0.00000000000E+00  0.00000000000E+00 -0.27877838269E+03  0.27877838274E+03  0.50400001928E-02 0. -1.
    10030    2    1    2    0    0  0.00000000000E+00  0.00000000000E+00  0.12741229585E+04  0.18316797239E+04  0.13159260229E+04 0.  0.
        3    1    3    3  502    0  0.17607023056E+03 -0.62583521024E+03  0.49617430682E+03  0.81783824159E+03  0.10100000352E+00 0. -1.
       -3    1    3    3    0  502 -0.17607023056E+03  0.62583521024E+03  0.77794865169E+03  0.10138414823E+04  0.10100000352E+00 0.  1.
</event>
<event>
 5   0  0.4263540E-03  0.1253177E+04  0.7818609E-02  0.9067543E-01
       -2   -1    0    0    0  501  0.00000000000E+00  0.00000000000E+00  0.51518972691E+03  0.51518972692E+03  0.25500000920E-02 0.  1.
        2   -1    0    0  501    0  0.00000000000E+00  0.00000000000E+00 -0.76207501799E+03  0.76207501799E+03  0.25500000920E-02 0. -1.
    10030    2    1    2    0    0  0.00000000000E+00  0.00000000000E+00 -0.24688529108E+03  0.12772647449E+04  0.12531771150E+04 0.  0.
        2    1    3    3  502    0 -0.24681535017E+03  0.48426960290E+03  0.19428370999E+03  0.57721835153E+03  0.25500000920E-02 0.  1.
       -2    1    3    3    0  502  0.24681535017E+03 -0.48426960290E+03 -0.44116900107E+03  0.70004639338E+03  0.25500000920E-02 0. -1.
</event>
<event>
 5   0  0.2356769E-03  0.1300238E+04  0.7818609E-02  0.9029377E-01
       -1   -1    0    0    0  501  0.00000000000E+00  0.00000000000E+00  0.30152998909E+03  0.30152998913E+03  0.50400001928E-02 0.  1.
        1   -1    0    0  501    0  0.00000000000E+00  0.00000000000E+00 -0.14016998465E+04  0.14016998465E+04  0.50400001928E-02 0. -1.
    10030    2    1    2    0    0  0.00000000000E+00  0.00000000000E+00 -0.11001698574E+04  0.17032298356E+04  0.13002377313E+04 0.  0.
        1    1    3    3  502    0 -0.21437414788E+03  0.20514771145E+03  0.20765764561E+03  0.36216509578E+03  0.50400001928E-02 0.  1.
       -1    1    3    3    0  502  0.21437414788E+03 -0.20514771145E+03 -0.13078275030E+04  0.13410647399E+04  0.50400001928E-02 0. -1.
</event>
<event>
 5   0  0.2370801E-03  0.1247172E+04  0.7818609E-02  0.9072540E-01
        1   -1    0    0  501    0  0.00000000000E+00  0.00000000000E+00  0.86659484179E+03  0.86659484181E+03  0.50400001928E-02 0.  1.
       -1   -1    0    0    0  501  0.00000000000E+00  0.00000000000E+00 -0.44872137908E+03  0.44872137911E+03  0.50400001928E-02 0. -1.
    10030    2    1    2    0    0  0.00000000000E+00  0.00000000000E+00  0.41787346271E+03  0.13153162209E+04  0.12471722135E+04 0.  0.
        3    1    3    3  502    0 -0.58314842036E+03 -0.21111144888E+03  0.14034872514E+03  0.63586783128E+03  0.10100000352E+00 0.  1.
       -3    1    3    3    0  502  0.58314842036E+03  0.21111144888E+03  0.27752473757E+03  0.67944838964E+03  0.10100000352E+00 0. -1.
</event>
<event>
 5   0  0.2356769E-03  0.1281782E+04  0.7818609E-02  0.9044138E-01
        1   -1    0    0  501    0  0.00000000000E+00  0.00000000000E+00  0.79815124631E+03  0.79815124633E+03  0.50400001928E-02 0.  1.
       -1   -1    0    0    0  501  0.00000000000E+00  0.00000000000E+00 -0.51461576839E+03  0.51461576841E+03  0.50400001928E-02 0. -1.
    10030    2    1    2    0    0  0.00000000000E+00  0.00000000000E+00  0.28353547792E+03  0.13127670147E+04  0.12817819112E+04 0.  0.
        1    1    3    3  502    0  0.75841870149E+02 -0.13767949158E+03 -0.49456762947E+03  0.51894582743E+03  0.50400001928E-02 0. -1.
       -1    1    3    3    0  502 -0.75841870149E+02  0.13767949158E+03  0.77810310739E+03  0.79382118731E+03  0.50400001928E-02 0.  1.
</event>
<event>
 5   0  0.4388937E-03  0.1358754E+04  0.7818609E-02  0.8984228E-01
       -2   -1    0    0    0  501  0.00000000000E+00  0.00000000000E+00  0.10806064849E+04  0.10806064849E+04  0.25500000920E-02 0.  1.
        2   -1    0    0  501    0  0.00000000000E+00  0.00000000000E+00 -0.42712382337E+03  0.42712382338E+03  0.25500000920E-02 0. -1.
    10030    2    1    2    0    0  0.00000000000E+00  0.00000000000E+00  0.65348266153E+03  0.15077303083E+04  0.13587535073E+04 0.  0.
        5    1    3    3  502    0  0.69778532045E+02 -0.67236017742E+03  0.40194717966E+03  0.78646098247E+03  0.46999998093E+01 0. -1.
       -5    1    3    3    0  502 -0.69778532045E+02  0.67236017742E+03  0.25153548187E+03  0.72126932581E+03  0.46999998093E+01 0.  1.
</event>
<event>
 5   0  0.4306214E-03  0.1345496E+04  0.7818609E-02  0.8994245E-01
        2   -1    0    0  501    0  0.00000000000E+00  0.00000000000E+00  0.67658222246E+03  0.67658222247E+03  0.25500000920E-02 0.  1.
       -2   -1    0    0    0  501  0.00000000000E+00  0.00000000000E+00 -0.66893536430E+03  0.66893536431E+03  0.25500000920E-02 0. -1.
    10030    2    1    2    0    0  0.00000000000E+00  0.00000000000E+00  0.76468581595E+01  0.13455175868E+04  0.13454958573E+04 0.  0.
        3    1    3    3  502    0 -0.11258144043E+03  0.17025226467E+03 -0.63722463768E+03  0.66911558301E+03  0.10100000352E+00 0. -1.
       -3    1    3    3    0  502  0.11258144043E+03 -0.17025226467E+03  0.64487149584E+03  0.67640200377E+03  0.10100000352E+00 0.  1.
</event>
<event>
 5   0  0.4453011E-03  0.1292700E+04  0.7818609E-02  0.9035374E-01
        2   -1    0    0  501    0  0.00000000000E+00  0.00000000000E+00  0.16449400826E+04  0.16449400826E+04  0.25500000920E-02 0. -1.
       -2   -1    0    0    0  501  0.00000000000E+00  0.00000000000E+00 -0.25397187379E+03  0.25397187380E+03  0.25500000920E-02 0.  1.
    10030    2    1    2    0    0  0.00000000000E+00  0.00000000000E+00  0.13909682088E+04  0.18989119564E+04  0.12927002979E+04 0.  0.
        1    1    3    3  502    0 -0.50914855806E+03 -0.37995787252E+03  0.87033404293E+03  0.10775349578E+04  0.50400001928E-02 0. -1.
       -1    1    3    3    0  502  0.50914855806E+03  0.37995787252E+03  0.52063416588E+03  0.82137699856E+03  0.50400001928E-02 0.  1.
</event>
<event>
 5   0  0.2462055E-03  0.1293468E+04  0.7818609E-02  0.9034761E-01
       -1   -1    0    0    0  501  0.00000000000E+00  0.00000000000E+00  0.43442281613E+03  0.43442281616E+03  0.50400001928E-02 0.  1.
        1   -1    0    0  501    0  0.00000000000E+00  0.00000000000E+00 -0.96280589634E+03  0.96280589636E+03  0.50400001928E-02 0. -1.
    10030    2    1    2    0    0  0.00000000000E+00  0.00000000000E+00 -0.52838308021E+03  0.13972287125E+04  0.12934679724E+04 0.  0.
        2    1    3    3  502    0  0.12992184688E+03  0.52106736280E+03 -0.65348120464E+03  0.84583010569E+03  0.25500000920E-02 0. -1.
       -2    1    3    3    0  502 -0.12992184688E+03 -0.52106736280E+03  0.12509812443E+03  0.55139860683E+03  0.25500000920E-02 0.  1.
</event>
<event>
 5   0  0.2356769E-03  0.1349324E+04  0.7818609E-02  0.8991340E-01
       -1   -1    0    0    0  501  0.00000000000E+00  0.00000000000E+00  0.49030811324E+03  0.49030811327E+03  0.50400001928E-02 0.  1.
        1   -1    0    0  501    0  0.00000000000E+00  0.00000000000E+00 -0.92833232423E+03  0.92833232424E+03  0.50400001928E-02 0. -1.
    10030    2    1    2    0    0  0.00000000000E+00  0.00000000000E+00 -0.43802421099E+03  0.14186404375E+04  0.13493240832E+04 0.  0.
        1    1    3    3  502    0  0.13573198623E+03 -0.37634602677E+03 -0.79015865836E+03  0.88566935668E+03  0.50400001928E-02 0. -1.
       -1    1    3    3    0  502 -0.13573198623E+03  0.37634602677E+03  0.35213444737E+03  0.53297108083E+03  0.50400001928E-02 0.  1.
</event>
<event>
 5   0  0.4388937E-03  0.1301206E+04  0.7818609E-02  0.9028610E-01
        2   -1    0    0  501    0  0.00000000000E+00  0.00000000000E+00  0.12947860869E+04  0.12947860869E+04  0.25500000920E-02 0.  1.
       -2   -1    0    0    0  501  0.00000000000E+00  0.00000000000E+00 -0.32691424333E+03  0.32691424334E+03  0.25500000920E-02 0. -1.
    10030    2    1    2    0    0  0.00000000000E+00  0.00000000000E+00  0.96787184357E+03  0.16217003302E+04  0.13012056162E+04 0.  0.
        5    1    3    3  502    0  0.76812940863E+02 -0.27030570346E+01 -0.32121476705E+03  0.33031583518E+03  0.46999998093E+01 0. -1.
       -5    1    3    3    0  502 -0.76812940863E+02  0.27030570346E+01  0.12890866106E+04  0.12913844951E+04  0.46999998093E+01 0.  1.
</event>
<event>
 5   0  0.2370801E-03  0.1337695E+04  0.7818609E-02  0.9000195E-01
        1   -1    0    0  501    0  0.00000000000E+00  0.00000000000E+00  0.21574502148E+04  0.21574502148E+04  0.50400001928E-02 0. -1.
       -1   -1    0    0    0  501  0.00000000000E+00  0.00000000000E+00 -0.20735460745E+03  0.20735460751E+03  0.50400001928E-02 0.  1.
    10030    2    1    2    0    0  0.00000000000E+00  0.00000000000E+00  0.19500956073E+04  0.23648048223E+04  0.13376953950E+04 0.  0.
        3    1    3    3  502    0  0.37991849827E+03 -0.77921004434E+02  0.11711570716E+02  0.38800376203E+03  0.10100000352E+00 0.  1.
       -3    1    3    3    0  502 -0.37991849827E+03  0.77921004434E+02  0.19383840366E+04  0.19768010602E+04  0.10100000352E+00 0. -1.
</event>
<event>
 5   0  0.2511542E-03  0.1544053E+04  0.7818609E-02  0.8855676E-01
       -1   -1    0    0    0  501  0.00000000000E+00  0.00000000000E+00  0.97243281928E+03  0.97243281930E+03  0.50400001928E-02 0.  1.
        1   -1    0    0  501    0  0.00000000000E+00  0.00000000000E+00 -0.61292109997E+03  0.61292109999E+03  0.50400001928E-02 0. -1.
    10030    2    1    2    0    0  0.00000000000E+00  0.00000000000E+00  0.35951171931E+03  0.15853539193E+04  0.15440525811E+04 0.  0.
        4    1    3    3  502    0  0.30268634724E+03  0.75648111493E+02  0.90481877779E+03  0.95709993999E+03  0.12699999809E+01 0.  1.
       -4    1    3    3    0  502 -0.30268634724E+03 -0.75648111493E+02 -0.54530705848E+03  0.62825397930E+03  0.12699999809E+01 0. -1.
</event>
<event>
 5   0  0.4388937E-03  0.1296065E+04  0.7818609E-02  0.9032691E-01
        2   -1    0    0  501    0  0.00000000000E+00  0.00000000000E+00  0.10734134927E+04  0.10734134927E+04  0.25500000920E-02 0.  1.
       -2   -1    0    0    0  501  0.00000000000E+00  0.00000000000E+00 -0.39122508810E+03  0.39122508810E+03  0.25500000920E-02 0. -1.
    10030    2    1    2    0    0  0.00000000000E+00  0.00000000000E+00  0.68218840455E+03  0.14646385808E+04  0.12960652580E+04 0.  0.
        5    1    3    3  502    0 -0.10735475378E+03  0.51344577029E+03  0.77107274338E+03  0.93259147958E+03  0.46999998093E+01 0.  1.
       -5    1    3    3    0  502  0.10735475378E+03 -0.51344577029E+03 -0.88884338829E+02  0.53204710118E+03  0.46999998093E+01 0. -1.
</event>
<event>
 5   0  0.2458456E-03  0.1262864E+04  0.7818609E-02  0.9059544E-01
        1   -1    0    0  501    0  0.00000000000E+00  0.00000000000E+00  0.40940001907E+03  0.40940001910E+03  0.50400001928E-02 0.  1.
       -1   -1    0    0    0  501  0.00000000000E+00  0.00000000000E+00 -0.97388024527E+03  0.97388024529E+03  0.50400001928E-02 0. -1.
    10030    2    1    2    0    0  0.00000000000E+00  0.00000000000E+00 -0.56448022620E+03  0.13832802644E+04  0.12628643490E+04 0.  0.
        5    1    3    3  502    0 -0.62152186561E+03  0.10516913918E+03 -0.24222568343E+03  0.67531129784E+03  0.46999998093E+01 0.  1.
       -5    1    3    3    0  502  0.62152186561E+03 -0.10516913918E+03 -0.32225454277E+03  0.70796896656E+03  0.46999998093E+01 0. -1.
</event>
<event>
 5   0  0.4388937E-03  0.7263463E+03  0.7818609E-02  0.9673208E-01
        2   -1    0    0  501    0  0.00000000000E+00  0.00000000000E+00  0.50432502605E+03  0.50432502605E+03  0.25500000920E-02 0.  1.
       -2   -1    0    0    0  501  0.00000000000E+00  0.00000000000E+00 -0.26152724345E+03  0.26152724346E+03  0.25500000920E-02 0. -1.
    10030    2    1    2    0    0  0.00000000000E+00  0.00000000000E+00  0.24279778260E+03  0.76585226951E+03  0.72634629171E+03 0.  0.
        5    1    3    3  502    0 -0.32941661741E+03  0.14627858420E+03  0.16807767700E+03  0.39772468810E+03  0.46999998093E+01 0.  1.
       -5    1    3    3    0  502  0.32941661741E+03 -0.14627858420E+03  0.74720105603E+02  0.36812758142E+03  0.46999998093E+01 0. -1.
</event>
<event>
 5   0  0.4310889E-03  0.1292272E+04  0.7818609E-02  0.9035716E-01
       -2   -1    0    0    0  501  0.00000000000E+00  0.00000000000E+00  0.44743313457E+03  0.44743313458E+03  0.25500000920E-02 0. -1.
        2   -1    0    0  501    0  0.00000000000E+00  0.00000000000E+00 -0.93308217956E+03  0.93308217957E+03  0.25500000920E-02 0.  1.
    10030    2    1    2    0    0  0.00000000000E+00  0.00000000000E+00 -0.48564904499E+03  0.13805153141E+04  0.12922722382E+04 0.  0.
        4    1    3    3  502    0 -0.13349614022E+03 -0.61404768046E+03 -0.82174536602E+02  0.63374288217E+03  0.12699999809E+01 0. -1.
       -4    1    3    3    0  502  0.13349614022E+03  0.61404768046E+03 -0.40347450839E+03  0.74677243197E+03  0.12699999809E+01 0.  1.
</event>
<event>
 5   0  0.4453011E-03  0.1427443E+04  0.7818609E-02  0.8934190E-01
        2   -1    0    0  501    0  0.00000000000E+00  0.00000000000E+00  0.72844227000E+03  0.72844227000E+03  0.25500000920E-02 0.  1.
       -2   -1    0    0    0  501  0.00000000000E+00  0.00000000000E+00 -0.69929784527E+03  0.69929784528E+03  0.25500000920E-02 0. -1.
    10030    2    1    2    0    0  0.00000000000E+00  0.00000000000E+00  0.29144424728E+02  0.14277401153E+04  0.14274426221E+04 0.  0.
        1    1    3    3  502    0  0.66901326527E+03  0.22446123085E+03  0.12153615021E+03  0.71605350994E+03  0.50400001928E-02 0.  1.
       -1    1    3    3    0  502 -0.66901326527E+03 -0.22446123085E+03 -0.92391725486E+02  0.71168660534E+03  0.50400001928E-02 0. -1.
</event>
<event>
 5   0  0.4453011E-03  0.1359901E+04  0.7818609E-02  0.8983367E-01
        2   -1    0    0  501    0  0.00000000000E+00  0.00000000000E+00  0.11466156203E+04  0.11466156203E+04  0.25500000920E-02 0. -1.
       -2   -1    0    0    0  501  0.00000000000E+00  0.00000000000E+00 -0.40321484049E+03  0.40321484050E+03  0.25500000920E-02 0.  1.
    10030    2    1    2    0    0  0.00000000000E+00  0.00000000000E+00  0.74340077985E+03  0.15498304608E+04  0.13599006353E+04 0.  0.
        1    1    3    3  502    0  0.11363168224E+03 -0.64972266127E+03  0.18346335276E+03  0.68462434780E+03  0.50400001928E-02 0. -1.
       -1    1    3    3    0  502 -0.11363168224E+03  0.64972266127E+03  0.55993742709E+03  0.86520611305E+03  0.50400001928E-02 0.  1.
</event>
<event>
 5   0  0.2462055E-03  0.1308704E+04  0.7818609E-02  0.9022691E-01
       -1   -1    0    0    0  501  0.00000000000E+00  0.00000000000E+00  0.36480463720E+03  0.36480463723E+03  0.50400001928E-02 0. -1.
        1   -1    0    0  501    0  0.00000000000E+00  0.00000000000E+00 -0.11737151458E+04  0.11737151458E+04  0.50400001928E-02 0.  1.
    10030    2    1    2    0    0  0.00000000000E+00  0.00000000000E+00 -0.80891050864E+03  0.15385197831E+04  0.13087042874E+04 0.  0.
        2    1    3    3  502    0  0.31763386523E+03  0.56991426779E+03 -0.46303748763E+03  0.80006078514E+03  0.25500000920E-02 0. -1.
       -2    1    3    3    0  502 -0.31763386523E+03 -0.56991426779E+03 -0.34587302101E+03  0.73845899794E+03  0.25500000920E-02 0.  1.
</event>
<event>
 5   0  0.4453011E-03  0.1303898E+04  0.7818609E-02  0.9026480E-01
        2   -1    0    0  501    0  0.00000000000E+00  0.00000000000E+00  0.10342294381E+04  0.10342294381E+04  0.25500000920E-02 0. -1.
       -2   -1    0    0    0  501  0.00000000000E+00  0.00000000000E+00 -0.41097011102E+03  0.41097011103E+03  0.25500000920E-02 0.  1.
    10030    2    1    2    0    0  0.00000000000E+00  0.00000000000E+00  0.62325932707E+03  0.14451995491E+04  0.13038978288E+04 0.  0.
        1    1    3    3  502    0 -0.15256585487E+03 -0.96741868083E+02  0.10059340250E+04  0.10220267079E+04  0.50400001928E-02 0. -1.
       -1    1    3    3    0  502  0.15256585487E+03  0.96741868083E+02 -0.38267469788E+03  0.42317284121E+03  0.50400001928E-02 0.  1.
</event>
<event>
 5   0  0.2458456E-03  0.1326754E+04  0.7818609E-02  0.9008614E-01
        1   -1    0    0  501    0  0.00000000000E+00  0.00000000000E+00  0.17738774808E+04  0.17738774808E+04  0.50400001928E-02 0.  1.
       -1   -1    0    0    0  501  0.00000000000E+00  0.00000000000E+00 -0.24808322803E+03  0.24808322809E+03  0.50400001928E-02 0. -1.
    10030    2    1    2    0    0  0.00000000000E+00  0.00000000000E+00  0.15257942528E+04  0.20219607089E+04  0.13267543128E+04 0.  0.
        5    1    3    3  502    0 -0.64177259009E+03  0.10093874092E+03  0.96728504978E+03  0.11652137762E+04  0.46999998093E+01 0.  1.
       -5    1    3    3    0  502  0.64177259009E+03 -0.10093874092E+03  0.55850920302E+03  0.85674693269E+03  0.46999998093E+01 0. -1.
</event>
<event>
 5   0  0.2370801E-03  0.1275188E+04  0.7818609E-02  0.9049476E-01
        1   -1    0    0  501    0  0.00000000000E+00  0.00000000000E+00  0.72829527605E+03  0.72829527607E+03  0.50400001928E-02 0.  1.
       -1   -1    0    0    0  501  0.00000000000E+00  0.00000000000E+00 -0.55818875099E+03  0.55818875101E+03  0.50400001928E-02 0. -1.
    10030    2    1    2    0    0  0.00000000000E+00  0.00000000000E+00  0.17010652506E+03  0.12864840271E+04  0.12751881908E+04 0.  0.
        3    1    3    3  502    0  0.18921911921E+03 -0.55088539165E+03 -0.17656533274E+03  0.60864925592E+03  0.10100000352E+00 0.  1.
       -3    1    3    3    0  502 -0.18921911921E+03  0.55088539165E+03  0.34667185779E+03  0.67783477116E+03  0.10100000352E+00 0. -1.
</event>
<event>
 5   0  0.4310889E-03  0.1373027E+04  0.7818609E-02  0.8973577E-01
        2   -1    0    0  501    0  0.00000000000E+00  0.00000000000E+00  0.15764745857E+04  0.15764745857E+04  0.25500000920E-02 0. -1.
       -2   -1    0    0    0  501  0.00000000000E+00  0.00000000000E+00 -0.29895888935E+03  0.29895888936E+03  0.25500000920E-02 0.  1.
    10030    2    1    2    0    0  0.00000000000E+00  0.00000000000E+00  0.12775156963E+04  0.18754334750E+04  0.13730274451E+04 0.  0.
        4    1    3    3  502    0  0.33339166608E+03 -0.17424809979E+03 -0.14564517835E+03  0.40339377061E+03  0.12699999809E+01 0.  1.
       -4    1    3    3    0  502 -0.33339166608E+03  0.17424809979E+03  0.14231608747E+04  0.14720397044E+04  0.12699999809E+01 0. -1.
</event>
<event>
 5   0  0.2511542E-03  0.7034375E+03  0.7818609E-02  0.9711372E-01
        1   -1    0    0  501    0  0.00000000000E+00  0.00000000000E+00  0.13870258042E+03  0.13870258051E+03  0.50400001928E-02 0. -1.
       -1   -1    0    0    0  501  0.00000000000E+00  0.00000000000E+00 -0.89188010286E+03  0.89188010287E+03  0.50400001928E-02 0.  1.
    10030    2    1    2    0    0  0.00000000000E+00  0.00000000000E+00 -0.75317752244E+03  0.10305826834E+04  0.70343747909E+03 0.  0.
        4    1    3    3  502    0  0.12132975123E+03  0.24105556787E+03 -0.46133396283E+02  0.27378567985E+03  0.12699999809E+01 0. -1.
       -4    1    3    3    0  502 -0.12132975123E+03 -0.24105556787E+03 -0.70704412616E+03  0.75679700354E+03  0.12699999809E+01 0.  1.
</event>
<event>
 5   0  0.4306214E-03  0.1290407E+04  0.7818609E-02  0.9037207E-01
        2   -1    0    0  501    0  0.00000000000E+00  0.00000000000E+00  0.45223752727E+03  0.45223752728E+03  0.25500000920E-02 0.  1.
       -2   -1    0    0    0  501  0.00000000000E+00  0.00000000000E+00 -0.92050622701E+03  0.92050622702E+03  0.25500000920E-02 0. -1.
    10030    2    1    2    0    0  0.00000000000E+00  0.00000000000E+00 -0.46826869975E+03  0.13727437543E+04  0.12904068505E+04 0.  0.
        3    1    3    3  502    0 -0.34528911878E+03 -0.40538662213E+03  0.15342521971E+03  0.55416802253E+03  0.10100000352E+00 0.  1.
       -3    1    3    3    0  502  0.34528911878E+03  0.40538662213E+03 -0.62169391945E+03  0.81857573176E+03  0.10100000352E+00 0. -1.
</event>
<event>
 5   0  0.4306214E-03  0.1348030E+04  0.7818609E-02  0.8992321E-01
       -2   -1    0    0    0  501  0.00000000000E+00  0.00000000000E+00  0.47246938381E+03  0.47246938381E+03  0.25500000920E-02 0. -1.
        2   -1    0    0  501    0  0.00000000000E+00  0.00000000000E+00 -0.96153594748E+03  0.96153594748E+03  0.25500000920E-02 0.  1.
    10030    2    1    2    0    0  0.00000000000E+00  0.00000000000E+00 -0.48906656367E+03  0.14340053313E+04  0.13480301133E+04 0.  0.
        3    1    3    3  502    0 -0.19195763052E+03 -0.52337994079E+03 -0.64753824891E+03  0.85444724140E+03  0.10100000352E+00 0.  1.
       -3    1    3    3    0  502  0.19195763052E+03  0.52337994079E+03  0.15847168524E+03  0.57955808989E+03  0.10100000352E+00 0. -1.
</event>
<event>
 5   0  0.4306214E-03  0.1212771E+04  0.7818609E-02  0.9101751E-01
       -2   -1    0    0    0  501  0.00000000000E+00  0.00000000000E+00  0.31730281761E+03  0.31730281762E+03  0.25500000920E-02 0.  1.
        2   -1    0    0  501    0  0.00000000000E+00  0.00000000000E+00 -0.11588411713E+04  0.11588411713E+04  0.25500000920E-02 0. -1.
    10030    2    1    2    0    0  0.00000000000E+00  0.00000000000E+00 -0.84153835364E+03  0.14761439889E+04  0.12127713203E+04 0.  0.
        3    1    3    3  502    0 -0.22455408283E+03 -0.51728736256E+02 -0.11034714433E+04  0.11272753145E+04  0.10100000352E+00 0. -1.
       -3    1    3    3    0  502  0.22455408283E+03  0.51728736256E+02  0.26193308969E+03  0.34886867436E+03  0.10100000352E+00 0.  1.
</event>
<event>
 5   0  0.2462055E-03  0.1284756E+04  0.7818609E-02  0.9041742E-01
        1   -1    0    0  501    0  0.00000000000E+00  0.00000000000E+00  0.53906146509E+03  0.53906146512E+03  0.50400001928E-02 0. -1.
       -1   -1    0    0    0  501  0.00000000000E+00  0.00000000000E+00 -0.76549619909E+03  0.76549619910E+03  0.50400001928E-02 0.  1.
    10030    2    1    2    0    0  0.00000000000E+00  0.00000000000E+00 -0.22643473399E+03  0.13045576642E+04  0.12847560121E+04 0.  0.
        2    1    3    3  502    0  0.46254677185E+03 -0.59289591787E+02  0.33538911236E+03  0.57441329070E+03  0.25500000920E-02 0. -1.
       -2    1    3    3    0  502 -0.46254677185E+03  0.59289591787E+02 -0.56182384636E+03  0.73014437352E+03  0.25500000920E-02 0.  1.
</event>
<event>
 5   0  0.4388937E-03  0.1278715E+04  0.7818609E-02  0.9046616E-01
       -2   -1    0    0    0  501  0.00000000000E+00  0.00000000000E+00  0.10095140100E+04  0.10095140100E+04  0.25500000920E-02 0. -1.
        2   -1    0    0  501    0  0.00000000000E+00  0.00000000000E+00 -0.40492576581E+03  0.40492576582E+03  0.25500000920E-02 0.  1.
    10030    2    1    2    0    0  0.00000000000E+00  0.00000000000E+00  0.60458824415E+03  0.14144397758E+04  0.12787153453E+04 0.  0.
        5    1    3    3  502    0  0.27021550164E+03 -0.46169658261E+03  0.68956361943E+03  0.87275439097E+03  0.46999998093E+01 0. -1.
       -5    1    3    3    0  502 -0.27021550164E+03  0.46169658261E+03 -0.84975375280E+02  0.54168538482E+03  0.46999998093E+01 0.  1.
</event>
<event>
 5   0  0.4388937E-03  0.1316317E+04  0.7818609E-02  0.9016725E-01
        2   -1    0    0  501    0  0.00000000000E+00  0.00000000000E+00  0.10764949277E+04  0.10764949277E+04  0.25500000920E-02 0. -1.
       -2   -1    0    0    0  501  0.00000000000E+00  0.00000000000E+00 -0.40239187981E+03  0.40239187982E+03  0.25500000920E-02 0.  1.
    10030    2    1    2    0    0  0.00000000000E+00  0.00000000000E+00  0.67410304790E+03  0.14788868075E+04  0.13163173137E+04 0.  0.
        5    1    3    3  502    0  0.15013737157E+03 -0.10579234625E+03  0.10470997930E+04  0.10630960997E+04  0.46999998093E+01 0. -1.
       -5    1    3    3    0  502 -0.15013737157E+03  0.10579234625E+03 -0.37299674505E+03  0.41579070779E+03  0.46999998093E+01 0.  1.
</event>
<event>
 5   0  0.4310889E-03  0.1268813E+04  0.7818609E-02  0.9054669E-01
        2   -1    0    0  501    0  0.00000000000E+00  0.00000000000E+00  0.56367281152E+03  0.56367281153E+03  0.25500000920E-02 0. -1.
       -2   -1    0    0    0  501  0.00000000000E+00  0.00000000000E+00 -0.71401645180E+03  0.71401645181E+03  0.25500000920E-02 0.  1.
    10030    2    1    2    0    0  0.00000000000E+00  0.00000000000E+00 -0.15034364028E+03  0.12776892633E+04  0.12688130845E+04 0.  0.
        4    1    3    3  502    0 -0.14561744107E+03 -0.30296094312E+03 -0.61696943094E+03  0.70259708498E+03  0.12699999809E+01 0.  1.
       -4    1    3    3    0  502  0.14561744107E+03  0.30296094312E+03  0.46662579066E+03  0.57509217836E+03  0.12699999809E+01 0. -1.
</event>
<event>
 5   0  0.4310889E-03  0.1412241E+04  0.7818609E-02  0.8945005E-01
       -2   -1    0    0    0  501  0.00000000000E+00  0.00000000000E+00  0.11847571332E+04  0.11847571332E+04  0.25500000920E-02 0. -1.
        2   -1    0    0  501    0  0.00000000000E+00  0.00000000000E+00 -0.42085114357E+03  0.42085114357E+03  0.25500000920E-02 0.  1.
    10030    2    1    2    0    0  0.00000000000E+00  0.00000000000E+00  0.76390598963E+03  0.16056082768E+04  0.14122413312E+04 0.  0.
        4    1    3    3  502    0  0.58082359158E+03 -0.33084094416E+03  0.12321140519E+03  0.67970172733E+03  0.12699999809E+01 0.  1.
       -4    1    3    3    0  502 -0.58082359158E+03  0.33084094416E+03  0.64069458444E+03  0.92590654944E+03  0.12699999809E+01 0. -1.
</event>
<event>
 5   0  0.2462055E-03  0.1299329E+04  0.7818609E-02  0.9030098E-01
       -1   -1    0    0    0  501  0.00000000000E+00  0.00000000000E+00  0.24932639968E+03  0.24932639973E+03  0.50400001928E-02 0.  1.
        1   -1    0    0  501    0  0.00000000000E+00  0.00000000000E+00 -0.16928163751E+04  0.16928163751E+04  0.50400001928E-02 0. -1.
    10030    2    1    2    0    0  0.00000000000E+00  0.00000000000E+00 -0.14434899754E+04  0.19421427748E+04  0.12993287685E+04 0.  0.
        2    1    3    3  502    0  0.31462652462E+03 -0.44979925491E+03 -0.12411593181E+04  0.13571240447E+04  0.25500000920E-02 0.  1.
       -2    1    3    3    0  502 -0.31462652462E+03  0.44979925491E+03 -0.20233065728E+03  0.58501873012E+03  0.25500000920E-02 0. -1.
</event>
<event>
 5   0  0.4306214E-03  0.1364573E+04  0.7818609E-02  0.8979869E-01
        2   -1    0    0  501    0  0.00000000000E+00  0.00000000000E+00  0.64772733158E+03  0.64772733158E+03  0.25500000920E-02 0. -1.
       -2   -1    0    0    0  501  0.00000000000E+00  0.00000000000E+00 -0.71868996603E+03  0.71868996604E+03  0.25500000920E-02 0.  1.
    10030    2    1    2    0    0  0.00000000000E+00  0.00000000000E+00 -0.70962634455E+02  0.13664172976E+04  0.13645733897E+04 0.  0.
        3    1    3    3  502    0  0.29246234970E+03  0.22714462737E+03 -0.60930558730E+03  0.71300926828E+03  0.10100000352E+00 0.  1.
       -3    1    3    3    0  502 -0.29246234970E+03 -0.22714462737E+03  0.53834295284E+03  0.65340802934E+03  0.10100000352E+00 0. -1.
</event>
<event>
 5   0  0.2511542E-03  0.1325547E+04  0.7818609E-02  0.9009548E-01
        1   -1    0    0  501    0  0.00000000000E+00  0.00000000000E+00  0.47245141031E+03  0.47245141034E+03  0.50400001928E-02 0.  1.
       -1   -1    0    0    0  501  0.00000000000E+00  0.00000000000E+00 -0.92976537760E+03  0.92976537761E+03  0.50400001928E-02 0. -1.
    10030    2    1    2    0    0  0.00000000000E+00  0.00000000000E+00 -0.45731396728E+03  0.14022167880E+04  0.13255473797E+04 0.  0.
        4    1    3    3  502    0  0.33159000359E+03  0.46411212612E+03  0.12837822087E+03  0.58466620955E+03  0.12699999809E+01 0.  1.
       -4    1    3    3    0  502 -0.33159000359E+03 -0.46411212612E+03 -0.58569218815E+03  0.81755057841E+03  0.12699999809E+01 0. -1.
</event>
<event>
 5   0  0.4453011E-03  0.1378107E+04  0.7818609E-02  0.8969820E-01
        2   -1    0    0  501    0  0.00000000000E+00  0.00000000000E+00  0.14981232094E+04  0.14981232094E+04  0.25500000920E-02 0.  1.
       -2   -1    0    0    0  501  0.00000000000E+00  0.00000000000E+00 -0.31692628394E+03  0.31692628395E+03  0.25500000920E-02 0. -1.
    10030    2    1    2    0    0  0.00000000000E+00  0.00000000000E+00  0.11811969255E+04  0.18150494934E+04  0.13781068488E+04 0.  0.
        1    1    3    3  502    0 -0.25907014904E+03 -0.57881409104E+03  0.94559813816E+03  0.11385512430E+04  0.50400001928E-02 0.  1.
       -1    1    3    3    0  502  0.25907014904E+03  0.57881409104E+03  0.23559878734E+03  0.67649825036E+03  0.50400001928E-02 0. -1.
</event>
<event>
 5   0  0.4263540E-03  0.1284627E+04  0.7818609E-02  0.9041846E-01
        2   -1    0    0  501    0  0.00000000000E+00  0.00000000000E+00  0.76527201449E+03  0.76527201449E+03  0.25500000920E-02 0.  1.
       -2   -1    0    0    0  501  0.00000000000E+00  0.00000000000E+00 -0.53911099600E+03  0.53911099600E+03  0.25500000920E-02 0. -1.
    10030    2    1    2    0    0  0.00000000000E+00  0.00000000000E+00  0.22616101849E+03  0.13043830105E+04  0.12846268843E+04 0.  0.
        2    1    3    3  502    0 -0.16453661669E+03  0.61091445354E+03  0.57125904057E+00  0.63268403972E+03  0.25500000920E-02 0.  1.
       -2    1    3    3    0  502  0.16453661669E+03 -0.61091445354E+03  0.22558975945E+03  0.67169897078E+03  0.25500000920E-02 0. -1.
</event>
<event>
 5   0  0.2511542E-03  0.1281583E+04  0.7818609E-02  0.9044299E-01
        1   -1    0    0  501    0  0.00000000000E+00  0.00000000000E+00  0.20105357936E+04  0.20105357936E+04  0.50400001928E-02 0.  1.
       -1   -1    0    0    0  501  0.00000000000E+00  0.00000000000E+00 -0.20423089956E+03  0.20423089962E+03  0.50400001928E-02 0. -1.
    10030    2    1    2    0    0  0.00000000000E+00  0.00000000000E+00  0.18063048940E+04  0.22147666932E+04  0.12815826681E+04 0.  0.
        4    1    3    3  502    0  0.54174480786E+03  0.89382402353E+02  0.14740575465E+04  0.15729983834E+04  0.12699999809E+01 0.  1.
       -4    1    3    3    0  502 -0.54174480786E+03 -0.89382402353E+02  0.33224734747E+03  0.64176830982E+03  0.12699999809E+01 0. -1.
</event>
<event>
 5   0  0.2462055E-03  0.1293912E+04  0.7818609E-02  0.9034407E-01
        1   -1    0    0  501    0  0.00000000000E+00  0.00000000000E+00  0.73193581362E+03  0.73193581364E+03  0.50400001928E-02 0.  1.
       -1   -1    0    0    0  501  0.00000000000E+00  0.00000000000E+00 -0.57184233562E+03  0.57184233564E+03  0.50400001928E-02 0. -1.
    10030    2    1    2    0    0  0.00000000000E+00  0.00000000000E+00  0.16009347800E+03  0.13037781493E+04  0.12939117206E+04 0.  0.
        2    1    3    3  502    0 -0.17727938859E+03  0.39568898507E+03 -0.40377514149E+03  0.59247963629E+03  0.25500000920E-02 0. -1.
       -2    1    3    3    0  502  0.17727938859E+03 -0.39568898507E+03  0.56386861950E+03  0.71129851299E+03  0.25500000920E-02 0.  1.
</event>
<event>
 5   0  0.4310889E-03  0.1117539E+04  0.7818609E-02  0.9188264E-01
       -2   -1    0    0    0  501  0.00000000000E+00  0.00000000000E+00  0.83793359873E+03  0.83793359873E+03  0.25500000920E-02 0. -1.
        2   -1    0    0  501    0  0.00000000000E+00  0.00000000000E+00 -0.37261079425E+03  0.37261079425E+03  0.25500000920E-02 0.  1.
    10030    2    1    2    0    0  0.00000000000E+00  0.00000000000E+00  0.46532280448E+03  0.12105443930E+04  0.11175385519E+04 0.  0.
        4    1    3    3  502    0  0.81326299269E+02 -0.14810590822E+03 -0.34427317375E+03  0.38350353071E+03  0.12699999809E+01 0.  1.
       -4    1    3    3    0  502 -0.81326299269E+02  0.14810590822E+03  0.80959597824E+03  0.82704086228E+03  0.12699999809E+01 0. -1.
</event>
<event>
 5   0  0.4310889E-03  0.1313885E+04  0.7818609E-02  0.9018626E-01
        2   -1    0    0  501    0  0.00000000000E+00  0.00000000000E+00  0.11946260704E+04  0.11946260704E+04  0.25500000920E-02 0.  1.
       -2   -1    0    0    0  501  0.00000000000E+00  0.00000000000E+00 -0.36126231032E+03  0.36126231033E+03  0.25500000920E-02 0. -1.
    10030    2    1    2    0    0  0.00000000000E+00  0.00000000000E+00  0.83336376012E+03  0.15558883808E+04  0.13138848872E+04 0.  0.
        4    1    3    3  502    0  0.48214444838E+03 -0.43845192617E+03  0.31854123010E+03  0.72537816954E+03  0.12699999809E+01 0. -1.
       -4    1    3    3    0  502 -0.48214444838E+03  0.43845192617E+03  0.51482253002E+03  0.83051021125E+03  0.12699999809E+01 0.  1.
</event>
<event>
 5   0  0.2511542E-03  0.1470201E+04  0.7818609E-02  0.8904514E-01
        1   -1    0    0  501    0  0.00000000000E+00  0.00000000000E+00  0.68717038495E+03  0.68717038496E+03  0.50400001928E-02 0.  1.
       -1   -1    0    0    0  501  0.00000000000E+00  0.00000000000E+00 -0.78637345029E+03  0.78637345030E+03  0.50400001928E-02 0. -1.
    10030    2    1    2    0    0  0.00000000000E+00  0.00000000000E+00 -0.99203065340E+02  0.14735438353E+04  0.14702007299E+04 0.  0.
        4    1    3    3  502    0  0.83342600263E+02  0.18983931448E+03  0.65725812374E+03  0.68918416150E+03  0.12699999809E+01 0.  1.
       -4    1    3    3    0  502 -0.83342600263E+02 -0.18983931448E+03 -0.75646118908E+03  0.78435967376E+03  0.12699999809E+01 0. -1.
</event>
<event>
 5   0  0.2462055E-03  0.1301725E+04  0.7818609E-02  0.9028198E-01
       -1   -1    0    0    0  501  0.00000000000E+00  0.00000000000E+00  0.74978347158E+03  0.74978347160E+03  0.50400001928E-02 0.  1.
        1   -1    0    0  501    0  0.00000000000E+00  0.00000000000E+00 -0.56499255134E+03  0.56499255137E+03  0.50400001928E-02 0. -1.
    10030    2    1    2    0    0  0.00000000000E+00  0.00000000000E+00  0.18479092024E+03  0.13147760230E+04  0.13017251270E+04 0.  0.
        2    1    3    3  502    0  0.44984987420E+01 -0.35724806699E+03  0.64188633570E+03  0.73461859889E+03  0.25500000920E-02 0.  1.
       -2    1    3    3    0  502 -0.44984987420E+01  0.35724806699E+03 -0.45709541547E+03  0.58015742408E+03  0.25500000920E-02 0. -1.
</event>
<event>
 5   0  0.4388937E-03  0.1212912E+04  0.7818609E-02  0.9101629E-01
        2   -1    0    0  501    0  0.00000000000E+00  0.00000000000E+00  0.10050880699E+04  0.10050880699E+04  0.25500000920E-02 0. -1.
       -2   -1    0    0    0  501  0.00000000000E+00  0.00000000000E+00 -0.36592715131E+03  0.36592715132E+03  0.25500000920E-02 0.  1.
    10030    2    1    2    0    0  0.00000000000E+00  0.00000000000E+00  0.63916091863E+03  0.13710152213E+04  0.12129122215E+04 0.  0.
        5    1    3    3  502    0 -0.40975673748E+03  0.22482335611E+03 -0.11720991262E+03  0.48187797105E+03  0.46999998093E+01 0.  1.
       -5    1    3    3    0  502  0.40975673748E+03 -0.22482335611E+03  0.75637083125E+03  0.88913725022E+03  0.46999998093E+01 0. -1.
</event>
<event>
 5   0  0.4388937E-03  0.1317629E+04  0.7818609E-02  0.9015701E-01
        2   -1    0    0  501    0  0.00000000000E+00  0.00000000000E+00  0.68553536325E+03  0.68553536326E+03  0.25500000920E-02 0. -1.
       -2   -1    0    0    0  501  0.00000000000E+00  0.00000000000E+00 -0.63313546894E+03  0.63313546895E+03  0.25500000920E-02 0.  1.
    10030    2    1    2    0    0  0.00000000000E+00  0.00000000000E+00  0.52399894310E+02  0.13186708322E+04  0.13176293161E+04 0.  0.
        5    1    3    3  502    0 -0.19994805930E+03 -0.49729615002E+03 -0.35715893928E+03  0.64410192140E+03  0.46999998093E+01 0.  1.
       -5    1    3    3    0  502  0.19994805930E+03  0.49729615002E+03  0.40955883359E+03  0.67456891080E+03  0.46999998093E+01 0. -1.
</event>
<event>
 5   0  0.2458456E-03  0.1234133E+04  0.7818609E-02  0.9083494E-01
       -1   -1    0    0    0  501  0.00000000000E+00  0.00000000000E+00  0.52728668108E+03  0.52728668111E+03  0.50400001928E-02 0.  1.
        1   -1    0    0  501    0  0.00000000000E+00  0.00000000000E+00 -0.72213292882E+03  0.72213292884E+03  0.50400001928E-02 0. -1.
    10030    2    1    2    0    0  0.00000000000E+00  0.00000000000E+00 -0.19484624774E+03  0.12494196099E+04  0.12341330161E+04 0.  0.
        5    1    3    3  502    0  0.39551394021E+03 -0.27473830458E+03  0.29314894050E+03  0.56380032300E+03  0.46999998093E+01 0.  1.
       -5    1    3    3    0  502 -0.39551394021E+03  0.27473830458E+03 -0.48799518824E+03  0.68561928695E+03  0.46999998093E+01 0. -1.
</event>
<event>
 5   0  0.4263540E-03  0.1304336E+04  0.7818609E-02  0.9026133E-01
       -2   -1    0    0    0  501  0.00000000000E+00  0.00000000000E+00  0.86941284431E+03  0.86941284432E+03  0.25500000920E-02 0.  1.
        2   -1    0    0  501    0  0.00000000000E+00  0.00000000000E+00 -0.48920765529E+03  0.48920765530E+03  0.25500000920E-02 0. -1.
    10030    2    1    2    0    0  0.00000000000E+00  0.00000000000E+00  0.38020518903E+03  0.13586204996E+04  0.13043364889E+04 0.  0.
        2    1    3    3  502    0  0.32500502970E+03  0.26027238543E+03 -0.33273723124E+03  0.53299535552E+03  0.25500000920E-02 0. -1.
       -2    1    3    3    0  502 -0.32500502970E+03 -0.26027238543E+03  0.71294242026E+03  0.82562514410E+03  0.25500000920E-02 0.  1.
</event>
<event>
 5   0  0.2511542E-03  0.1281929E+04  0.7818609E-02  0.9044019E-01
        1   -1    0    0  501    0  0.00000000000E+00  0.00000000000E+00  0.71649182422E+03  0.71649182424E+03  0.50400001928E-02 0. -1.
       -1   -1    0    0    0  501  0.00000000000E+00  0.00000000000E+00 -0.57339911973E+03  0.57339911975E+03  0.50400001928E-02 0.  1.
    10030    2    1    2    0    0  0.00000000000E+00  0.00000000000E+00  0.14309270449E+03  0.12898909440E+04  0.12819294541E+04 0.  0.
        4    1    3    3  502    0  0.13589267913E+03  0.22038212779E+03 -0.51843897870E+03  0.57949606558E+03  0.12699999809E+01 0.  1.
       -4    1    3    3    0  502 -0.13589267913E+03 -0.22038212779E+03  0.66153168319E+03  0.71039487840E+03  0.12699999809E+01 0. -1.
</event>
<event>
 5   0  0.4306214E-03  0.1290228E+04  0.7818609E-02  0.9037351E-01
       -2   -1    0    0    0  501  0.00000000000E+00  0.00000000000E+00  0.54243186111E+03  0.54243186112E+03  0.25500000920E-02 0. -1.
        2   -1    0    0  501    0  0.00000000000E+00  0.00000000000E+00 -0.76723357176E+03  0.76723357177E+03  0.25500000920E-02 0.  1.
    10030    2    1    2    0    0  0.00000000000E+00  0.00000000000E+00 -0.22480171065E+03  0.13096654329E+04  0.12902277849E+04 0.  0.
        3    1    3    3  502    0 -0.53405063898E+03 -0.35280228531E+03 -0.30611617942E+02  0.64079374128E+03  0.10100000352E+00 0. -1.
       -3    1    3    3    0  502  0.53405063898E+03  0.35280228531E+03 -0.19419009271E+03  0.66887169160E+03  0.10100000352E+00 0.  1.
</event>
<event>
 5   0  0.1661750E-03  0.1385621E+04  0.7818609E-02  0.8964293E-01
        4   -1    0    0  501    0  0.00000000000E+00  0.00000000000E+00  0.49499819683E+03  0.49499982602E+03  0.12699999809E+01 0. -1.
       -4   -1    0    0    0  501  0.00000000000E+00  0.00000000000E+00 -0.96966959919E+03  0.96967043087E+03  0.12699999809E+01 0.  1.
    10030    2    1    2    0    0  0.00000000000E+00  0.00000000000E+00 -0.47467140237E+03  0.14646702569E+04  0.13856211680E+04 0.  0.
        2    1    3    3  502    0  0.12657752033E+03 -0.68105827577E+03 -0.22555248372E+03  0.72851641476E+03  0.25500000920E-02 0. -1.
       -2    1    3    3    0  502 -0.12657752033E+03  0.68105827577E+03 -0.24911891865E+03  0.73615384213E+03  0.25500000920E-02 0.  1.
</event>
<event>
 5   0  0.4263540E-03  0.1272559E+04  0.7818609E-02  0.9051614E-01
       -2   -1    0    0    0  501  0.00000000000E+00  0.00000000000E+00  0.24775692839E+03  0.24775692841E+03  0.25500000920E-02 0.  1.
        2   -1    0    0  501    0  0.00000000000E+00  0.00000000000E+00 -0.16340673600E+04  0.16340673600E+04  0.25500000920E-02 0. -1.
    10030    2    1    2    0    0  0.00000000000E+00  0.00000000000E+00 -0.13863104316E+04  0.18818242884E+04  0.12725588551E+04 0.  0.
        2    1    3    3  502    0  0.51453990168E+03 -0.19609315549E+03 -0.11646207118E+04  0.12882333788E+04  0.25500000920E-02 0. -1.
       -2    1    3    3    0  502 -0.51453990168E+03  0.19609315549E+03 -0.22168971985E+03  0.59359090959E+03  0.25500000920E-02 0.  1.
</event>
<event>
 5   0  0.2370801E-03  0.1269438E+04  0.7818609E-02  0.9054158E-01
        1   -1    0    0  501    0  0.00000000000E+00  0.00000000000E+00  0.21841784173E+04  0.21841784173E+04  0.50400001928E-02 0. -1.
       -1   -1    0    0    0  501  0.00000000000E+00  0.00000000000E+00 -0.18444842337E+03  0.18444842344E+03  0.50400001928E-02 0.  1.
    10030    2    1    2    0    0  0.00000000000E+00  0.00000000000E+00  0.19997299939E+04  0.23686268407E+04  0.12694380891E+04 0.  0.
        3    1    3    3  502    0 -0.29562221626E+03  0.43883032929E+03  0.34572966912E+03  0.63205503476E+03  0.10100000352E+00 0. -1.
       -3    1    3    3    0  502  0.29562221626E+03 -0.43883032929E+03  0.16540003248E+04  0.17365718059E+04  0.10100000352E+00 0.  1.
</event>
<event>
 5   0  0.4263540E-03  0.1302082E+04  0.7818609E-02  0.9027916E-01
       -2   -1    0    0    0  501  0.00000000000E+00  0.00000000000E+00  0.20941796114E+03  0.20941796115E+03  0.25500000920E-02 0. -1.
        2   -1    0    0  501    0  0.00000000000E+00  0.00000000000E+00 -0.20239633547E+04  0.20239633547E+04  0.25500000920E-02 0.  1.
    10030    2    1    2    0    0  0.00000000000E+00  0.00000000000E+00 -0.18145453936E+04  0.22333813159E+04  0.13020818395E+04 0.  0.
        2    1    3    3  502    0  0.36980588801E+03  0.52763255475E+03 -0.10672758109E+04  0.12466876770E+04  0.25500000920E-02 0.  1.
       -2    1    3    3    0  502 -0.36980588801E+03 -0.52763255475E+03 -0.74726958272E+03  0.98669363883E+03  0.25500000920E-02 0. -1.
</event>
<event>
 5   0  0.2458456E-03  0.1234565E+04  0.7818609E-02  0.9083129E-01
       -1   -1    0    0    0  501  0.00000000000E+00  0.00000000000E+00  0.14021938770E+04  0.14021938770E+04  0.50400001928E-02 0.  1.
        1   -1    0    0  501    0  0.00000000000E+00  0.00000000000E+00 -0.27174384820E+03  0.27174384825E+03  0.50400001928E-02 0. -1.
    10030    2    1    2    0    0  0.00000000000E+00  0.00000000000E+00  0.11304500288E+04  0.16739377252E+04  0.12345647980E+04 0.  0.
        5    1    3    3  502    0 -0.31040409578E+03 -0.49448346408E+03  0.29353548968E+03  0.65349045336E+03  0.46999998093E+01 0. -1.
       -5    1    3    3    0  502  0.31040409578E+03  0.49448346408E+03  0.83691453907E+03  0.10204472719E+04  0.46999998093E+01 0.  1.
</event>
<event>
 5   0  0.2511542E-03  0.1297049E+04  0.7818609E-02  0.9031909E-01
        1   -1    0    0  501    0  0.00000000000E+00  0.00000000000E+00  0.83285132989E+03  0.83285132991E+03  0.50400001928E-02 0.  1.
       -1   -1    0    0    0  501  0.00000000000E+00  0.00000000000E+00 -0.50499258440E+03  0.50499258443E+03  0.50400001928E-02 0. -1.
    10030    2    1    2    0    0  0.00000000000E+00  0.00000000000E+00  0.32785874549E+03  0.13378439143E+04  0.12970485658E+04 0.  0.
        4    1    3    3  502    0  0.20023718464E+03  0.14022509055E+03  0.78350880747E+03  0.82075920367E+03  0.12699999809E+01 0.  1.
       -4    1    3    3    0  502 -0.20023718464E+03 -0.14022509055E+03 -0.45565006197E+03  0.51708471067E+03  0.12699999809E+01 0. -1.
</event>
<event>
 5   0  0.4306214E-03  0.1317792E+04  0.7818609E-02  0.9015574E-01
        2   -1    0    0  501    0  0.00000000000E+00  0.00000000000E+00  0.11320138996E+04  0.11320138996E+04  0.25500000920E-02 0.  1.
       -2   -1    0    0    0  501  0.00000000000E+00  0.00000000000E+00 -0.38351461298E+03  0.38351461299E+03  0.25500000920E-02 0. -1.
    10030    2    1    2    0    0  0.00000000000E+00  0.00000000000E+00  0.74849928661E+03  0.15155285126E+04  0.13177918995E+04 0.  0.
        3    1    3    3  502    0  0.62416191250E+03 -0.13336529134E+02  0.61654752010E+03  0.87743194082E+03  0.10100000352E+00 0. -1.
       -3    1    3    3    0  502 -0.62416191250E+03  0.13336529134E+02  0.13195176651E+03  0.63809657177E+03  0.10100000352E+00 0.  1.
</event>
<event>
 5   0  0.2370801E-03  0.1319182E+04  0.7818609E-02  0.9014490E-01
        1   -1    0    0  501    0  0.00000000000E+00  0.00000000000E+00  0.52555047945E+03  0.52555047948E+03  0.50400001928E-02 0. -1.
       -1   -1    0    0    0  501  0.00000000000E+00  0.00000000000E+00 -0.82781863845E+03  0.82781863846E+03  0.50400001928E-02 0.  1.
    10030    2    1    2    0    0  0.00000000000E+00  0.00000000000E+00 -0.30226815899E+03  0.13533691179E+04  0.13191822958E+04 0.  0.
        3    1    3    3  502    0 -0.11514306436E+03  0.50069973432E+03 -0.57549892625E+03  0.77146430477E+03  0.10100000352E+00 0.  1.
       -3    1    3    3    0  502  0.11514306436E+03 -0.50069973432E+03  0.27323076725E+03  0.58190481317E+03  0.10100000352E+00 0. -1.
</event>
<event>
 5   0  0.2462055E-03  0.1285311E+04  0.7818609E-02  0.9041296E-01
        1   -1    0    0  501    0  0.00000000000E+00  0.00000000000E+00  0.10383778325E+04  0.10383778325E+04  0.50400001928E-02 0.  1.
       -1   -1    0    0    0  501  0.00000000000E+00  0.00000000000E+00 -0.39774150057E+03  0.39774150060E+03  0.50400001928E-02 0. -1.
    10030    2    1    2    0    0  0.00000000000E+00  0.00000000000E+00  0.64063633192E+03  0.14361193331E+04  0.12853107909E+04 0.  0.
        2    1    3    3  502    0 -0.30553323651E+03  0.56533149520E+03  0.31197930261E+03  0.71433979543E+03  0.25500000920E-02 0.  1.
       -2    1    3    3    0  502  0.30553323651E+03 -0.56533149520E+03  0.32865702931E+03  0.72177953767E+03  0.25500000920E-02 0. -1.
</event>
<event>
 5   0  0.2462055E-03  0.1235713E+04  0.7818609E-02  0.9082159E-01
        1   -1    0    0  501    0  0.00000000000E+00  0.00000000000E+00  0.17604498634E+04  0.17604498634E+04  0.50400001928E-02 0. -1.
       -1   -1    0    0    0  501  0.00000000000E+00  0.00000000000E+00 -0.21684599921E+03  0.21684599927E+03  0.50400001928E-02 0.  1.
    10030    2    1    2    0    0  0.00000000000E+00  0.00000000000E+00  0.15436038642E+04  0.19772958627E+04  0.12357127656E+04 0.  0.
        2    1    3    3  502    0 -0.10177330031E+03  0.50046243054E+03  0.21536739628E+03  0.55425947392E+03  0.25500000920E-02 0.  1.
       -2    1    3    3    0  502  0.10177330031E+03 -0.50046243054E+03  0.13282364679E+04  0.14230363887E+04  0.25500000920E-02 0. -1.
</event>
<event>
 5   0  0.4310889E-03  0.1311894E+04  0.7818609E-02  0.9020186E-01
       -2   -1    0    0    0  501  0.00000000000E+00  0.00000000000E+00  0.26760813686E+03  0.26760813687E+03  0.25500000920E-02 0. -1.
        2   -1    0    0  501    0  0.00000000000E+00  0.00000000000E+00 -0.16078236531E+04  0.16078236531E+04  0.25500000920E-02 0.  1.
    10030    2    1    2    0    0  0.00000000000E+00  0.00000000000E+00 -0.13402155162E+04  0.18754317900E+04  0.13118943436E+04 0.  0.
        4    1    3    3  502    0 -0.69875182170E+02 -0.51903031076E+03 -0.10549472759E+03  0.53423380184E+03  0.12699999809E+01 0. -1.
       -4    1    3    3    0  502  0.69875182170E+02  0.51903031076E+03 -0.12347207886E+04  0.13411979881E+04  0.12699999809E+01 0.  1.
</event>
<event>
 5   0  0.2511542E-03  0.7992017E+03  0.7818609E-02  0.9561173E-01
       -1   -1    0    0    0  501  0.00000000000E+00  0.00000000000E+00  0.90304381188E+03  0.90304381189E+03  0.50400001928E-02 0. -1.
        1   -1    0    0  501    0  0.00000000000E+00  0.00000000000E+00 -0.17682515010E+03  0.17682515017E+03  0.50400001928E-02 0.  1.
    10030    2    1    2    0    0  0.00000000000E+00  0.00000000000E+00  0.72621866178E+03  0.10798689621E+04  0.79920174581E+03 0.  0.
        4    1    3    3  502    0 -0.13333500617E+03  0.37574296550E+03  0.32689746869E+03  0.51558177618E+03  0.12699999809E+01 0. -1.
       -4    1    3    3    0  502  0.13333500617E+03 -0.37574296550E+03  0.39932119309E+03  0.56428718588E+03  0.12699999809E+01 0.  1.
</event>
<event>
 5   0  0.2356769E-03  0.1293892E+04  0.7818609E-02  0.9034423E-01
       -1   -1    0    0    0  501  0.00000000000E+00  0.00000000000E+00  0.89504607965E+03  0.89504607966E+03  0.50400001928E-02 0. -1.
        1   -1    0    0  501    0  0.00000000000E+00  0.00000000000E+00 -0.46761757060E+03  0.46761757063E+03  0.50400001928E-02 0.  1.
    10030    2    1    2    0    0  0.00000000000E+00  0.00000000000E+00  0.42742850905E+03  0.13626636503E+04  0.12938922264E+04 0.  0.
        1    1    3    3  502    0 -0.24760063408E+03  0.57063211777E+03  0.40096253077E+03  0.74006623955E+03  0.50400001928E-02 0. -1.
       -1    1    3    3    0  502  0.24760063408E+03 -0.57063211777E+03  0.26465978282E+02  0.62259741074E+03  0.50400001928E-02 0.  1.
</event>
<event>
 5   0  0.4388937E-03  0.1298514E+04  0.7818609E-02  0.9030744E-01
        2   -1    0    0  501    0  0.00000000000E+00  0.00000000000E+00  0.99741568790E+03  0.99741568791E+03  0.25500000920E-02 0.  1.
       -2   -1    0    0    0  501  0.00000000000E+00  0.00000000000E+00 -0.42262712668E+03  0.42262712669E+03  0.25500000920E-02 0. -1.
    10030    2    1    2    0    0  0.00000000000E+00  0.00000000000E+00  0.57478856122E+03  0.14200428146E+04  0.12985144224E+04 0.  0.
        5    1    3    3  502    0 -0.32021691292E+03 -0.36911023994E+03 -0.18008404994E+03  0.52080091742E+03  0.46999998093E+01 0. -1.
       -5    1    3    3    0  502  0.32021691292E+03  0.36911023994E+03  0.75487261116E+03  0.89924189717E+03  0.46999998093E+01 0.  1.
</event>
<event>
 5   0  0.4453011E-03  0.1310583E+04  0.7818609E-02  0.9021215E-01
        2   -1    0    0  501    0  0.00000000000E+00  0.00000000000E+00  0.59658164722E+03  0.59658164723E+03  0.25500000920E-02 0.  1.
       -2   -1    0    0    0  501  0.00000000000E+00  0.00000000000E+00 -0.71977901026E+03  0.71977901026E+03  0.25500000920E-02 0. -1.
    10030    2    1    2    0    0  0.00000000000E+00  0.00000000000E+00 -0.12319736303E+03  0.13163606575E+04  0.13105829964E+04 0.  0.
        1    1    3    3  502    0  0.48092531819E+03 -0.35301314045E+03  0.21070441654E+03  0.63269565368E+03  0.50400001928E-02 0.  1.
       -1    1    3    3    0  502 -0.48092531819E+03  0.35301314045E+03 -0.33390177958E+03  0.68366500381E+03  0.50400001928E-02 0. -1.
</event>
<event>
 5   0  0.4453011E-03  0.1272116E+04  0.7818609E-02  0.9051975E-01
        2   -1    0    0  501    0  0.00000000000E+00  0.00000000000E+00  0.51506549731E+03  0.51506549732E+03  0.25500000920E-02 0. -1.
       -2   -1    0    0    0  501  0.00000000000E+00  0.00000000000E+00 -0.78547207875E+03  0.78547207876E+03  0.25500000920E-02 0.  1.
    10030    2    1    2    0    0  0.00000000000E+00  0.00000000000E+00 -0.27040658144E+03  0.13005375761E+04  0.12721156659E+04 0.  0.
        1    1    3    3  502    0  0.11597847733E+03  0.33311913780E+03 -0.67632103052E+03  0.76277749280E+03  0.50400001928E-02 0.  1.
       -1    1    3    3    0  502 -0.11597847733E+03 -0.33311913780E+03  0.40591444908E+03  0.53776008328E+03  0.50400001928E-02 0. -1.
</event>
<event>
 5   0  0.2370801E-03  0.1313547E+04  0.7818609E-02  0.9018891E-01
       -1   -1    0    0    0  501  0.00000000000E+00  0.00000000000E+00  0.13422944181E+04  0.13422944181E+04  0.50400001928E-02 0.  1.
        1   -1    0    0  501    0  0.00000000000E+00  0.00000000000E+00 -0.32135392727E+03  0.32135392731E+03  0.50400001928E-02 0. -1.
    10030    2    1    2    0    0  0.00000000000E+00  0.00000000000E+00  0.10209404908E+04  0.16636483454E+04  0.13135472322E+04 0.  0.
        3    1    3    3  502    0 -0.43108982847E+03 -0.48419644663E+02 -0.11408325800E+03  0.44855089138E+03  0.10100000352E+00 0. -1.
       -3    1    3    3    0  502  0.43108982847E+03  0.48419644663E+02  0.11350237488E+04  0.12150974540E+04  0.10100000352E+00 0.  1.
</event>
<event>
 5   0  0.4388937E-03  0.1301533E+04  0.7818609E-02  0.9028351E-01
        2   -1    0    0  501    0  0.00000000000E+00  0.00000000000E+00  0.40498201511E+03  0.40498201512E+03  0.25500000920E-02 0.  1.
       -2   -1    0    0    0  501  0.00000000000E+00  0.00000000000E+00 -0.10457173376E+04  0.10457173376E+04  0.25500000920E-02 0. -1.
    10030    2    1    2    0    0  0.00000000000E+00  0.00000000000E+00 -0.64073532253E+03  0.14506993528E+04  0.13015325038E+04 0.  0.
        5    1    3    3  502    0  0.18462553318E+03 -0.29048456922E+03 -0.93593720704E+03  0.99723037358E+03  0.46999998093E+01 0. -1.
       -5    1    3    3    0  502 -0.18462553318E+03  0.29048456922E+03  0.29520188452E+03  0.45346897918E+03  0.46999998093E+01 0.  1.
</event>
<event>
 5   0  0.4263540E-03  0.1320671E+04  0.7818609E-02  0.9013332E-01
        2   -1    0    0  501    0  0.00000000000E+00  0.00000000000E+00  0.16851290274E+04  0.16851290274E+04  0.25500000920E-02 0. -1.
       -2   -1    0    0    0  501  0.00000000000E+00  0.00000000000E+00 -0.25875930311E+03  0.25875930312E+03  0.25500000920E-02 0.  1.
    10030    2    1    2    0    0  0.00000000000E+00  0.00000000000E+00  0.14263697242E+04  0.19438883305E+04  0.13206707580E+04 0.  0.
        2    1    3    3  502    0 -0.13430904178E+03  0.51645737136E+03  0.14070356326E+03  0.55187374267E+03  0.25500000920E-02 0.  1.
       -2    1    3    3    0  502  0.13430904178E+03 -0.51645737136E+03  0.12856661610E+04  0.13920145878E+04  0.25500000920E-02 0. -1.
</event>
<event>
 5   0  0.2458456E-03  0.1307378E+04  0.7818609E-02  0.9023735E-01
       -1   -1    0    0    0  501  0.00000000000E+00  0.00000000000E+00  0.66830870038E+03  0.66830870040E+03  0.50400001928E-02 0. -1.
        1   -1    0    0  501    0  0.00000000000E+00  0.00000000000E+00 -0.63938868157E+03  0.63938868159E+03  0.50400001928E-02 0.  1.
    10030    2    1    2    0    0  0.00000000000E+00  0.00000000000E+00  0.28920018814E+02  0.13076973820E+04  0.13073775565E+04 0.  0.
        5    1    3    3  502    0 -0.48758958788E+03 -0.40723727300E+02  0.44802296557E+03  0.66343703232E+03  0.46999998093E+01 0. -1.
       -5    1    3    3    0  502  0.48758958788E+03  0.40723727300E+02 -0.41910294676E+03  0.64426034967E+03  0.46999998093E+01 0.  1.
</event>
<event>
 5   0  0.4453011E-03  0.1318387E+04  0.7818609E-02  0.9015110E-01
       -2   -1    0    0    0  501  0.00000000000E+00  0.00000000000E+00  0.37658153456E+03  0.37658153457E+03  0.25500000920E-02 0.  1.
        2   -1    0    0  501    0  0.00000000000E+00  0.00000000000E+00 -0.11538965960E+04  0.11538965960E+04  0.25500000920E-02 0. -1.
    10030    2    1    2    0    0  0.00000000000E+00  0.00000000000E+00 -0.77731506147E+03  0.15304781306E+04  0.13183871220E+04 0.  0.
        1    1    3    3  502    0  0.55872875831E+03 -0.25142288337E+03 -0.67097820147E+03  0.90862700736E+03  0.50400001928E-02 0. -1.
       -1    1    3    3    0  502 -0.55872875831E+03  0.25142288337E+03 -0.10633686001E+03  0.62185112323E+03  0.50400001928E-02 0.  1.
</event>
<event>
 5   0  0.4310889E-03  0.1277384E+04  0.7818609E-02  0.9047695E-01
       -2   -1    0    0    0  501  0.00000000000E+00  0.00000000000E+00  0.33275351453E+03  0.33275351454E+03  0.25500000920E-02 0. -1.
        2   -1    0    0  501    0  0.00000000000E+00  0.00000000000E+00 -0.12259150529E+04  0.12259150529E+04  0.25500000920E-02 0.  1.
    10030    2    1    2    0    0  0.00000000000E+00  0.00000000000E+00 -0.89316153834E+03  0.15586685674E+04  0.12773841120E+04 0.  0.
        4    1    3    3  502    0 -0.44539472840E+03 -0.21482386980E+03  0.46659492800E+02  0.49669354766E+03  0.12699999809E+01 0. -1.
       -4    1    3    3    0  502  0.44539472840E+03  0.21482386980E+03 -0.93982103114E+03  0.10619750198E+04  0.12699999809E+01 0.  1.
</event>
<event>
 5   0  0.4453011E-03  0.1308347E+04  0.7818609E-02  0.9022972E-01
       -2   -1    0    0    0  501  0.00000000000E+00  0.00000000000E+00  0.43042358574E+03  0.43042358574E+03  0.25500000920E-02 0. -1.
        2   -1    0    0  501    0  0.00000000000E+00  0.00000000000E+00 -0.99423687640E+03  0.99423687640E+03  0.25500000920E-02 0.  1.
    10030    2    1    2    0    0  0.00000000000E+00  0.00000000000E+00 -0.56381329066E+03  0.14246604621E+04  0.13083470509E+04 0.  0.
        1    1    3    3  502    0 -0.20498477145E+03 -0.61752137566E+03 -0.20812128179E+03  0.68312947080E+03  0.50400001928E-02 0.  1.
       -1    1    3    3    0  502  0.20498477145E+03  0.61752137566E+03 -0.35569200887E+03  0.74153099134E+03  0.50400001928E-02 0. -1.
</event>
<event>
 5   0  0.4263540E-03  0.1449699E+04  0.7818609E-02  0.8918609E-01
       -2   -1    0    0    0  501  0.00000000000E+00  0.00000000000E+00  0.44362564533E+03  0.44362564534E+03  0.25500000920E-02 0. -1.
        2   -1    0    0  501    0  0.00000000000E+00  0.00000000000E+00 -0.11843478572E+04  0.11843478572E+04  0.25500000920E-02 0.  1.
    10030    2    1    2    0    0  0.00000000000E+00  0.00000000000E+00 -0.74072221191E+03  0.16279735026E+04  0.14496993929E+04 0.  0.
        2    1    3    3  502    0  0.29360831923E+03  0.66210578769E+03 -0.33825971947E+03  0.79938073347E+03  0.25500000920E-02 0. -1.
       -2    1    3    3    0  502 -0.29360831923E+03 -0.66210578769E+03 -0.40246249243E+03  0.82859276912E+03  0.25500000920E-02 0.  1.
</event>
<event>
 5   0  0.2462055E-03  0.1274646E+04  0.7818609E-02  0.9049916E-01
       -1   -1    0    0    0  501  0.00000000000E+00  0.00000000000E+00  0.31121334626E+03  0.31121334630E+03  0.50400001928E-02 0.  1.
        1   -1    0    0  501    0  0.00000000000E+00  0.00000000000E+00 -0.13051513038E+04  0.13051513038E+04  0.50400001928E-02 0. -1.
    10030    2    1    2    0    0  0.00000000000E+00  0.00000000000E+00 -0.99393795756E+03  0.16163646501E+04  0.12746458405E+04 0.  0.
        2    1    3    3  502    0  0.64169072415E+02  0.36059020815E+03  0.16443107746E+03  0.40147297208E+03  0.25500000920E-02 0.  1.
       -2    1    3    3    0  502 -0.64169072415E+02 -0.36059020815E+03 -0.11583690350E+04  0.12148916780E+04  0.25500000920E-02 0. -1.
</event>
<event>
 5   0  0.2462055E-03  0.1252212E+04  0.7818609E-02  0.9068344E-01
       -1   -1    0    0    0  501  0.00000000000E+00  0.00000000000E+00  0.37064519979E+03  0.37064519982E+03  0.50400001928E-02 0. -1.
        1   -1    0    0  501    0  0.00000000000E+00  0.00000000000E+00 -0.10576386332E+04  0.10576386332E+04  0.50400001928E-02 0.  1.
    10030    2    1    2    0    0  0.00000000000E+00  0.00000000000E+00 -0.68699343340E+03  0.14282838330E+04  0.12522119350E+04 0.  0.
        2    1    3    3  502    0  0.12672188455E+03 -0.18131904811E+03 -0.10115796272E+04  0.10354846090E+04  0.25500000920E-02 0.  1.
       -2    1    3    3    0  502 -0.12672188455E+03  0.18131904811E+03  0.32458619378E+03  0.39279922408E+03  0.25500000920E-02 0. -1.
</event>
<event>
 5   0  0.4453011E-03  0.1251849E+04  0.7818609E-02  0.9068646E-01
        2   -1    0    0  501    0  0.00000000000E+00  0.00000000000E+00  0.62338251562E+03  0.62338251563E+03  0.25500000920E-02 0. -1.
       -2   -1    0    0    0  501  0.00000000000E+00  0.00000000000E+00 -0.62847647517E+03  0.62847647518E+03  0.25500000920E-02 0.  1.
    10030    2    1    2    0    0  0.00000000000E+00  0.00000000000E+00 -0.50939595513E+01  0.12518589908E+04  0.12518486268E+04 0.  0.
        1    1    3    3  502    0  0.46013218617E+03 -0.20148614786E+03  0.37090349724E+03  0.62440988206E+03  0.50400001928E-02 0. -1.
       -1    1    3    3    0  502 -0.46013218617E+03  0.20148614786E+03 -0.37599745679E+03  0.62744910875E+03  0.50400001928E-02 0.  1.
</event>
<event>
 5   0  0.2356769E-03  0.1342865E+04  0.7818609E-02  0.8996247E-01
       -1   -1    0    0    0  501  0.00000000000E+00  0.00000000000E+00  0.71873980878E+03  0.71873980880E+03  0.50400001928E-02 0.  1.
        1   -1    0    0  501    0  0.00000000000E+00  0.00000000000E+00 -0.62723865168E+03  0.62723865170E+03  0.50400001928E-02 0. -1.
    10030    2    1    2    0    0  0.00000000000E+00  0.00000000000E+00  0.91501157100E+02  0.13459784605E+04  0.13428646821E+04 0.  0.
        1    1    3    3  502    0 -0.11153272943E+03  0.20362098944E+03  0.67722756950E+03  0.71591775924E+03  0.50400001928E-02 0.  1.
       -1    1    3    3    0  502  0.11153272943E+03 -0.20362098944E+03 -0.58572641240E+03  0.63006070127E+03  0.50400001928E-02 0. -1.
</event>
<event>
 5   0  0.2458456E-03  0.1271455E+04  0.7818609E-02  0.9052513E-01
       -1   -1    0    0    0  501  0.00000000000E+00  0.00000000000E+00  0.10070660461E+04  0.10070660461E+04  0.50400001928E-02 0. -1.
        1   -1    0    0  501    0  0.00000000000E+00  0.00000000000E+00 -0.40131376166E+03  0.40131376169E+03  0.50400001928E-02 0.  1.
    10030    2    1    2    0    0  0.00000000000E+00  0.00000000000E+00  0.60575228442E+03  0.14083798078E+04  0.12714550141E+04 0.  0.
        5    1    3    3  502    0  0.30311339233E+03  0.52644973616E+03  0.95349275811E+02  0.61493140081E+03  0.46999998093E+01 0.  1.
       -5    1    3    3    0  502 -0.30311339233E+03 -0.52644973616E+03  0.51040300861E+03  0.79344840696E+03  0.46999998093E+01 0. -1.
</event>
<event>
 5   0  0.4453011E-03  0.1314995E+04  0.7818609E-02  0.9017757E-01
        2   -1    0    0  501    0  0.00000000000E+00  0.00000000000E+00  0.11798703638E+04  0.11798703638E+04  0.25500000920E-02 0. -1.
       -2   -1    0    0    0  501  0.00000000000E+00  0.00000000000E+00 -0.36639895710E+03  0.36639895711E+03  0.25500000920E-02 0.  1.
    10030    2    1    2    0    0  0.00000000000E+00  0.00000000000E+00  0.81347140671E+03  0.15462693209E+04  0.13149954689E+04 0.  0.
        1    1    3    3  502    0  0.24659954999E+02  0.55575138700E+03 -0.53835705716E+01  0.55632427629E+03  0.50400001928E-02 0.  1.
       -1    1    3    3    0  502 -0.24659954999E+02 -0.55575138700E+03  0.81885497728E+03  0.98994504462E+03  0.50400001928E-02 0. -1.
</event>
<event>
 5   0  0.2511542E-03  0.1309686E+04  0.7818609E-02  0.9021919E-01
        1   -1    0    0  501    0  0.00000000000E+00  0.00000000000E+00  0.67965333290E+03  0.67965333292E+03  0.50400001928E-02 0.  1.
       -1   -1    0    0    0  501  0.00000000000E+00  0.00000000000E+00 -0.63093819769E+03  0.63093819771E+03  0.50400001928E-02 0. -1.
    10030    2    1    2    0    0  0.00000000000E+00  0.00000000000E+00  0.48715135214E+02  0.13105915306E+04  0.13096858386E+04 0.  0.
        4    1    3    3  502    0  0.24792240274E+03 -0.14196594889E+03 -0.56528482544E+03  0.63337855600E+03  0.12699999809E+01 0. -1.
       -4    1    3    3    0  502 -0.24792240274E+03  0.14196594889E+03  0.61399996065E+03  0.67721297463E+03  0.12699999809E+01 0.  1.
</event>
<event>
 5   0  0.4263540E-03  0.1299896E+04  0.7818609E-02  0.9029648E-01
        2   -1    0    0  501    0  0.00000000000E+00  0.00000000000E+00  0.10544118203E+04  0.10544118203E+04  0.25500000920E-02 0.  1.
       -2   -1    0    0    0  501  0.00000000000E+00  0.00000000000E+00 -0.40063304659E+03  0.40063304660E+03  0.25500000920E-02 0. -1.
    10030    2    1    2    0    0  0.00000000000E+00  0.00000000000E+00  0.65377877369E+03  0.14550448669E+04  0.12998957188E+04 0.  0.
        2    1    3    3  502    0  0.33372543827E+02  0.44003225356E+03 -0.20723198323E+03  0.48753174843E+03  0.25500000920E-02 0. -1.
       -2    1    3    3    0  502 -0.33372543827E+02 -0.44003225356E+03  0.86101075692E+03  0.96751311846E+03  0.25500000920E-02 0.  1.
</event>
<event>
 5   0  0.2511542E-03  0.1318223E+04  0.7818609E-02  0.9015238E-01
       -1   -1    0    0    0  501  0.00000000000E+00  0.00000000000E+00  0.37818794748E+03  0.37818794751E+03  0.50400001928E-02 0.  1.
        1   -1    0    0  501    0  0.00000000000E+00  0.00000000000E+00 -0.11487088481E+04  0.11487088481E+04  0.50400001928E-02 0. -1.
    10030    2    1    2    0    0  0.00000000000E+00  0.00000000000E+00 -0.77052090060E+03  0.15268967956E+04  0.13182228060E+04 0.  0.
        4    1    3    3  502    0 -0.35264473042E+03 -0.82413609481E+02  0.25262078560E+03  0.44155314871E+03  0.12699999809E+01 0.  1.
       -4    1    3    3    0  502  0.35264473042E+03  0.82413609481E+02 -0.10231416862E+04  0.10853436469E+04  0.12699999809E+01 0. -1.
</event>
<event>
 5   0  0.2356769E-03  0.1307249E+04  0.7818609E-02  0.9023837E-01
       -1   -1    0    0    0  501  0.00000000000E+00  0.00000000000E+00  0.59086058758E+03  0.59086058760E+03  0.50400001928E-02 0. -1.
        1   -1    0    0  501    0  0.00000000000E+00  0.00000000000E+00 -0.72305512402E+03  0.72305512404E+03  0.50400001928E-02 0.  1.
    10030    2    1    2    0    0  0.00000000000E+00  0.00000000000E+00 -0.13219453644E+03  0.13139157116E+04  0.13072486764E+04 0.  0.
        1    1    3    3  502    0 -0.53931927441E+03 -0.24367419050E+03  0.21277477258E+03  0.62890022638E+03  0.50400001928E-02 0. -1.
       -1    1    3    3    0  502  0.53931927441E+03  0.24367419050E+03 -0.34496930903E+03  0.68501548527E+03  0.50400001928E-02 0.  1.
</event>
<event>
 5   0  0.4388937E-03  0.1287072E+04  0.7818609E-02  0.9039881E-01
        2   -1    0    0  501    0  0.00000000000E+00  0.00000000000E+00  0.97789525628E+03  0.97789525629E+03  0.25500000920E-02 0.  1.
       -2   -1    0    0    0  501  0.00000000000E+00  0.00000000000E+00 -0.42349975356E+03  0.42349975357E+03  0.25500000920E-02 0. -1.
    10030    2    1    2    0    0  0.00000000000E+00  0.00000000000E+00  0.55439550272E+03  0.14013950099E+04  0.12870717153E+04 0.  0.
        5    1    3    3  502    0 -0.29168641412E+03 -0.56416169432E+03  0.39012583596E+03  0.74537214826E+03  0.46999998093E+01 0. -1.
       -5    1    3    3    0  502  0.29168641412E+03  0.56416169432E+03  0.16426966676E+03  0.65602286160E+03  0.46999998093E+01 0.  1.
</event>
<event>
 5   0  0.2370801E-03  0.1287250E+04  0.7818609E-02  0.9039737E-01
        1   -1    0    0  501    0  0.00000000000E+00  0.00000000000E+00  0.29063053154E+03  0.29063053158E+03  0.50400001928E-02 0. -1.
       -1   -1    0    0    0  501  0.00000000000E+00  0.00000000000E+00 -0.14253606267E+04  0.14253606267E+04  0.50400001928E-02 0.  1.
    10030    2    1    2    0    0  0.00000000000E+00  0.00000000000E+00 -0.11347300951E+04  0.17159911582E+04  0.12872502734E+04 0.  0.
        3    1    3    3  502    0  0.46809848005E+03 -0.20189265678E+03 -0.43592644279E+02  0.51164163311E+03  0.10100000352E+00 0. -1.
       -3    1    3    3    0  502 -0.46809848005E+03  0.20189265678E+03 -0.10911374508E+04  0.12043495251E+04  0.10100000352E+00 0.  1.
</event>
<event>
 5   0  0.2370801E-03  0.1317081E+04  0.7818609E-02  0.9016128E-01
        1   -1    0    0  501    0  0.00000000000E+00  0.00000000000E+00  0.10786372362E+04  0.10786372362E+04  0.50400001928E-02 0.  1.
       -1   -1    0    0    0  501  0.00000000000E+00  0.00000000000E+00 -0.40205909233E+03  0.40205909237E+03  0.50400001928E-02 0. -1.
    10030    2    1    2    0    0  0.00000000000E+00  0.00000000000E+00  0.67657814382E+03  0.14806963285E+04  0.13170814829E+04 0.  0.
        3    1    3    3  502    0  0.46512372453E+03 -0.28952524098E+03  0.74907144982E+03  0.92804794673E+03  0.10100000352E+00 0.  1.
       -3    1    3    3    0  502 -0.46512372453E+03  0.28952524098E+03 -0.72493306006E+02  0.55264838180E+03  0.10100000352E+00 0. -1.
</event>
<event>
 5   0  0.4263540E-03  0.1214428E+04  0.7818609E-02  0.9100320E-01
       -2   -1    0    0    0  501  0.00000000000E+00  0.00000000000E+00  0.57472506911E+03  0.57472506912E+03  0.25500000920E-02 0. -1.
        2   -1    0    0  501    0  0.00000000000E+00  0.00000000000E+00 -0.64153972286E+03  0.64153972287E+03  0.25500000920E-02 0.  1.
    10030    2    1    2    0    0  0.00000000000E+00  0.00000000000E+00 -0.66814653751E+02  0.12162647920E+04  0.12144281972E+04 0.  0.
        2    1    3    3  502    0 -0.41149309539E+02 -0.28888500825E+03 -0.56671723909E+03  0.63742940217E+03  0.25500000920E-02 0.  1.
       -2    1    3    3    0  502  0.41149309539E+02  0.28888500825E+03  0.49990258534E+03  0.57883538981E+03  0.25500000920E-02 0. -1.
</event>
<event>
 5   0  0.4310889E-03  0.1316650E+04  0.7818609E-02  0.9016465E-01
        2   -1    0    0  501    0  0.00000000000E+00  0.00000000000E+00  0.92910097248E+03  0.92910097249E+03  0.25500000920E-02 0.  1.
       -2   -1    0    0    0  501  0.00000000000E+00  0.00000000000E+00 -0.46646379967E+03  0.46646379968E+03  0.25500000920E-02 0. -1.
    10030    2    1    2    0    0  0.00000000000E+00  0.00000000000E+00  0.46263717281E+03  0.13955647722E+04  0.13166502496E+04 0.  0.
        4    1    3    3  502    0 -0.61259038725E+03 -0.13856601969E+03  0.22205220821E+02  0.62846018895E+03  0.12699999809E+01 0.  1.
       -4    1    3    3    0  502  0.61259038725E+03  0.13856601969E+03  0.44043195199E+03  0.76710458322E+03  0.12699999809E+01 0. -1.
</event>
<event>
 5   0  0.2370801E-03  0.1253693E+04  0.7818609E-02  0.9067115E-01
        1   -1    0    0  501    0  0.00000000000E+00  0.00000000000E+00  0.17161324581E+04  0.17161324581E+04  0.50400001928E-02 0.  1.
       -1   -1    0    0    0  501  0.00000000000E+00  0.00000000000E+00 -0.22896630735E+03  0.22896630740E+03  0.50400001928E-02 0. -1.
    10030    2    1    2    0    0  0.00000000000E+00  0.00000000000E+00  0.14871661508E+04  0.19450987655E+04  0.12536929639E+04 0.  0.
        3    1    3    3  502    0 -0.37690326533E+03 -0.19914007564E+03  0.14566359781E+04  0.15177289692E+04  0.10100000352E+00 0.  1.
       -3    1    3    3    0  502  0.37690326533E+03  0.19914007564E+03  0.30530172666E+02  0.42736979630E+03  0.10100000352E+00 0. -1.
</event>
<event>
 5   0  0.4263540E-03  0.1303337E+04  0.7818609E-02  0.9026923E-01
        2   -1    0    0  501    0  0.00000000000E+00  0.00000000000E+00  0.18303266577E+04  0.18303266577E+04  0.25500000920E-02 0.  1.
       -2   -1    0    0    0  501  0.00000000000E+00  0.00000000000E+00 -0.23201979183E+03  0.23201979185E+03  0.25500000920E-02 0. -1.
    10030    2    1    2    0    0  0.00000000000E+00  0.00000000000E+00  0.15983068659E+04  0.20623464496E+04  0.13033372704E+04 0.  0.
        2    1    3    3  502    0  0.30723190584E+02 -0.37355389091E+02 -0.22917571988E+03  0.23422393157E+03  0.25500000920E-02 0. -1.
       -2    1    3    3    0  502 -0.30723190584E+02  0.37355389091E+02  0.18274825858E+04  0.18281225180E+04  0.25500000920E-02 0.  1.
</event>
<event>
 5   0  0.4310889E-03  0.1319350E+04  0.7818609E-02  0.9014360E-01
       -2   -1    0    0    0  501  0.00000000000E+00  0.00000000000E+00  0.39559691857E+03  0.39559691858E+03  0.25500000920E-02 0. -1.
        2   -1    0    0  501    0  0.00000000000E+00  0.00000000000E+00 -0.11000363010E+04  0.11000363010E+04  0.25500000920E-02 0.  1.
    10030    2    1    2    0    0  0.00000000000E+00  0.00000000000E+00 -0.70443938241E+03  0.14956332196E+04  0.13193497959E+04 0.  0.
        4    1    3    3  502    0 -0.38183438632E+03 -0.50676954055E+03 -0.14767700652E+03  0.65147753374E+03  0.12699999809E+01 0. -1.
       -4    1    3    3    0  502  0.38183438632E+03  0.50676954055E+03 -0.55676237589E+03  0.84415568583E+03  0.12699999809E+01 0.  1.
</event>
<event>
 5   0  0.4306214E-03  0.1302317E+04  0.7818609E-02  0.9027729E-01
        2   -1    0    0  501    0  0.00000000000E+00  0.00000000000E+00  0.86249137023E+03  0.86249137023E+03  0.25500000920E-02 0. -1.
       -2   -1    0    0    0  501  0.00000000000E+00  0.00000000000E+00 -0.49160797527E+03  0.49160797528E+03  0.25500000920E-02 0.  1.
    10030    2    1    2    0    0  0.00000000000E+00  0.00000000000E+00  0.37088339496E+03  0.13540993455E+04  0.13023173749E+04 0.  0.
        3    1    3    3  502    0 -0.40879540756E+03  0.94852963205E+01  0.71234941547E+03  0.82136797844E+03  0.10100000352E+00 0. -1.
       -3    1    3    3    0  502  0.40879540756E+03 -0.94852963205E+01 -0.34146602051E+03  0.53273136706E+03  0.10100000352E+00 0.  1.
</event>
<event>
 5   0  0.2370801E-03  0.1333801E+04  0.7818609E-02  0.9003182E-01
       -1   -1    0    0    0  501  0.00000000000E+00  0.00000000000E+00  0.52311224262E+03  0.52311224264E+03  0.50400001928E-02 0. -1.
        1   -1    0    0  501    0  0.00000000000E+00  0.00000000000E+00 -0.85021139284E+03  0.85021139285E+03  0.50400001928E-02 0.  1.
    10030    2    1    2    0    0  0.00000000000E+00  0.00000000000E+00 -0.32709915022E+03  0.13733236355E+04  0.13338005675E+04 0.  0.
        3    1    3    3  502    0  0.34433917686E+03 -0.36071792591E+03  0.29236823760E+03  0.57807100546E+03  0.10100000352E+00 0. -1.
       -3    1    3    3    0  502 -0.34433917686E+03  0.36071792591E+03 -0.61946738782E+03  0.79525263003E+03  0.10100000352E+00 0.  1.
</event>
<event>
 5   0  0.4263540E-03  0.1320481E+04  0.7818609E-02  0.9013479E-01
        2   -1    0    0  501    0  0.00000000000E+00  0.00000000000E+00  0.12135319116E+04  0.12135319116E+04  0.25500000920E-02 0.  1.
       -2   -1    0    0    0  501  0.00000000000E+00  0.00000000000E+00 -0.35921410791E+03  0.35921410792E+03  0.25500000920E-02 0. -1.
    10030    2    1    2    0    0  0.00000000000E+00  0.00000000000E+00  0.85431780369E+03  0.15727460195E+04  0.13204814017E+04 0.  0.
        2    1    3    3  502    0 -0.33567309403E+03 -0.33431231705E+03  0.97487751289E+03  0.10838945136E+04  0.25500000920E-02 0.  1.
       -2    1    3    3    0  502  0.33567309403E+03  0.33431231705E+03 -0.12055970920E+03  0.48885150595E+03  0.25500000920E-02 0. -1.
</event>
<event>
 5   0  0.2458456E-03  0.1326261E+04  0.7818609E-02  0.9008995E-01
        1   -1    0    0  501    0  0.00000000000E+00  0.00000000000E+00  0.62516524096E+03  0.62516524098E+03  0.50400001928E-02 0.  1.
       -1   -1    0    0    0  501  0.00000000000E+00  0.00000000000E+00 -0.70340155015E+03  0.70340155017E+03  0.50400001928E-02 0. -1.
    10030    2    1    2    0    0  0.00000000000E+00  0.00000000000E+00 -0.78236309183E+02  0.13285667912E+04  0.13262612105E+04 0.  0.
        5    1    3    3  502    0 -0.61002436918E+02 -0.63771556274E+03 -0.21063985582E+03  0.67438392265E+03  0.46999998093E+01 0.  1.
       -5    1    3    3    0  502  0.61002436918E+02  0.63771556274E+03  0.13240354664E+03  0.65418286850E+03  0.46999998093E+01 0. -1.
</event>
<event>
 5   0  0.2511542E-03  0.1063986E+04  0.7818609E-02  0.9241022E-01
       -1   -1    0    0    0  501  0.00000000000E+00  0.00000000000E+00  0.31323855237E+03  0.31323855241E+03  0.50400001928E-02 0. -1.
        1   -1    0    0  501    0  0.00000000000E+00  0.00000000000E+00 -0.90351740306E+03  0.90351740307E+03  0.50400001928E-02 0.  1.
    10030    2    1    2    0    0  0.00000000000E+00  0.00000000000E+00 -0.59027885069E+03  0.12167559555E+04  0.10639858710E+04 0.  0.
        4    1    3    3  502    0 -0.49229163813E+03  0.19900962359E+03 -0.25792492728E+03  0.59032429077E+03  0.12699999809E+01 0.  1.
       -4    1    3    3    0  502  0.49229163813E+03 -0.19900962359E+03 -0.33235392341E+03  0.62643166472E+03  0.12699999809E+01 0. -1.
</event>
<event>
 5   0  0.4263540E-03  0.1307122E+04  0.7818609E-02  0.9023937E-01
        2   -1    0    0  501    0  0.00000000000E+00  0.00000000000E+00  0.50439059289E+03  0.50439059289E+03  0.25500000920E-02 0. -1.
       -2   -1    0    0    0  501  0.00000000000E+00  0.00000000000E+00 -0.84684714700E+03  0.84684714700E+03  0.25500000920E-02 0.  1.
    10030    2    1    2    0    0  0.00000000000E+00  0.00000000000E+00 -0.34245655411E+03  0.13512377399E+04  0.13071216234E+04 0.  0.
        2    1    3    3  502    0 -0.37577076949E+03  0.93175710258E+02 -0.71555106768E+03  0.81357157930E+03  0.25500000920E-02 0.  1.
       -2    1    3    3    0  502  0.37577076949E+03 -0.93175710258E+02  0.37309451357E+03  0.53766616059E+03  0.25500000920E-02 0. -1.
</event>
<event>
 5   0  0.2458456E-03  0.1301438E+04  0.7818609E-02  0.9028426E-01
        1   -1    0    0  501    0  0.00000000000E+00  0.00000000000E+00  0.81211373537E+03  0.81211373539E+03  0.50400001928E-02 0. -1.
       -1   -1    0    0    0  501  0.00000000000E+00  0.00000000000E+00 -0.52139859973E+03  0.52139859976E+03  0.50400001928E-02 0.  1.
    10030    2    1    2    0    0  0.00000000000E+00  0.00000000000E+00  0.29071513564E+03  0.13335123351E+04  0.13014376120E+04 0.  0.
        5    1    3    3  502    0  0.10158405231E+03 -0.16392286950E+03  0.78214233264E+03  0.80557975727E+03  0.46999998093E+01 0. -1.
       -5    1    3    3    0  502 -0.10158405231E+03  0.16392286950E+03 -0.49142719700E+03  0.52793257787E+03  0.46999998093E+01 0.  1.
</event>
<event>
 5   0  0.2370801E-03  0.1281844E+04  0.7818609E-02  0.9044088E-01
       -1   -1    0    0    0  501  0.00000000000E+00  0.00000000000E+00  0.34746284936E+03  0.34746284940E+03  0.50400001928E-02 0.  1.
        1   -1    0    0  501    0  0.00000000000E+00  0.00000000000E+00 -0.11822301190E+04  0.11822301190E+04  0.50400001928E-02 0. -1.
    10030    2    1    2    0    0  0.00000000000E+00  0.00000000000E+00 -0.83476726961E+03  0.15296929684E+04  0.12818440557E+04 0.  0.
        3    1    3    3  502    0  0.54702556052E+03  0.20608225179E+03 -0.73102037893E+03  0.93600088834E+03  0.10100000352E+00 0. -1.
       -3    1    3    3    0  502 -0.54702556052E+03 -0.20608225179E+03 -0.10374689067E+03  0.59369208003E+03  0.10100000352E+00 0.  1.
</event>
<event>
 5   0  0.2370801E-03  0.1314854E+04  0.7818609E-02  0.9017868E-01
       -1   -1    0    0    0  501  0.00000000000E+00  0.00000000000E+00  0.55356583323E+03  0.55356583325E+03  0.50400001928E-02 0.  1.
        1   -1    0    0  501    0  0.00000000000E+00  0.00000000000E+00 -0.78077458046E+03  0.78077458047E+03  0.50400001928E-02 0. -1.
    10030    2    1    2    0    0  0.00000000000E+00  0.00000000000E+00 -0.22720874723E+03  0.13343404137E+04  0.13148538036E+04 0.  0.
        3    1    3    3  502    0  0.19457556599E+03 -0.62614109743E+03 -0.64958620503E+02  0.65888690786E+03  0.10100000352E+00 0.  1.
       -3    1    3    3    0  502 -0.19457556599E+03  0.62614109743E+03 -0.16225012673E+03  0.67545350587E+03  0.10100000352E+00 0. -1.
</event>
<event>
 5   0  0.2462055E-03  0.1257712E+04  0.7818609E-02  0.9063789E-01
        1   -1    0    0  501    0  0.00000000000E+00  0.00000000000E+00  0.96501131299E+03  0.96501131300E+03  0.50400001928E-02 0.  1.
       -1   -1    0    0    0  501  0.00000000000E+00  0.00000000000E+00 -0.40979837824E+03  0.40979837827E+03  0.50400001928E-02 0. -1.
    10030    2    1    2    0    0  0.00000000000E+00  0.00000000000E+00  0.55521293475E+03  0.13748096913E+04  0.12577123218E+04 0.  0.
        2    1    3    3  502    0 -0.32830420978E+03  0.33834495879E+03 -0.17731254948E+03  0.50368711072E+03  0.25500000920E-02 0. -1.
       -2    1    3    3    0  502  0.32830420978E+03 -0.33834495879E+03  0.73252548423E+03  0.87112258055E+03  0.25500000920E-02 0.  1.
</event>
<event>
 5   0  0.4388937E-03  0.1232181E+04  0.7818609E-02  0.9085146E-01
       -2   -1    0    0    0  501  0.00000000000E+00  0.00000000000E+00  0.62770250878E+03  0.62770250878E+03  0.25500000920E-02 0.  1.
        2   -1    0    0  501    0  0.00000000000E+00  0.00000000000E+00 -0.60469303445E+03  0.60469303446E+03  0.25500000920E-02 0. -1.
    10030    2    1    2    0    0  0.00000000000E+00  0.00000000000E+00  0.23009474328E+02  0.12323955432E+04  0.12321807250E+04 0.  0.
        5    1    3    3  502    0 -0.20195397844E+02  0.56293236701E+03  0.26103679153E+03  0.62085666659E+03  0.46999998093E+01 0.  1.
       -5    1    3    3    0  502  0.20195397844E+02 -0.56293236701E+03 -0.23802731720E+03  0.61153887665E+03  0.46999998093E+01 0. -1.
</event>
<event>
 5   0  0.2511542E-03  0.1274322E+04  0.7818609E-02  0.9050180E-01
        1   -1    0    0  501    0  0.00000000000E+00  0.00000000000E+00  0.49523449659E+03  0.49523449662E+03  0.50400001928E-02 0.  1.
       -1   -1    0    0    0  501  0.00000000000E+00  0.00000000000E+00 -0.81976105405E+03  0.81976105407E+03  0.50400001928E-02 0. -1.
    10030    2    1    2    0    0  0.00000000000E+00  0.00000000000E+00 -0.32452655747E+03  0.13149955507E+04  0.12743217066E+04 0.  0.
        4    1    3    3  502    0 -0.53323428420E+03 -0.38371252332E+02 -0.51997016770E+03  0.74577593355E+03  0.12699999809E+01 0. -1.
       -4    1    3    3    0  502  0.53323428420E+03  0.38371252332E+02  0.19544361024E+03  0.56921961714E+03  0.12699999809E+01 0.  1.
</event>
<event>
 5   0  0.2370801E-03  0.1023611E+04  0.7818609E-02  0.9283021E-01
        1   -1    0    0  501    0  0.00000000000E+00  0.00000000000E+00  0.45732379537E+03  0.45732379539E+03  0.50400001928E-02 0.  1.
       -1   -1    0    0    0  501  0.00000000000E+00  0.00000000000E+00 -0.57277746899E+03  0.57277746902E+03  0.50400001928E-02 0. -1.
    10030    2    1    2    0    0  0.00000000000E+00  0.00000000000E+00 -0.11545367363E+03  0.10301012644E+04  0.10236107972E+04 0.  0.
        3    1    3    3  502    0  0.42696626488E+03  0.27666584514E+03 -0.11376271164E+03  0.52133112892E+03  0.10100000352E+00 0.  1.
       -3    1    3    3    0  502 -0.42696626488E+03 -0.27666584514E+03 -0.16909619909E+01  0.50877013549E+03  0.10100000352E+00 0. -1.
</event>
<event>
 5   0  0.4263540E-03  0.1318212E+04  0.7818609E-02  0.9015246E-01
        2   -1    0    0  501    0  0.00000000000E+00  0.00000000000E+00  0.98358760884E+03  0.98358760884E+03  0.25500000920E-02 0. -1.
       -2   -1    0    0    0  501  0.00000000000E+00  0.00000000000E+00 -0.44166941872E+03  0.44166941873E+03  0.25500000920E-02 0.  1.
    10030    2    1    2    0    0  0.00000000000E+00  0.00000000000E+00  0.54191819011E+03  0.14252570276E+04  0.13182117697E+04 0.  0.
        2    1    3    3  502    0  0.40434703804E+03 -0.21045694950E+03  0.78567612572E+03  0.90833673783E+03  0.25500000920E-02 0. -1.
       -2    1    3    3    0  502 -0.40434703804E+03  0.21045694950E+03 -0.24375793560E+03  0.51692028974E+03  0.25500000920E-02 0.  1.
</event>
<event>
 5   0  0.1661750E-03  0.1491813E+04  0.7818609E-02  0.8889916E-01
        4   -1    0    0  501    0  0.00000000000E+00  0.00000000000E+00  0.99917034622E+03  0.99917115334E+03  0.12699999809E+01 0.  1.
       -4   -1    0    0    0  501  0.00000000000E+00  0.00000000000E+00 -0.55683653836E+03  0.55683798663E+03  0.12699999809E+01 0. -1.
    10030    2    1    2    0    0  0.00000000000E+00  0.00000000000E+00  0.44233380786E+03  0.15560091400E+04  0.14918127383E+04 0.  0.
        5    1    3    3  502    0  0.74043025415E+03  0.95348348242E+01  0.12772174576E+03  0.75144048911E+03  0.46999998093E+01 0.  1.
       -5    1    3    3    0  502 -0.74043025415E+03 -0.95348348242E+01  0.31461206209E+03  0.80456865086E+03  0.46999998093E+01 0. -1.
</event>
<event>
 5   0  0.4388937E-03  0.1182769E+04  0.7818609E-02  0.9128074E-01
       -2   -1    0    0    0  501  0.00000000000E+00  0.00000000000E+00  0.84460000108E+03  0.84460000108E+03  0.25500000920E-02 0. -1.
        2   -1    0    0  501    0  0.00000000000E+00  0.00000000000E+00 -0.41408414951E+03  0.41408414952E+03  0.25500000920E-02 0.  1.
    10030    2    1    2    0    0  0.00000000000E+00  0.00000000000E+00  0.43051585157E+03  0.12586841506E+04  0.11827687401E+04 0.  0.
        5    1    3    3  502    0  0.40845001208E+03  0.41743440828E+03  0.31412109779E+03  0.66315688314E+03  0.46999998093E+01 0.  1.
       -5    1    3    3    0  502 -0.40845001208E+03 -0.41743440828E+03  0.11639475378E+03  0.59552726746E+03  0.46999998093E+01 0. -1.
</event>
<event>
 5   0  0.2356769E-03  0.1270862E+04  0.7818609E-02  0.9052996E-01
       -1   -1    0    0    0  501  0.00000000000E+00  0.00000000000E+00  0.31828711584E+03  0.31828711588E+03  0.50400001928E-02 0. -1.
        1   -1    0    0  501    0  0.00000000000E+00  0.00000000000E+00 -0.12685805223E+04  0.12685805223E+04  0.50400001928E-02 0.  1.
    10030    2    1    2    0    0  0.00000000000E+00  0.00000000000E+00 -0.95029340647E+03  0.15868676382E+04  0.12708624405E+04 0.  0.
        1    1    3    3  502    0 -0.54446769249E+03  0.17440730235E+03 -0.12886210934E+03  0.58606178730E+03  0.50400001928E-02 0. -1.
       -1    1    3    3    0  502  0.54446769249E+03 -0.17440730235E+03 -0.82143129713E+03  0.10008058509E+04  0.50400001928E-02 0.  1.
</event>
<event>
 5   0  0.4306214E-03  0.1311499E+04  0.7818609E-02  0.9020496E-01
        2   -1    0    0  501    0  0.00000000000E+00  0.00000000000E+00  0.97746411654E+03  0.97746411654E+03  0.25500000920E-02 0. -1.
       -2   -1    0    0    0  501  0.00000000000E+00  0.00000000000E+00 -0.43992145525E+03  0.43992145526E+03  0.25500000920E-02 0.  1.
    10030    2    1    2    0    0  0.00000000000E+00  0.00000000000E+00  0.53754266128E+03  0.14173855718E+04  0.13114990455E+04 0.  0.
        3    1    3    3  502    0 -0.45656261143E+03 -0.33552635444E+03  0.62554564270E+03  0.84399923815E+03  0.10100000352E+00 0. -1.
       -3    1    3    3    0  502  0.45656261143E+03  0.33552635444E+03 -0.88002981420E+02  0.57338633366E+03  0.10100000352E+00 0.  1.
</event>
<event>
 5   0  0.4388937E-03  0.1288879E+04  0.7818609E-02  0.9038431E-01
       -2   -1    0    0    0  501  0.00000000000E+00  0.00000000000E+00  0.27509453817E+03  0.27509453818E+03  0.25500000920E-02 0.  1.
        2   -1    0    0  501    0  0.00000000000E+00  0.00000000000E+00 -0.15096702530E+04  0.15096702530E+04  0.25500000920E-02 0. -1.
    10030    2    1    2    0    0  0.00000000000E+00  0.00000000000E+00 -0.12345757148E+04  0.17847647911E+04  0.12888786460E+04 0.  0.
        5    1    3    3  502    0  0.57382144736E+03 -0.11349199225E+03 -0.24282203038E+03  0.63335307230E+03  0.46999998093E+01 0.  1.
       -5    1    3    3    0  502 -0.57382144736E+03  0.11349199225E+03 -0.99175368441E+03  0.11514117188E+04  0.46999998093E+01 0. -1.
</event>
<event>
 5   0  0.2356769E-03  0.1305715E+04  0.7818609E-02  0.9025045E-01
        1   -1    0    0  501    0  0.00000000000E+00  0.00000000000E+00  0.57270668433E+03  0.57270668435E+03  0.50400001928E-02 0.  1.
       -1   -1    0    0    0  501  0.00000000000E+00  0.00000000000E+00 -0.74422580835E+03  0.74422580836E+03  0.50400001928E-02 0. -1.
    10030    2    1    2    0    0  0.00000000000E+00  0.00000000000E+00 -0.17151912402E+03  0.13169324927E+04  0.13057152754E+04 0.  0.
        1    1    3    3  502    0 -0.38504957762E+03 -0.36596754875E+03 -0.46852965480E+03  0.70831875693E+03  0.50400001928E-02 0. -1.
       -1    1    3    3    0  502  0.38504957762E+03  0.36596754875E+03  0.29701053078E+03  0.60861373579E+03  0.50400001928E-02 0.  1.
</event>
<event>
 5   0  0.4263540E-03  0.1302553E+04  0.7818609E-02  0.9027543E-01
       -2   -1    0    0    0  501  0.00000000000E+00  0.00000000000E+00  0.45166426621E+03  0.45166426621E+03  0.25500000920E-02 0.  1.
        2   -1    0    0  501    0  0.00000000000E+00  0.00000000000E+00 -0.93910665939E+03  0.93910665939E+03  0.25500000920E-02 0. -1.
    10030    2    1    2    0    0  0.00000000000E+00  0.00000000000E+00 -0.48744239318E+03  0.13907709256E+04  0.13025527555E+04 0.  0.
        2    1    3    3  502    0  0.44058785047E+03 -0.14516573963E+03  0.24437163967E+03  0.52431693108E+03  0.25500000920E-02 0.  1.
       -2    1    3    3    0  502 -0.44058785047E+03  0.14516573963E+03 -0.73181403285E+03  0.86645399452E+03  0.25500000920E-02 0. -1.
</event>
<event>
 5   0  0.4388937E-03  0.1002218E+04  0.7818609E-02  0.9306115E-01
        2   -1    0    0  501    0  0.00000000000E+00  0.00000000000E+00  0.29103556888E+03  0.29103556889E+03  0.25500000920E-02 0. -1.
       -2   -1    0    0    0  501  0.00000000000E+00  0.00000000000E+00 -0.86281645919E+03  0.86281645919E+03  0.25500000920E-02 0.  1.
    10030    2    1    2    0    0  0.00000000000E+00  0.00000000000E+00 -0.57178089031E+03  0.11538520281E+04  0.10022180981E+04 0.  0.
        5    1    3    3  502    0 -0.59711603617E+02  0.10505016765E+03  0.27398532659E+03  0.29948466157E+03  0.46999998093E+01 0. -1.
       -5    1    3    3    0  502  0.59711603617E+02 -0.10505016765E+03 -0.84576621690E+03  0.85436736652E+03  0.46999998093E+01 0.  1.
</event>
<event>
 5   0  0.2462055E-03  0.1309950E+04  0.7818609E-02  0.9021712E-01
       -1   -1    0    0    0  501  0.00000000000E+00  0.00000000000E+00  0.53987291522E+03  0.53987291524E+03  0.50400001928E-02 0.  1.
        1   -1    0    0  501    0  0.00000000000E+00  0.00000000000E+00 -0.79461730696E+03  0.79461730698E+03  0.50400001928E-02 0. -1.
    10030    2    1    2    0    0  0.00000000000E+00  0.00000000000E+00 -0.25474439175E+03  0.13344902222E+04  0.13099501701E+04 0.  0.
        2    1    3    3  502    0 -0.25043583497E+03 -0.31008641740E+03  0.40209557360E+03  0.56617359883E+03  0.25500000920E-02 0.  1.
       -2    1    3    3    0  502  0.25043583497E+03  0.31008641740E+03 -0.65683996534E+03  0.76831662339E+03  0.25500000920E-02 0. -1.
</event>
<event>
 5   0  0.4388937E-03  0.1326595E+04  0.7818609E-02  0.9008737E-01
        2   -1    0    0  501    0  0.00000000000E+00  0.00000000000E+00  0.10320722407E+04  0.10320722407E+04  0.25500000920E-02 0. -1.
       -2   -1    0    0    0  501  0.00000000000E+00  0.00000000000E+00 -0.42629171769E+03  0.42629171770E+03  0.25500000920E-02 0.  1.
    10030    2    1    2    0    0  0.00000000000E+00  0.00000000000E+00  0.60578052297E+03  0.14583639584E+04  0.13265954142E+04 0.  0.
        5    1    3    3  502    0  0.64240358136E+03 -0.15541477554E+03  0.36415397221E+03  0.75462992207E+03  0.46999998093E+01 0.  1.
       -5    1    3    3    0  502 -0.64240358136E+03  0.15541477554E+03  0.24162655075E+03  0.70373403629E+03  0.46999998093E+01 0. -1.
</event>
<event>
 5   0  0.2511542E-03  0.1200591E+04  0.7818609E-02  0.9112339E-01
       -1   -1    0    0    0  501  0.00000000000E+00  0.00000000000E+00  0.61787045041E+03  0.61787045043E+03  0.50400001928E-02 0. -1.
        1   -1    0    0  501    0  0.00000000000E+00  0.00000000000E+00 -0.58322083118E+03  0.58322083120E+03  0.50400001928E-02 0.  1.
    10030    2    1    2    0    0  0.00000000000E+00  0.00000000000E+00  0.34649619234E+02  0.12010912816E+04  0.12005913837E+04 0.  0.
        4    1    3    3  502    0  0.54496361756E+03 -0.15900231632E+03 -0.17791336986E+03  0.59491332237E+03  0.12699999809E+01 0.  1.
       -4    1    3    3    0  502 -0.54496361756E+03  0.15900231632E+03  0.21256298909E+03  0.60617795926E+03  0.12699999809E+01 0. -1.
</event>
<event>
 5   0  0.2458456E-03  0.1325308E+04  0.7818609E-02  0.9009733E-01
       -1   -1    0    0    0  501  0.00000000000E+00  0.00000000000E+00  0.26373212563E+03  0.26373212568E+03  0.50400001928E-02 0.  1.
        1   -1    0    0  501    0  0.00000000000E+00  0.00000000000E+00 -0.16649851172E+04  0.16649851172E+04  0.50400001928E-02 0. -1.
    10030    2    1    2    0    0  0.00000000000E+00  0.00000000000E+00 -0.14012529916E+04  0.19287172429E+04  0.13253076083E+04 0.  0.
        5    1    3    3  502    0  0.14240038850E+03 -0.43818697432E+03 -0.75589237402E+01  0.46083068738E+03  0.46999998093E+01 0.  1.
       -5    1    3    3    0  502 -0.14240038850E+03  0.43818697432E+03 -0.13936940679E+04  0.14678865555E+04  0.46999998093E+01 0. -1.
</event>
<event>
 5   0  0.2458456E-03  0.1291769E+04  0.7818609E-02  0.9036118E-01
       -1   -1    0    0    0  501  0.00000000000E+00  0.00000000000E+00  0.26655285101E+03  0.26655285106E+03  0.50400001928E-02 0.  1.
        1   -1    0    0  501    0  0.00000000000E+00  0.00000000000E+00 -0.15650429154E+04  0.15650429154E+04  0.50400001928E-02 0. -1.
    10030    2    1    2    0    0  0.00000000000E+00  0.00000000000E+00 -0.12984900644E+04  0.18315957665E+04  0.12917687891E+04 0.  0.
        5    1    3    3  502    0 -0.78772761119E+02 -0.52422561965E+03 -0.12610634076E+03  0.54492435014E+03  0.46999998093E+01 0. -1.
       -5    1    3    3    0  502  0.78772761119E+02  0.52422561965E+03 -0.11723837237E+04  0.12866714164E+04  0.46999998093E+01 0.  1.
</event>
<event>
 5   0  0.2458456E-03  0.1250180E+04  0.7818609E-02  0.9070034E-01
        1   -1    0    0  501    0  0.00000000000E+00  0.00000000000E+00  0.13409294221E+04  0.13409294222E+04  0.50400001928E-02 0.  1.
       -1   -1    0    0    0  501  0.00000000000E+00  0.00000000000E+00 -0.29139290123E+03  0.29139290128E+03  0.50400001928E-02 0. -1.
    10030    2    1    2    0    0  0.00000000000E+00  0.00000000000E+00  0.10495365209E+04  0.16323223234E+04  0.12501796906E+04 0.  0.
        5    1    3    3  502    0 -0.31253017802E+02  0.37405571025E+03 -0.12783280318E+03  0.39655736163E+03  0.46999998093E+01 0. -1.
       -5    1    3    3    0  502  0.31253017802E+02 -0.37405571025E+03  0.11773693241E+04  0.12357649618E+04  0.46999998093E+01 0.  1.
</event>
<event>
 5   0  0.4306214E-03  0.1290467E+04  0.7818609E-02  0.9037159E-01
        2   -1    0    0  501    0  0.00000000000E+00  0.00000000000E+00  0.16746520939E+04  0.16746520939E+04  0.25500000920E-02 0.  1.
       -2   -1    0    0    0  501  0.00000000000E+00  0.00000000000E+00 -0.24860475374E+03  0.24860475376E+03  0.25500000920E-02 0. -1.
    10030    2    1    2    0    0  0.00000000000E+00  0.00000000000E+00  0.14260473401E+04  0.19232568476E+04  0.12904673129E+04 0.  0.
        3    1    3    3  502    0  0.49839552379E+03  0.35142015508E+03  0.39887200078E+03  0.72869273822E+03  0.10100000352E+00 0. -1.
       -3    1    3    3    0  502 -0.49839552379E+03 -0.35142015508E+03  0.10271753394E+04  0.11945641094E+04  0.10100000352E+00 0.  1.
</event>
<event>
 5   0  0.2458456E-03  0.1272207E+04  0.7818609E-02  0.9051901E-01
        1   -1    0    0  501    0  0.00000000000E+00  0.00000000000E+00  0.52879985676E+03  0.52879985678E+03  0.50400001928E-02 0.  1.
       -1   -1    0    0    0  501  0.00000000000E+00  0.00000000000E+00 -0.76518077782E+03  0.76518077783E+03  0.50400001928E-02 0. -1.
    10030    2    1    2    0    0  0.00000000000E+00  0.00000000000E+00 -0.23638092106E+03  0.12939806346E+04  0.12722067218E+04 0.  0.
        5    1    3    3  502    0  0.37097408467E+03  0.32207625963E+03  0.29276746517E+03  0.57191762272E+03  0.46999998093E+01 0.  1.
       -5    1    3    3    0  502 -0.37097408467E+03 -0.32207625963E+03 -0.52914838622E+03  0.72206301190E+03  0.46999998093E+01 0. -1.
</event>
<event>
 5   0  0.2458456E-03  0.1232351E+04  0.7818609E-02  0.9085001E-01
        1   -1    0    0  501    0  0.00000000000E+00  0.00000000000E+00  0.12155303393E+04  0.12155303393E+04  0.50400001928E-02 0.  1.
       -1   -1    0    0    0  501  0.00000000000E+00  0.00000000000E+00 -0.31235135941E+03  0.31235135945E+03  0.50400001928E-02 0. -1.
    10030    2    1    2    0    0  0.00000000000E+00  0.00000000000E+00  0.90317897988E+03  0.15278816987E+04  0.12323514984E+04 0.  0.
        5    1    3    3  502    0 -0.48189675329E+03  0.36985969729E+03  0.32376401334E+03  0.68837918537E+03  0.46999998093E+01 0.  1.
       -5    1    3    3    0  502  0.48189675329E+03 -0.36985969729E+03  0.57941496654E+03  0.83950251338E+03  0.46999998093E+01 0. -1.
</event>
<event>
 5   0  0.4306214E-03  0.1368360E+04  0.7818609E-02  0.8977045E-01
       -2   -1    0    0    0  501  0.00000000000E+00  0.00000000000E+00  0.72715978306E+03  0.72715978307E+03  0.25500000920E-02 0.  1.
        2   -1    0    0  501    0  0.00000000000E+00  0.00000000000E+00 -0.64374103447E+03  0.64374103447E+03  0.25500000920E-02 0. -1.
    10030    2    1    2    0    0  0.00000000000E+00  0.00000000000E+00  0.83418748596E+02  0.13709008175E+04  0.13683604656E+04 0.  0.
        3    1    3    3  502    0 -0.58469958655E+03 -0.35190024909E+03  0.90740900041E+02  0.68843395686E+03  0.10100000352E+00 0. -1.
       -3    1    3    3    0  502  0.58469958655E+03  0.35190024909E+03 -0.73221514452E+01  0.68246686068E+03  0.10100000352E+00 0.  1.
</event>
<event>
 5   0  0.4453011E-03  0.1283055E+04  0.7818609E-02  0.9043112E-01
        2   -1    0    0  501    0  0.00000000000E+00  0.00000000000E+00  0.72794280362E+03  0.72794280362E+03  0.25500000920E-02 0.  1.
       -2   -1    0    0    0  501  0.00000000000E+00  0.00000000000E+00 -0.56537043221E+03  0.56537043222E+03  0.25500000920E-02 0. -1.
    10030    2    1    2    0    0  0.00000000000E+00  0.00000000000E+00  0.16257237140E+03  0.12933132358E+04  0.12830546949E+04 0.  0.
        1    1    3    3  502    0  0.53565908664E+02 -0.62943404777E+03  0.19398715123E+03  0.66082338179E+03  0.50400001928E-02 0. -1.
       -1    1    3    3    0  502 -0.53565908664E+02  0.62943404777E+03 -0.31414779828E+02  0.63248985405E+03  0.50400001928E-02 0.  1.
</event>
<event>
 5   0  0.4310889E-03  0.1295140E+04  0.7818609E-02  0.9033428E-01
        2   -1    0    0  501    0  0.00000000000E+00  0.00000000000E+00  0.10316991152E+04  0.10316991152E+04  0.25500000920E-02 0.  1.
       -2   -1    0    0    0  501  0.00000000000E+00  0.00000000000E+00 -0.40646222223E+03  0.40646222224E+03  0.25500000920E-02 0. -1.
    10030    2    1    2    0    0  0.00000000000E+00  0.00000000000E+00  0.62523689301E+03  0.14381613375E+04  0.12951397068E+04 0.  0.
        4    1    3    3  502    0 -0.36154616538E+03 -0.25432284941E+03  0.83811019933E+03  0.94753683863E+03  0.12699999809E+01 0.  1.
       -4    1    3    3    0  502  0.36154616538E+03  0.25432284941E+03 -0.21287330633E+03  0.49062449885E+03  0.12699999809E+01 0. -1.
</event>
<event>
 5   0  0.2462055E-03  0.1283319E+04  0.7818609E-02  0.9042899E-01
        1   -1    0    0  501    0  0.00000000000E+00  0.00000000000E+00  0.12439010506E+04  0.12439010507E+04  0.50400001928E-02 0. -1.
       -1   -1    0    0    0  501  0.00000000000E+00  0.00000000000E+00 -0.33099651153E+03  0.33099651157E+03  0.50400001928E-02 0.  1.
    10030    2    1    2    0    0  0.00000000000E+00  0.00000000000E+00  0.91290453912E+03  0.15748975622E+04  0.12833189915E+04 0.  0.
        2    1    3    3  502    0 -0.34199478954E+03  0.53941190085E+03  0.53211504293E+03  0.83130743637E+03  0.25500000920E-02 0. -1.
       -2    1    3    3    0  502  0.34199478954E+03 -0.53941190085E+03  0.38078949619E+03  0.74359012585E+03  0.25500000920E-02 0.  1.
</event>
<event>
 5   0  0.4388937E-03  0.1285741E+04  0.7818609E-02  0.9040949E-01
       -2   -1    0    0    0  501  0.00000000000E+00  0.00000000000E+00  0.52921697334E+03  0.52921697335E+03  0.25500000920E-02 0. -1.
        2   -1    0    0  501    0  0.00000000000E+00  0.00000000000E+00 -0.78093245521E+03  0.78093245521E+03  0.25500000920E-02 0.  1.
    10030    2    1    2    0    0  0.00000000000E+00  0.00000000000E+00 -0.25171548186E+03  0.13101494286E+04  0.12857413587E+04 0.  0.
        5    1    3    3  502    0  0.13348777246E+02 -0.49133990256E+02  0.52714168282E+03  0.52961569333E+03  0.46999998093E+01 0. -1.
       -5    1    3    3    0  502 -0.13348777246E+02  0.49133990256E+02 -0.77885716468E+03  0.78053373523E+03  0.46999998093E+01 0.  1.
</event>
<event>
 5   0  0.2511542E-03  0.1276560E+04  0.7818609E-02  0.9048363E-01
       -1   -1    0    0    0  501  0.00000000000E+00  0.00000000000E+00  0.30695645039E+03  0.30695645043E+03  0.50400001928E-02 0.  1.
        1   -1    0    0  501    0  0.00000000000E+00  0.00000000000E+00 -0.13272275179E+04  0.13272275179E+04  0.50400001928E-02 0. -1.
    10030    2    1    2    0    0  0.00000000000E+00  0.00000000000E+00 -0.10202710675E+04  0.16341839684E+04  0.12765595134E+04 0.  0.
        4    1    3    3  502    0 -0.62351685839E+03 -0.13614500022E+03 -0.49794377983E+03  0.80948029906E+03  0.12699999809E+01 0. -1.
       -4    1    3    3    0  502  0.62351685839E+03  0.13614500022E+03 -0.52232728772E+03  0.82470366931E+03  0.12699999809E+01 0.  1.
</event>
<event>
 5   0  0.4453011E-03  0.1298416E+04  0.7818609E-02  0.9030822E-01
       -2   -1    0    0    0  501  0.00000000000E+00  0.00000000000E+00  0.24104808576E+03  0.24104808578E+03  0.25500000920E-02 0.  1.
        2   -1    0    0  501    0  0.00000000000E+00  0.00000000000E+00 -0.17484931452E+04  0.17484931452E+04  0.25500000920E-02 0. -1.
    10030    2    1    2    0    0  0.00000000000E+00  0.00000000000E+00 -0.15074450594E+04  0.19895412310E+04  0.12984158435E+04 0.  0.
        1    1    3    3  502    0 -0.48864205465E+03  0.23075111496E+03 -0.13050333601E+04  0.14124904267E+04  0.50400001928E-02 0. -1.
       -1    1    3    3    0  502  0.48864205465E+03 -0.23075111496E+03 -0.20241169933E+03  0.57705080424E+03  0.50400001928E-02 0.  1.
</event>
<event>
 5   0  0.4388937E-03  0.1307320E+04  0.7818609E-02  0.9023781E-01
       -2   -1    0    0    0  501  0.00000000000E+00  0.00000000000E+00  0.54882954468E+03  0.54882954469E+03  0.25500000920E-02 0. -1.
        2   -1    0    0  501    0  0.00000000000E+00  0.00000000000E+00 -0.77851353392E+03  0.77851353392E+03  0.25500000920E-02 0.  1.
    10030    2    1    2    0    0  0.00000000000E+00  0.00000000000E+00 -0.22968398924E+03  0.13273430786E+04  0.13073197441E+04 0.  0.
        5    1    3    3  502    0 -0.39388438812E+03  0.82710172033E+02 -0.63776761003E+03  0.75415880168E+03  0.46999998093E+01 0.  1.
       -5    1    3    3    0  502  0.39388438812E+03 -0.82710172033E+02  0.40808362079E+03  0.57318427693E+03  0.46999998093E+01 0. -1.
</event>
<event>
 5   0  0.4263540E-03  0.1219374E+04  0.7818609E-02  0.9096065E-01
        2   -1    0    0  501    0  0.00000000000E+00  0.00000000000E+00  0.59042952436E+03  0.59042952436E+03  0.25500000920E-02 0. -1.
       -2   -1    0    0    0  501  0.00000000000E+00  0.00000000000E+00 -0.62957302213E+03  0.62957302214E+03  0.25500000920E-02 0.  1.
    10030    2    1    2    0    0  0.00000000000E+00  0.00000000000E+00 -0.39143497771E+02  0.12200025465E+04  0.12193744298E+04 0.  0.
        2    1    3    3  502    0  0.46080957604E+03 -0.13290542691E+03 -0.39620846042E+03  0.62208557448E+03  0.25500000920E-02 0.  1.
       -2    1    3    3    0  502 -0.46080957604E+03  0.13290542691E+03  0.35706496265E+03  0.59791697202E+03  0.25500000920E-02 0. -1.
</event>
<event>
 5   0  0.2356769E-03  0.1299633E+04  0.7818609E-02  0.9029856E-01
       -1   -1    0    0    0  501  0.00000000000E+00  0.00000000000E+00  0.48237963167E+03  0.48237963170E+03  0.50400001928E-02 0.  1.
        1   -1    0    0  501    0  0.00000000000E+00  0.00000000000E+00 -0.87537192486E+03  0.87537192487E+03  0.50400001928E-02 0. -1.
    10030    2    1    2    0    0  0.00000000000E+00  0.00000000000E+00 -0.39299229319E+03  0.13577515566E+04  0.12996331586E+04 0.  0.
        1    1    3    3  502    0 -0.20640095274E+03 -0.83047570587E+02 -0.83434256315E+03  0.86349624492E+03  0.50400001928E-02 0. -1.
       -1    1    3    3    0  502  0.20640095274E+03  0.83047570587E+02  0.44135026997E+03  0.49425531165E+03  0.50400001928E-02 0.  1.
</event>
<event>
 5   0  0.2511542E-03  0.1308631E+04  0.7818609E-02  0.9022749E-01
       -1   -1    0    0    0  501  0.00000000000E+00  0.00000000000E+00  0.83819661498E+03  0.83819661500E+03  0.50400001928E-02 0.  1.
        1   -1    0    0  501    0  0.00000000000E+00  0.00000000000E+00 -0.51077367200E+03  0.51077367203E+03  0.50400001928E-02 0. -1.
    10030    2    1    2    0    0  0.00000000000E+00  0.00000000000E+00  0.32742294298E+03  0.13489702870E+04  0.13086309838E+04 0.  0.
        4    1    3    3  502    0 -0.30485967939E+03 -0.49025461179E+03 -0.15373953078E+03  0.59743323035E+03  0.12699999809E+01 0. -1.
       -4    1    3    3    0  502  0.30485967939E+03  0.49025461179E+03  0.48116247376E+03  0.75153705668E+03  0.12699999809E+01 0.  1.
</event>
<event>
 5   0  0.4263540E-03  0.1331618E+04  0.7818609E-02  0.9004861E-01
       -2   -1    0    0    0  501  0.00000000000E+00  0.00000000000E+00  0.23618723222E+03  0.23618723224E+03  0.25500000920E-02 0. -1.
        2   -1    0    0  501    0  0.00000000000E+00  0.00000000000E+00 -0.18769071368E+04  0.18769071368E+04  0.25500000920E-02 0.  1.
    10030    2    1    2    0    0  0.00000000000E+00  0.00000000000E+00 -0.16407199046E+04  0.21130943691E+04  0.13316178157E+04 0.  0.
        2    1    3    3  502    0  0.44537491776E+03  0.27475550811E+03 -0.16713499783E+03  0.54934826305E+03  0.25500000920E-02 0. -1.
       -2    1    3    3    0  502 -0.44537491776E+03 -0.27475550811E+03 -0.14735849068E+04  0.15637461060E+04  0.25500000920E-02 0.  1.
</event>
<event>
 5   0  0.4388937E-03  0.1204791E+04  0.7818609E-02  0.9108674E-01
       -2   -1    0    0    0  501  0.00000000000E+00  0.00000000000E+00  0.27446925226E+03  0.27446925227E+03  0.25500000920E-02 0. -1.
        2   -1    0    0  501    0  0.00000000000E+00  0.00000000000E+00 -0.13221156118E+04  0.13221156118E+04  0.25500000920E-02 0.  1.
    10030    2    1    2    0    0  0.00000000000E+00  0.00000000000E+00 -0.10476463596E+04  0.15965848641E+04  0.12047905766E+04 0.  0.
        5    1    3    3  502    0  0.22730750813E+03  0.87810551826E+02  0.20621316115E+03  0.31925750436E+03  0.46999998093E+01 0. -1.
       -5    1    3    3    0  502 -0.22730750813E+03 -0.87810551826E+02 -0.12538595207E+04  0.12773273597E+04  0.46999998093E+01 0.  1.
</event>
<event>
 5   0  0.2511542E-03  0.1288759E+04  0.7818609E-02  0.9038527E-01
       -1   -1    0    0    0  501  0.00000000000E+00  0.00000000000E+00  0.24399993005E+03  0.24399993010E+03  0.50400001928E-02 0.  1.
        1   -1    0    0  501    0  0.00000000000E+00  0.00000000000E+00 -0.17017432663E+04  0.17017432663E+04  0.50400001928E-02 0. -1.
    10030    2    1    2    0    0  0.00000000000E+00  0.00000000000E+00 -0.14577433362E+04  0.19457431964E+04  0.12887594624E+04 0.  0.
        4    1    3    3  502    0  0.58959741122E+03  0.13628485691E+02 -0.33687283067E+03  0.67918757341E+03  0.12699999809E+01 0.  1.
       -4    1    3    3    0  502 -0.58959741122E+03 -0.13628485691E+02 -0.11208705055E+04  0.12665556229E+04  0.12699999809E+01 0. -1.
</event>
<event>
 5   0  0.2462055E-03  0.1237357E+04  0.7818609E-02  0.9080772E-01
        1   -1    0    0  501    0  0.00000000000E+00  0.00000000000E+00  0.51118403174E+03  0.51118403176E+03  0.50400001928E-02 0.  1.
       -1   -1    0    0    0  501  0.00000000000E+00  0.00000000000E+00 -0.74877724493E+03  0.74877724495E+03  0.50400001928E-02 0. -1.
    10030    2    1    2    0    0  0.00000000000E+00  0.00000000000E+00 -0.23759321320E+03  0.12599612767E+04  0.12373568135E+04 0.  0.
        2    1    3    3  502    0  0.45281185031E+03  0.41331281379E+03 -0.20336143029E+03  0.64592718255E+03  0.25500000920E-02 0. -1.
       -2    1    3    3    0  502 -0.45281185031E+03 -0.41331281379E+03 -0.34231782911E+02  0.61403409416E+03  0.25500000920E-02 0.  1.
</event>
<event>
 5   0  0.4310889E-03  0.1277056E+04  0.7818609E-02  0.9047961E-01
        2   -1    0    0  501    0  0.00000000000E+00  0.00000000000E+00  0.11782826361E+04  0.11782826361E+04  0.25500000920E-02 0. -1.
       -2   -1    0    0    0  501  0.00000000000E+00  0.00000000000E+00 -0.34602709916E+03  0.34602709917E+03  0.25500000920E-02 0.  1.
    10030    2    1    2    0    0  0.00000000000E+00  0.00000000000E+00  0.83225553698E+03  0.15243097353E+04  0.12770555549E+04 0.  0.
        4    1    3    3  502    0 -0.11182292867E+03 -0.84386628291E+02  0.11597117349E+04  0.11681431382E+04  0.12699999809E+01 0. -1.
       -4    1    3    3    0  502  0.11182292867E+03  0.84386628291E+02 -0.32745619793E+03  0.35616659708E+03  0.12699999809E+01 0.  1.
</event>
<event>
 5   0  0.2458456E-03  0.1289186E+04  0.7818609E-02  0.9038185E-01
       -1   -1    0    0    0  501  0.00000000000E+00  0.00000000000E+00  0.20818917732E+03  0.20818917738E+03  0.50400001928E-02 0. -1.
        1   -1    0    0  501    0  0.00000000000E+00  0.00000000000E+00 -0.19957813911E+04  0.19957813911E+04  0.50400001928E-02 0.  1.
    10030    2    1    2    0    0  0.00000000000E+00  0.00000000000E+00 -0.17875922138E+04  0.22039705685E+04  0.12891859230E+04 0.  0.
        5    1    3    3  502    0  0.15597429539E+03 -0.15179732450E+03  0.14343998619E+03  0.26070582691E+03  0.46999998093E+01 0. -1.
       -5    1    3    3    0  502 -0.15597429539E+03  0.15179732450E+03 -0.19310322000E+04  0.19432647416E+04  0.46999998093E+01 0.  1.
</event>
<event>
 5   0  0.4310889E-03  0.1362015E+04  0.7818609E-02  0.8981782E-01
       -2   -1    0    0    0  501  0.00000000000E+00  0.00000000000E+00  0.37799563244E+03  0.37799563245E+03  0.25500000920E-02 0.  1.
        2   -1    0    0  501    0  0.00000000000E+00  0.00000000000E+00 -0.12269220740E+04  0.12269220740E+04  0.25500000920E-02 0. -1.
    10030    2    1    2    0    0  0.00000000000E+00  0.00000000000E+00 -0.84892644157E+03  0.16049177065E+04  0.13620149563E+04 0.  0.
        4    1    3    3  502    0 -0.47055786691E+03  0.30319854808E+03 -0.88146427035E+03  0.10441910450E+04  0.12699999809E+01 0.  1.
       -4    1    3    3    0  502  0.47055786691E+03 -0.30319854808E+03  0.32537828779E+02  0.56072666145E+03  0.12699999809E+01 0. -1.
</event>
<event>
 5   0  0.4310889E-03  0.1284078E+04  0.7818609E-02  0.9042288E-01
       -2   -1    0    0    0  501  0.00000000000E+00  0.00000000000E+00  0.55374019986E+03  0.55374019986E+03  0.25500000920E-02 0. -1.
        2   -1    0    0  501    0  0.00000000000E+00  0.00000000000E+00 -0.74441792057E+03  0.74441792058E+03  0.25500000920E-02 0.  1.
    10030    2    1    2    0    0  0.00000000000E+00  0.00000000000E+00 -0.19067772072E+03  0.12981581204E+04  0.12840780788E+04 0.  0.
        4    1    3    3  502    0  0.29423805409E+03  0.11594660774E+03  0.46953002132E+03  0.56610926697E+03  0.12699999809E+01 0. -1.
       -4    1    3    3    0  502 -0.29423805409E+03 -0.11594660774E+03 -0.66020774204E+03  0.73204885347E+03  0.12699999809E+01 0.  1.
</event>
<event>
 5   0  0.4306214E-03  0.1336565E+04  0.7818609E-02  0.9001061E-01
       -2   -1    0    0    0  501  0.00000000000E+00  0.00000000000E+00  0.33677038514E+03  0.33677038515E+03  0.25500000920E-02 0. -1.
        2   -1    0    0  501    0  0.00000000000E+00  0.00000000000E+00 -0.13261309561E+04  0.13261309561E+04  0.25500000920E-02 0.  1.
    10030    2    1    2    0    0  0.00000000000E+00  0.00000000000E+00 -0.98936057098E+03  0.16629013413E+04  0.13365651991E+04 0.  0.
        3    1    3    3  502    0  0.32167614738E+03  0.40068406330E+03 -0.10262998873E+04  0.11477433212E+04  0.10100000352E+00 0.  1.
       -3    1    3    3    0  502 -0.32167614738E+03 -0.40068406330E+03  0.36939316339E+02  0.51515802010E+03  0.10100000352E+00 0. -1.
</event>
<event>
 5   0  0.2462055E-03  0.1323126E+04  0.7818609E-02  0.9011425E-01
        1   -1    0    0  501    0  0.00000000000E+00  0.00000000000E+00  0.16788989179E+04  0.16788989179E+04  0.50400001928E-02 0.  1.
       -1   -1    0    0    0  501  0.00000000000E+00  0.00000000000E+00 -0.26068601322E+03  0.26068601326E+03  0.50400001928E-02 0. -1.
    10030    2    1    2    0    0  0.00000000000E+00  0.00000000000E+00  0.14182129047E+04  0.19395849312E+04  0.13231257923E+04 0.  0.
        2    1    3    3  502    0 -0.31314224944E+03  0.45803729462E+03  0.18095259087E+03  0.58360951997E+03  0.25500000920E-02 0. -1.
       -2    1    3    3    0  502  0.31314224944E+03 -0.45803729462E+03  0.12372603138E+04  0.13559754112E+04  0.25500000920E-02 0.  1.
</event>
<event>
 5   0  0.2511542E-03  0.1246346E+04  0.7818609E-02  0.9073230E-01
        1   -1    0    0  501    0  0.00000000000E+00  0.00000000000E+00  0.81124547066E+03  0.81124547067E+03  0.50400001928E-02 0. -1.
       -1   -1    0    0    0  501  0.00000000000E+00  0.00000000000E+00 -0.47870195296E+03  0.47870195299E+03  0.50400001928E-02 0.  1.
    10030    2    1    2    0    0  0.00000000000E+00  0.00000000000E+00  0.33254351769E+03  0.12899474237E+04  0.12463463261E+04 0.  0.
        4    1    3    3  502    0 -0.34364158550E+03 -0.47359165001E+02 -0.36953646786E+03  0.50684439799E+03  0.12699999809E+01 0.  1.
       -4    1    3    3    0  502  0.34364158550E+03  0.47359165001E+02  0.70207998555E+03  0.78310302567E+03  0.12699999809E+01 0. -1.
</event>
<event>
 5   0  0.2458456E-03  0.1297182E+04  0.7818609E-02  0.9031802E-01
        1   -1    0    0  501    0  0.00000000000E+00  0.00000000000E+00  0.76434942117E+03  0.76434942119E+03  0.50400001928E-02 0.  1.
       -1   -1    0    0    0  501  0.00000000000E+00  0.00000000000E+00 -0.55036426194E+03  0.55036426197E+03  0.50400001928E-02 0. -1.
    10030    2    1    2    0    0  0.00000000000E+00  0.00000000000E+00  0.21398515923E+03  0.13147136832E+04  0.12971824931E+04 0.  0.
        5    1    3    3  502    0  0.12656637891E+03  0.63351445448E+03  0.48868562552E+02  0.64789647222E+03  0.46999998093E+01 0.  1.
       -5    1    3    3    0  502 -0.12656637891E+03 -0.63351445448E+03  0.16511659668E+03  0.66681721094E+03  0.46999998093E+01 0. -1.
</event>
<event>
 5   0  0.4453011E-03  0.1122640E+04  0.7818609E-02  0.9183402E-01
        2   -1    0    0  501    0  0.00000000000E+00  0.00000000000E+00  0.12461783068E+04  0.12461783068E+04  0.25500000920E-02 0.  1.
       -2   -1    0    0    0  501  0.00000000000E+00  0.00000000000E+00 -0.25283728120E+03  0.25283728121E+03  0.25500000920E-02 0. -1.
    10030    2    1    2    0    0  0.00000000000E+00  0.00000000000E+00  0.99334102563E+03  0.14990155880E+04  0.11226403431E+04 0.  0.
        1    1    3    3  502    0 -0.37545713493E+03  0.32560291940E+03  0.84510662546E+03  0.98040324852E+03  0.50400001928E-02 0.  1.
       -1    1    3    3    0  502  0.37545713493E+03 -0.32560291940E+03  0.14823440017E+03  0.51861233953E+03  0.50400001928E-02 0. -1.
</event>
<event>
 5   0  0.4388937E-03  0.1309816E+04  0.7818609E-02  0.9021817E-01
       -2   -1    0    0    0  501  0.00000000000E+00  0.00000000000E+00  0.30052215759E+03  0.30052215760E+03  0.25500000920E-02 0. -1.
        2   -1    0    0  501    0  0.00000000000E+00  0.00000000000E+00 -0.14271976822E+04  0.14271976822E+04  0.25500000920E-02 0.  1.
    10030    2    1    2    0    0  0.00000000000E+00  0.00000000000E+00 -0.11266755246E+04  0.17277198398E+04  0.13098160585E+04 0.  0.
        5    1    3    3  502    0  0.43718103802E+03  0.47365355332E+03 -0.71607211234E+03  0.96346059008E+03  0.46999998093E+01 0. -1.
       -5    1    3    3    0  502 -0.43718103802E+03 -0.47365355332E+03 -0.41060341222E+03  0.76425924967E+03  0.46999998093E+01 0.  1.
</event>
<event>
 5   0  0.4310889E-03  0.1322269E+04  0.7818609E-02  0.9012090E-01
        2   -1    0    0  501    0  0.00000000000E+00  0.00000000000E+00  0.20789236957E+04  0.20789236957E+04  0.25500000920E-02 0. -1.
       -2   -1    0    0    0  501  0.00000000000E+00  0.00000000000E+00 -0.21025254273E+03  0.21025254275E+03  0.25500000920E-02 0.  1.
    10030    2    1    2    0    0  0.00000000000E+00  0.00000000000E+00  0.18686711529E+04  0.22891762384E+04  0.13222692512E+04 0.  0.
        4    1    3    3  502    0 -0.56123293795E+03 -0.22953559804E+03  0.47816439752E+03  0.77221227999E+03  0.12699999809E+01 0.  1.
       -4    1    3    3    0  502  0.56123293795E+03  0.22953559804E+03  0.13905067554E+04  0.15169639584E+04  0.12699999809E+01 0. -1.
</event>
<event>
 5   0  0.2458456E-03  0.1300491E+04  0.7818609E-02  0.9029176E-01
       -1   -1    0    0    0  501  0.00000000000E+00  0.00000000000E+00  0.52039220242E+03  0.52039220245E+03  0.50400001928E-02 0. -1.
        1   -1    0    0  501    0  0.00000000000E+00  0.00000000000E+00 -0.81250102756E+03  0.81250102758E+03  0.50400001928E-02 0.  1.
    10030    2    1    2    0    0  0.00000000000E+00  0.00000000000E+00 -0.29210882514E+03  0.13328932300E+04  0.13004909830E+04 0.  0.
        5    1    3    3  502    0 -0.32196155271E+03 -0.55553846209E+03 -0.25115140290E+03  0.68947903627E+03  0.46999998093E+01 0.  1.
       -5    1    3    3    0  502  0.32196155271E+03  0.55553846209E+03 -0.40957422243E+02  0.64341419375E+03  0.46999998093E+01 0. -1.
</event>
<event>
 5   0  0.2356769E-03  0.1293899E+04  0.7818609E-02  0.9034417E-01
        1   -1    0    0  501    0  0.00000000000E+00  0.00000000000E+00  0.68166917631E+03  0.68166917633E+03  0.50400001928E-02 0.  1.
       -1   -1    0    0    0  501  0.00000000000E+00  0.00000000000E+00 -0.61399802548E+03  0.61399802550E+03  0.50400001928E-02 0. -1.
    10030    2    1    2    0    0  0.00000000000E+00  0.00000000000E+00  0.67671150830E+02  0.12956672018E+04  0.12938988033E+04 0.  0.
        1    1    3    3  502    0 -0.24496735071E+03 -0.19941492714E+03 -0.53153168750E+03  0.61830514386E+03  0.50400001928E-02 0. -1.
       -1    1    3    3    0  502  0.24496735071E+03  0.19941492714E+03  0.59920283833E+03  0.67736205797E+03  0.50400001928E-02 0.  1.
</event>
<event>
 5   0  0.2462055E-03  0.1359063E+04  0.7818609E-02  0.8983996E-01
        1   -1    0    0  501    0  0.00000000000E+00  0.00000000000E+00  0.86933813863E+03  0.86933813864E+03  0.50400001928E-02 0. -1.
       -1   -1    0    0    0  501  0.00000000000E+00  0.00000000000E+00 -0.53116617215E+03  0.53116617217E+03  0.50400001928E-02 0.  1.
    10030    2    1    2    0    0  0.00000000000E+00  0.00000000000E+00  0.33817196648E+03  0.14005043108E+04  0.13590629293E+04 0.  0.
        2    1    3    3  502    0  0.41480939403E+02  0.41857842526E+03 -0.38088672298E+03  0.56745331278E+03  0.25500000920E-02 0.  1.
       -2    1    3    3    0  502 -0.41480939403E+02 -0.41857842526E+03  0.71905868946E+03  0.83305099803E+03  0.25500000920E-02 0. -1.
</event>
<event>
 5   0  0.2462055E-03  0.1307992E+04  0.7818609E-02  0.9023251E-01
       -1   -1    0    0    0  501  0.00000000000E+00  0.00000000000E+00  0.33989158539E+03  0.33989158543E+03  0.50400001928E-02 0. -1.
        1   -1    0    0  501    0  0.00000000000E+00  0.00000000000E+00 -0.12583741061E+04  0.12583741061E+04  0.50400001928E-02 0.  1.
    10030    2    1    2    0    0  0.00000000000E+00  0.00000000000E+00 -0.91848252070E+03  0.15982656915E+04  0.13079920030E+04 0.  0.
        2    1    3    3  502    0  0.20778099610E+03  0.33114668622E+03  0.18140046660E+03  0.43097238824E+03  0.25500000920E-02 0. -1.
       -2    1    3    3    0  502 -0.20778099610E+03 -0.33114668622E+03 -0.10998829873E+04  0.11672933033E+04  0.25500000920E-02 0.  1.
</event>
<event>
 5   0  0.2370801E-03  0.1284363E+04  0.7818609E-02  0.9042058E-01
        1   -1    0    0  501    0  0.00000000000E+00  0.00000000000E+00  0.36878326377E+03  0.36878326381E+03  0.50400001928E-02 0.  1.
       -1   -1    0    0    0  501  0.00000000000E+00  0.00000000000E+00 -0.11182641230E+04  0.11182641230E+04  0.50400001928E-02 0. -1.
    10030    2    1    2    0    0  0.00000000000E+00  0.00000000000E+00 -0.74948085925E+03  0.14870473868E+04  0.12843630220E+04 0.  0.
        3    1    3    3  502    0  0.51544613497E+02  0.24771088723E+03 -0.10581221268E+04  0.10879521939E+04  0.10100000352E+00 0. -1.
       -3    1    3    3    0  502 -0.51544613497E+02 -0.24771088723E+03  0.30864126751E+03  0.39909519296E+03  0.10100000352E+00 0.  1.
</event>
<event>
 5   0  0.4453011E-03  0.1362351E+04  0.7818609E-02  0.8981531E-01
       -2   -1    0    0    0  501  0.00000000000E+00  0.00000000000E+00  0.95871833368E+03  0.95871833368E+03  0.25500000920E-02 0.  1.
        2   -1    0    0  501    0  0.00000000000E+00  0.00000000000E+00 -0.48397920939E+03  0.48397920940E+03  0.25500000920E-02 0. -1.
    10030    2    1    2    0    0  0.00000000000E+00  0.00000000000E+00  0.47473912428E+03  0.14426975431E+04  0.13623505293E+04 0.  0.
        1    1    3    3  502    0  0.13489705029E+03 -0.44553534507E+03 -0.28925265033E+03  0.54805661535E+03  0.50400001928E-02 0. -1.
       -1    1    3    3    0  502 -0.13489705029E+03  0.44553534507E+03  0.76399177461E+03  0.89464092773E+03  0.50400001928E-02 0.  1.
</event>
<event>
 5   0  0.2462055E-03  0.1225716E+04  0.7818609E-02  0.9090640E-01
       -1   -1    0    0    0  501  0.00000000000E+00  0.00000000000E+00  0.29870146926E+03  0.29870146930E+03  0.50400001928E-02 0.  1.
        1   -1    0    0  501    0  0.00000000000E+00  0.00000000000E+00 -0.12574258089E+04  0.12574258089E+04  0.50400001928E-02 0. -1.
    10030    2    1    2    0    0  0.00000000000E+00  0.00000000000E+00 -0.95872433961E+03  0.15561272782E+04  0.12257160138E+04 0.  0.
        2    1    3    3  502    0 -0.30021119092E+03 -0.57415134216E+02 -0.11537534829E+04  0.11935536670E+04  0.25500000920E-02 0. -1.
       -2    1    3    3    0  502  0.30021119092E+03  0.57415134216E+02  0.19502914326E+03  0.36257361117E+03  0.25500000920E-02 0.  1.
</event>
<event>
 5   0  0.2356769E-03  0.1364481E+04  0.7818609E-02  0.8979938E-01
       -1   -1    0    0    0  501  0.00000000000E+00  0.00000000000E+00  0.46642571815E+03  0.46642571817E+03  0.50400001928E-02 0.  1.
        1   -1    0    0  501    0  0.00000000000E+00  0.00000000000E+00 -0.99791330660E+03  0.99791330662E+03  0.50400001928E-02 0. -1.
    10030    2    1    2    0    0  0.00000000000E+00  0.00000000000E+00 -0.53148758846E+03  0.14643390248E+04  0.13644814850E+04 0.  0.
        1    1    3    3  502    0  0.59121936784E+03 -0.24420436578E+03 -0.11156441510E+02  0.63976603488E+03  0.50400001928E-02 0. -1.
       -1    1    3    3    0  502 -0.59121936784E+03  0.24420436578E+03 -0.52033114695E+03  0.82457298991E+03  0.50400001928E-02 0.  1.
</event>
<event>
 5   0  0.4310889E-03  0.1179232E+04  0.7818609E-02  0.9131231E-01
       -2   -1    0    0    0  501  0.00000000000E+00  0.00000000000E+00  0.32096874039E+03  0.32096874040E+03  0.25500000920E-02 0.  1.
        2   -1    0    0  501    0  0.00000000000E+00  0.00000000000E+00 -0.10831183822E+04  0.10831183822E+04  0.25500000920E-02 0. -1.
    10030    2    1    2    0    0  0.00000000000E+00  0.00000000000E+00 -0.76214964181E+03  0.14040871226E+04  0.11792321957E+04 0.  0.
        4    1    3    3  502    0  0.48706023338E+03 -0.33210026022E+03 -0.39450767345E+03  0.70933502035E+03  0.12699999809E+01 0.  1.
       -4    1    3    3    0  502 -0.48706023338E+03  0.33210026022E+03 -0.36764196837E+03  0.69475210225E+03  0.12699999809E+01 0. -1.
</event>
<event>
 5   0  0.2458456E-03  0.1291923E+04  0.7818609E-02  0.9035995E-01
        1   -1    0    0  501    0  0.00000000000E+00  0.00000000000E+00  0.49902126059E+03  0.49902126062E+03  0.50400001928E-02 0.  1.
       -1   -1    0    0    0  501  0.00000000000E+00  0.00000000000E+00 -0.83616923000E+03  0.83616923002E+03  0.50400001928E-02 0. -1.
    10030    2    1    2    0    0  0.00000000000E+00  0.00000000000E+00 -0.33714796941E+03  0.13351904906E+04  0.12919229439E+04 0.  0.
        5    1    3    3  502    0 -0.17862933769E+02 -0.41474406258E+03 -0.68003438786E+03  0.79674373579E+03  0.46999998093E+01 0. -1.
       -5    1    3    3    0  502  0.17862933769E+02  0.41474406258E+03  0.34288641845E+03  0.53844675485E+03  0.46999998093E+01 0.  1.
</event>
<event>
 5   0  0.2458456E-03  0.7338411E+03  0.7818609E-02  0.9661048E-01
       -1   -1    0    0    0  501  0.00000000000E+00  0.00000000000E+00  0.10757316303E+03  0.10757316315E+03  0.50400001928E-02 0. -1.
        1   -1    0    0  501    0  0.00000000000E+00  0.00000000000E+00 -0.12515266170E+04  0.12515266170E+04  0.50400001928E-02 0.  1.
    10030    2    1    2    0    0  0.00000000000E+00  0.00000000000E+00 -0.11439534540E+04  0.13590997802E+04  0.73384106426E+03 0.  0.
        5    1    3    3  502    0 -0.19240624190E+03 -0.28060968736E+03 -0.31772368074E+03  0.46554525651E+03  0.46999998093E+01 0. -1.
       -5    1    3    3    0  502  0.19240624190E+03  0.28060968736E+03 -0.82622977325E+03  0.89355452367E+03  0.46999998093E+01 0.  1.
</event>
<event>
 5   0  0.2462055E-03  0.1305682E+04  0.7818609E-02  0.9025071E-01
        1   -1    0    0  501    0  0.00000000000E+00  0.00000000000E+00  0.67377514128E+03  0.67377514130E+03  0.50400001928E-02 0.  1.
       -1   -1    0    0    0  501  0.00000000000E+00  0.00000000000E+00 -0.63255752933E+03  0.63255752935E+03  0.50400001928E-02 0. -1.
    10030    2    1    2    0    0  0.00000000000E+00  0.00000000000E+00  0.41217611949E+02  0.13063326707E+04  0.13056822565E+04 0.  0.
        2    1    3    3  502    0 -0.26225967376E+03  0.17836442169E+02  0.61848766319E+03  0.67203070218E+03  0.25500000920E-02 0.  1.
       -2    1    3    3    0  502  0.26225967376E+03 -0.17836442169E+02 -0.57727005124E+03  0.63430196848E+03  0.25500000920E-02 0. -1.
</event>
<event>
 5   0  0.4453011E-03  0.1257775E+04  0.7818609E-02  0.9063737E-01
        2   -1    0    0  501    0  0.00000000000E+00  0.00000000000E+00  0.92238682870E+03  0.92238682871E+03  0.25500000920E-02 0. -1.
       -2   -1    0    0    0  501  0.00000000000E+00  0.00000000000E+00 -0.42877822013E+03  0.42877822014E+03  0.25500000920E-02 0.  1.
    10030    2    1    2    0    0  0.00000000000E+00  0.00000000000E+00  0.49360860857E+03  0.13511650488E+04  0.12577748331E+04 0.  0.
        1    1    3    3  502    0 -0.21388955089E+03 -0.30447944608E+03  0.79144277707E+03  0.87455025154E+03  0.50400001928E-02 0. -1.
       -1    1    3    3    0  502  0.21388955089E+03  0.30447944608E+03 -0.29783416850E+03  0.47661479731E+03  0.50400001928E-02 0.  1.
</event>
<event>
 5   0  0.2462055E-03  0.1281036E+04  0.7818609E-02  0.9044741E-01
       -1   -1    0    0    0  501  0.00000000000E+00  0.00000000000E+00  0.50669438034E+03  0.50669438037E+03  0.50400001928E-02 0.  1.
        1   -1    0    0  501    0  0.00000000000E+00  0.00000000000E+00 -0.80968542130E+03  0.80968542132E+03  0.50400001928E-02 0. -1.
    10030    2    1    2    0    0  0.00000000000E+00  0.00000000000E+00 -0.30299104096E+03  0.13163798017E+04  0.12810356011E+04 0.  0.
        2    1    3    3  502    0  0.75511422287E+01  0.25172483138E+03  0.45368508499E+03  0.51889552593E+03  0.25500000920E-02 0.  1.
       -2    1    3    3    0  502 -0.75511422287E+01 -0.25172483138E+03 -0.75667612595E+03  0.79748427575E+03  0.25500000920E-02 0. -1.
</event>
<event>
 5   0  0.4453011E-03  0.1299346E+04  0.7818609E-02  0.9030084E-01
        2   -1    0    0  501    0  0.00000000000E+00  0.00000000000E+00  0.85784376166E+03  0.85784376166E+03  0.25500000920E-02 0.  1.
       -2   -1    0    0    0  501  0.00000000000E+00  0.00000000000E+00 -0.49201880745E+03  0.49201880745E+03  0.25500000920E-02 0. -1.
    10030    2    1    2    0    0  0.00000000000E+00  0.00000000000E+00  0.36582495421E+03  0.13498625691E+04  0.12993463966E+04 0.  0.
        1    1    3    3  502    0 -0.61619696536E+03  0.20573168906E+03  0.17549074415E+03  0.67291992786E+03  0.50400001928E-02 0.  1.
       -1    1    3    3    0  502  0.61619696536E+03 -0.20573168906E+03  0.19033421007E+03  0.67694264126E+03  0.50400001928E-02 0. -1.
</event>
<event>
 5   0  0.4306214E-03  0.1129882E+04  0.7818609E-02  0.9176546E-01
       -2   -1    0    0    0  501  0.00000000000E+00  0.00000000000E+00  0.23156611153E+03  0.23156611155E+03  0.25500000920E-02 0.  1.
        2   -1    0    0  501    0  0.00000000000E+00  0.00000000000E+00 -0.13782611533E+04  0.13782611533E+04  0.25500000920E-02 0. -1.
    10030    2    1    2    0    0  0.00000000000E+00  0.00000000000E+00 -0.11466950417E+04  0.16098272648E+04  0.11298824292E+04 0.  0.
        3    1    3    3  502    0  0.28211460893E+03  0.22648371711E+03  0.44871548100E+02  0.36455039805E+03  0.10100000352E+00 0.  1.
       -3    1    3    3    0  502 -0.28211460893E+03 -0.22648371711E+03 -0.11915665898E+04  0.12452768668E+04  0.10100000352E+00 0. -1.
</event>
<event>
 5   0  0.4306214E-03  0.1325056E+04  0.7818609E-02  0.9009929E-01
        2   -1    0    0  501    0  0.00000000000E+00  0.00000000000E+00  0.12834064568E+04  0.12834064568E+04  0.25500000920E-02 0. -1.
       -2   -1    0    0    0  501  0.00000000000E+00  0.00000000000E+00 -0.34201403975E+03  0.34201403976E+03  0.25500000920E-02 0.  1.
    10030    2    1    2    0    0  0.00000000000E+00  0.00000000000E+00  0.94139241705E+03  0.16254204966E+04  0.13250555112E+04 0.  0.
        3    1    3    3  502    0 -0.11719595198E+03  0.21626631154E+03  0.12253164657E+04  0.12497625614E+04  0.10100000352E+00 0. -1.
       -3    1    3    3    0  502  0.11719595198E+03 -0.21626631154E+03 -0.28392404860E+03  0.37565793516E+03  0.10100000352E+00 0.  1.
</event>
<event>
 5   0  0.2356769E-03  0.1322069E+04  0.7818609E-02  0.9012245E-01
       -1   -1    0    0    0  501  0.00000000000E+00  0.00000000000E+00  0.10801818451E+04  0.10801818451E+04  0.50400001928E-02 0.  1.
        1   -1    0    0  501    0  0.00000000000E+00  0.00000000000E+00 -0.40453075163E+03  0.40453075166E+03  0.50400001928E-02 0. -1.
    10030    2    1    2    0    0  0.00000000000E+00  0.00000000000E+00  0.67565109343E+03  0.14847125967E+04  0.13220692474E+04 0.  0.
        1    1    3    3  502    0  0.18540757903E+03  0.34999645295E+03  0.93217181398E+03  0.10128266279E+04  0.50400001928E-02 0.  1.
       -1    1    3    3    0  502 -0.18540757903E+03 -0.34999645295E+03 -0.25652072056E+03  0.47188596879E+03  0.50400001928E-02 0. -1.
</event>
<event>
 5   0  0.2458456E-03  0.1269928E+04  0.7818609E-02  0.9053758E-01
        1   -1    0    0  501    0  0.00000000000E+00  0.00000000000E+00  0.14152063982E+04  0.14152063982E+04  0.50400001928E-02 0. -1.
       -1   -1    0    0    0  501  0.00000000000E+00  0.00000000000E+00 -0.28489093873E+03  0.28489093877E+03  0.50400001928E-02 0.  1.
    10030    2    1    2    0    0  0.00000000000E+00  0.00000000000E+00  0.11303154595E+04  0.17000973370E+04  0.12699283119E+04 0.  0.
        5    1    3    3  502    0  0.27219874724E+03 -0.57330580964E+03  0.59144879081E+03  0.86752836928E+03  0.46999998093E+01 0. -1.
       -5    1    3    3    0  502 -0.27219874724E+03  0.57330580964E+03  0.53886666865E+03  0.83256896768E+03  0.46999998093E+01 0.  1.
</event>
<event>
 5   0  0.4306214E-03  0.1218473E+04  0.7818609E-02  0.9096839E-01
       -2   -1    0    0    0  501  0.00000000000E+00  0.00000000000E+00  0.19972888143E+03  0.19972888145E+03  0.25500000920E-02 0. -1.
        2   -1    0    0  501    0  0.00000000000E+00  0.00000000000E+00 -0.18583652284E+04  0.18583652284E+04  0.25500000920E-02 0.  1.
    10030    2    1    2    0    0  0.00000000000E+00  0.00000000000E+00 -0.16586363469E+04  0.20580941098E+04  0.12184731567E+04 0.  0.
        3    1    3    3  502    0 -0.73207918990E+02  0.32744340611E+03  0.29607616304E+02  0.33683112200E+03  0.10100000352E+00 0. -1.
       -3    1    3    3    0  502  0.73207918990E+02 -0.32744340611E+03 -0.16882439632E+04  0.17212629878E+04  0.10100000352E+00 0.  1.
</event>
<event>
 5   0  0.2458456E-03  0.7665218E+03  0.7818609E-02  0.9609781E-01
       -1   -1    0    0    0  501  0.00000000000E+00  0.00000000000E+00  0.65259424268E+02  0.65259424463E+02  0.50400001928E-02 0. -1.
        1   -1    0    0  501    0  0.00000000000E+00  0.00000000000E+00 -0.22508458569E+04  0.22508458569E+04  0.50400001928E-02 0.  1.
    10030    2    1    2    0    0  0.00000000000E+00  0.00000000000E+00 -0.21855864326E+04  0.23161052813E+04  0.76652176738E+03 0.  0.
        5    1    3    3  502    0 -0.21545414989E+02 -0.10582487313E+03  0.18242711537E+02  0.10962661722E+03  0.46999998093E+01 0. -1.
       -5    1    3    3    0  502  0.21545414989E+02  0.10582487313E+03 -0.22038291441E+04  0.22064786641E+04  0.46999998093E+01 0.  1.
</event>
<event>
 5   0  0.4263540E-03  0.1330077E+04  0.7818609E-02  0.9006048E-01
       -2   -1    0    0    0  501  0.00000000000E+00  0.00000000000E+00  0.58365385484E+03  0.58365385484E+03  0.25500000920E-02 0.  1.
        2   -1    0    0  501    0  0.00000000000E+00  0.00000000000E+00 -0.75777144832E+03  0.75777144832E+03  0.25500000920E-02 0. -1.
    10030    2    1    2    0    0  0.00000000000E+00  0.00000000000E+00 -0.17411759348E+03  0.13414253032E+04  0.13300770307E+04 0.  0.
        2    1    3    3  502    0  0.30995957162E+03  0.36880919728E+03 -0.54942544165E+03  0.73072804516E+03  0.25500000920E-02 0. -1.
       -2    1    3    3    0  502 -0.30995957162E+03 -0.36880919728E+03  0.37530784816E+03  0.61069725801E+03  0.25500000920E-02 0.  1.
</event>
<event>
 5   0  0.2356769E-03  0.1296416E+04  0.7818609E-02  0.9032412E-01
       -1   -1    0    0    0  501  0.00000000000E+00  0.00000000000E+00  0.57889205565E+03  0.57889205568E+03  0.50400001928E-02 0.  1.
        1   -1    0    0  501    0  0.00000000000E+00  0.00000000000E+00 -0.72582372450E+03  0.72582372452E+03  0.50400001928E-02 0. -1.
    10030    2    1    2    0    0  0.00000000000E+00  0.00000000000E+00 -0.14693166884E+03  0.13047157802E+04  0.12964159640E+04 0.  0.
        1    1    3    3  502    0  0.71916873070E+02 -0.32517399173E+03 -0.63314072937E+03  0.71538615079E+03  0.50400001928E-02 0. -1.
       -1    1    3    3    0  502 -0.71916873070E+02  0.32517399173E+03  0.48620906052E+03  0.58932962940E+03  0.50400001928E-02 0.  1.
</event>
<event>
 5   0  0.2356769E-03  0.1326139E+04  0.7818609E-02  0.9009090E-01
        1   -1    0    0  501    0  0.00000000000E+00  0.00000000000E+00  0.98651761642E+03  0.98651761643E+03  0.50400001928E-02 0.  1.
       -1   -1    0    0    0  501  0.00000000000E+00  0.00000000000E+00 -0.44566989250E+03  0.44566989253E+03  0.50400001928E-02 0. -1.
    10030    2    1    2    0    0  0.00000000000E+00  0.00000000000E+00  0.54084772392E+03  0.14321875090E+04  0.13261390577E+04 0.  0.
        1    1    3    3  502    0 -0.42172095825E+03 -0.51076109597E+03  0.30345986901E+03  0.72856938991E+03  0.50400001928E-02 0. -1.
       -1    1    3    3    0  502  0.42172095825E+03  0.51076109597E+03  0.23738785491E+03  0.70361811906E+03  0.50400001928E-02 0.  1.
</event>
<event>
 5   0  0.2462055E-03  0.1313163E+04  0.7818609E-02  0.9019191E-01
        1   -1    0    0  501    0  0.00000000000E+00  0.00000000000E+00  0.98715436500E+03  0.98715436501E+03  0.50400001928E-02 0.  1.
       -1   -1    0    0    0  501  0.00000000000E+00  0.00000000000E+00 -0.43670936864E+03  0.43670936867E+03  0.50400001928E-02 0. -1.
    10030    2    1    2    0    0  0.00000000000E+00  0.00000000000E+00  0.55044499636E+03  0.14238637337E+04  0.13131634468E+04 0.  0.
        2    1    3    3  502    0 -0.42310855736E+03 -0.86887822513E+02 -0.26096294560E+03  0.50465037798E+03  0.25500000920E-02 0. -1.
       -2    1    3    3    0  502  0.42310855736E+03  0.86887822513E+02  0.81140794197E+03  0.91921335570E+03  0.25500000920E-02 0.  1.
</event>
<event>
 5   0  0.4310889E-03  0.1280588E+04  0.7818609E-02  0.9045102E-01
       -2   -1    0    0    0  501  0.00000000000E+00  0.00000000000E+00  0.17639270011E+04  0.17639270011E+04  0.25500000920E-02 0. -1.
        2   -1    0    0  501    0  0.00000000000E+00  0.00000000000E+00 -0.23242260363E+03  0.23242260365E+03  0.25500000920E-02 0.  1.
    10030    2    1    2    0    0  0.00000000000E+00  0.00000000000E+00  0.15315043975E+04  0.19963496048E+04  0.12805881559E+04 0.  0.
        4    1    3    3  502    0  0.35571846369E+03 -0.28417730993E+03  0.63916798813E+02  0.45976008848E+03  0.12699999809E+01 0.  1.
       -4    1    3    3    0  502 -0.35571846369E+03  0.28417730993E+03  0.14675875987E+04  0.15365895163E+04  0.12699999809E+01 0. -1.
</event>
<event>
 5   0  0.2370801E-03  0.1324190E+04  0.7818609E-02  0.9010600E-01
       -1   -1    0    0    0  501  0.00000000000E+00  0.00000000000E+00  0.55159692040E+03  0.55159692042E+03  0.50400001928E-02 0.  1.
        1   -1    0    0  501    0  0.00000000000E+00  0.00000000000E+00 -0.79472796465E+03  0.79472796467E+03  0.50400001928E-02 0. -1.
    10030    2    1    2    0    0  0.00000000000E+00  0.00000000000E+00 -0.24313104425E+03  0.13463248851E+04  0.13241895603E+04 0.  0.
        3    1    3    3  502    0  0.23954096823E+02 -0.48963194760E+02  0.54931174413E+03  0.55200959741E+03  0.10100000352E+00 0.  1.
       -3    1    3    3    0  502 -0.23954096823E+02  0.48963194760E+02 -0.79244278838E+03  0.79431528768E+03  0.10100000352E+00 0. -1.
</event>
<event>
 5   0  0.2458456E-03  0.1298389E+04  0.7818609E-02  0.9030843E-01
        1   -1    0    0  501    0  0.00000000000E+00  0.00000000000E+00  0.10249003131E+04  0.10249003131E+04  0.50400001928E-02 0. -1.
       -1   -1    0    0    0  501  0.00000000000E+00  0.00000000000E+00 -0.41121431304E+03  0.41121431307E+03  0.50400001928E-02 0.  1.
    10030    2    1    2    0    0  0.00000000000E+00  0.00000000000E+00  0.61368600003E+03  0.14361146261E+04  0.12983892763E+04 0.  0.
        5    1    3    3  502    0 -0.18683867663E+03 -0.55588063593E+03  0.61479993671E+03  0.84965465024E+03  0.46999998093E+01 0. -1.
       -5    1    3    3    0  502  0.18683867663E+03  0.55588063593E+03 -0.11139366896E+01  0.58645997591E+03  0.46999998093E+01 0.  1.
</event>
<event>
 5   0  0.2462055E-03  0.1303425E+04  0.7818609E-02  0.9026854E-01
       -1   -1    0    0    0  501  0.00000000000E+00  0.00000000000E+00  0.11524208165E+04  0.11524208165E+04  0.50400001928E-02 0. -1.
        1   -1    0    0  501    0  0.00000000000E+00  0.00000000000E+00 -0.36855366617E+03  0.36855366620E+03  0.50400001928E-02 0.  1.
    10030    2    1    2    0    0  0.00000000000E+00  0.00000000000E+00  0.78386715035E+03  0.15209744827E+04  0.13034245923E+04 0.  0.
        2    1    3    3  502    0  0.51444328188E+03 -0.27183596026E+03  0.49367068083E+02  0.58393817051E+03  0.25500000920E-02 0.  1.
       -2    1    3    3    0  502 -0.51444328188E+03  0.27183596026E+03  0.73450008227E+03  0.93703631222E+03  0.25500000920E-02 0. -1.
</event>
<event>
 5   0  0.4263540E-03  0.1306430E+04  0.7818609E-02  0.9024481E-01
       -2   -1    0    0    0  501  0.00000000000E+00  0.00000000000E+00  0.15882167843E+03  0.15882167845E+03  0.25500000920E-02 0. -1.
        2   -1    0    0  501    0  0.00000000000E+00  0.00000000000E+00 -0.26865985649E+04  0.26865985649E+04  0.25500000920E-02 0.  1.
    10030    2    1    2    0    0  0.00000000000E+00  0.00000000000E+00 -0.25277768865E+04  0.28454202434E+04  0.13064303937E+04 0.  0.
        2    1    3    3  502    0  0.36749923994E+03 -0.51803783114E+03 -0.93163491540E+03  0.11275471172E+04  0.25500000920E-02 0.  1.
       -2    1    3    3    0  502 -0.36749923994E+03  0.51803783114E+03 -0.15961419711E+04  0.17178731262E+04  0.25500000920E-02 0. -1.
</event>
<event>
 5   0  0.1661750E-03  0.1293090E+04  0.7818609E-02  0.9035063E-01
       -3   -1    0    0    0  501  0.00000000000E+00  0.00000000000E+00  0.25630273492E+04  0.25630273512E+04  0.10100000352E+00 0. -1.
        3   -1    0    0  501    0  0.00000000000E+00  0.00000000000E+00 -0.16309631310E+03  0.16309634438E+03  0.10100000352E+00 0.  1.
    10030    2    1    2    0    0  0.00000000000E+00  0.00000000000E+00  0.23999310361E+04  0.27261236956E+04  0.12930898753E+04 0.  0.
        3    1    3    3  502    0  0.26086137169E+03 -0.43668644773E+03  0.35858415975E+03  0.62235546008E+03  0.10100000352E+00 0.  1.
       -3    1    3    3    0  502 -0.26086137169E+03  0.43668644773E+03  0.20413468763E+04  0.21037682355E+04  0.10100000352E+00 0. -1.
</event>
<event>
 5   0  0.4310889E-03  0.1289004E+04  0.7818609E-02  0.9038331E-01
       -2   -1    0    0    0  501  0.00000000000E+00  0.00000000000E+00  0.16170517407E+03  0.16170517409E+03  0.25500000920E-02 0.  1.
        2   -1    0    0  501    0  0.00000000000E+00  0.00000000000E+00 -0.25687657494E+04  0.25687657494E+04  0.25500000920E-02 0. -1.
    10030    2    1    2    0    0  0.00000000000E+00  0.00000000000E+00 -0.24070605754E+04  0.27304709235E+04  0.12890038211E+04 0.  0.
        4    1    3    3  502    0  0.70759678900E+02  0.14190960188E+03  0.11973501153E+03  0.19870418503E+03  0.12699999809E+01 0.  1.
       -4    1    3    3    0  502 -0.70759678900E+02 -0.14190960188E+03 -0.25267955869E+04  0.25317667385E+04  0.12699999809E+01 0. -1.
</event>
<event>
 5   0  0.4310889E-03  0.1350969E+04  0.7818609E-02  0.8990095E-01
       -2   -1    0    0    0  501  0.00000000000E+00  0.00000000000E+00  0.68495870418E+03  0.68495870418E+03  0.25500000920E-02 0. -1.
        2   -1    0    0  501    0  0.00000000000E+00  0.00000000000E+00 -0.66614140027E+03  0.66614140027E+03  0.25500000920E-02 0.  1.
    10030    2    1    2    0    0  0.00000000000E+00  0.00000000000E+00  0.18817303911E+02  0.13511001045E+04  0.13509690601E+04 0.  0.
        4    1    3    3  502    0  0.29236575957E+03 -0.46050635752E+03 -0.38904421942E+03  0.67000064197E+03  0.12699999809E+01 0.  1.
       -4    1    3    3    0  502 -0.29236575957E+03  0.46050635752E+03  0.40786152333E+03  0.68109946248E+03  0.12699999809E+01 0. -1.
</event>
<event>
 5   0  0.2511542E-03  0.1404987E+04  0.7818609E-02  0.8950217E-01
        1   -1    0    0  501    0  0.00000000000E+00  0.00000000000E+00  0.95740378117E+03  0.95740378118E+03  0.50400001928E-02 0. -1.
       -1   -1    0    0    0  501  0.00000000000E+00  0.00000000000E+00 -0.51545357468E+03  0.51545357470E+03  0.50400001928E-02 0.  1.
    10030    2    1    2    0    0  0.00000000000E+00  0.00000000000E+00  0.44195020649E+03  0.14728573559E+04  0.14049871194E+04 0.  0.
        4    1    3    3  502    0  0.68430494557E+03  0.42829255541E+02  0.38129401178E+03  0.78453447342E+03  0.12699999809E+01 0. -1.
       -4    1    3    3    0  502 -0.68430494557E+03 -0.42829255541E+02  0.60656194701E+02  0.68832288246E+03  0.12699999809E+01 0.  1.
</event>
<event>
 5   0  0.4263540E-03  0.1224531E+04  0.7818609E-02  0.9091652E-01
        2   -1    0    0  501    0  0.00000000000E+00  0.00000000000E+00  0.95772870029E+03  0.95772870029E+03  0.25500000920E-02 0.  1.
       -2   -1    0    0    0  501  0.00000000000E+00  0.00000000000E+00 -0.39141441694E+03  0.39141441695E+03  0.25500000920E-02 0. -1.
    10030    2    1    2    0    0  0.00000000000E+00  0.00000000000E+00  0.56631428335E+03  0.13491431172E+04  0.12245306379E+04 0.  0.
        2    1    3    3  502    0  0.45466305368E+03 -0.46229796677E+02  0.73206746318E+03  0.86300547920E+03  0.25500000920E-02 0.  1.
       -2    1    3    3    0  502 -0.45466305368E+03  0.46229796677E+02 -0.16575317983E+03  0.48613763804E+03  0.25500000920E-02 0. -1.
</event>
<event>
 5   0  0.4310889E-03  0.1321990E+04  0.7818609E-02  0.9012307E-01
        2   -1    0    0  501    0  0.00000000000E+00  0.00000000000E+00  0.82717610159E+03  0.82717610160E+03  0.25500000920E-02 0. -1.
       -2   -1    0    0    0  501  0.00000000000E+00  0.00000000000E+00 -0.52819962276E+03  0.52819962277E+03  0.25500000920E-02 0.  1.
    10030    2    1    2    0    0  0.00000000000E+00  0.00000000000E+00  0.29897647883E+03  0.13553757244E+04  0.13219895685E+04 0.  0.
        4    1    3    3  502    0  0.39945942810E+03 -0.45783682814E+03  0.41631078322E+03  0.73654509504E+03  0.12699999809E+01 0.  1.
       -4    1    3    3    0  502 -0.39945942810E+03  0.45783682814E+03 -0.11733430439E+03  0.61883062932E+03  0.12699999809E+01 0. -1.
</event>
<event>
 5   0  0.4388937E-03  0.1308684E+04  0.7818609E-02  0.9022707E-01
       -2   -1    0    0    0  501  0.00000000000E+00  0.00000000000E+00  0.67059314340E+03  0.67059314341E+03  0.25500000920E-02 0.  1.
        2   -1    0    0  501    0  0.00000000000E+00  0.00000000000E+00 -0.63848488069E+03  0.63848488070E+03  0.25500000920E-02 0. -1.
    10030    2    1    2    0    0  0.00000000000E+00  0.00000000000E+00  0.32108262711E+02  0.13090780241E+04  0.13086841990E+04 0.  0.
        5    1    3    3  502    0  0.59479431978E+03 -0.11106524453E+03 -0.23307045287E+03  0.64842863708E+03  0.46999998093E+01 0. -1.
       -5    1    3    3    0  502 -0.59479431978E+03  0.11106524453E+03  0.26517871558E+03  0.66064938703E+03  0.46999998093E+01 0.  1.
</event>
<event>
 5   0  0.1661750E-03  0.1318368E+04  0.7818609E-02  0.9015124E-01
       -4   -1    0    0    0  501  0.00000000000E+00  0.00000000000E+00  0.45313714457E+03  0.45313892427E+03  0.12699999809E+01 0.  1.
        4   -1    0    0  501    0  0.00000000000E+00  0.00000000000E+00 -0.95891912988E+03  0.95891997088E+03  0.12699999809E+01 0. -1.
    10030    2    1    2    0    0  0.00000000000E+00  0.00000000000E+00 -0.50578198531E+03  0.14120588952E+04  0.13183682743E+04 0.  0.
        4    1    3    3  502    0  0.42962431645E+03 -0.50192031255E+02 -0.78565953907E+03  0.89686053404E+03  0.12699999809E+01 0. -1.
       -4    1    3    3    0  502 -0.42962431645E+03  0.50192031255E+02  0.27987755376E+03  0.51519836111E+03  0.12699999809E+01 0.  1.
</event>
<event>
 5   0  0.4388937E-03  0.1433107E+04  0.7818609E-02  0.8930196E-01
        2   -1    0    0  501    0  0.00000000000E+00  0.00000000000E+00  0.25279088327E+04  0.25279088327E+04  0.25500000920E-02 0. -1.
       -2   -1    0    0    0  501  0.00000000000E+00  0.00000000000E+00 -0.20311224568E+03  0.20311224570E+03  0.25500000920E-02 0.  1.
    10030    2    1    2    0    0  0.00000000000E+00  0.00000000000E+00  0.23247965870E+04  0.27310210784E+04  0.14331074487E+04 0.  0.
        5    1    3    3  502    0  0.14595149053E+02 -0.70342012844E+03  0.90380136112E+03  0.11453784902E+04  0.46999998093E+01 0.  1.
       -5    1    3    3    0  502 -0.14595149053E+02  0.70342012844E+03  0.14209952259E+04  0.15856425882E+04  0.46999998093E+01 0. -1.
</event>
<event>
 5   0  0.2458456E-03  0.1316949E+04  0.7818609E-02  0.9016232E-01
       -1   -1    0    0    0  501  0.00000000000E+00  0.00000000000E+00  0.91664589756E+03  0.91664589758E+03  0.50400001928E-02 0. -1.
        1   -1    0    0  501    0  0.00000000000E+00  0.00000000000E+00 -0.47301634075E+03  0.47301634078E+03  0.50400001928E-02 0.  1.
    10030    2    1    2    0    0  0.00000000000E+00  0.00000000000E+00  0.44362955681E+03  0.13896622384E+04  0.13169487283E+04 0.  0.
        5    1    3    3  502    0  0.55038285997E+02  0.39820132547E+03 -0.32848988998E+03  0.51915431844E+03  0.46999998093E+01 0.  1.
       -5    1    3    3    0  502 -0.55038285997E+02 -0.39820132547E+03  0.77211944679E+03  0.87050791992E+03  0.46999998093E+01 0. -1.
</event>
<event>
 5   0  0.2462055E-03  0.1285895E+04  0.7818609E-02  0.9040826E-01
        1   -1    0    0  501    0  0.00000000000E+00  0.00000000000E+00  0.13596869092E+04  0.13596869093E+04  0.50400001928E-02 0.  1.
       -1   -1    0    0    0  501  0.00000000000E+00  0.00000000000E+00 -0.30402694313E+03  0.30402694317E+03  0.50400001928E-02 0. -1.
    10030    2    1    2    0    0  0.00000000000E+00  0.00000000000E+00  0.10556599661E+04  0.16637138524E+04  0.12858949485E+04 0.  0.
        2    1    3    3  502    0 -0.30194913472E+03  0.49700286821E+03  0.88262004540E+03  0.10569783704E+04  0.25500000920E-02 0.  1.
       -2    1    3    3    0  502  0.30194913472E+03 -0.49700286821E+03  0.17303992071E+03  0.60673548201E+03  0.25500000920E-02 0. -1.
</event>
<event>
 5   0  0.4453011E-03  0.1025156E+04  0.7818609E-02  0.9281377E-01
       -2   -1    0    0    0  501  0.00000000000E+00  0.00000000000E+00  0.89046024181E+03  0.89046024182E+03  0.25500000920E-02 0.  1.
        2   -1    0    0  501    0  0.00000000000E+00  0.00000000000E+00 -0.29505657171E+03  0.29505657172E+03  0.25500000920E-02 0. -1.
    10030    2    1    2    0    0  0.00000000000E+00  0.00000000000E+00  0.59540367010E+03  0.11855168135E+04  0.10251558832E+04 0.  0.
        1    1    3    3  502    0  0.21657053561E+03  0.45367477993E+03  0.18198674072E+03  0.53464266259E+03  0.50400001928E-02 0. -1.
       -1    1    3    3    0  502 -0.21657053561E+03 -0.45367477993E+03  0.41341692939E+03  0.65087415094E+03  0.50400001928E-02 0.  1.
</event>
<event>
 5   0  0.2511542E-03  0.1271461E+04  0.7818609E-02  0.9052508E-01
       -1   -1    0    0    0  501  0.00000000000E+00  0.00000000000E+00  0.10272578101E+04  0.10272578101E+04  0.50400001928E-02 0.  1.
        1   -1    0    0  501    0  0.00000000000E+00  0.00000000000E+00 -0.39342939338E+03  0.39342939341E+03  0.50400001928E-02 0. -1.
    10030    2    1    2    0    0  0.00000000000E+00  0.00000000000E+00  0.63382841669E+03  0.14206872035E+04  0.12714612335E+04 0.  0.
        4    1    3    3  502    0 -0.38984297775E+02 -0.23339496906E+03  0.97621567909E+03  0.10044857650E+04  0.12699999809E+01 0.  1.
       -4    1    3    3    0  502  0.38984297775E+02  0.23339496906E+03 -0.34238726240E+03  0.41620143850E+03  0.12699999809E+01 0. -1.
</event>
<event>
 5   0  0.4306214E-03  0.1349770E+04  0.7818609E-02  0.8991002E-01
        2   -1    0    0  501    0  0.00000000000E+00  0.00000000000E+00  0.91592618117E+03  0.91592618118E+03  0.25500000920E-02 0. -1.
       -2   -1    0    0    0  501  0.00000000000E+00  0.00000000000E+00 -0.49727783462E+03  0.49727783463E+03  0.25500000920E-02 0.  1.
    10030    2    1    2    0    0  0.00000000000E+00  0.00000000000E+00  0.41864834655E+03  0.14132040158E+04  0.13497700368E+04 0.  0.
        3    1    3    3  502    0  0.21387903667E+02  0.67433736813E+03  0.19175929180E+03  0.70139857761E+03  0.10100000352E+00 0.  1.
       -3    1    3    3    0  502 -0.21387903667E+02 -0.67433736813E+03  0.22688905475E+03  0.71180543820E+03  0.10100000352E+00 0. -1.
</event>
<event>
 5   0  0.2458456E-03  0.1319765E+04  0.7818609E-02  0.9014037E-01
        1   -1    0    0  501    0  0.00000000000E+00  0.00000000000E+00  0.14014282785E+04  0.14014282785E+04  0.50400001928E-02 0. -1.
       -1   -1    0    0    0  501  0.00000000000E+00  0.00000000000E+00 -0.31071508902E+03  0.31071508907E+03  0.50400001928E-02 0.  1.
    10030    2    1    2    0    0  0.00000000000E+00  0.00000000000E+00  0.10907131894E+04  0.17121433675E+04  0.13197649978E+04 0.  0.
        5    1    3    3  502    0 -0.57822161867E+03 -0.30705548524E+03  0.65233161148E+03  0.92421963442E+03  0.46999998093E+01 0. -1.
       -5    1    3    3    0  502  0.57822161867E+03  0.30705548524E+03  0.43838157797E+03  0.78792373312E+03  0.46999998093E+01 0.  1.
</event>
<event>
 5   0  0.2370801E-03  0.1253934E+04  0.7818609E-02  0.9066915E-01
       -1   -1    0    0    0  501  0.00000000000E+00  0.00000000000E+00  0.18609827492E+03  0.18609827499E+03  0.50400001928E-02 0.  1.
        1   -1    0    0  501    0  0.00000000000E+00  0.00000000000E+00 -0.21122589555E+04  0.21122589555E+04  0.50400001928E-02 0. -1.
    10030    2    1    2    0    0  0.00000000000E+00  0.00000000000E+00 -0.19261606805E+04  0.22983572305E+04  0.12539342054E+04 0.  0.
        3    1    3    3  502    0  0.28331171796E+03 -0.20744237111E+03 -0.11039449446E+02  0.35131146652E+03  0.10100000352E+00 0.  1.
       -3    1    3    3    0  502 -0.28331171796E+03  0.20744237111E+03 -0.19151212311E+04  0.19470457639E+04  0.10100000352E+00 0. -1.
</event>
<event>
 5   0  0.2458456E-03  0.1333708E+04  0.7818609E-02  0.9003253E-01
       -1   -1    0    0    0  501  0.00000000000E+00  0.00000000000E+00  0.62966368630E+03  0.62966368632E+03  0.50400001928E-02 0.  1.
        1   -1    0    0  501    0  0.00000000000E+00  0.00000000000E+00 -0.70624088180E+03  0.70624088181E+03  0.50400001928E-02 0. -1.
    10030    2    1    2    0    0  0.00000000000E+00  0.00000000000E+00 -0.76577195494E+02  0.13359045681E+04  0.13337079696E+04 0.  0.
        5    1    3    3  502    0  0.41248923404E+03  0.23857618278E+03 -0.50553966824E+03  0.69473621566E+03  0.46999998093E+01 0. -1.
       -5    1    3    3    0  502 -0.41248923404E+03 -0.23857618278E+03  0.42896247275E+03  0.64116835247E+03  0.46999998093E+01 0.  1.
</event>
<event>
 5   0  0.4263540E-03  0.1305807E+04  0.7818609E-02  0.9024973E-01
        2   -1    0    0  501    0  0.00000000000E+00  0.00000000000E+00  0.82761574535E+03  0.82761574535E+03  0.25500000920E-02 0.  1.
       -2   -1    0    0    0  501  0.00000000000E+00  0.00000000000E+00 -0.51507344772E+03  0.51507344772E+03  0.25500000920E-02 0. -1.
    10030    2    1    2    0    0  0.00000000000E+00  0.00000000000E+00  0.31254229763E+03  0.13426891931E+04  0.13058068699E+04 0.  0.
        2    1    3    3  502    0  0.42756659837E+03  0.11633125657E+03 -0.33678993649E+03  0.55657310268E+03  0.25500000920E-02 0. -1.
       -2    1    3    3    0  502 -0.42756659837E+03 -0.11633125657E+03  0.64933223413E+03  0.78611609040E+03  0.25500000920E-02 0.  1.
</event>
<event>
 5   0  0.4388937E-03  0.1281103E+04  0.7818609E-02  0.9044686E-01
       -2   -1    0    0    0  501  0.00000000000E+00  0.00000000000E+00  0.56058019662E+03  0.56058019662E+03  0.25500000920E-02 0.  1.
        2   -1    0    0  501    0  0.00000000000E+00  0.00000000000E+00 -0.73193121774E+03  0.73193121774E+03  0.25500000920E-02 0. -1.
    10030    2    1    2    0    0  0.00000000000E+00  0.00000000000E+00 -0.17135102112E+03  0.12925114144E+04  0.12811028779E+04 0.  0.
        5    1    3    3  502    0  0.70611933397E+02 -0.63246553142E+03 -0.12327596898E+02  0.63653181634E+03  0.46999998093E+01 0.  1.
       -5    1    3    3    0  502 -0.70611933397E+02  0.63246553142E+03 -0.15902342422E+03  0.65597959802E+03  0.46999998093E+01 0. -1.
</event>
<event>
 5   0  0.2511542E-03  0.1328130E+04  0.7818609E-02  0.9007550E-01
        1   -1    0    0  501    0  0.00000000000E+00  0.00000000000E+00  0.13085505469E+04  0.13085505469E+04  0.50400001928E-02 0.  1.
       -1   -1    0    0    0  501  0.00000000000E+00  0.00000000000E+00 -0.33700078961E+03  0.33700078964E+03  0.50400001928E-02 0. -1.
    10030    2    1    2    0    0  0.00000000000E+00  0.00000000000E+00  0.97154975733E+03  0.16455513366E+04  0.13281303665E+04 0.  0.
        4    1    3    3  502    0  0.18069579157E+03 -0.59098810192E+03  0.78688729251E+03  0.10005554106E+04  0.12699999809E+01 0.  1.
       -4    1    3    3    0  502 -0.18069579157E+03  0.59098810192E+03  0.18466246483E+03  0.64499592598E+03  0.12699999809E+01 0. -1.
</event>
<event>
 5   0  0.4310889E-03  0.1353767E+04  0.7818609E-02  0.8987982E-01
        2   -1    0    0  501    0  0.00000000000E+00  0.00000000000E+00  0.99196548763E+03  0.99196548763E+03  0.25500000920E-02 0.  1.
       -2   -1    0    0    0  501  0.00000000000E+00  0.00000000000E+00 -0.46188214826E+03  0.46188214827E+03  0.25500000920E-02 0. -1.
    10030    2    1    2    0    0  0.00000000000E+00  0.00000000000E+00  0.53008333937E+03  0.14538476359E+04  0.13537668196E+04 0.  0.
        4    1    3    3  502    0 -0.59444951826E+02 -0.37132161287E+03  0.86945985041E+03  0.94729904827E+03  0.12699999809E+01 0.  1.
       -4    1    3    3    0  502  0.59444951826E+02  0.37132161287E+03 -0.33937651104E+03  0.50654858763E+03  0.12699999809E+01 0. -1.
</event>
<event>
 5   0  0.2458456E-03  0.1300568E+04  0.7818609E-02  0.9029115E-01
        1   -1    0    0  501    0  0.00000000000E+00  0.00000000000E+00  0.97538723637E+03  0.97538723638E+03  0.50400001928E-02 0.  1.
       -1   -1    0    0    0  501  0.00000000000E+00  0.00000000000E+00 -0.43353978566E+03  0.43353978569E+03  0.50400001928E-02 0. -1.
    10030    2    1    2    0    0  0.00000000000E+00  0.00000000000E+00  0.54184745071E+03  0.14089270221E+04  0.13005678351E+04 0.  0.
        5    1    3    3  502    0  0.12566205642E+03 -0.48963464967E+03 -0.17219661284E+03  0.53404756909E+03  0.46999998093E+01 0. -1.
       -5    1    3    3    0  502 -0.12566205642E+03  0.48963464967E+03  0.71404406354E+03  0.87487945299E+03  0.46999998093E+01 0.  1.
</event>
<event>
 5   0  0.4263540E-03  0.1310577E+04  0.7818609E-02  0.9021220E-01
        2   -1    0    0  501    0  0.00000000000E+00  0.00000000000E+00  0.78507001687E+03  0.78507001688E+03  0.25500000920E-02 0. -1.
       -2   -1    0    0    0  501  0.00000000000E+00  0.00000000000E+00 -0.54696118326E+03  0.54696118326E+03  0.25500000920E-02 0.  1.
    10030    2    1    2    0    0  0.00000000000E+00  0.00000000000E+00  0.23810883362E+03  0.13320312001E+04  0.13105767057E+04 0.  0.
        2    1    3    3  502    0 -0.33647439225E+03 -0.29824595553E+03 -0.36544318104E+03  0.57940865130E+03  0.25500000920E-02 0.  1.
       -2    1    3    3    0  502  0.33647439225E+03  0.29824595553E+03  0.60355201465E+03  0.75262254884E+03  0.25500000920E-02 0. -1.
</event>
<event>
 5   0  0.4306214E-03  0.1284815E+04  0.7818609E-02  0.9041694E-01
       -2   -1    0    0    0  501  0.00000000000E+00  0.00000000000E+00  0.67851950671E+03  0.67851950672E+03  0.25500000920E-02 0.  1.
        2   -1    0    0  501    0  0.00000000000E+00  0.00000000000E+00 -0.60821762560E+03  0.60821762561E+03  0.25500000920E-02 0. -1.
    10030    2    1    2    0    0  0.00000000000E+00  0.00000000000E+00  0.70301881110E+02  0.12867371323E+04  0.12848151981E+04 0.  0.
        3    1    3    3  502    0 -0.20278359009E+03  0.16319137009E+03 -0.55303920077E+03  0.61123234164E+03  0.10100000352E+00 0. -1.
       -3    1    3    3    0  502  0.20278359009E+03 -0.16319137009E+03  0.62334108188E+03  0.67550479069E+03  0.10100000352E+00 0.  1.
</event>
<event>
 5   0  0.2462055E-03  0.1269683E+04  0.7818609E-02  0.9053958E-01
        1   -1    0    0  501    0  0.00000000000E+00  0.00000000000E+00  0.22556976565E+04  0.22556976565E+04  0.50400001928E-02 0. -1.
       -1   -1    0    0    0  501  0.00000000000E+00  0.00000000000E+00 -0.17866921648E+03  0.17866921656E+03  0.50400001928E-02 0.  1.
    10030    2    1    2    0    0  0.00000000000E+00  0.00000000000E+00  0.20770284400E+04  0.24343668730E+04  0.12696830045E+04 0.  0.
        2    1    3    3  502    0 -0.42355700201E+03 -0.27446357203E+03  0.30018344562E+03  0.58723154492E+03  0.25500000920E-02 0.  1.
       -2    1    3    3    0  502  0.42355700201E+03  0.27446357203E+03  0.17768449944E+04  0.18471353281E+04  0.25500000920E-02 0. -1.
</event>
<event>
 5   0  0.2458456E-03  0.1246364E+04  0.7818609E-02  0.9073215E-01
       -1   -1    0    0    0  501  0.00000000000E+00  0.00000000000E+00  0.20982259195E+03  0.20982259201E+03  0.50400001928E-02 0.  1.
        1   -1    0    0  501    0  0.00000000000E+00  0.00000000000E+00 -0.18508784580E+04  0.18508784580E+04  0.50400001928E-02 0. -1.
    10030    2    1    2    0    0  0.00000000000E+00  0.00000000000E+00 -0.16410558661E+04  0.20607010500E+04  0.12463644981E+04 0.  0.
        5    1    3    3  502    0 -0.43558372291E+03  0.44274945461E+03 -0.73664869494E+03  0.96355261869E+03  0.46999998093E+01 0.  1.
       -5    1    3    3    0  502  0.43558372291E+03 -0.44274945461E+03 -0.90440717113E+03  0.10971484313E+04  0.46999998093E+01 0. -1.
</event>
<event>
 5   0  0.4306214E-03  0.1323887E+04  0.7818609E-02  0.9010834E-01
       -2   -1    0    0    0  501  0.00000000000E+00  0.00000000000E+00  0.24409637843E+03  0.24409637844E+03  0.25500000920E-02 0.  1.
        2   -1    0    0  501    0  0.00000000000E+00  0.00000000000E+00 -0.17950674874E+04  0.17950674874E+04  0.25500000920E-02 0. -1.
    10030    2    1    2    0    0  0.00000000000E+00  0.00000000000E+00 -0.15509711090E+04  0.20391638658E+04  0.13238874162E+04 0.  0.
        3    1    3    3  502    0  0.46462119842E+03 -0.32075915858E+03 -0.13077429750E+04  0.14244125086E+04  0.10100000352E+00 0. -1.
       -3    1    3    3    0  502 -0.46462119842E+03  0.32075915858E+03 -0.24322813393E+03  0.61475135720E+03  0.10100000352E+00 0.  1.
</event>
<event>
 5   0  0.4306214E-03  0.1283733E+04  0.7818609E-02  0.9042565E-01
        2   -1    0    0  501    0  0.00000000000E+00  0.00000000000E+00  0.15784421522E+04  0.15784421522E+04  0.25500000920E-02 0. -1.
       -2   -1    0    0    0  501  0.00000000000E+00  0.00000000000E+00 -0.26101226748E+03  0.26101226749E+03  0.25500000920E-02 0.  1.
    10030    2    1    2    0    0  0.00000000000E+00  0.00000000000E+00  0.13174298847E+04  0.18394544197E+04  0.12837332515E+04 0.  0.
        3    1    3    3  502    0  0.85509173054E+02 -0.56482691097E+03  0.10780698398E+04  0.12200720666E+04  0.10100000352E+00 0. -1.
       -3    1    3    3    0  502 -0.85509173054E+02  0.56482691097E+03  0.23936004496E+03  0.61938235312E+03  0.10100000352E+00 0.  1.
</event>
<event>
 5   0  0.4263540E-03  0.1201498E+04  0.7818609E-02  0.9111546E-01
       -2   -1    0    0    0  501  0.00000000000E+00  0.00000000000E+00  0.23299391649E+03  0.23299391650E+03  0.25500000920E-02 0.  1.
        2   -1    0    0  501    0  0.00000000000E+00  0.00000000000E+00 -0.15489656843E+04  0.15489656843E+04  0.25500000920E-02 0. -1.
    10030    2    1    2    0    0  0.00000000000E+00  0.00000000000E+00 -0.13159717678E+04  0.17819596008E+04  0.12014983667E+04 0.  0.
        2    1    3    3  502    0  0.30631913372E+03 -0.54603697778E+02  0.10417710695E+03  0.32812474018E+03  0.25500000920E-02 0.  1.
       -2    1    3    3    0  502 -0.30631913372E+03  0.54603697778E+02 -0.14201488748E+04  0.14538348606E+04  0.25500000920E-02 0. -1.
</event>
<event>
 5   0  0.2356769E-03  0.1293548E+04  0.7818609E-02  0.9034697E-01
        1   -1    0    0  501    0  0.00000000000E+00  0.00000000000E+00  0.10863482435E+04  0.10863482435E+04  0.50400001928E-02 0. -1.
       -1   -1    0    0    0  501  0.00000000000E+00  0.00000000000E+00 -0.38506672624E+03  0.38506672627E+03  0.50400001928E-02 0.  1.
    10030    2    1    2    0    0  0.00000000000E+00  0.00000000000E+00  0.70128151726E+03  0.14714149698E+04  0.12935479299E+04 0.  0.
        1    1    3    3  502    0 -0.14078081618E+03  0.20042401225E+03 -0.33027398535E+03  0.41118113808E+03  0.50400001928E-02 0.  1.
       -1    1    3    3    0  502  0.14078081618E+03 -0.20042401225E+03  0.10315555026E+04  0.10602338317E+04  0.50400001928E-02 0. -1.
</event>
<event>
 5   0  0.4310889E-03  0.1372267E+04  0.7818609E-02  0.8974142E-01
        2   -1    0    0  501    0  0.00000000000E+00  0.00000000000E+00  0.13323035685E+04  0.13323035685E+04  0.25500000920E-02 0.  1.
       -2   -1    0    0    0  501  0.00000000000E+00  0.00000000000E+00 -0.35335708986E+03  0.35335708987E+03  0.25500000920E-02 0. -1.
    10030    2    1    2    0    0  0.00000000000E+00  0.00000000000E+00  0.97894647862E+03  0.16856606584E+04  0.13722666094E+04 0.  0.
        4    1    3    3  502    0  0.15411570855E+03 -0.60416396722E+03  0.13769484714E+03  0.63853522592E+03  0.12699999809E+01 0. -1.
       -4    1    3    3    0  502 -0.15411570855E+03  0.60416396722E+03  0.84125163148E+03  0.10471254324E+04  0.12699999809E+01 0.  1.
</event>
<event>
 5   0  0.4306214E-03  0.1177171E+04  0.7818609E-02  0.9133076E-01
       -2   -1    0    0    0  501  0.00000000000E+00  0.00000000000E+00  0.27032322223E+03  0.27032322224E+03  0.25500000920E-02 0. -1.
        2   -1    0    0  501    0  0.00000000000E+00  0.00000000000E+00 -0.12815514374E+04  0.12815514374E+04  0.25500000920E-02 0.  1.
    10030    2    1    2    0    0  0.00000000000E+00  0.00000000000E+00 -0.10112282151E+04  0.15518746596E+04  0.11771713792E+04 0.  0.
        3    1    3    3  502    0  0.73081603184E+02  0.15066617712E+03  0.23825743209E+03  0.29121784252E+03  0.10100000352E+00 0. -1.
       -3    1    3    3    0  502 -0.73081603184E+02 -0.15066617712E+03 -0.12494856472E+04  0.12606568171E+04  0.10100000352E+00 0.  1.
</event>
<event>
 5   0  0.2462055E-03  0.1289191E+04  0.7818609E-02  0.9038181E-01
       -1   -1    0    0    0  501  0.00000000000E+00  0.00000000000E+00  0.72700588276E+03  0.72700588278E+03  0.50400001928E-02 0.  1.
        1   -1    0    0  501    0  0.00000000000E+00  0.00000000000E+00 -0.57152699988E+03  0.57152699990E+03  0.50400001928E-02 0. -1.
    10030    2    1    2    0    0  0.00000000000E+00  0.00000000000E+00  0.15547888288E+03  0.12985328827E+04  0.12891912055E+04 0.  0.
        2    1    3    3  502    0 -0.55887287233E+03  0.51023074475E+02  0.39715123544E+03  0.68751097837E+03  0.25500000920E-02 0.  1.
       -2    1    3    3    0  502  0.55887287233E+03 -0.51023074475E+02 -0.24167235255E+03  0.61102190432E+03  0.25500000920E-02 0. -1.
</event>
<event>
 5   0  0.2356769E-03  0.1297178E+04  0.7818609E-02  0.9031806E-01
       -1   -1    0    0    0  501  0.00000000000E+00  0.00000000000E+00  0.93153049457E+03  0.93153049459E+03  0.50400001928E-02 0.  1.
        1   -1    0    0  501    0  0.00000000000E+00  0.00000000000E+00 -0.45158794307E+03  0.45158794310E+03  0.50400001928E-02 0. -1.
    10030    2    1    2    0    0  0.00000000000E+00  0.00000000000E+00  0.47994255150E+03  0.13831184377E+04  0.12971783840E+04 0.  0.
        1    1    3    3  502    0  0.35391176523E+03 -0.26821676595E+03 -0.26407839228E+03  0.51665381872E+03  0.50400001928E-02 0. -1.
       -1    1    3    3    0  502 -0.35391176523E+03  0.26821676595E+03  0.74402094378E+03  0.86646461896E+03  0.50400001928E-02 0.  1.
</event>
<event>
 5   0  0.4453011E-03  0.1312447E+04  0.7818609E-02  0.9019753E-01
       -2   -1    0    0    0  501  0.00000000000E+00  0.00000000000E+00  0.86825867006E+03  0.86825867007E+03  0.25500000920E-02 0. -1.
        2   -1    0    0  501    0  0.00000000000E+00  0.00000000000E+00 -0.49596874674E+03  0.49596874675E+03  0.25500000920E-02 0.  1.
    10030    2    1    2    0    0  0.00000000000E+00  0.00000000000E+00  0.37228992332E+03  0.13642274168E+04  0.13124468209E+04 0.  0.
        1    1    3    3  502    0 -0.51330630689E+03 -0.60860826664E+01 -0.23877258514E+03  0.56615612028E+03  0.50400001928E-02 0.  1.
       -1    1    3    3    0  502  0.51330630689E+03  0.60860826664E+01  0.61106250845E+03  0.79807129654E+03  0.50400001928E-02 0. -1.
</event>
<event>
 5   0  0.2458456E-03  0.1173731E+04  0.7818609E-02  0.9136165E-01
        1   -1    0    0  501    0  0.00000000000E+00  0.00000000000E+00  0.40152076996E+03  0.40152076999E+03  0.50400001928E-02 0. -1.
       -1   -1    0    0    0  501  0.00000000000E+00  0.00000000000E+00 -0.85776679607E+03  0.85776679609E+03  0.50400001928E-02 0.  1.
    10030    2    1    2    0    0  0.00000000000E+00  0.00000000000E+00 -0.45624602612E+03  0.12592875661E+04  0.11737311182E+04 0.  0.
        5    1    3    3  502    0  0.53636797935E+03 -0.23785929892E+03 -0.23994622658E+03  0.63392739095E+03  0.46999998093E+01 0.  1.
       -5    1    3    3    0  502 -0.53636797935E+03  0.23785929892E+03 -0.21629979954E+03  0.62536017512E+03  0.46999998093E+01 0. -1.
</event>
<event>
 5   0  0.2511542E-03  0.1286929E+04  0.7818609E-02  0.9039995E-01
       -1   -1    0    0    0  501  0.00000000000E+00  0.00000000000E+00  0.19544591909E+03  0.19544591916E+03  0.50400001928E-02 0.  1.
        1   -1    0    0  501    0  0.00000000000E+00  0.00000000000E+00 -0.21184711268E+04  0.21184711268E+04  0.50400001928E-02 0. -1.
    10030    2    1    2    0    0  0.00000000000E+00  0.00000000000E+00 -0.19230252077E+04  0.23139170459E+04  0.12869289592E+04 0.  0.
        4    1    3    3  502    0 -0.34265418325E+03  0.27721090488E+03 -0.18044481321E+04  0.18574962852E+04  0.12699999809E+01 0. -1.
       -4    1    3    3    0  502  0.34265418325E+03 -0.27721090488E+03 -0.11857707556E+03  0.45642076074E+03  0.12699999809E+01 0.  1.
</event>
<event>
 5   0  0.4306214E-03  0.1408423E+04  0.7818609E-02  0.8947744E-01
       -2   -1    0    0    0  501  0.00000000000E+00  0.00000000000E+00  0.48289827169E+03  0.48289827169E+03  0.25500000920E-02 0. -1.
        2   -1    0    0  501    0  0.00000000000E+00  0.00000000000E+00 -0.10269525728E+04  0.10269525728E+04  0.25500000920E-02 0.  1.
    10030    2    1    2    0    0  0.00000000000E+00  0.00000000000E+00 -0.54405430112E+03  0.15098508445E+04  0.14084226958E+04 0.  0.
        3    1    3    3  502    0 -0.91456261136E+01 -0.23147667903E+03  0.44088205719E+03  0.49803824548E+03  0.10100000352E+00 0. -1.
       -3    1    3    3    0  502  0.91456261136E+01  0.23147667903E+03 -0.98493635831E+03  0.10118125990E+04  0.10100000352E+00 0.  1.
</event>
<event>
 5   0  0.2511542E-03  0.1313422E+04  0.7818609E-02  0.9018989E-01
        1   -1    0    0  501    0  0.00000000000E+00  0.00000000000E+00  0.11191779686E+04  0.11191779686E+04  0.50400001928E-02 0.  1.
       -1   -1    0    0    0  501  0.00000000000E+00  0.00000000000E+00 -0.38534465031E+03  0.38534465034E+03  0.50400001928E-02 0. -1.
    10030    2    1    2    0    0  0.00000000000E+00  0.00000000000E+00  0.73383331825E+03  0.15045226189E+04  0.13134218560E+04 0.  0.
        4    1    3    3  502    0  0.37147541186E+03  0.90195785637E+02 -0.24476056911E+03  0.45391476122E+03  0.12699999809E+01 0. -1.
       -4    1    3    3    0  502 -0.37147541186E+03 -0.90195785637E+02  0.97859388736E+03  0.10506078577E+04  0.12699999809E+01 0.  1.
</event>
<event>
 5   0  0.2356769E-03  0.1154689E+04  0.7818609E-02  0.9153468E-01
       -1   -1    0    0    0  501  0.00000000000E+00  0.00000000000E+00  0.45606100138E+03  0.45606100141E+03  0.50400001928E-02 0.  1.
        1   -1    0    0  501    0  0.00000000000E+00  0.00000000000E+00 -0.73088229635E+03  0.73088229637E+03  0.50400001928E-02 0. -1.
    10030    2    1    2    0    0  0.00000000000E+00  0.00000000000E+00 -0.27482129497E+03  0.11869432978E+04  0.11546894162E+04 0.  0.
        1    1    3    3  502    0 -0.35158701271E+03 -0.29063456137E+03 -0.50119586603E+03  0.67770138846E+03  0.50400001928E-02 0. -1.
       -1    1    3    3    0  502  0.35158701271E+03  0.29063456137E+03  0.22637457106E+03  0.50924190932E+03  0.50400001928E-02 0.  1.
</event>
<event>
 5   0  0.2462055E-03  0.1340929E+04  0.7818609E-02  0.8997723E-01
       -1   -1    0    0    0  501  0.00000000000E+00  0.00000000000E+00  0.46341630340E+03  0.46341630342E+03  0.50400001928E-02 0.  1.
        1   -1    0    0  501    0  0.00000000000E+00  0.00000000000E+00 -0.97001879824E+03  0.97001879825E+03  0.50400001928E-02 0. -1.
    10030    2    1    2    0    0  0.00000000000E+00  0.00000000000E+00 -0.50660249484E+03  0.14334351017E+04  0.13409288210E+04 0.  0.
        2    1    3    3  502    0 -0.62184767128E+03 -0.20507026096E+03 -0.99225482084E+02  0.66226432374E+03  0.25500000920E-02 0.  1.
       -2    1    3    3    0  502  0.62184767128E+03  0.20507026096E+03 -0.40737701276E+03  0.77117077793E+03  0.25500000920E-02 0. -1.
</event>
<event>
 5   0  0.4453011E-03  0.1287546E+04  0.7818609E-02  0.9039500E-01
       -2   -1    0    0    0  501  0.00000000000E+00  0.00000000000E+00  0.49839356622E+03  0.49839356623E+03  0.25500000920E-02 0.  1.
        2   -1    0    0  501    0  0.00000000000E+00  0.00000000000E+00 -0.83155842575E+03  0.83155842575E+03  0.25500000920E-02 0. -1.
    10030    2    1    2    0    0  0.00000000000E+00  0.00000000000E+00 -0.33316485952E+03  0.13299519920E+04  0.12875455244E+04 0.  0.
        1    1    3    3  502    0  0.25275201188E+03  0.55394302737E+03  0.49365196074E+02  0.61087918583E+03  0.50400001928E-02 0.  1.
       -1    1    3    3    0  502 -0.25275201188E+03 -0.55394302737E+03 -0.38253005560E+03  0.71907280615E+03  0.50400001928E-02 0. -1.
</event>
<event>
 5   0  0.2458456E-03  0.7338190E+03  0.7818609E-02  0.9661083E-01
        1   -1    0    0  501    0  0.00000000000E+00  0.00000000000E+00  0.14843872306E+04  0.14843872306E+04  0.50400001928E-02 0. -1.
       -1   -1    0    0    0  501  0.00000000000E+00  0.00000000000E+00 -0.90692353577E+02  0.90692353717E+02  0.50400001928E-02 0.  1.
    10030    2    1    2    0    0  0.00000000000E+00  0.00000000000E+00  0.13936948770E+04  0.15750795843E+04  0.73381897407E+03 0.  0.
        5    1    3    3  502    0  0.94531078724E+02 -0.17499668551E+03  0.35137038835E+02  0.20203134974E+03  0.46999998093E+01 0.  1.
       -5    1    3    3    0  502 -0.94531078724E+02  0.17499668551E+03  0.13585578381E+04  0.13730482345E+04  0.46999998093E+01 0. -1.
</event>
<event>
 5   0  0.4306214E-03  0.1277432E+04  0.7818609E-02  0.9047656E-01
        2   -1    0    0  501    0  0.00000000000E+00  0.00000000000E+00  0.17518033157E+04  0.17518033157E+04  0.25500000920E-02 0.  1.
       -2   -1    0    0    0  501  0.00000000000E+00  0.00000000000E+00 -0.23287892632E+03  0.23287892633E+03  0.25500000920E-02 0. -1.
    10030    2    1    2    0    0  0.00000000000E+00  0.00000000000E+00  0.15189243894E+04  0.19846822421E+04  0.12774319165E+04 0.  0.
        3    1    3    3  502    0 -0.51910442518E+03  0.19988565684E+03  0.12471558733E+04  0.13655846596E+04  0.10100000352E+00 0.  1.
       -3    1    3    3    0  502  0.51910442518E+03 -0.19988565684E+03  0.27176851612E+03  0.61909758246E+03  0.10100000352E+00 0. -1.
</event>
<event>
 5   0  0.4263540E-03  0.9293624E+03  0.7818609E-02  0.9389603E-01
        2   -1    0    0  501    0  0.00000000000E+00  0.00000000000E+00  0.28128088248E+03  0.28128088249E+03  0.25500000920E-02 0.  1.
       -2   -1    0    0    0  501  0.00000000000E+00  0.00000000000E+00 -0.76766182862E+03  0.76766182863E+03  0.25500000920E-02 0. -1.
    10030    2    1    2    0    0  0.00000000000E+00  0.00000000000E+00 -0.48638094614E+03  0.10489427111E+04  0.92936235476E+03 0.  0.
        2    1    3    3  502    0 -0.30434212543E+03  0.13605704482E+03  0.12217938914E+03  0.35505415347E+03  0.25500000920E-02 0.  1.
       -2    1    3    3    0  502  0.30434212543E+03 -0.13605704482E+03 -0.60856033528E+03  0.69388855765E+03  0.25500000920E-02 0. -1.
</event>
<event>
 5   0  0.4310889E-03  0.1261640E+04  0.7818609E-02  0.9060550E-01
        2   -1    0    0  501    0  0.00000000000E+00  0.00000000000E+00  0.48321805001E+03  0.48321805002E+03  0.25500000920E-02 0. -1.
       -2   -1    0    0    0  501  0.00000000000E+00  0.00000000000E+00 -0.82350828210E+03  0.82350828210E+03  0.25500000920E-02 0.  1.
    10030    2    1    2    0    0  0.00000000000E+00  0.00000000000E+00 -0.34029023209E+03  0.13067263321E+04  0.12616403073E+04 0.  0.
        4    1    3    3  502    0  0.24438011353E+03 -0.55750673277E+03  0.12904947100E+01  0.60871888031E+03  0.12699999809E+01 0. -1.
       -4    1    3    3    0  502 -0.24438011353E+03  0.55750673277E+03 -0.34158072680E+03  0.69800745181E+03  0.12699999809E+01 0.  1.
</event>
<event>
 5   0  0.4306214E-03  0.1300949E+04  0.7818609E-02  0.9028813E-01
       -2   -1    0    0    0  501  0.00000000000E+00  0.00000000000E+00  0.44070661779E+03  0.44070661780E+03  0.25500000920E-02 0. -1.
        2   -1    0    0  501    0  0.00000000000E+00  0.00000000000E+00 -0.96008827446E+03  0.96008827446E+03  0.25500000920E-02 0.  1.
    10030    2    1    2    0    0  0.00000000000E+00  0.00000000000E+00 -0.51938165666E+03  0.14007948923E+04  0.13009492784E+04 0.  0.
        3    1    3    3  502    0  0.41176852651E+03 -0.33192588225E+03  0.14803883430E+03  0.54922091856E+03  0.10100000352E+00 0. -1.
       -3    1    3    3    0  502 -0.41176852651E+03  0.33192588225E+03 -0.66742049096E+03  0.85157397370E+03  0.10100000352E+00 0.  1.
</event>
<event>
 5   0  0.2356769E-03  0.1223359E+04  0.7818609E-02  0.9092652E-01
        1   -1    0    0  501    0  0.00000000000E+00  0.00000000000E+00  0.92251016963E+03  0.92251016965E+03  0.50400001928E-02 0.  1.
       -1   -1    0    0    0  501  0.00000000000E+00  0.00000000000E+00 -0.40558026735E+03  0.40558026738E+03  0.50400001928E-02 0. -1.
    10030    2    1    2    0    0  0.00000000000E+00  0.00000000000E+00  0.51692990228E+03  0.13280904370E+04  0.12233591807E+04 0.  0.
        1    1    3    3  502    0  0.31114005220E+03 -0.24870950601E+02  0.82954638157E+03  0.88632606611E+03  0.50400001928E-02 0.  1.
       -1    1    3    3    0  502 -0.31114005220E+03  0.24870950601E+02 -0.31261647929E+03  0.44176437092E+03  0.50400001928E-02 0. -1.
</event>
<event>
 5   0  0.2458456E-03  0.1323589E+04  0.7818609E-02  0.9011065E-01
       -1   -1    0    0    0  501  0.00000000000E+00  0.00000000000E+00  0.38084794784E+03  0.38084794787E+03  0.50400001928E-02 0.  1.
        1   -1    0    0  501    0  0.00000000000E+00  0.00000000000E+00 -0.11499914028E+04  0.11499914028E+04  0.50400001928E-02 0. -1.
    10030    2    1    2    0    0  0.00000000000E+00  0.00000000000E+00 -0.76914345493E+03  0.15308393507E+04  0.13235888573E+04 0.  0.
        5    1    3    3  502    0  0.65556955478E+03  0.85379130130E+02 -0.35009201893E+03  0.74809594888E+03  0.46999998093E+01 0. -1.
       -5    1    3    3    0  502 -0.65556955478E+03 -0.85379130130E+02 -0.41905143600E+03  0.78274340178E+03  0.46999998093E+01 0.  1.
</event>
<event>
 5   0  0.1661750E-03  0.1368212E+04  0.7818609E-02  0.8977155E-01
        3   -1    0    0  501    0  0.00000000000E+00  0.00000000000E+00  0.62534313577E+03  0.62534314393E+03  0.10100000352E+00 0.  1.
       -3   -1    0    0    0  501  0.00000000000E+00  0.00000000000E+00 -0.74839098981E+03  0.74839099663E+03  0.10100000352E+00 0. -1.
    10030    2    1    2    0    0  0.00000000000E+00  0.00000000000E+00 -0.12304785404E+03  0.13737341406E+04  0.13682122330E+04 0.  0.
        4    1    3    3  502    0 -0.46603381031E+03  0.41434118010E+03 -0.34396590536E+03  0.71216590962E+03  0.12699999809E+01 0. -1.
       -4    1    3    3    0  502  0.46603381031E+03 -0.41434118010E+03  0.22091805132E+03  0.66156823093E+03  0.12699999809E+01 0.  1.
</event>
<event>
 5   0  0.4310889E-03  0.1395584E+04  0.7818609E-02  0.8957022E-01
        2   -1    0    0  501    0  0.00000000000E+00  0.00000000000E+00  0.87066828707E+03  0.87066828707E+03  0.25500000920E-02 0.  1.
       -2   -1    0    0    0  501  0.00000000000E+00  0.00000000000E+00 -0.55924101664E+03  0.55924101664E+03  0.25500000920E-02 0. -1.
    10030    2    1    2    0    0  0.00000000000E+00  0.00000000000E+00  0.31142727043E+03  0.14299093037E+04  0.13955836313E+04 0.  0.
        4    1    3    3  502    0  0.15539177608E+03 -0.67978398451E+03  0.18201474424E+03  0.72068290509E+03  0.12699999809E+01 0.  1.
       -4    1    3    3    0  502 -0.15539177608E+03  0.67978398451E+03  0.12941252619E+03  0.70922639862E+03  0.12699999809E+01 0. -1.
</event>
<event>
 5   0  0.4263540E-03  0.1285535E+04  0.7818609E-02  0.9041116E-01
        2   -1    0    0  501    0  0.00000000000E+00  0.00000000000E+00  0.72300132166E+03  0.72300132167E+03  0.25500000920E-02 0. -1.
       -2   -1    0    0    0  501  0.00000000000E+00  0.00000000000E+00 -0.57143714949E+03  0.57143714949E+03  0.25500000920E-02 0.  1.
    10030    2    1    2    0    0  0.00000000000E+00  0.00000000000E+00  0.15156417218E+03  0.12944384712E+04  0.12855346193E+04 0.  0.
        2    1    3    3  502    0 -0.39562721825E+03  0.25857445166E+03 -0.36285901360E+03  0.59585930103E+03  0.25500000920E-02 0.  1.
       -2    1    3    3    0  502  0.39562721825E+03 -0.25857445166E+03  0.51442318578E+03  0.69857917013E+03  0.25500000920E-02 0. -1.
</event>
<event>
 5   0  0.2462055E-03  0.1279739E+04  0.7818609E-02  0.9045789E-01
       -1   -1    0    0    0  501  0.00000000000E+00  0.00000000000E+00  0.43789093480E+03  0.43789093483E+03  0.50400001928E-02 0.  1.
        1   -1    0    0  501    0  0.00000000000E+00  0.00000000000E+00 -0.93501064558E+03  0.93501064559E+03  0.50400001928E-02 0. -1.
    10030    2    1    2    0    0  0.00000000000E+00  0.00000000000E+00 -0.49711971078E+03  0.13729015804E+04  0.12797385447E+04 0.  0.
        2    1    3    3  502    0 -0.34525465184E+01 -0.11485662422E+03  0.42673140756E+03  0.44193173501E+03  0.25500000920E-02 0.  1.
       -2    1    3    3    0  502  0.34525465184E+01  0.11485662422E+03 -0.92385111834E+03  0.93096984541E+03  0.25500000920E-02 0. -1.
</event>
<event>
 5   0  0.1661750E-03  0.1226457E+04  0.7818609E-02  0.9090009E-01
        4   -1    0    0  501    0  0.00000000000E+00  0.00000000000E+00  0.30276825868E+03  0.30277092225E+03  0.12699999809E+01 0.  1.
       -4   -1    0    0    0  501  0.00000000000E+00  0.00000000000E+00 -0.12420273497E+04  0.12420279990E+04  0.12699999809E+01 0. -1.
    10030    2    1    2    0    0  0.00000000000E+00  0.00000000000E+00 -0.93925909102E+03  0.15447989213E+04  0.12264567123E+04 0.  0.
        4    1    3    3  502    0 -0.35262235388E+02  0.23597111645E+03 -0.11811671230E+04  0.12050241402E+04  0.12699999809E+01 0. -1.
       -4    1    3    3    0  502  0.35262235388E+02 -0.23597111645E+03  0.24190803196E+03  0.33977478110E+03  0.12699999809E+01 0.  1.
</event>
<event>
 5   0  0.4453011E-03  0.1298564E+04  0.7818609E-02  0.9030704E-01
        2   -1    0    0  501    0  0.00000000000E+00  0.00000000000E+00  0.98610666117E+03  0.98610666118E+03  0.25500000920E-02 0.  1.
       -2   -1    0    0    0  501  0.00000000000E+00  0.00000000000E+00 -0.42750686488E+03  0.42750686489E+03  0.25500000920E-02 0. -1.
    10030    2    1    2    0    0  0.00000000000E+00  0.00000000000E+00  0.55859979629E+03  0.14136135261E+04  0.12985643876E+04 0.  0.
        1    1    3    3  502    0 -0.64907112496E+03  0.89917348862E+01  0.29443063874E+03  0.71278578662E+03  0.50400001928E-02 0.  1.
       -1    1    3    3    0  502  0.64907112496E+03 -0.89917348862E+01  0.26416915756E+03  0.70082773945E+03  0.50400001928E-02 0. -1.
</event>
<event>
 5   0  0.2511542E-03  0.1272595E+04  0.7818609E-02  0.9051584E-01
       -1   -1    0    0    0  501  0.00000000000E+00  0.00000000000E+00  0.88991302116E+03  0.88991302117E+03  0.50400001928E-02 0. -1.
        1   -1    0    0  501    0  0.00000000000E+00  0.00000000000E+00 -0.45495962845E+03  0.45495962848E+03  0.50400001928E-02 0.  1.
    10030    2    1    2    0    0  0.00000000000E+00  0.00000000000E+00  0.43495339270E+03  0.13448726497E+04  0.12725949827E+04 0.  0.
        4    1    3    3  502    0  0.43913633479E+03  0.26276253063E+03  0.61709077090E+03  0.80167792814E+03  0.12699999809E+01 0. -1.
       -4    1    3    3    0  502 -0.43913633479E+03 -0.26276253063E+03 -0.18213737820E+03  0.54319472151E+03  0.12699999809E+01 0.  1.
</event>
<event>
 5   0  0.2458456E-03  0.1160149E+04  0.7818609E-02  0.9148471E-01
        1   -1    0    0  501    0  0.00000000000E+00  0.00000000000E+00  0.15225402995E+04  0.15225402995E+04  0.50400001928E-02 0. -1.
       -1   -1    0    0    0  501  0.00000000000E+00  0.00000000000E+00 -0.22100344930E+03  0.22100344936E+03  0.50400001928E-02 0.  1.
    10030    2    1    2    0    0  0.00000000000E+00  0.00000000000E+00  0.13015368502E+04  0.17435437489E+04  0.11601494007E+04 0.  0.
        5    1    3    3  502    0  0.28398224583E+01  0.31145457203E+03 -0.84640108304E+02  0.32279723196E+03  0.46999998093E+01 0.  1.
       -5    1    3    3    0  502 -0.28398224583E+01 -0.31145457203E+03  0.13861769585E+04  0.14207465169E+04  0.46999998093E+01 0. -1.
</event>
<event>
 5   0  0.2356769E-03  0.1315085E+04  0.7818609E-02  0.9017688E-01
       -1   -1    0    0    0  501  0.00000000000E+00  0.00000000000E+00  0.71113108111E+03  0.71113108113E+03  0.50400001928E-02 0.  1.
        1   -1    0    0  501    0  0.00000000000E+00  0.00000000000E+00 -0.60799202749E+03  0.60799202751E+03  0.50400001928E-02 0. -1.
    10030    2    1    2    0    0  0.00000000000E+00  0.00000000000E+00  0.10313905362E+03  0.13191231086E+04  0.13150848305E+04 0.  0.
        1    1    3    3  502    0 -0.43498404761E+02  0.23313363130E+03  0.66673787373E+03  0.70766008334E+03  0.50400001928E-02 0.  1.
       -1    1    3    3    0  502  0.43498404761E+02 -0.23313363130E+03 -0.56359882011E+03  0.61146302530E+03  0.50400001928E-02 0. -1.
</event>
<event>
 5   0  0.2370801E-03  0.1273156E+04  0.7818609E-02  0.9051127E-01
       -1   -1    0    0    0  501  0.00000000000E+00  0.00000000000E+00  0.52637377472E+03  0.52637377474E+03  0.50400001928E-02 0. -1.
        1   -1    0    0  501    0  0.00000000000E+00  0.00000000000E+00 -0.76985573015E+03  0.76985573016E+03  0.50400001928E-02 0.  1.
    10030    2    1    2    0    0  0.00000000000E+00  0.00000000000E+00 -0.24348195543E+03  0.12962295049E+04  0.12731564974E+04 0.  0.
        3    1    3    3  502    0 -0.34110808677E+03  0.11411746434E+03  0.41299575448E+03  0.54767054508E+03  0.10100000352E+00 0. -1.
       -3    1    3    3    0  502  0.34110808677E+03 -0.11411746434E+03 -0.65647770991E+03  0.74855895983E+03  0.10100000352E+00 0.  1.
</event>
<event>
 5   0  0.4306214E-03  0.1242857E+04  0.7818609E-02  0.9076149E-01
       -2   -1    0    0    0  501  0.00000000000E+00  0.00000000000E+00  0.54699960720E+03  0.54699960721E+03  0.25500000920E-02 0. -1.
        2   -1    0    0  501    0  0.00000000000E+00  0.00000000000E+00 -0.70598473066E+03  0.70598473067E+03  0.25500000920E-02 0.  1.
    10030    2    1    2    0    0  0.00000000000E+00  0.00000000000E+00 -0.15898512346E+03  0.12529843379E+04  0.12428569835E+04 0.  0.
        3    1    3    3  502    0 -0.16757095705E+03 -0.85658970915E+01  0.52373073428E+03  0.54995208197E+03  0.10100000352E+00 0. -1.
       -3    1    3    3    0  502  0.16757095705E+03  0.85658970915E+01 -0.68271585774E+03  0.70303225591E+03  0.10100000352E+00 0.  1.
</event>
<event>
 5   0  0.4453011E-03  0.1300281E+04  0.7818609E-02  0.9029342E-01
        2   -1    0    0  501    0  0.00000000000E+00  0.00000000000E+00  0.17783119895E+04  0.17783119895E+04  0.25500000920E-02 0.  1.
       -2   -1    0    0    0  501  0.00000000000E+00  0.00000000000E+00 -0.23768762710E+03  0.23768762711E+03  0.25500000920E-02 0. -1.
    10030    2    1    2    0    0  0.00000000000E+00  0.00000000000E+00  0.15406243624E+04  0.20159996166E+04  0.13002811343E+04 0.  0.
        1    1    3    3  502    0 -0.25900187721E+02 -0.37802445443E+03  0.15894188345E+04  0.16339600788E+04  0.50400001928E-02 0.  1.
       -1    1    3    3    0  502  0.25900187721E+02  0.37802445443E+03 -0.48794472085E+02  0.38203953774E+03  0.50400001928E-02 0. -1.
</event>
<event>
 5   0  0.1661750E-03  0.1272080E+04  0.7818609E-02  0.9052004E-01
       -3   -1    0    0    0  501  0.00000000000E+00  0.00000000000E+00  0.27337040176E+03  0.27337042042E+03  0.10100000352E+00 0.  1.
        3   -1    0    0  501    0  0.00000000000E+00  0.00000000000E+00 -0.14798487888E+04  0.14798487922E+04  0.10100000352E+00 0. -1.
    10030    2    1    2    0    0  0.00000000000E+00  0.00000000000E+00 -0.12064783870E+04  0.17532192126E+04  0.12720799932E+04 0.  0.
        2    1    3    3  502    0 -0.20208323207E+03 -0.49632390663E+03 -0.10754149952E+04  0.12015375421E+04  0.25500000920E-02 0. -1.
       -2    1    3    3    0  502  0.20208323207E+03  0.49632390663E+03 -0.13106339175E+03  0.55168167057E+03  0.25500000920E-02 0.  1.
</event>
<event>
 5   0  0.4310889E-03  0.1308783E+04  0.7818609E-02  0.9022629E-01
       -2   -1    0    0    0  501  0.00000000000E+00  0.00000000000E+00  0.56448243445E+03  0.56448243446E+03  0.25500000920E-02 0. -1.
        2   -1    0    0  501    0  0.00000000000E+00  0.00000000000E+00 -0.75862134458E+03  0.75862134459E+03  0.25500000920E-02 0.  1.
    10030    2    1    2    0    0  0.00000000000E+00  0.00000000000E+00 -0.19413891013E+03  0.13231037790E+04  0.13087832875E+04 0.  0.
        4    1    3    3  502    0 -0.26904955024E+03 -0.12174977589E+03 -0.68742498773E+03  0.74817470892E+03  0.12699999809E+01 0.  1.
       -4    1    3    3    0  502  0.26904955024E+03  0.12174977589E+03  0.49328607760E+03  0.57492907012E+03  0.12699999809E+01 0. -1.
</event>
<event>
 5   0  0.2462055E-03  0.1315492E+04  0.7818609E-02  0.9017370E-01
        1   -1    0    0  501    0  0.00000000000E+00  0.00000000000E+00  0.75560795639E+03  0.75560795641E+03  0.50400001928E-02 0. -1.
       -1   -1    0    0    0  501  0.00000000000E+00  0.00000000000E+00 -0.57255829991E+03  0.57255829993E+03  0.50400001928E-02 0.  1.
    10030    2    1    2    0    0  0.00000000000E+00  0.00000000000E+00  0.18304965649E+03  0.13281662563E+04  0.13154917057E+04 0.  0.
        2    1    3    3  502    0 -0.44060370802E+03  0.49724324714E+02 -0.39898053971E+03  0.59648101987E+03  0.25500000920E-02 0.  1.
       -2    1    3    3    0  502  0.44060370802E+03 -0.49724324714E+02  0.58203019620E+03  0.73168523648E+03  0.25500000920E-02 0. -1.
</event>
<event>
 5   0  0.4388937E-03  0.1307252E+04  0.7818609E-02  0.9023834E-01
       -2   -1    0    0    0  501  0.00000000000E+00  0.00000000000E+00  0.96686518918E+03  0.96686518919E+03  0.25500000920E-02 0. -1.
        2   -1    0    0  501    0  0.00000000000E+00  0.00000000000E+00 -0.44186831638E+03  0.44186831639E+03  0.25500000920E-02 0.  1.
    10030    2    1    2    0    0  0.00000000000E+00  0.00000000000E+00  0.52499687280E+03  0.14087335056E+04  0.13072522225E+04 0.  0.
        5    1    3    3  502    0  0.36590494230E+03  0.28540605863E+03  0.75851473390E+03  0.88921861016E+03  0.46999998093E+01 0. -1.
       -5    1    3    3    0  502 -0.36590494230E+03 -0.28540605863E+03 -0.23351786110E+03  0.51951489541E+03  0.46999998093E+01 0.  1.
</event>
<event>
 5   0  0.4388937E-03  0.1334239E+04  0.7818609E-02  0.9002845E-01
        2   -1    0    0  501    0  0.00000000000E+00  0.00000000000E+00  0.11621276374E+04  0.11621276374E+04  0.25500000920E-02 0. -1.
       -2   -1    0    0    0  501  0.00000000000E+00  0.00000000000E+00 -0.38296022438E+03  0.38296022439E+03  0.25500000920E-02 0.  1.
    10030    2    1    2    0    0  0.00000000000E+00  0.00000000000E+00  0.77916741304E+03  0.15450878618E+04  0.13342393500E+04 0.  0.
        5    1    3    3  502    0  0.11305882934E+03  0.26781912768E+03  0.10849000258E+04  0.11231827723E+04  0.46999998093E+01 0. -1.
       -5    1    3    3    0  502 -0.11305882934E+03 -0.26781912768E+03 -0.30573261275E+03  0.42190508950E+03  0.46999998093E+01 0.  1.
</event>
<event>
 5   0  0.4306214E-03  0.1297837E+04  0.7818609E-02  0.9031282E-01
        2   -1    0    0  501    0  0.00000000000E+00  0.00000000000E+00  0.12074058769E+04  0.12074058769E+04  0.25500000920E-02 0. -1.
       -2   -1    0    0    0  501  0.00000000000E+00  0.00000000000E+00 -0.34876037126E+03  0.34876037127E+03  0.25500000920E-02 0.  1.
    10030    2    1    2    0    0  0.00000000000E+00  0.00000000000E+00  0.85864550560E+03  0.15561662481E+04  0.12978371576E+04 0.  0.
        3    1    3    3  502    0 -0.20018822577E+03 -0.60431002500E+03  0.58018054065E+03  0.86132189221E+03  0.10100000352E+00 0.  1.
       -3    1    3    3    0  502  0.20018822577E+03  0.60431002500E+03  0.27846496495E+03  0.69484435592E+03  0.10100000352E+00 0. -1.
</event>
<event>
 5   0  0.4388937E-03  0.1301598E+04  0.7818609E-02  0.9028299E-01
       -2   -1    0    0    0  501  0.00000000000E+00  0.00000000000E+00  0.26190508734E+03  0.26190508735E+03  0.25500000920E-02 0.  1.
        2   -1    0    0  501    0  0.00000000000E+00  0.00000000000E+00 -0.16171493119E+04  0.16171493119E+04  0.25500000920E-02 0. -1.
    10030    2    1    2    0    0  0.00000000000E+00  0.00000000000E+00 -0.13552442246E+04  0.18790543993E+04  0.13015984508E+04 0.  0.
        5    1    3    3  502    0 -0.12607295180E+03 -0.14263133637E+03 -0.15760320748E+04  0.15874940246E+04  0.46999998093E+01 0. -1.
       -5    1    3    3    0  502  0.12607295180E+03  0.14263133637E+03  0.22078785021E+03  0.29156037469E+03  0.46999998093E+01 0.  1.
</event>
<event>
 5   0  0.4263540E-03  0.1266122E+04  0.7818609E-02  0.9056871E-01
        2   -1    0    0  501    0  0.00000000000E+00  0.00000000000E+00  0.98450605974E+03  0.98450605974E+03  0.25500000920E-02 0.  1.
       -2   -1    0    0    0  501  0.00000000000E+00  0.00000000000E+00 -0.40707345168E+03  0.40707345169E+03  0.25500000920E-02 0. -1.
    10030    2    1    2    0    0  0.00000000000E+00  0.00000000000E+00  0.57743260806E+03  0.13915795114E+04  0.12661220793E+04 0.  0.
        2    1    3    3  502    0 -0.44626404013E+03 -0.81822412811E+02 -0.19652794721E+03  0.49443880794E+03  0.25500000920E-02 0. -1.
       -2    1    3    3    0  502  0.44626404013E+03  0.81822412811E+02  0.77396055527E+03  0.89714070350E+03  0.25500000920E-02 0.  1.
</event>
<event>
 5   0  0.4388937E-03  0.1361229E+04  0.7818609E-02  0.8982371E-01
        2   -1    0    0  501    0  0.00000000000E+00  0.00000000000E+00  0.10222270748E+04  0.10222270748E+04  0.25500000920E-02 0. -1.
       -2   -1    0    0    0  501  0.00000000000E+00  0.00000000000E+00 -0.45316358800E+03  0.45316358801E+03  0.25500000920E-02 0.  1.
    10030    2    1    2    0    0  0.00000000000E+00  0.00000000000E+00  0.56906348675E+03  0.14753906628E+04  0.13612289873E+04 0.  0.
        5    1    3    3  502    0  0.36007464907E+03  0.37090515676E+03 -0.19530374722E+03  0.55262105632E+03  0.46999998093E+01 0.  1.
       -5    1    3    3    0  502 -0.36007464907E+03 -0.37090515676E+03  0.76436723398E+03  0.92276960645E+03  0.46999998093E+01 0. -1.
</event>
<event>
 5   0  0.4263540E-03  0.1241420E+04  0.7818609E-02  0.9077354E-01
       -2   -1    0    0    0  501  0.00000000000E+00  0.00000000000E+00  0.10259914395E+04  0.10259914395E+04  0.25500000920E-02 0. -1.
        2   -1    0    0  501    0  0.00000000000E+00  0.00000000000E+00 -0.37552083740E+03  0.37552083741E+03  0.25500000920E-02 0.  1.
    10030    2    1    2    0    0  0.00000000000E+00  0.00000000000E+00  0.65047060210E+03  0.14015122769E+04  0.12414204196E+04 0.  0.
        2    1    3    3  502    0 -0.80287124574E+02 -0.40049994606E+03 -0.20240635047E+03  0.45586682253E+03  0.25500000920E-02 0.  1.
       -2    1    3    3    0  502  0.80287124574E+02  0.40049994606E+03  0.85287695257E+03  0.94564545438E+03  0.25500000920E-02 0. -1.
</event>
<event>
 5   0  0.4310889E-03  0.1236020E+04  0.7818609E-02  0.9081900E-01
       -2   -1    0    0    0  501  0.00000000000E+00  0.00000000000E+00  0.26355373985E+03  0.26355373986E+03  0.25500000920E-02 0. -1.
        2   -1    0    0  501    0  0.00000000000E+00  0.00000000000E+00 -0.14491784616E+04  0.14491784616E+04  0.25500000920E-02 0.  1.
    10030    2    1    2    0    0  0.00000000000E+00  0.00000000000E+00 -0.11856247218E+04  0.17127322015E+04  0.12360200699E+04 0.  0.
        4    1    3    3  502    0  0.80373374940E+02  0.32110056427E+03  0.13036204675E+03  0.35575458944E+03  0.12699999809E+01 0. -1.
       -4    1    3    3    0  502 -0.80373374940E+02 -0.32110056427E+03 -0.13159867685E+04  0.13569776120E+04  0.12699999809E+01 0.  1.
</event>
<event>
 5   0  0.4453011E-03  0.1297977E+04  0.7818609E-02  0.9031171E-01
       -2   -1    0    0    0  501  0.00000000000E+00  0.00000000000E+00  0.29376456156E+03  0.29376456157E+03  0.25500000920E-02 0.  1.
        2   -1    0    0  501    0  0.00000000000E+00  0.00000000000E+00 -0.14337536737E+04  0.14337536737E+04  0.25500000920E-02 0. -1.
    10030    2    1    2    0    0  0.00000000000E+00  0.00000000000E+00 -0.11399891121E+04  0.17275182353E+04  0.12979769171E+04 0.  0.
        1    1    3    3  502    0  0.19615439514E+02 -0.25552249850E+03  0.22356820632E+03  0.34008712944E+03  0.50400001928E-02 0.  1.
       -1    1    3    3    0  502 -0.19615439514E+02  0.25552249850E+03 -0.13635573185E+04  0.13874311058E+04  0.50400001928E-02 0. -1.
</event>
<event>
 5   0  0.2356769E-03  0.1450961E+04  0.7818609E-02  0.8917734E-01
        1   -1    0    0  501    0  0.00000000000E+00  0.00000000000E+00  0.83135002999E+03  0.83135003001E+03  0.50400001928E-02 0. -1.
       -1   -1    0    0    0  501  0.00000000000E+00  0.00000000000E+00 -0.63309340603E+03  0.63309340605E+03  0.50400001928E-02 0.  1.
    10030    2    1    2    0    0  0.00000000000E+00  0.00000000000E+00  0.19825662396E+03  0.14644434361E+04  0.14509613670E+04 0.  0.
        1    1    3    3  502    0 -0.19140287377E+02 -0.17203456966E+03 -0.61194623141E+03  0.63595631447E+03  0.50400001928E-02 0.  1.
       -1    1    3    3    0  502  0.19140287377E+02  0.17203456966E+03  0.81020285537E+03  0.82848712158E+03  0.50400001928E-02 0. -1.
</event>
<event>
 5   0  0.2458456E-03  0.1314508E+04  0.7818609E-02  0.9018139E-01
        1   -1    0    0  501    0  0.00000000000E+00  0.00000000000E+00  0.45657209462E+03  0.45657209465E+03  0.50400001928E-02 0. -1.
       -1   -1    0    0    0  501  0.00000000000E+00  0.00000000000E+00 -0.94614396005E+03  0.94614396007E+03  0.50400001928E-02 0.  1.
    10030    2    1    2    0    0  0.00000000000E+00  0.00000000000E+00 -0.48957186543E+03  0.14027160547E+04  0.13145081661E+04 0.  0.
        5    1    3    3  502    0  0.91164098155E+02  0.48189623374E+03  0.22209582354E+03  0.53840831877E+03  0.46999998093E+01 0. -1.
       -5    1    3    3    0  502 -0.91164098155E+02 -0.48189623374E+03 -0.71166768897E+03  0.86430773594E+03  0.46999998093E+01 0.  1.
</event>
<event>
 5   0  0.2462055E-03  0.1322187E+04  0.7818609E-02  0.9012153E-01
        1   -1    0    0  501    0  0.00000000000E+00  0.00000000000E+00  0.47931846030E+03  0.47931846032E+03  0.50400001928E-02 0. -1.
       -1   -1    0    0    0  501  0.00000000000E+00  0.00000000000E+00 -0.91180487386E+03  0.91180487387E+03  0.50400001928E-02 0.  1.
    10030    2    1    2    0    0  0.00000000000E+00  0.00000000000E+00 -0.43248641356E+03  0.13911233342E+04  0.13221874425E+04 0.  0.
        2    1    3    3  502    0 -0.43958698489E+03 -0.47270238638E+03 -0.66112900060E+02  0.64888764739E+03  0.25500000920E-02 0. -1.
       -2    1    3    3    0  502  0.43958698489E+03  0.47270238638E+03 -0.36637351350E+03  0.74223568681E+03  0.25500000920E-02 0.  1.
</event>
<event>
 5   0  0.2458456E-03  0.1295497E+04  0.7818609E-02  0.9033144E-01
        1   -1    0    0  501    0  0.00000000000E+00  0.00000000000E+00  0.21180582654E+04  0.21180582654E+04  0.50400001928E-02 0.  1.
       -1   -1    0    0    0  501  0.00000000000E+00  0.00000000000E+00 -0.19809567034E+03  0.19809567040E+03  0.50400001928E-02 0. -1.
    10030    2    1    2    0    0  0.00000000000E+00  0.00000000000E+00  0.19199625950E+04  0.23161539358E+04  0.12954970814E+04 0.  0.
        5    1    3    3  502    0 -0.14713871059E+03 -0.38041595923E+03  0.60371372550E+02  0.41235045145E+03  0.46999998093E+01 0. -1.
       -5    1    3    3    0  502  0.14713871059E+03  0.38041595923E+03  0.18595912225E+04  0.19038034843E+04  0.46999998093E+01 0.  1.
</event>
<event>
 5   0  0.4453011E-03  0.1275121E+04  0.7818609E-02  0.9049531E-01
       -2   -1    0    0    0  501  0.00000000000E+00  0.00000000000E+00  0.37921199872E+03  0.37921199873E+03  0.25500000920E-02 0. -1.
        2   -1    0    0  501    0  0.00000000000E+00  0.00000000000E+00 -0.10719155669E+04  0.10719155669E+04  0.25500000920E-02 0.  1.
    10030    2    1    2    0    0  0.00000000000E+00  0.00000000000E+00 -0.69270356822E+03  0.14511275657E+04  0.12751207701E+04 0.  0.
        1    1    3    3  502    0 -0.31178259001E+03  0.41664772294E+03 -0.76554229896E+03  0.92566663545E+03  0.50400001928E-02 0. -1.
       -1    1    3    3    0  502  0.31178259001E+03 -0.41664772294E+03  0.72838730737E+02  0.52546093022E+03  0.50400001928E-02 0.  1.
</event>
<event>
 5   0  0.4310889E-03  0.1327201E+04  0.7818609E-02  0.9008269E-01
        2   -1    0    0  501    0  0.00000000000E+00  0.00000000000E+00  0.10244504038E+04  0.10244504038E+04  0.25500000920E-02 0. -1.
       -2   -1    0    0    0  501  0.00000000000E+00  0.00000000000E+00 -0.42985518871E+03  0.42985518872E+03  0.25500000920E-02 0.  1.
    10030    2    1    2    0    0  0.00000000000E+00  0.00000000000E+00  0.59459521506E+03  0.14543055925E+04  0.13272005450E+04 0.  0.
        4    1    3    3  502    0  0.56280661737E+03 -0.30931868810E+03  0.48043986314E+03  0.80203080636E+03  0.12699999809E+01 0. -1.
       -4    1    3    3    0  502 -0.56280661737E+03  0.30931868810E+03  0.11415535192E+03  0.65227478614E+03  0.12699999809E+01 0.  1.
</event>
<event>
 5   0  0.2511542E-03  0.1303869E+04  0.7818609E-02  0.9026502E-01
        1   -1    0    0  501    0  0.00000000000E+00  0.00000000000E+00  0.18441165700E+04  0.18441165700E+04  0.50400001928E-02 0.  1.
       -1   -1    0    0    0  501  0.00000000000E+00  0.00000000000E+00 -0.23047286151E+03  0.23047286156E+03  0.50400001928E-02 0. -1.
    10030    2    1    2    0    0  0.00000000000E+00  0.00000000000E+00  0.16136437085E+04  0.20745894316E+04  0.13038693537E+04 0.  0.
        4    1    3    3  502    0 -0.69566108000E+02  0.20079659047E+03  0.17874605029E+04  0.18000487151E+04  0.12699999809E+01 0.  1.
       -4    1    3    3    0  502  0.69566108000E+02 -0.20079659047E+03 -0.17381679440E+03  0.27454071655E+03  0.12699999809E+01 0. -1.
</event>
<event>
 5   0  0.2462055E-03  0.1288369E+04  0.7818609E-02  0.9038840E-01
       -1   -1    0    0    0  501  0.00000000000E+00  0.00000000000E+00  0.50366291376E+03  0.50366291379E+03  0.50400001928E-02 0. -1.
        1   -1    0    0  501    0  0.00000000000E+00  0.00000000000E+00 -0.82391200155E+03  0.82391200157E+03  0.50400001928E-02 0.  1.
    10030    2    1    2    0    0  0.00000000000E+00  0.00000000000E+00 -0.32024908779E+03  0.13275749154E+04  0.12883693871E+04 0.  0.
        2    1    3    3  502    0  0.23632882074E+03 -0.41200906900E+02 -0.77616773280E+03  0.81239471668E+03  0.25500000920E-02 0.  1.
       -2    1    3    3    0  502 -0.23632882074E+03  0.41200906900E+02  0.45591864501E+03  0.51518019868E+03  0.25500000920E-02 0. -1.
</event>
<event>
 5   0  0.2462055E-03  0.1286003E+04  0.7818609E-02  0.9040739E-01
       -1   -1    0    0    0  501  0.00000000000E+00  0.00000000000E+00  0.12708670346E+04  0.12708670346E+04  0.50400001928E-02 0. -1.
        1   -1    0    0  501    0  0.00000000000E+00  0.00000000000E+00 -0.32532999699E+03  0.32532999703E+03  0.50400001928E-02 0.  1.
    10030    2    1    2    0    0  0.00000000000E+00  0.00000000000E+00  0.94553703765E+03  0.15961970317E+04  0.12860033726E+04 0.  0.
        2    1    3    3  502    0 -0.60630604797E+03 -0.80946171534E+02  0.71880284141E+03  0.94384152871E+03  0.25500000920E-02 0. -1.
       -2    1    3    3    0  502  0.60630604797E+03  0.80946171534E+02  0.22673419624E+03  0.65235550296E+03  0.25500000920E-02 0.  1.
</event>
<event>
 5   0  0.4263540E-03  0.1263222E+04  0.7818609E-02  0.9059250E-01
        2   -1    0    0  501    0  0.00000000000E+00  0.00000000000E+00  0.13361770859E+04  0.13361770859E+04  0.25500000920E-02 0. -1.
       -2   -1    0    0    0  501  0.00000000000E+00  0.00000000000E+00 -0.29856238376E+03  0.29856238378E+03  0.25500000920E-02 0.  1.
    10030    2    1    2    0    0  0.00000000000E+00  0.00000000000E+00  0.10376147021E+04  0.16347394696E+04  0.12632216209E+04 0.  0.
        2    1    3    3  502    0 -0.55438900322E+03 -0.30432499855E+02  0.12915773786E+03  0.57004826567E+03  0.25500000920E-02 0.  1.
       -2    1    3    3    0  502  0.55438900322E+03  0.30432499855E+02  0.90845696423E+03  0.10646912040E+04  0.25500000920E-02 0. -1.
</event>
<event>
 5   0  0.2356769E-03  0.1308830E+04  0.7818609E-02  0.9022592E-01
        1   -1    0    0  501    0  0.00000000000E+00  0.00000000000E+00  0.90361224843E+03  0.90361224845E+03  0.50400001928E-02 0.  1.
       -1   -1    0    0    0  501  0.00000000000E+00  0.00000000000E+00 -0.47394078523E+03  0.47394078525E+03  0.50400001928E-02 0. -1.
    10030    2    1    2    0    0  0.00000000000E+00  0.00000000000E+00  0.42967146320E+03  0.13775530337E+04  0.13088295513E+04 0.  0.
        1    1    3    3  502    0 -0.26857061586E+03  0.55438939076E+03  0.44729681456E+03  0.76128326702E+03  0.50400001928E-02 0.  1.
       -1    1    3    3    0  502  0.26857061586E+03 -0.55438939076E+03 -0.17625351360E+02  0.61626976668E+03  0.50400001928E-02 0. -1.
</event>
<event>
 5   0  0.2462055E-03  0.1316923E+04  0.7818609E-02  0.9016252E-01
        1   -1    0    0  501    0  0.00000000000E+00  0.00000000000E+00  0.58750690895E+03  0.58750690897E+03  0.50400001928E-02 0. -1.
       -1   -1    0    0    0  501  0.00000000000E+00  0.00000000000E+00 -0.73798493961E+03  0.73798493963E+03  0.50400001928E-02 0.  1.
    10030    2    1    2    0    0  0.00000000000E+00  0.00000000000E+00 -0.15047803066E+03  0.13254918486E+04  0.13169225501E+04 0.  0.
        2    1    3    3  502    0  0.15757548207E+03  0.60798412712E+03 -0.27425404451E+03  0.68533934100E+03  0.25500000920E-02 0.  1.
       -2    1    3    3    0  502 -0.15757548207E+03 -0.60798412712E+03  0.12377601385E+03  0.64015250761E+03  0.25500000920E-02 0. -1.
</event>
<event>
 5   0  0.2370801E-03  0.1309319E+04  0.7818609E-02  0.9022208E-01
       -1   -1    0    0    0  501  0.00000000000E+00  0.00000000000E+00  0.34440707373E+03  0.34440707377E+03  0.50400001928E-02 0. -1.
        1   -1    0    0  501    0  0.00000000000E+00  0.00000000000E+00 -0.12443960810E+04  0.12443960810E+04  0.50400001928E-02 0.  1.
    10030    2    1    2    0    0  0.00000000000E+00  0.00000000000E+00 -0.89998900728E+03  0.15888031548E+04  0.13093186211E+04 0.  0.
        3    1    3    3  502    0 -0.59456613564E+03 -0.69223588116E+02 -0.12830679283E+03  0.61217925323E+03  0.10100000352E+00 0. -1.
       -3    1    3    3    0  502  0.59456613564E+03  0.69223588116E+02 -0.77168221445E+03  0.97662390156E+03  0.10100000352E+00 0.  1.
</event>
<event>
 5   0  0.2511542E-03  0.1296336E+04  0.7818609E-02  0.9032476E-01
       -1   -1    0    0    0  501  0.00000000000E+00  0.00000000000E+00  0.49265995513E+03  0.49265995516E+03  0.50400001928E-02 0.  1.
        1   -1    0    0  501    0  0.00000000000E+00  0.00000000000E+00 -0.85276237103E+03  0.85276237105E+03  0.50400001928E-02 0. -1.
    10030    2    1    2    0    0  0.00000000000E+00  0.00000000000E+00 -0.36010241590E+03  0.13454223262E+04  0.12963361778E+04 0.  0.
        4    1    3    3  502    0  0.37371470576E+03 -0.47226464646E+03  0.68654929629E+02  0.60614494129E+03  0.12699999809E+01 0.  1.
       -4    1    3    3    0  502 -0.37371470576E+03  0.47226464646E+03 -0.42875734553E+03  0.73927738491E+03  0.12699999809E+01 0. -1.
</event>
<event>
 5   0  0.4310889E-03  0.1227015E+04  0.7818609E-02  0.9089534E-01
        2   -1    0    0  501    0  0.00000000000E+00  0.00000000000E+00  0.10136765041E+04  0.10136765042E+04  0.25500000920E-02 0.  1.
       -2   -1    0    0    0  501  0.00000000000E+00  0.00000000000E+00 -0.37131298476E+03  0.37131298477E+03  0.25500000920E-02 0. -1.
    10030    2    1    2    0    0  0.00000000000E+00  0.00000000000E+00  0.64236351939E+03  0.13849894889E+04  0.12270146671E+04 0.  0.
        4    1    3    3  502    0  0.47738527395E+03 -0.28912235023E+03  0.33625322369E+02  0.55912494882E+03  0.12699999809E+01 0. -1.
       -4    1    3    3    0  502 -0.47738527395E+03  0.28912235023E+03  0.60873819702E+03  0.82586454010E+03  0.12699999809E+01 0.  1.
</event>
<event>
 5   0  0.4263540E-03  0.1293790E+04  0.7818609E-02  0.9034504E-01
        2   -1    0    0  501    0  0.00000000000E+00  0.00000000000E+00  0.12793024531E+03  0.12793024534E+03  0.25500000920E-02 0.  1.
       -2   -1    0    0    0  501  0.00000000000E+00  0.00000000000E+00 -0.32711047114E+04  0.32711047114E+04  0.25500000920E-02 0. -1.
    10030    2    1    2    0    0  0.00000000000E+00  0.00000000000E+00 -0.31431744661E+04  0.33990349568E+04  0.12937901348E+04 0.  0.
        2    1    3    3  502    0  0.82122990339E+02 -0.49064468158E+03 -0.26579774272E+04  0.27041302470E+04  0.25500000920E-02 0. -1.
       -2    1    3    3    0  502 -0.82122990339E+02  0.49064468158E+03 -0.48519703892E+03  0.69490470979E+03  0.25500000920E-02 0.  1.
</event>
<event>
 5   0  0.4388937E-03  0.1324426E+04  0.7818609E-02  0.9010417E-01
        2   -1    0    0  501    0  0.00000000000E+00  0.00000000000E+00  0.11899867115E+04  0.11899867115E+04  0.25500000920E-02 0.  1.
       -2   -1    0    0    0  501  0.00000000000E+00  0.00000000000E+00 -0.36851313312E+03  0.36851313313E+03  0.25500000920E-02 0. -1.
    10030    2    1    2    0    0  0.00000000000E+00  0.00000000000E+00  0.82147357834E+03  0.15584998446E+04  0.13244255078E+04 0.  0.
        5    1    3    3  502    0 -0.41452431650E+03 -0.23627823790E+03  0.95107008699E+03  0.10640555507E+04  0.46999998093E+01 0.  1.
       -5    1    3    3    0  502  0.41452431650E+03  0.23627823790E+03 -0.12959650866E+03  0.49444429386E+03  0.46999998093E+01 0. -1.
</event>
<event>
 5   0  0.4306214E-03  0.1338849E+04  0.7818609E-02  0.8999313E-01
        2   -1    0    0  501    0  0.00000000000E+00  0.00000000000E+00  0.49425142563E+03  0.49425142563E+03  0.25500000920E-02 0. -1.
       -2   -1    0    0    0  501  0.00000000000E+00  0.00000000000E+00 -0.90668218493E+03  0.90668218493E+03  0.25500000920E-02 0.  1.
    10030    2    1    2    0    0  0.00000000000E+00  0.00000000000E+00 -0.41243075930E+03  0.14009336106E+04  0.13388487032E+04 0.  0.
        3    1    3    3  502    0  0.27705025413E+03  0.42438875260E+03 -0.66383567380E+03  0.83518888202E+03  0.10100000352E+00 0.  1.
       -3    1    3    3    0  502 -0.27705025413E+03 -0.42438875260E+03  0.25140491449E+03  0.56574472855E+03  0.10100000352E+00 0. -1.
</event>
<event>
 5   0  0.4453011E-03  0.1290394E+04  0.7818609E-02  0.9037218E-01
       -2   -1    0    0    0  501  0.00000000000E+00  0.00000000000E+00  0.36624181276E+03  0.36624181277E+03  0.25500000920E-02 0.  1.
        2   -1    0    0  501    0  0.00000000000E+00  0.00000000000E+00 -0.11366231363E+04  0.11366231363E+04  0.25500000920E-02 0. -1.
    10030    2    1    2    0    0  0.00000000000E+00  0.00000000000E+00 -0.77038132353E+03  0.15028649491E+04  0.12903936111E+04 0.  0.
        1    1    3    3  502    0  0.41314469800E+03 -0.41743842102E+03 -0.69625536287E+03  0.91088687946E+03  0.50400001928E-02 0. -1.
       -1    1    3    3    0  502 -0.41314469800E+03  0.41743842102E+03 -0.74125960664E+02  0.59197806961E+03  0.50400001928E-02 0.  1.
</event>
<event>
 5   0  0.2370801E-03  0.1230719E+04  0.7818609E-02  0.9086385E-01
        1   -1    0    0  501    0  0.00000000000E+00  0.00000000000E+00  0.18412219685E+03  0.18412219692E+03  0.50400001928E-02 0. -1.
       -1   -1    0    0    0  501  0.00000000000E+00  0.00000000000E+00 -0.20566077318E+04  0.20566077318E+04  0.50400001928E-02 0.  1.
    10030    2    1    2    0    0  0.00000000000E+00  0.00000000000E+00 -0.18724855349E+04  0.22407299287E+04  0.12307187067E+04 0.  0.
        3    1    3    3  502    0 -0.46351070092E+03 -0.21942742188E+03 -0.15554747742E+04  0.16378315990E+04  0.10100000352E+00 0.  1.
       -3    1    3    3    0  502  0.46351070092E+03  0.21942742188E+03 -0.31701076075E+03  0.60289832972E+03  0.10100000352E+00 0. -1.
</event>
<event>
 5   0  0.2370801E-03  0.1292697E+04  0.7818609E-02  0.9035376E-01
        1   -1    0    0  501    0  0.00000000000E+00  0.00000000000E+00  0.80188962789E+03  0.80188962791E+03  0.50400001928E-02 0. -1.
       -1   -1    0    0    0  501  0.00000000000E+00  0.00000000000E+00 -0.52097770256E+03  0.52097770258E+03  0.50400001928E-02 0.  1.
    10030    2    1    2    0    0  0.00000000000E+00  0.00000000000E+00  0.28091192533E+03  0.13228673305E+04  0.12926973599E+04 0.  0.
        3    1    3    3  502    0 -0.49983144387E+03  0.40377754080E+03  0.68830792951E+02  0.64622400373E+03  0.10100000352E+00 0.  1.
       -3    1    3    3    0  502  0.49983144387E+03 -0.40377754080E+03  0.21208113238E+03  0.67664332676E+03  0.10100000352E+00 0. -1.
</event>
<event>
 5   0  0.4388937E-03  0.8163501E+03  0.7818609E-02  0.9536648E-01
       -2   -1    0    0    0  501  0.00000000000E+00  0.00000000000E+00  0.65739686992E+02  0.65739687041E+02  0.25500000920E-02 0.  1.
        2   -1    0    0  501    0  0.00000000000E+00  0.00000000000E+00 -0.25343425069E+04  0.25343425069E+04  0.25500000920E-02 0. -1.
    10030    2    1    2    0    0  0.00000000000E+00  0.00000000000E+00 -0.24686028199E+04  0.26000821940E+04  0.81635012881E+03 0.  0.
        5    1    3    3  502    0 -0.11487078833E+03  0.25758829915E+03 -0.29465497020E+03  0.40791012654E+03  0.46999998093E+01 0.  1.
       -5    1    3    3    0  502  0.11487078833E+03 -0.25758829915E+03 -0.21739478497E+04  0.21921720674E+04  0.46999998093E+01 0. -1.
</event>
<event>
 5   0  0.2511542E-03  0.1313589E+04  0.7818609E-02  0.9018858E-01
        1   -1    0    0  501    0  0.00000000000E+00  0.00000000000E+00  0.17420761684E+04  0.17420761684E+04  0.50400001928E-02 0.  1.
       -1   -1    0    0    0  501  0.00000000000E+00  0.00000000000E+00 -0.24762359919E+03  0.24762359924E+03  0.50400001928E-02 0. -1.
    10030    2    1    2    0    0  0.00000000000E+00  0.00000000000E+00  0.14944525692E+04  0.19896997676E+04  0.13135892371E+04 0.  0.
        4    1    3    3  502    0 -0.55828201650E+03  0.21870868786E+03  0.11532837151E+04  0.12998373901E+04  0.12699999809E+01 0.  1.
       -4    1    3    3    0  502  0.55828201650E+03 -0.21870868786E+03  0.34116885402E+03  0.68986237754E+03  0.12699999809E+01 0. -1.
</event>
<event>
 5   0  0.4453011E-03  0.1324051E+04  0.7818609E-02  0.9010707E-01
        2   -1    0    0  501    0  0.00000000000E+00  0.00000000000E+00  0.13283509499E+04  0.13283509499E+04  0.25500000920E-02 0.  1.
       -2   -1    0    0    0  501  0.00000000000E+00  0.00000000000E+00 -0.32994146002E+03  0.32994146003E+03  0.25500000920E-02 0. -1.
    10030    2    1    2    0    0  0.00000000000E+00  0.00000000000E+00  0.99840948983E+03  0.16582924099E+04  0.13240514368E+04 0.  0.
        1    1    3    3  502    0 -0.11588649203E+03  0.37812285583E+03  0.11641437709E+04  0.12294865971E+04  0.50400001928E-02 0.  1.
       -1    1    3    3    0  502  0.11588649203E+03 -0.37812285583E+03 -0.16573428105E+03  0.42880581279E+03  0.50400001928E-02 0. -1.
</event>
<event>
 5   0  0.4306214E-03  0.1212758E+04  0.7818609E-02  0.9101762E-01
       -2   -1    0    0    0  501  0.00000000000E+00  0.00000000000E+00  0.11493922342E+04  0.11493922342E+04  0.25500000920E-02 0.  1.
        2   -1    0    0  501    0  0.00000000000E+00  0.00000000000E+00 -0.31990434859E+03  0.31990434861E+03  0.25500000920E-02 0. -1.
    10030    2    1    2    0    0  0.00000000000E+00  0.00000000000E+00  0.82948788564E+03  0.14692965828E+04  0.12127581358E+04 0.  0.
        3    1    3    3  502    0 -0.40019010995E+03 -0.18386281587E+03  0.91973369087E+03  0.10197390507E+04  0.10100000352E+00 0.  1.
       -3    1    3    3    0  502  0.40019010995E+03  0.18386281587E+03 -0.90245805229E+02  0.44955753216E+03  0.10100000352E+00 0. -1.
</event>
<event>
 5   0  0.2356769E-03  0.1347604E+04  0.7818609E-02  0.8992644E-01
       -1   -1    0    0    0  501  0.00000000000E+00  0.00000000000E+00  0.12210087198E+04  0.12210087198E+04  0.50400001928E-02 0.  1.
        1   -1    0    0  501    0  0.00000000000E+00  0.00000000000E+00 -0.37183139618E+03  0.37183139622E+03  0.50400001928E-02 0. -1.
    10030    2    1    2    0    0  0.00000000000E+00  0.00000000000E+00  0.84917732357E+03  0.15928401160E+04  0.13476043589E+04 0.  0.
        1    1    3    3  502    0  0.10390657344E+03 -0.27875409734E+03 -0.29000438862E+03  0.41545513383E+03  0.50400001928E-02 0. -1.
       -1    1    3    3    0  502 -0.10390657344E+03  0.27875409734E+03  0.11391817122E+04  0.11773849821E+04  0.50400001928E-02 0.  1.
</event>
<event>
 5   0  0.4306214E-03  0.1268132E+04  0.7818609E-02  0.9055226E-01
       -2   -1    0    0    0  501  0.00000000000E+00  0.00000000000E+00  0.47528428117E+03  0.47528428118E+03  0.25500000920E-02 0. -1.
        2   -1    0    0  501    0  0.00000000000E+00  0.00000000000E+00 -0.84589313160E+03  0.84589313160E+03  0.25500000920E-02 0.  1.
    10030    2    1    2    0    0  0.00000000000E+00  0.00000000000E+00 -0.37060885043E+03  0.13211774128E+04  0.12681320263E+04 0.  0.
        3    1    3    3  502    0 -0.38360679697E+03 -0.29157138009E+03 -0.61469956838E+03  0.78104008472E+03  0.10100000352E+00 0.  1.
       -3    1    3    3    0  502  0.38360679697E+03  0.29157138009E+03  0.24409071795E+03  0.54013732806E+03  0.10100000352E+00 0. -1.
</event>
<event>
 5   0  0.4453011E-03  0.1328665E+04  0.7818609E-02  0.9007137E-01
        2   -1    0    0  501    0  0.00000000000E+00  0.00000000000E+00  0.11460804765E+04  0.11460804765E+04  0.25500000920E-02 0.  1.
       -2   -1    0    0    0  501  0.00000000000E+00  0.00000000000E+00 -0.38508459995E+03  0.38508459996E+03  0.25500000920E-02 0. -1.
    10030    2    1    2    0    0  0.00000000000E+00  0.00000000000E+00  0.76099587659E+03  0.15311650765E+04  0.13286654083E+04 0.  0.
        1    1    3    3  502    0  0.34402851223E+03  0.52965617657E+03  0.14307201047E+03  0.64758079249E+03  0.50400001928E-02 0.  1.
       -1    1    3    3    0  502 -0.34402851223E+03 -0.52965617657E+03  0.61792386612E+03  0.88358428401E+03  0.50400001928E-02 0. -1.
</event>
<event>
 5   0  0.2462055E-03  0.1275086E+04  0.7818609E-02  0.9049559E-01
        1   -1    0    0  501    0  0.00000000000E+00  0.00000000000E+00  0.73545975800E+03  0.73545975802E+03  0.50400001928E-02 0. -1.
       -1   -1    0    0    0  501  0.00000000000E+00  0.00000000000E+00 -0.55266226860E+03  0.55266226862E+03  0.50400001928E-02 0.  1.
    10030    2    1    2    0    0  0.00000000000E+00  0.00000000000E+00  0.18279748940E+03  0.12881220266E+04  0.12750856573E+04 0.  0.
        2    1    3    3  502    0  0.55533440655E+02  0.26560130029E+03  0.67421376301E+03  0.72676833447E+03  0.25500000920E-02 0. -1.
       -2    1    3    3    0  502 -0.55533440655E+02 -0.26560130029E+03 -0.49141627361E+03  0.56135369217E+03  0.25500000920E-02 0.  1.
</event>
<event>
 5   0  0.4310889E-03  0.1325050E+04  0.7818609E-02  0.9009933E-01
        2   -1    0    0  501    0  0.00000000000E+00  0.00000000000E+00  0.96324766804E+03  0.96324766804E+03  0.25500000920E-02 0. -1.
       -2   -1    0    0    0  501  0.00000000000E+00  0.00000000000E+00 -0.45568692225E+03  0.45568692226E+03  0.25500000920E-02 0.  1.
    10030    2    1    2    0    0  0.00000000000E+00  0.00000000000E+00  0.50756074579E+03  0.14189345903E+04  0.13250499843E+04 0.  0.
        4    1    3    3  502    0 -0.28813574715E+03 -0.39657471677E+03 -0.22349374274E+03  0.53874370596E+03  0.12699999809E+01 0.  1.
       -4    1    3    3    0  502  0.28813574715E+03  0.39657471677E+03  0.73105448852E+03  0.88019088433E+03  0.12699999809E+01 0. -1.
</event>
<event>
 5   0  0.4263540E-03  0.1338026E+04  0.7818609E-02  0.8999942E-01
        2   -1    0    0  501    0  0.00000000000E+00  0.00000000000E+00  0.80163358687E+03  0.80163358687E+03  0.25500000920E-02 0. -1.
       -2   -1    0    0    0  501  0.00000000000E+00  0.00000000000E+00 -0.55833316271E+03  0.55833316271E+03  0.25500000920E-02 0.  1.
    10030    2    1    2    0    0  0.00000000000E+00  0.00000000000E+00  0.24330042416E+03  0.13599667496E+04  0.13380263314E+04 0.  0.
        2    1    3    3  502    0  0.37083893184E+03 -0.64623879422E+02 -0.44048369111E+03  0.57941663879E+03  0.25500000920E-02 0. -1.
       -2    1    3    3    0  502 -0.37083893184E+03  0.64623879422E+02  0.68378411527E+03  0.78055011080E+03  0.25500000920E-02 0.  1.
</event>
<event>
 5   0  0.2370801E-03  0.9363165E+03  0.7818609E-02  0.9381289E-01
        1   -1    0    0  501    0  0.00000000000E+00  0.00000000000E+00  0.85516667484E+03  0.85516667485E+03  0.50400001928E-02 0.  1.
       -1   -1    0    0    0  501  0.00000000000E+00  0.00000000000E+00 -0.25629174459E+03  0.25629174464E+03  0.50400001928E-02 0. -1.
    10030    2    1    2    0    0  0.00000000000E+00  0.00000000000E+00  0.59887493025E+03  0.11114584195E+04  0.93631652564E+03 0.  0.
        3    1    3    3  502    0 -0.11137640289E+03 -0.17843879418E+03 -0.19703939107E+03  0.28821803937E+03  0.10100000352E+00 0. -1.
       -3    1    3    3    0  502  0.11137640289E+03  0.17843879418E+03  0.79591432131E+03  0.82324038012E+03  0.10100000352E+00 0.  1.
</event>
<event>
 5   0  0.2511542E-03  0.8850589E+03  0.7818609E-02  0.9444454E-01
       -1   -1    0    0    0  501  0.00000000000E+00  0.00000000000E+00  0.44226327795E+03  0.44226327798E+03  0.50400001928E-02 0. -1.
        1   -1    0    0  501    0  0.00000000000E+00  0.00000000000E+00 -0.44279581665E+03  0.44279581668E+03  0.50400001928E-02 0.  1.
    10030    2    1    2    0    0  0.00000000000E+00  0.00000000000E+00 -0.53253870071E+00  0.88505909466E+03  0.88505893445E+03 0.  0.
        4    1    3    3  502    0  0.14332521797E+03  0.23716268508E+03 -0.34529163402E+03  0.44273714857E+03  0.12699999809E+01 0.  1.
       -4    1    3    3    0  502 -0.14332521797E+03 -0.23716268508E+03  0.34475909532E+03  0.44232194610E+03  0.12699999809E+01 0. -1.
</event>
<event>
 5   0  0.2458456E-03  0.1377493E+04  0.7818609E-02  0.8970274E-01
        1   -1    0    0  501    0  0.00000000000E+00  0.00000000000E+00  0.12693610405E+04  0.12693610405E+04  0.50400001928E-02 0. -1.
       -1   -1    0    0    0  501  0.00000000000E+00  0.00000000000E+00 -0.37370888138E+03  0.37370888142E+03  0.50400001928E-02 0.  1.
    10030    2    1    2    0    0  0.00000000000E+00  0.00000000000E+00  0.89565215908E+03  0.16430699219E+04  0.13774926418E+04 0.  0.
        5    1    3    3  502    0  0.25938106982E+03 -0.63389400848E+03  0.36140584620E+03  0.77442651623E+03  0.46999998093E+01 0.  1.
       -5    1    3    3    0  502 -0.25938106982E+03  0.63389400848E+03  0.53424631288E+03  0.86864340566E+03  0.46999998093E+01 0. -1.
</event>
<event>
 5   0  0.2511542E-03  0.1275016E+04  0.7818609E-02  0.9049616E-01
       -1   -1    0    0    0  501  0.00000000000E+00  0.00000000000E+00  0.27712508951E+03  0.27712508956E+03  0.50400001928E-02 0. -1.
        1   -1    0    0  501    0  0.00000000000E+00  0.00000000000E+00 -0.14665440561E+04  0.14665440561E+04  0.50400001928E-02 0.  1.
    10030    2    1    2    0    0  0.00000000000E+00  0.00000000000E+00 -0.11894189666E+04  0.17436691457E+04  0.12750155338E+04 0.  0.
        4    1    3    3  502    0 -0.34589506217E+03  0.47008479855E+03 -0.94548822316E+03  0.11111132728E+04  0.12699999809E+01 0.  1.
       -4    1    3    3    0  502  0.34589506217E+03 -0.47008479855E+03 -0.24393074343E+03  0.63255587291E+03  0.12699999809E+01 0. -1.
</event>
<event>
 5   0  0.2356769E-03  0.1293970E+04  0.7818609E-02  0.9034361E-01
        1   -1    0    0  501    0  0.00000000000E+00  0.00000000000E+00  0.94101984801E+03  0.94101984802E+03  0.50400001928E-02 0. -1.
       -1   -1    0    0    0  501  0.00000000000E+00  0.00000000000E+00 -0.44482547496E+03  0.44482547499E+03  0.50400001928E-02 0.  1.
    10030    2    1    2    0    0  0.00000000000E+00  0.00000000000E+00  0.49619437304E+03  0.13858453230E+04  0.12939700165E+04 0.  0.
        1    1    3    3  502    0 -0.26059129061E+03 -0.56538087515E+03  0.43674647173E+03  0.76046751102E+03  0.50400001928E-02 0.  1.
       -1    1    3    3    0  502  0.26059129061E+03  0.56538087515E+03  0.59447901317E+02  0.62537781199E+03  0.50400001928E-02 0. -1.
</event>
<event>
 5   0  0.4388937E-03  0.1322342E+04  0.7818609E-02  0.9012033E-01
       -2   -1    0    0    0  501  0.00000000000E+00  0.00000000000E+00  0.36969986146E+03  0.36969986147E+03  0.25500000920E-02 0. -1.
        2   -1    0    0  501    0  0.00000000000E+00  0.00000000000E+00 -0.11824378067E+04  0.11824378067E+04  0.25500000920E-02 0.  1.
    10030    2    1    2    0    0  0.00000000000E+00  0.00000000000E+00 -0.81273794526E+03  0.15521376682E+04  0.13223420032E+04 0.  0.
        5    1    3    3  502    0 -0.59554247690E+03 -0.24272205054E+03 -0.58645964603E+03  0.87036879657E+03  0.46999998093E+01 0.  1.
       -5    1    3    3    0  502  0.59554247690E+03  0.24272205054E+03 -0.22627829923E+03  0.68176887162E+03  0.46999998093E+01 0. -1.
</event>
<event>
 5   0  0.2511542E-03  0.1310514E+04  0.7818609E-02  0.9021269E-01
        1   -1    0    0  501    0  0.00000000000E+00  0.00000000000E+00  0.64514519431E+03  0.64514519433E+03  0.50400001928E-02 0. -1.
       -1   -1    0    0    0  501  0.00000000000E+00  0.00000000000E+00 -0.66552726067E+03  0.66552726069E+03  0.50400001928E-02 0.  1.
    10030    2    1    2    0    0  0.00000000000E+00  0.00000000000E+00 -0.20382066362E+02  0.13106724550E+04  0.13105139662E+04 0.  0.
        4    1    3    3  502    0 -0.23419867166E+03 -0.17743175077E+03  0.57556662270E+03  0.64622720003E+03  0.12699999809E+01 0. -1.
       -4    1    3    3    0  502  0.23419867166E+03  0.17743175077E+03 -0.59594868906E+03  0.66444525499E+03  0.12699999809E+01 0.  1.
</event>
<event>
 5   0  0.1661750E-03  0.1314961E+04  0.7818609E-02  0.9017785E-01
        4   -1    0    0  501    0  0.00000000000E+00  0.00000000000E+00  0.52881202988E+03  0.52881355490E+03  0.12699999809E+01 0.  1.
       -4   -1    0    0    0  501  0.00000000000E+00  0.00000000000E+00 -0.81745267756E+03  0.81745366410E+03  0.12699999809E+01 0. -1.
    10030    2    1    2    0    0  0.00000000000E+00  0.00000000000E+00 -0.28864064768E+03  0.13462672190E+04  0.13149608365E+04 0.  0.
        2    1    3    3  502    0  0.48748526995E+02  0.23292957241E+03 -0.77181339240E+03  0.80766856896E+03  0.25500000920E-02 0. -1.
       -2    1    3    3    0  502 -0.48748526995E+02 -0.23292957241E+03  0.48317274472E+03  0.53859865005E+03  0.25500000920E-02 0.  1.
</event>
<event>
 5   0  0.4306214E-03  0.1285426E+04  0.7818609E-02  0.9041203E-01
        2   -1    0    0  501    0  0.00000000000E+00  0.00000000000E+00  0.89067985241E+03  0.89067985241E+03  0.25500000920E-02 0.  1.
       -2   -1    0    0    0  501  0.00000000000E+00  0.00000000000E+00 -0.46378027171E+03  0.46378027172E+03  0.25500000920E-02 0. -1.
    10030    2    1    2    0    0  0.00000000000E+00  0.00000000000E+00  0.42689958070E+03  0.13544601241E+04  0.12854256011E+04 0.  0.
        3    1    3    3  502    0  0.23897415370E+03 -0.22710118117E+03  0.79480136049E+03  0.86046080996E+03  0.10100000352E+00 0.  1.
       -3    1    3    3    0  502 -0.23897415370E+03  0.22710118117E+03 -0.36790177980E+03  0.49399931417E+03  0.10100000352E+00 0. -1.
</event>
<event>
 5   0  0.4306214E-03  0.1310608E+04  0.7818609E-02  0.9021195E-01
        2   -1    0    0  501    0  0.00000000000E+00  0.00000000000E+00  0.12773782536E+04  0.12773782536E+04  0.25500000920E-02 0.  1.
       -2   -1    0    0    0  501  0.00000000000E+00  0.00000000000E+00 -0.33617540817E+03  0.33617540818E+03  0.25500000920E-02 0. -1.
    10030    2    1    2    0    0  0.00000000000E+00  0.00000000000E+00  0.94120284545E+03  0.16135536618E+04  0.13106077305E+04 0.  0.
        3    1    3    3  502    0  0.57154885734E+03  0.16288454863E+03  0.81050491326E+03  0.10050461169E+04  0.10100000352E+00 0.  1.
       -3    1    3    3    0  502 -0.57154885734E+03 -0.16288454863E+03  0.13069793219E+03  0.60850754489E+03  0.10100000352E+00 0. -1.
</event>
<event>
 5   0  0.2458456E-03  0.1126076E+04  0.7818609E-02  0.9180143E-01
        1   -1    0    0  501    0  0.00000000000E+00  0.00000000000E+00  0.51919337713E+03  0.51919337716E+03  0.50400001928E-02 0.  1.
       -1   -1    0    0    0  501  0.00000000000E+00  0.00000000000E+00 -0.61058466470E+03  0.61058466472E+03  0.50400001928E-02 0. -1.
    10030    2    1    2    0    0  0.00000000000E+00  0.00000000000E+00 -0.91391287570E+02  0.11297780419E+04  0.11260755110E+04 0.  0.
        5    1    3    3  502    0 -0.93427583280E+02 -0.38989694782E+02 -0.60135826924E+03  0.60983831267E+03  0.46999998093E+01 0. -1.
       -5    1    3    3    0  502  0.93427583280E+02  0.38989694782E+02  0.50996698167E+03  0.51993972921E+03  0.46999998093E+01 0.  1.
</event>
<event>
 5   0  0.4388937E-03  0.1342286E+04  0.7818609E-02  0.8996688E-01
        2   -1    0    0  501    0  0.00000000000E+00  0.00000000000E+00  0.21371157343E+04  0.21371157343E+04  0.25500000920E-02 0.  1.
       -2   -1    0    0    0  501  0.00000000000E+00  0.00000000000E+00 -0.21076660840E+03  0.21076660842E+03  0.25500000920E-02 0. -1.
    10030    2    1    2    0    0  0.00000000000E+00  0.00000000000E+00  0.19263491259E+04  0.23478823428E+04  0.13422855659E+04 0.  0.
        5    1    3    3  502    0  0.50275158601E+02 -0.30184288808E+03  0.20079619032E+04  0.20311498751E+04  0.46999998093E+01 0.  1.
       -5    1    3    3    0  502 -0.50275158601E+02  0.30184288808E+03 -0.81612777212E+02  0.31673246765E+03  0.46999998093E+01 0. -1.
</event>
<event>
 5   0  0.4306214E-03  0.1477723E+04  0.7818609E-02  0.8899404E-01
       -2   -1    0    0    0  501  0.00000000000E+00  0.00000000000E+00  0.76920954787E+03  0.76920954787E+03  0.25500000920E-02 0.  1.
        2   -1    0    0  501    0  0.00000000000E+00  0.00000000000E+00 -0.70971039399E+03  0.70971039399E+03  0.25500000920E-02 0. -1.
    10030    2    1    2    0    0  0.00000000000E+00  0.00000000000E+00  0.59499153883E+02  0.14789199419E+04  0.14777225873E+04 0.  0.
        3    1    3    3  502    0 -0.38690374865E+03  0.55379192116E+01  0.65969649941E+03  0.76480367468E+03  0.10100000352E+00 0.  1.
       -3    1    3    3    0  502  0.38690374865E+03 -0.55379192116E+01 -0.60019734553E+03  0.71411626718E+03  0.10100000352E+00 0. -1.
</event>
<event>
 5   0  0.2370801E-03  0.1313285E+04  0.7818609E-02  0.9019096E-01
        1   -1    0    0  501    0  0.00000000000E+00  0.00000000000E+00  0.14480321947E+04  0.14480321948E+04  0.50400001928E-02 0.  1.
       -1   -1    0    0    0  501  0.00000000000E+00  0.00000000000E+00 -0.29776925480E+03  0.29776925484E+03  0.50400001928E-02 0. -1.
    10030    2    1    2    0    0  0.00000000000E+00  0.00000000000E+00  0.11502629399E+04  0.17458014496E+04  0.13132851444E+04 0.  0.
        3    1    3    3  502    0  0.33211985977E+03 -0.30245835489E+03 -0.61557904826E+02  0.45340273879E+03  0.10100000352E+00 0. -1.
       -3    1    3    3    0  502 -0.33211985977E+03  0.30245835489E+03  0.12118208448E+04  0.12923987108E+04  0.10100000352E+00 0.  1.
</event>
<event>
 5   0  0.2370801E-03  0.1486186E+04  0.7818609E-02  0.8893691E-01
       -1   -1    0    0    0  501  0.00000000000E+00  0.00000000000E+00  0.11782798458E+04  0.11782798458E+04  0.50400001928E-02 0. -1.
        1   -1    0    0  501    0  0.00000000000E+00  0.00000000000E+00 -0.46863849307E+03  0.46863849309E+03  0.50400001928E-02 0.  1.
    10030    2    1    2    0    0  0.00000000000E+00  0.00000000000E+00  0.70964135270E+03  0.16469183389E+04  0.14861861140E+04 0.  0.
        3    1    3    3  502    0 -0.10924175878E+03 -0.12257141036E+03  0.11579279009E+04  0.11695103875E+04  0.10100000352E+00 0. -1.
       -3    1    3    3    0  502  0.10924175878E+03  0.12257141036E+03 -0.44828654824E+03  0.47740795137E+03  0.10100000352E+00 0.  1.
</event>
<event>
 5   0  0.2511542E-03  0.1329548E+04  0.7818609E-02  0.9006456E-01
        1   -1    0    0  501    0  0.00000000000E+00  0.00000000000E+00  0.58793958454E+03  0.58793958456E+03  0.50400001928E-02 0.  1.
       -1   -1    0    0    0  501  0.00000000000E+00  0.00000000000E+00 -0.75164975630E+03  0.75164975632E+03  0.50400001928E-02 0. -1.
    10030    2    1    2    0    0  0.00000000000E+00  0.00000000000E+00 -0.16371017176E+03  0.13395893409E+04  0.13295482623E+04 0.  0.
        4    1    3    3  502    0  0.34368977997E+03  0.56684838636E+03 -0.13206389828E+03  0.67593065037E+03  0.12699999809E+01 0.  1.
       -4    1    3    3    0  502 -0.34368977997E+03 -0.56684838636E+03 -0.31646273480E+02  0.66365869052E+03  0.12699999809E+01 0. -1.
</event>
<event>
 5   0  0.4453011E-03  0.1303743E+04  0.7818609E-02  0.9026602E-01
        2   -1    0    0  501    0  0.00000000000E+00  0.00000000000E+00  0.74815635087E+03  0.74815635087E+03  0.25500000920E-02 0. -1.
       -2   -1    0    0    0  501  0.00000000000E+00  0.00000000000E+00 -0.56797810024E+03  0.56797810025E+03  0.25500000920E-02 0.  1.
    10030    2    1    2    0    0  0.00000000000E+00  0.00000000000E+00  0.18017825062E+03  0.13161344511E+04  0.13037429545E+04 0.  0.
        1    1    3    3  502    0 -0.34419967042E+03  0.11629499730E+03  0.63647126835E+03  0.73286671023E+03  0.50400001928E-02 0. -1.
       -1    1    3    3    0  502  0.34419967042E+03 -0.11629499730E+03 -0.45629301772E+03  0.58326774089E+03  0.50400001928E-02 0.  1.
</event>
<event>
 5   0  0.4388937E-03  0.1310343E+04  0.7818609E-02  0.9021403E-01
        2   -1    0    0  501    0  0.00000000000E+00  0.00000000000E+00  0.13318827759E+04  0.13318827759E+04  0.25500000920E-02 0.  1.
       -2   -1    0    0    0  501  0.00000000000E+00  0.00000000000E+00 -0.32228779587E+03  0.32228779588E+03  0.25500000920E-02 0. -1.
    10030    2    1    2    0    0  0.00000000000E+00  0.00000000000E+00  0.10095949801E+04  0.16541705718E+04  0.13103428013E+04 0.  0.
        5    1    3    3  502    0 -0.48180544690E+03 -0.21152823767E+02 -0.55005493934E+02  0.48541902000E+03  0.46999998093E+01 0. -1.
       -5    1    3    3    0  502  0.48180544690E+03  0.21152823767E+02  0.10646004740E+04  0.11687515518E+04  0.46999998093E+01 0.  1.
</event>
<event>
 5   0  0.4263540E-03  0.8152454E+03  0.7818609E-02  0.9538208E-01
       -2   -1    0    0    0  501  0.00000000000E+00  0.00000000000E+00  0.11067826914E+03  0.11067826917E+03  0.25500000920E-02 0.  1.
        2   -1    0    0  501    0  0.00000000000E+00  0.00000000000E+00 -0.15012545464E+04  0.15012545464E+04  0.25500000920E-02 0. -1.
    10030    2    1    2    0    0  0.00000000000E+00  0.00000000000E+00 -0.13905762772E+04  0.16119328156E+04  0.81524537350E+03 0.  0.
        2    1    3    3  502    0  0.39009608003E+03  0.43998381986E+02 -0.91229328171E+03  0.99317160709E+03  0.25500000920E-02 0.  1.
       -2    1    3    3    0  502 -0.39009608003E+03 -0.43998381986E+02 -0.47828299553E+03  0.61876120846E+03  0.25500000920E-02 0. -1.
</event>
<event>
 5   0  0.4306214E-03  0.1322957E+04  0.7818609E-02  0.9011556E-01
       -2   -1    0    0    0  501  0.00000000000E+00  0.00000000000E+00  0.31517660935E+03  0.31517660936E+03  0.25500000920E-02 0. -1.
        2   -1    0    0  501    0  0.00000000000E+00  0.00000000000E+00 -0.13882814637E+04  0.13882814637E+04  0.25500000920E-02 0.  1.
    10030    2    1    2    0    0  0.00000000000E+00  0.00000000000E+00 -0.10731048543E+04  0.17034580731E+04  0.13229570584E+04 0.  0.
        3    1    3    3  502    0  0.10979849191E+03  0.12892423959E+03  0.28679259551E+03  0.33305730952E+03  0.10100000352E+00 0. -1.
       -3    1    3    3    0  502 -0.10979849191E+03 -0.12892423959E+03 -0.13598974499E+04  0.13704007635E+04  0.10100000352E+00 0.  1.
</event>
<event>
 5   0  0.2462055E-03  0.1345051E+04  0.7818609E-02  0.8994583E-01
        1   -1    0    0  501    0  0.00000000000E+00  0.00000000000E+00  0.78118560976E+03  0.78118560978E+03  0.50400001928E-02 0.  1.
       -1   -1    0    0    0  501  0.00000000000E+00  0.00000000000E+00 -0.57897935675E+03  0.57897935678E+03  0.50400001928E-02 0. -1.
    10030    2    1    2    0    0  0.00000000000E+00  0.00000000000E+00  0.20220625301E+03  0.13601649666E+04  0.13450506933E+04 0.  0.
        2    1    3    3  502    0 -0.34334198486E+03  0.21970341676E+03  0.64203175377E+03  0.76049857512E+03  0.25500000920E-02 0.  1.
       -2    1    3    3    0  502  0.34334198486E+03 -0.21970341676E+03 -0.43982550076E+03  0.59966639144E+03  0.25500000920E-02 0. -1.
</event>
<event>
 5   0  0.2356769E-03  0.1299925E+04  0.7818609E-02  0.9029625E-01
        1   -1    0    0  501    0  0.00000000000E+00  0.00000000000E+00  0.18006482695E+04  0.18006482695E+04  0.50400001928E-02 0. -1.
       -1   -1    0    0    0  501  0.00000000000E+00  0.00000000000E+00 -0.23461048882E+03  0.23461048888E+03  0.50400001928E-02 0.  1.
    10030    2    1    2    0    0  0.00000000000E+00  0.00000000000E+00  0.15660377807E+04  0.20352587584E+04  0.12999245682E+04 0.  0.
        1    1    3    3  502    0  0.34646169171E+03 -0.54749164999E+03  0.86389261116E+03  0.10798579788E+04  0.50400001928E-02 0.  1.
       -1    1    3    3    0  502 -0.34646169171E+03  0.54749164999E+03  0.70214516956E+03  0.95540077967E+03  0.50400001928E-02 0. -1.
</event>
<event>
 5   0  0.4306214E-03  0.1295778E+04  0.7818609E-02  0.9032920E-01
       -2   -1    0    0    0  501  0.00000000000E+00  0.00000000000E+00  0.32753023276E+03  0.32753023277E+03  0.25500000920E-02 0.  1.
        2   -1    0    0  501    0  0.00000000000E+00  0.00000000000E+00 -0.12815921034E+04  0.12815921034E+04  0.25500000920E-02 0. -1.
    10030    2    1    2    0    0  0.00000000000E+00  0.00000000000E+00 -0.95406187063E+03  0.16091223362E+04  0.12957780056E+04 0.  0.
        3    1    3    3  502    0 -0.24806169304E+03  0.47633852283E+03 -0.92705499387E+03  0.10713841345E+04  0.10100000352E+00 0. -1.
       -3    1    3    3    0  502  0.24806169304E+03 -0.47633852283E+03 -0.27006876760E+02  0.53773820162E+03  0.10100000352E+00 0.  1.
</event>
<event>
 5   0  0.4388937E-03  0.1298121E+04  0.7818609E-02  0.9031056E-01
       -2   -1    0    0    0  501  0.00000000000E+00  0.00000000000E+00  0.32820456649E+03  0.32820456650E+03  0.25500000920E-02 0. -1.
        2   -1    0    0  501    0  0.00000000000E+00  0.00000000000E+00 -0.12835887216E+04  0.12835887216E+04  0.25500000920E-02 0.  1.
    10030    2    1    2    0    0  0.00000000000E+00  0.00000000000E+00 -0.95538415512E+03  0.16117932881E+04  0.12981212269E+04 0.  0.
        5    1    3    3  502    0  0.52442893786E+03  0.12179597581E+03 -0.27614020759E+02  0.53911463969E+03  0.46999998093E+01 0. -1.
       -5    1    3    3    0  502 -0.52442893786E+03 -0.12179597581E+03 -0.92777013436E+03  0.10726786484E+04  0.46999998093E+01 0.  1.
</event>
<event>
 5   0  0.2370801E-03  0.1277927E+04  0.7818609E-02  0.9047255E-01
       -1   -1    0    0    0  501  0.00000000000E+00  0.00000000000E+00  0.45768779158E+03  0.45768779160E+03  0.50400001928E-02 0.  1.
        1   -1    0    0  501    0  0.00000000000E+00  0.00000000000E+00 -0.89203644187E+03  0.89203644188E+03  0.50400001928E-02 0. -1.
    10030    2    1    2    0    0  0.00000000000E+00  0.00000000000E+00 -0.43434865029E+03  0.13497242335E+04  0.12779267414E+04 0.  0.
        3    1    3    3  502    0 -0.33147840117E+03  0.43123029921E+03  0.13698043969E+03  0.56089317384E+03  0.10100000352E+00 0.  1.
       -3    1    3    3    0  502  0.33147840117E+03 -0.43123029921E+03 -0.57132908999E+03  0.78883105965E+03  0.10100000352E+00 0. -1.
</event>
<event>
 5   0  0.2462055E-03  0.1306355E+04  0.7818609E-02  0.9024541E-01
        1   -1    0    0  501    0  0.00000000000E+00  0.00000000000E+00  0.74801806115E+03  0.74801806116E+03  0.50400001928E-02 0. -1.
       -1   -1    0    0    0  501  0.00000000000E+00  0.00000000000E+00 -0.57036161328E+03  0.57036161330E+03  0.50400001928E-02 0.  1.
    10030    2    1    2    0    0  0.00000000000E+00  0.00000000000E+00  0.17765644787E+03  0.13183796745E+04  0.13063549106E+04 0.  0.
        2    1    3    3  502    0  0.59734100733E+02  0.28074635719E+03  0.68096070214E+03  0.73898183857E+03  0.25500000920E-02 0. -1.
       -2    1    3    3    0  502 -0.59734100733E+02 -0.28074635719E+03 -0.50330425427E+03  0.57939783590E+03  0.25500000920E-02 0.  1.
</event>
<event>
 5   0  0.2462055E-03  0.1309993E+04  0.7818609E-02  0.9021678E-01
        1   -1    0    0  501    0  0.00000000000E+00  0.00000000000E+00  0.85569932417E+03  0.85569932418E+03  0.50400001928E-02 0.  1.
       -1   -1    0    0    0  501  0.00000000000E+00  0.00000000000E+00 -0.50136846863E+03  0.50136846865E+03  0.50400001928E-02 0. -1.
    10030    2    1    2    0    0  0.00000000000E+00  0.00000000000E+00  0.35433085554E+03  0.13570677928E+04  0.13099933737E+04 0.  0.
        2    1    3    3  502    0 -0.28930298350E+03  0.14051630777E+03 -0.41393468809E+03  0.52419745805E+03  0.25500000920E-02 0. -1.
       -2    1    3    3    0  502  0.28930298350E+03 -0.14051630777E+03  0.76826554363E+03  0.83287033478E+03  0.25500000920E-02 0.  1.
</event>
<event>
 5   0  0.4310889E-03  0.1785270E+04  0.7818609E-02  0.8714172E-01
        2   -1    0    0  501    0  0.00000000000E+00  0.00000000000E+00  0.21022415291E+04  0.21022415291E+04  0.25500000920E-02 0.  1.
       -2   -1    0    0    0  501  0.00000000000E+00  0.00000000000E+00 -0.37902283204E+03  0.37902283204E+03  0.25500000920E-02 0. -1.
    10030    2    1    2    0    0  0.00000000000E+00  0.00000000000E+00  0.17232186970E+04  0.24812643611E+04  0.17852703302E+04 0.  0.
        4    1    3    3  502    0  0.83723769802E+03 -0.23114462398E+03  0.11478015132E+04  0.14393904011E+04  0.12699999809E+01 0. -1.
       -4    1    3    3    0  502 -0.83723769802E+03  0.23114462398E+03  0.57541718381E+03  0.10418739600E+04  0.12699999809E+01 0.  1.
</event>
<event>
 5   0  0.2458456E-03  0.1422346E+04  0.7818609E-02  0.8937800E-01
        1   -1    0    0  501    0  0.00000000000E+00  0.00000000000E+00  0.65764334139E+03  0.65764334141E+03  0.50400001928E-02 0.  1.
       -1   -1    0    0    0  501  0.00000000000E+00  0.00000000000E+00 -0.76906019445E+03  0.76906019447E+03  0.50400001928E-02 0. -1.
    10030    2    1    2    0    0  0.00000000000E+00  0.00000000000E+00 -0.11141685306E+03  0.14267035359E+04  0.14223463939E+04 0.  0.
        5    1    3    3  502    0 -0.11008342083E+03 -0.45564977437E+03  0.48072901698E+03  0.67145927218E+03  0.46999998093E+01 0.  1.
       -5    1    3    3    0  502  0.11008342083E+03  0.45564977437E+03 -0.59214587005E+03  0.75524426369E+03  0.46999998093E+01 0. -1.
</event>
<event>
 5   0  0.4388937E-03  0.1309484E+04  0.7818609E-02  0.9022078E-01
       -2   -1    0    0    0  501  0.00000000000E+00  0.00000000000E+00  0.15950446692E+03  0.15950446694E+03  0.25500000920E-02 0. -1.
        2   -1    0    0  501    0  0.00000000000E+00  0.00000000000E+00 -0.26876181092E+04  0.26876181092E+04  0.25500000920E-02 0.  1.
    10030    2    1    2    0    0  0.00000000000E+00  0.00000000000E+00 -0.25281136423E+04  0.28471225762E+04  0.13094840111E+04 0.  0.
        5    1    3    3  502    0  0.47486685394E+03  0.32284239169E+03 -0.19479532011E+04  0.20308297571E+04  0.46999998093E+01 0.  1.
       -5    1    3    3    0  502 -0.47486685394E+03 -0.32284239169E+03 -0.58016044120E+03  0.81629281902E+03  0.46999998093E+01 0. -1.
</event>
<event>
 5   0  0.2462055E-03  0.1342991E+04  0.7818609E-02  0.8996151E-01
       -1   -1    0    0    0  501  0.00000000000E+00  0.00000000000E+00  0.43695881180E+03  0.43695881183E+03  0.50400001928E-02 0. -1.
        1   -1    0    0  501    0  0.00000000000E+00  0.00000000000E+00 -0.10319186744E+04  0.10319186744E+04  0.50400001928E-02 0.  1.
    10030    2    1    2    0    0  0.00000000000E+00  0.00000000000E+00 -0.59495986260E+03  0.14688774862E+04  0.13429906297E+04 0.  0.
        2    1    3    3  502    0 -0.37112912441E+03 -0.39409545171E+03 -0.73203594098E+03  0.91045300314E+03  0.25500000920E-02 0.  1.
       -2    1    3    3    0  502  0.37112912441E+03  0.39409545171E+03  0.13707607838E+03  0.55842448309E+03  0.25500000920E-02 0. -1.
</event>
<event>
 5   0  0.4453011E-03  0.1307884E+04  0.7818609E-02  0.9023336E-01
        2   -1    0    0  501    0  0.00000000000E+00  0.00000000000E+00  0.16414801872E+04  0.16414801872E+04  0.25500000920E-02 0. -1.
       -2   -1    0    0    0  501  0.00000000000E+00  0.00000000000E+00 -0.26052120628E+03  0.26052120629E+03  0.25500000920E-02 0.  1.
    10030    2    1    2    0    0  0.00000000000E+00  0.00000000000E+00  0.13809589809E+04  0.19020013934E+04  0.13078843962E+04 0.  0.
        1    1    3    3  502    0 -0.59876400499E+03  0.19031679099E+03  0.95426435598E+03  0.11425232058E+04  0.50400001928E-02 0.  1.
       -1    1    3    3    0  502  0.59876400499E+03 -0.19031679099E+03  0.42669462490E+03  0.75947818768E+03  0.50400001928E-02 0. -1.
</event>
<event>
 5   0  0.2458456E-03  0.1276674E+04  0.7818609E-02  0.9048271E-01
        1   -1    0    0  501    0  0.00000000000E+00  0.00000000000E+00  0.14099510005E+04  0.14099510005E+04  0.50400001928E-02 0. -1.
       -1   -1    0    0    0  501  0.00000000000E+00  0.00000000000E+00 -0.28899858944E+03  0.28899858948E+03  0.50400001928E-02 0.  1.
    10030    2    1    2    0    0  0.00000000000E+00  0.00000000000E+00  0.11209524111E+04  0.16989495900E+04  0.12766735689E+04 0.  0.
        5    1    3    3  502    0 -0.11531954744E+03 -0.20693977223E+02  0.13954965915E+04  0.14004141051E+04  0.46999998093E+01 0. -1.
       -5    1    3    3    0  502  0.11531954744E+03  0.20693977223E+02 -0.27454418048E+03  0.29853548491E+03  0.46999998093E+01 0.  1.
</event>
<event>
 5   0  0.1661750E-03  0.1221417E+04  0.7818609E-02  0.9094314E-01
       -4   -1    0    0    0  501  0.00000000000E+00  0.00000000000E+00  0.67309471016E+03  0.67309590828E+03  0.12699999809E+01 0.  1.
        4   -1    0    0  501    0  0.00000000000E+00  0.00000000000E+00 -0.55410195506E+03  0.55410341047E+03  0.12699999809E+01 0. -1.
    10030    2    1    2    0    0  0.00000000000E+00  0.00000000000E+00  0.11899275511E+03  0.12271993188E+04  0.12214167561E+04 0.  0.
        3    1    3    3  502    0 -0.53791247091E+03 -0.25792478461E+03  0.19084283062E+03  0.62633538705E+03  0.10100000352E+00 0.  1.
       -3    1    3    3    0  502  0.53791247091E+03  0.25792478461E+03 -0.71850075510E+02  0.60086393171E+03  0.10100000352E+00 0. -1.
</event>
<event>
 5   0  0.4263540E-03  0.1291145E+04  0.7818609E-02  0.9036617E-01
        2   -1    0    0  501    0  0.00000000000E+00  0.00000000000E+00  0.10453796141E+04  0.10453796141E+04  0.25500000920E-02 0.  1.
       -2   -1    0    0    0  501  0.00000000000E+00  0.00000000000E+00 -0.39867253273E+03  0.39867253274E+03  0.25500000920E-02 0. -1.
    10030    2    1    2    0    0  0.00000000000E+00  0.00000000000E+00  0.64670708134E+03  0.14440521468E+04  0.12911454425E+04 0.  0.
        2    1    3    3  502    0  0.99751939560E+02  0.54622638331E+03  0.69167187959E+03  0.88697446429E+03  0.25500000920E-02 0.  1.
       -2    1    3    3    0  502 -0.99751939560E+02 -0.54622638331E+03 -0.44964798254E+02  0.55707768252E+03  0.25500000920E-02 0. -1.
</event>
<event>
 5   0  0.4263540E-03  0.1124843E+04  0.7818609E-02  0.9181311E-01
       -2   -1    0    0    0  501  0.00000000000E+00  0.00000000000E+00  0.49881297516E+03  0.49881297516E+03  0.25500000920E-02 0.  1.
        2   -1    0    0  501    0  0.00000000000E+00  0.00000000000E+00 -0.63414105367E+03  0.63414105367E+03  0.25500000920E-02 0. -1.
    10030    2    1    2    0    0  0.00000000000E+00  0.00000000000E+00 -0.13532807851E+03  0.11329540288E+04  0.11248427191E+04 0.  0.
        2    1    3    3  502    0 -0.53359822355E+03 -0.37822467852E+02  0.10725515511E+03  0.54558342309E+03  0.25500000920E-02 0.  1.
       -2    1    3    3    0  502  0.53359822355E+03  0.37822467852E+02 -0.24258323362E+03  0.58737060574E+03  0.25500000920E-02 0. -1.
</event>
<event>
 5   0  0.4310889E-03  0.1223171E+04  0.7818609E-02  0.9092814E-01
       -2   -1    0    0    0  501  0.00000000000E+00  0.00000000000E+00  0.82982731199E+03  0.82982731199E+03  0.25500000920E-02 0.  1.
        2   -1    0    0  501    0  0.00000000000E+00  0.00000000000E+00 -0.45074023088E+03  0.45074023089E+03  0.25500000920E-02 0. -1.
    10030    2    1    2    0    0  0.00000000000E+00  0.00000000000E+00  0.37908708110E+03  0.12805675429E+04  0.12231705592E+04 0.  0.
        4    1    3    3  502    0 -0.44524806555E+03 -0.15687891022E+03  0.59660494339E+03  0.76078637194E+03  0.12699999809E+01 0.  1.
       -4    1    3    3    0  502  0.44524806555E+03  0.15687891022E+03 -0.21751786229E+03  0.51978117094E+03  0.12699999809E+01 0. -1.
</event>
<event>
 5   0  0.4263540E-03  0.1312898E+04  0.7818609E-02  0.9019399E-01
        2   -1    0    0  501    0  0.00000000000E+00  0.00000000000E+00  0.18129614424E+04  0.18129614424E+04  0.25500000920E-02 0. -1.
       -2   -1    0    0    0  501  0.00000000000E+00  0.00000000000E+00 -0.23769123242E+03  0.23769123244E+03  0.25500000920E-02 0.  1.
    10030    2    1    2    0    0  0.00000000000E+00  0.00000000000E+00  0.15752702100E+04  0.20506526748E+04  0.13128976192E+04 0.  0.
        2    1    3    3  502    0  0.57158441012E+03  0.13773653184E+03  0.33160283346E+03  0.67501150305E+03  0.25500000920E-02 0.  1.
       -2    1    3    3    0  502 -0.57158441012E+03 -0.13773653184E+03  0.12436673765E+04  0.13756411718E+04  0.25500000920E-02 0. -1.
</event>
<event>
 5   0  0.4263540E-03  0.1297005E+04  0.7818609E-02  0.9031944E-01
       -2   -1    0    0    0  501  0.00000000000E+00  0.00000000000E+00  0.85316988922E+03  0.85316988923E+03  0.25500000920E-02 0. -1.
        2   -1    0    0  501    0  0.00000000000E+00  0.00000000000E+00 -0.49293264555E+03  0.49293264555E+03  0.25500000920E-02 0.  1.
    10030    2    1    2    0    0  0.00000000000E+00  0.00000000000E+00  0.36023724368E+03  0.13461025348E+04  0.12970046887E+04 0.  0.
        2    1    3    3  502    0  0.35991603689E+03 -0.47235045670E+03  0.45056052738E+03  0.74542558072E+03  0.25500000920E-02 0. -1.
       -2    1    3    3    0  502 -0.35991603689E+03  0.47235045670E+03 -0.90323283702E+02  0.60067695406E+03  0.25500000920E-02 0.  1.
</event>
<event>
 5   0  0.4306214E-03  0.1413401E+04  0.7818609E-02  0.8944175E-01
       -2   -1    0    0    0  501  0.00000000000E+00  0.00000000000E+00  0.73456028886E+03  0.73456028887E+03  0.25500000920E-02 0. -1.
        2   -1    0    0  501    0  0.00000000000E+00  0.00000000000E+00 -0.67989732871E+03  0.67989732872E+03  0.25500000920E-02 0.  1.
    10030    2    1    2    0    0  0.00000000000E+00  0.00000000000E+00  0.54662960149E+02  0.14144576176E+04  0.14134009738E+04 0.  0.
        3    1    3    3  502    0 -0.52217642770E+03  0.18184585770E+03  0.46776210913E+03  0.72424963828E+03  0.10100000352E+00 0. -1.
       -3    1    3    3    0  502  0.52217642770E+03 -0.18184585770E+03 -0.41309914898E+03  0.69020797930E+03  0.10100000352E+00 0.  1.
</event>
<event>
 5   0  0.2511542E-03  0.1274314E+04  0.7818609E-02  0.9050186E-01
        1   -1    0    0  501    0  0.00000000000E+00  0.00000000000E+00  0.10684551658E+04  0.10684551658E+04  0.50400001928E-02 0. -1.
       -1   -1    0    0    0  501  0.00000000000E+00  0.00000000000E+00 -0.37995875689E+03  0.37995875692E+03  0.50400001928E-02 0.  1.
    10030    2    1    2    0    0  0.00000000000E+00  0.00000000000E+00  0.68849640889E+03  0.14484139227E+04  0.12743137708E+04 0.  0.
        4    1    3    3  502    0  0.55255432409E+01  0.61722497985E+03  0.16463996767E+03  0.63883107253E+03  0.12699999809E+01 0.  1.
       -4    1    3    3    0  502 -0.55255432409E+01 -0.61722497985E+03  0.52385644122E+03  0.80958285017E+03  0.12699999809E+01 0. -1.
</event>
<event>
 5   0  0.2356769E-03  0.7732587E+03  0.7818609E-02  0.9599552E-01
       -1   -1    0    0    0  501  0.00000000000E+00  0.00000000000E+00  0.14006015937E+03  0.14006015946E+03  0.50400001928E-02 0. -1.
        1   -1    0    0  501    0  0.00000000000E+00  0.00000000000E+00 -0.10672717171E+04  0.10672717171E+04  0.50400001928E-02 0.  1.
    10030    2    1    2    0    0  0.00000000000E+00  0.00000000000E+00 -0.92721155770E+03  0.12073318765E+04  0.77325868076E+03 0.  0.
        1    1    3    3  502    0 -0.10994047150E+03 -0.34281004802E+03 -0.68373263296E+03  0.77271983907E+03  0.50400001928E-02 0.  1.
       -1    1    3    3    0  502  0.10994047150E+03  0.34281004802E+03 -0.24347892475E+03  0.43461203747E+03  0.50400001928E-02 0. -1.
</event>
<event>
 5   0  0.2370801E-03  0.1288027E+04  0.7818609E-02  0.9039114E-01
        1   -1    0    0  501    0  0.00000000000E+00  0.00000000000E+00  0.76772861363E+03  0.76772861365E+03  0.50400001928E-02 0. -1.
       -1   -1    0    0    0  501  0.00000000000E+00  0.00000000000E+00 -0.54023428400E+03  0.54023428403E+03  0.50400001928E-02 0.  1.
    10030    2    1    2    0    0  0.00000000000E+00  0.00000000000E+00  0.22749432963E+03  0.13079628977E+04  0.12880268909E+04 0.  0.
        3    1    3    3  502    0  0.58876921860E+03 -0.25646561665E+03  0.64735203962E+02  0.64545678564E+03  0.10100000352E+00 0. -1.
       -3    1    3    3    0  502 -0.58876921860E+03  0.25646561665E+03  0.16275912567E+03  0.66250611204E+03  0.10100000352E+00 0.  1.
</event>
<event>
 5   0  0.2462055E-03  0.1422626E+04  0.7818609E-02  0.8937602E-01
       -1   -1    0    0    0  501  0.00000000000E+00  0.00000000000E+00  0.45802009464E+03  0.45802009467E+03  0.50400001928E-02 0.  1.
        1   -1    0    0  501    0  0.00000000000E+00  0.00000000000E+00 -0.11046809369E+04  0.11046809370E+04  0.50400001928E-02 0. -1.
    10030    2    1    2    0    0  0.00000000000E+00  0.00000000000E+00 -0.64666084230E+03  0.15627010316E+04  0.14226258360E+04 0.  0.
        2    1    3    3  502    0 -0.36613719246E+03 -0.57528978916E+03 -0.54561992618E+03  0.87333606880E+03  0.25500000920E-02 0. -1.
       -2    1    3    3    0  502  0.36613719246E+03  0.57528978916E+03 -0.10104091611E+03  0.68936496281E+03  0.25500000920E-02 0.  1.
</event>
<event>
 5   0  0.2356769E-03  0.1074466E+04  0.7818609E-02  0.9230443E-01
       -1   -1    0    0    0  501  0.00000000000E+00  0.00000000000E+00  0.42695577631E+03  0.42695577634E+03  0.50400001928E-02 0.  1.
        1   -1    0    0  501    0  0.00000000000E+00  0.00000000000E+00 -0.67599288289E+03  0.67599288291E+03  0.50400001928E-02 0. -1.
    10030    2    1    2    0    0  0.00000000000E+00  0.00000000000E+00 -0.24903710658E+03  0.11029486592E+04  0.10744655716E+04 0.  0.
        1    1    3    3  502    0  0.27201000222E+03  0.39206138770E+03  0.12883896953E+03  0.49426819959E+03  0.50400001928E-02 0.  1.
       -1    1    3    3    0  502 -0.27201000222E+03 -0.39206138770E+03 -0.37787607611E+03  0.60868045965E+03  0.50400001928E-02 0. -1.
</event>
<event>
 5   0  0.4310889E-03  0.1297293E+04  0.7818609E-02  0.9031714E-01
       -2   -1    0    0    0  501  0.00000000000E+00  0.00000000000E+00  0.25838044642E+03  0.25838044643E+03  0.25500000920E-02 0.  1.
        2   -1    0    0  501    0  0.00000000000E+00  0.00000000000E+00 -0.16283835177E+04  0.16283835177E+04  0.25500000920E-02 0. -1.
    10030    2    1    2    0    0  0.00000000000E+00  0.00000000000E+00 -0.13700030712E+04  0.18867639641E+04  0.12972932749E+04 0.  0.
        4    1    3    3  502    0 -0.24164047202E+03  0.24435502442E+03 -0.14851001903E+04  0.15243436896E+04  0.12699999809E+01 0. -1.
       -4    1    3    3    0  502  0.24164047202E+03 -0.24435502442E+03  0.11509711908E+03  0.36242027454E+03  0.12699999809E+01 0.  1.
</event>
<event>
 5   0  0.4310889E-03  0.1591546E+04  0.7818609E-02  0.8825758E-01
        2   -1    0    0  501    0  0.00000000000E+00  0.00000000000E+00  0.12470758044E+04  0.12470758044E+04  0.25500000920E-02 0. -1.
       -2   -1    0    0    0  501  0.00000000000E+00  0.00000000000E+00 -0.50779183837E+03  0.50779183837E+03  0.25500000920E-02 0.  1.
    10030    2    1    2    0    0  0.00000000000E+00  0.00000000000E+00  0.73928396600E+03  0.17548676427E+04  0.15915463113E+04 0.  0.
        4    1    3    3  502    0 -0.16456724557E+03 -0.44350777650E+03  0.10752070527E+04  0.11746715904E+04  0.12699999809E+01 0. -1.
       -4    1    3    3    0  502  0.16456724557E+03  0.44350777650E+03 -0.33592308669E+03  0.58019605239E+03  0.12699999809E+01 0.  1.
</event>
<event>
 5   0  0.4263540E-03  0.1264275E+04  0.7818609E-02  0.9058385E-01
        2   -1    0    0  501    0  0.00000000000E+00  0.00000000000E+00  0.82720828988E+03  0.82720828988E+03  0.25500000920E-02 0.  1.
       -2   -1    0    0    0  501  0.00000000000E+00  0.00000000000E+00 -0.48306793211E+03  0.48306793211E+03  0.25500000920E-02 0. -1.
    10030    2    1    2    0    0  0.00000000000E+00  0.00000000000E+00  0.34414035777E+03  0.13102762220E+04  0.12642749670E+04 0.  0.
        2    1    3    3  502    0 -0.30262104921E+03 -0.45697064257E+03  0.49848411042E+03  0.74086981039E+03  0.25500000920E-02 0.  1.
       -2    1    3    3    0  502  0.30262104921E+03  0.45697064257E+03 -0.15434375265E+03  0.56940641161E+03  0.25500000920E-02 0. -1.
</event>
<event>
 5   0  0.2458456E-03  0.1284142E+04  0.7818609E-02  0.9042236E-01
       -1   -1    0    0    0  501  0.00000000000E+00  0.00000000000E+00  0.50936191245E+03  0.50936191247E+03  0.50400001928E-02 0. -1.
        1   -1    0    0  501    0  0.00000000000E+00  0.00000000000E+00 -0.80935664594E+03  0.80935664595E+03  0.50400001928E-02 0.  1.
    10030    2    1    2    0    0  0.00000000000E+00  0.00000000000E+00 -0.29999473349E+03  0.13187185584E+04  0.12841424361E+04 0.  0.
        5    1    3    3  502    0  0.14805669506E+03 -0.11566716576E+03  0.48048274697E+03  0.51593162175E+03  0.46999998093E+01 0. -1.
       -5    1    3    3    0  502 -0.14805669506E+03  0.11566716576E+03 -0.78047748046E+03  0.80278693667E+03  0.46999998093E+01 0.  1.
</event>
<event>
 5   0  0.2511542E-03  0.1177171E+04  0.7818609E-02  0.9133076E-01
        1   -1    0    0  501    0  0.00000000000E+00  0.00000000000E+00  0.46737092558E+03  0.46737092560E+03  0.50400001928E-02 0. -1.
       -1   -1    0    0    0  501  0.00000000000E+00  0.00000000000E+00 -0.74123806971E+03  0.74123806972E+03  0.50400001928E-02 0.  1.
    10030    2    1    2    0    0  0.00000000000E+00  0.00000000000E+00 -0.27386714413E+03  0.12086089953E+04  0.11771713940E+04 0.  0.
        4    1    3    3  502    0 -0.26805764302E+03  0.60948444492E+02  0.39740937348E+03  0.48322400178E+03  0.12699999809E+01 0. -1.
       -4    1    3    3    0  502  0.26805764302E+03 -0.60948444492E+02 -0.67127651761E+03  0.72538499355E+03  0.12699999809E+01 0.  1.
</event>
<event>
 5   0  0.2370801E-03  0.1368213E+04  0.7818609E-02  0.8977154E-01
       -1   -1    0    0    0  501  0.00000000000E+00  0.00000000000E+00  0.57017247440E+03  0.57017247442E+03  0.50400001928E-02 0.  1.
        1   -1    0    0  501    0  0.00000000000E+00  0.00000000000E+00 -0.82080761620E+03  0.82080761622E+03  0.50400001928E-02 0. -1.
    10030    2    1    2    0    0  0.00000000000E+00  0.00000000000E+00 -0.25063514180E+03  0.13909800906E+04  0.13682133014E+04 0.  0.
        3    1    3    3  502    0  0.15543903190E+03 -0.39647308322E+03  0.41898809143E+03  0.59741378400E+03  0.10100000352E+00 0.  1.
       -3    1    3    3    0  502 -0.15543903190E+03  0.39647308322E+03 -0.66962323322E+03  0.79356630664E+03  0.10100000352E+00 0. -1.
</event>
<event>
 5   0  0.1661750E-03  0.1290839E+04  0.7818609E-02  0.9036861E-01
        3   -1    0    0  501    0  0.00000000000E+00  0.00000000000E+00  0.11236750492E+04  0.11236750537E+04  0.10100000352E+00 0. -1.
       -3   -1    0    0    0  501  0.00000000000E+00  0.00000000000E+00 -0.37071792182E+03  0.37071793558E+03  0.10100000352E+00 0.  1.
    10030    2    1    2    0    0  0.00000000000E+00  0.00000000000E+00  0.75295712735E+03  0.14943929893E+04  0.12908392506E+04 0.  0.
        3    1    3    3  502    0  0.24594339898E+03 -0.13305230220E+03 -0.29695081325E+03  0.40788584961E+03  0.10100000352E+00 0.  1.
       -3    1    3    3    0  502 -0.24594339898E+03  0.13305230220E+03  0.10499079406E+04  0.10865071397E+04  0.10100000352E+00 0. -1.
</event>
<event>
 5   0  0.2511542E-03  0.1326537E+04  0.7818609E-02  0.9008782E-01
       -1   -1    0    0    0  501  0.00000000000E+00  0.00000000000E+00  0.85417554719E+03  0.85417554721E+03  0.50400001928E-02 0.  1.
        1   -1    0    0  501    0  0.00000000000E+00  0.00000000000E+00 -0.51502885514E+03  0.51502885517E+03  0.50400001928E-02 0. -1.
    10030    2    1    2    0    0  0.00000000000E+00  0.00000000000E+00  0.33914669205E+03  0.13692044024E+04  0.13265369263E+04 0.  0.
        4    1    3    3  502    0 -0.13342879307E+02 -0.58443886565E+03 -0.15383631099E+03  0.60449486647E+03  0.12699999809E+01 0. -1.
       -4    1    3    3    0  502  0.13342879307E+02  0.58443886565E+03  0.49298300304E+03  0.76470953590E+03  0.12699999809E+01 0.  1.
</event>
<event>
 5   0  0.2462055E-03  0.1315531E+04  0.7818609E-02  0.9017339E-01
        1   -1    0    0  501    0  0.00000000000E+00  0.00000000000E+00  0.10209975682E+04  0.10209975683E+04  0.50400001928E-02 0. -1.
       -1   -1    0    0    0  501  0.00000000000E+00  0.00000000000E+00 -0.42375752769E+03  0.42375752772E+03  0.50400001928E-02 0.  1.
    10030    2    1    2    0    0  0.00000000000E+00  0.00000000000E+00  0.59724004056E+03  0.14447550960E+04  0.13155309275E+04 0.  0.
        2    1    3    3  502    0  0.64322695433E+00  0.16099318134E+03 -0.40178553000E+03  0.43284042129E+03  0.25500000920E-02 0.  1.
       -2    1    3    3    0  502 -0.64322695433E+00 -0.16099318134E+03  0.99902557056E+03  0.10119146747E+04  0.25500000920E-02 0. -1.
</event>
<event>
 5   0  0.4453011E-03  0.1272730E+04  0.7818609E-02  0.9051474E-01
       -2   -1    0    0    0  501  0.00000000000E+00  0.00000000000E+00  0.57731570177E+03  0.57731570177E+03  0.25500000920E-02 0.  1.
        2   -1    0    0  501    0  0.00000000000E+00  0.00000000000E+00 -0.70145449660E+03  0.70145449660E+03  0.25500000920E-02 0. -1.
    10030    2    1    2    0    0  0.00000000000E+00  0.00000000000E+00 -0.12413879483E+03  0.12787701984E+04  0.12727304427E+04 0.  0.
        1    1    3    3  502    0 -0.39717564062E+03 -0.22973281072E+03 -0.50510980958E+03  0.68239400172E+03  0.50400001928E-02 0. -1.
       -1    1    3    3    0  502  0.39717564062E+03  0.22973281072E+03  0.38097101475E+03  0.59637619665E+03  0.50400001928E-02 0.  1.
</event>
<event>
 5   0  0.4263540E-03  0.1303380E+04  0.7818609E-02  0.9026889E-01
        2   -1    0    0  501    0  0.00000000000E+00  0.00000000000E+00  0.11424326930E+04  0.11424326930E+04  0.25500000920E-02 0.  1.
       -2   -1    0    0    0  501  0.00000000000E+00  0.00000000000E+00 -0.37175034443E+03  0.37175034444E+03  0.25500000920E-02 0. -1.
    10030    2    1    2    0    0  0.00000000000E+00  0.00000000000E+00  0.77068234854E+03  0.15141830374E+04  0.13033798327E+04 0.  0.
        2    1    3    3  502    0  0.16804271147E+02  0.30792668086E+03  0.10523015116E+04  0.10965581132E+04  0.25500000920E-02 0.  1.
       -2    1    3    3    0  502 -0.16804271147E+02 -0.30792668086E+03 -0.28161916306E+03  0.41762492421E+03  0.25500000920E-02 0. -1.
</event>
<event>
 5   0  0.4306214E-03  0.1273665E+04  0.7818609E-02  0.9050713E-01
       -2   -1    0    0    0  501  0.00000000000E+00  0.00000000000E+00  0.37785693417E+03  0.37785693417E+03  0.25500000920E-02 0.  1.
        2   -1    0    0  501    0  0.00000000000E+00  0.00000000000E+00 -0.10733052600E+04  0.10733052600E+04  0.25500000920E-02 0. -1.
    10030    2    1    2    0    0  0.00000000000E+00  0.00000000000E+00 -0.69544832585E+03  0.14511621942E+04  0.12736653171E+04 0.  0.
        3    1    3    3  502    0  0.37977561555E+03 -0.39645638949E+03  0.19970587858E+02  0.54936874821E+03  0.10100000352E+00 0.  1.
       -3    1    3    3    0  502 -0.37977561555E+03  0.39645638949E+03 -0.71541891370E+03  0.90179344598E+03  0.10100000352E+00 0. -1.
</event>
<event>
 5   0  0.4388937E-03  0.1282126E+04  0.7818609E-02  0.9043861E-01
        2   -1    0    0  501    0  0.00000000000E+00  0.00000000000E+00  0.68179323938E+03  0.68179323938E+03  0.25500000920E-02 0. -1.
       -2   -1    0    0    0  501  0.00000000000E+00  0.00000000000E+00 -0.60276555910E+03  0.60276555910E+03  0.25500000920E-02 0.  1.
    10030    2    1    2    0    0  0.00000000000E+00  0.00000000000E+00  0.79027680282E+02  0.12845587985E+04  0.12821255526E+04 0.  0.
        5    1    3    3  502    0  0.36005436728E+03  0.50057671122E+03 -0.13609916310E+03  0.63147546540E+03  0.46999998093E+01 0.  1.
       -5    1    3    3    0  502 -0.36005436728E+03 -0.50057671122E+03  0.21512684338E+03  0.65308333308E+03  0.46999998093E+01 0. -1.
</event>
<event>
 5   0  0.2458456E-03  0.1268748E+04  0.7818609E-02  0.9054722E-01
       -1   -1    0    0    0  501  0.00000000000E+00  0.00000000000E+00  0.32105588463E+03  0.32105588467E+03  0.50400001928E-02 0.  1.
        1   -1    0    0  501    0  0.00000000000E+00  0.00000000000E+00 -0.12534598848E+04  0.12534598848E+04  0.50400001928E-02 0. -1.
    10030    2    1    2    0    0  0.00000000000E+00  0.00000000000E+00 -0.93240400017E+03  0.15745157695E+04  0.12687484734E+04 0.  0.
        5    1    3    3  502    0  0.40590209895E+03  0.63432049925E+02 -0.10660405036E+04  0.11424730124E+04  0.46999998093E+01 0. -1.
       -5    1    3    3    0  502 -0.40590209895E+03 -0.63432049925E+02  0.13363650339E+03  0.43204275706E+03  0.46999998093E+01 0.  1.
</event>
<event>
 5   0  0.2462055E-03  0.1284447E+04  0.7818609E-02  0.9041990E-01
        1   -1    0    0  501    0  0.00000000000E+00  0.00000000000E+00  0.76967471501E+03  0.76967471503E+03  0.50400001928E-02 0.  1.
       -1   -1    0    0    0  501  0.00000000000E+00  0.00000000000E+00 -0.53587731688E+03  0.53587731690E+03  0.50400001928E-02 0. -1.
    10030    2    1    2    0    0  0.00000000000E+00  0.00000000000E+00  0.23379739813E+03  0.13055520319E+04  0.12844473071E+04 0.  0.
        2    1    3    3  502    0  0.49305187984E+03 -0.31778396623E+03 -0.14886333913E+03  0.60518352518E+03  0.25500000920E-02 0.  1.
       -2    1    3    3    0  502 -0.49305187984E+03  0.31778396623E+03  0.38266073726E+03  0.70036850676E+03  0.25500000920E-02 0. -1.
</event>
<event>
 5   0  0.2458456E-03  0.1246988E+04  0.7818609E-02  0.9072694E-01
        1   -1    0    0  501    0  0.00000000000E+00  0.00000000000E+00  0.67036581178E+03  0.67036581180E+03  0.50400001928E-02 0.  1.
       -1   -1    0    0    0  501  0.00000000000E+00  0.00000000000E+00 -0.57989962215E+03  0.57989962217E+03  0.50400001928E-02 0. -1.
    10030    2    1    2    0    0  0.00000000000E+00  0.00000000000E+00  0.90466189631E+02  0.12502654340E+04  0.12469881811E+04 0.  0.
        5    1    3    3  502    0 -0.42441280155E+02 -0.23504144604E+02 -0.57798645922E+03  0.58003805403E+03  0.46999998093E+01 0. -1.
       -5    1    3    3    0  502  0.42441280155E+02  0.23504144604E+02  0.66845264885E+03  0.67022737995E+03  0.46999998093E+01 0.  1.
</event>
<event>
 5   0  0.4263540E-03  0.1270913E+04  0.7818609E-02  0.9052955E-01
        2   -1    0    0  501    0  0.00000000000E+00  0.00000000000E+00  0.34686466999E+03  0.34686467000E+03  0.25500000920E-02 0.  1.
       -2   -1    0    0    0  501  0.00000000000E+00  0.00000000000E+00 -0.11641569884E+04  0.11641569884E+04  0.25500000920E-02 0. -1.
    10030    2    1    2    0    0  0.00000000000E+00  0.00000000000E+00 -0.81729231846E+03  0.15110216585E+04  0.12709129469E+04 0.  0.
        2    1    3    3  502    0  0.34214131127E+03 -0.12166956313E+03  0.21135435126E+03  0.42016047086E+03  0.25500000920E-02 0.  1.
       -2    1    3    3    0  502 -0.34214131127E+03  0.12166956313E+03 -0.10286466697E+04  0.10908611876E+04  0.25500000920E-02 0. -1.
</event>
<event>
 5   0  0.4453011E-03  0.1245737E+04  0.7818609E-02  0.9073739E-01
       -2   -1    0    0    0  501  0.00000000000E+00  0.00000000000E+00  0.44691052932E+03  0.44691052933E+03  0.25500000920E-02 0. -1.
        2   -1    0    0  501    0  0.00000000000E+00  0.00000000000E+00 -0.86810434365E+03  0.86810434366E+03  0.25500000920E-02 0.  1.
    10030    2    1    2    0    0  0.00000000000E+00  0.00000000000E+00 -0.42119381433E+03  0.13150148730E+04  0.12457366844E+04 0.  0.
        1    1    3    3  502    0 -0.54075387860E+03 -0.29539170304E+03 -0.30673273742E+03  0.68829934453E+03  0.50400001928E-02 0.  1.
       -1    1    3    3    0  502  0.54075387860E+03  0.29539170304E+03 -0.11446107691E+03  0.62671552845E+03  0.50400001928E-02 0. -1.
</event>
<event>
 5   0  0.4453011E-03  0.1310101E+04  0.7818609E-02  0.9021593E-01
       -2   -1    0    0    0  501  0.00000000000E+00  0.00000000000E+00  0.11725561731E+04  0.11725561731E+04  0.25500000920E-02 0.  1.
        2   -1    0    0  501    0  0.00000000000E+00  0.00000000000E+00 -0.36594525300E+03  0.36594525301E+03  0.25500000920E-02 0. -1.
    10030    2    1    2    0    0  0.00000000000E+00  0.00000000000E+00  0.80661092012E+03  0.15385014261E+04  0.13101013174E+04 0.  0.
        1    1    3    3  502    0 -0.15381556101E+03  0.10033362459E+03  0.11417064939E+04  0.11563821952E+04  0.50400001928E-02 0.  1.
       -1    1    3    3    0  502  0.15381556101E+03 -0.10033362459E+03 -0.33509557382E+03  0.38211923094E+03  0.50400001928E-02 0. -1.
</event>
<event>
 5   0  0.4306214E-03  0.1282792E+04  0.7818609E-02  0.9043324E-01
        2   -1    0    0  501    0  0.00000000000E+00  0.00000000000E+00  0.60234414780E+03  0.60234414781E+03  0.25500000920E-02 0.  1.
       -2   -1    0    0    0  501  0.00000000000E+00  0.00000000000E+00 -0.68297965283E+03  0.68297965283E+03  0.25500000920E-02 0. -1.
    10030    2    1    2    0    0  0.00000000000E+00  0.00000000000E+00 -0.80635505025E+02  0.12853238006E+04  0.12827919503E+04 0.  0.
        3    1    3    3  502    0  0.11693818436E+03  0.20489471785E+01 -0.67220502246E+03  0.68230370039E+03  0.10100000352E+00 0. -1.
       -3    1    3    3    0  502 -0.11693818436E+03 -0.20489471785E+01  0.59156951743E+03  0.60302010025E+03  0.10100000352E+00 0.  1.
</event>
<event>
 5   0  0.2511542E-03  0.1315211E+04  0.7818609E-02  0.9017589E-01
        1   -1    0    0  501    0  0.00000000000E+00  0.00000000000E+00  0.65102496423E+03  0.65102496425E+03  0.50400001928E-02 0. -1.
       -1   -1    0    0    0  501  0.00000000000E+00  0.00000000000E+00 -0.66425225698E+03  0.66425225700E+03  0.50400001928E-02 0.  1.
    10030    2    1    2    0    0  0.00000000000E+00  0.00000000000E+00 -0.13227292755E+02  0.13152772212E+04  0.13152107084E+04 0.  0.
        4    1    3    3  502    0  0.14503606487E+03 -0.58953261565E+03 -0.25932985690E+03  0.66018009104E+03  0.12699999809E+01 0. -1.
       -4    1    3    3    0  502 -0.14503606487E+03  0.58953261565E+03  0.24610256415E+03  0.65509713021E+03  0.12699999809E+01 0.  1.
</event>
<event>
 5   0  0.4306214E-03  0.1501476E+04  0.7818609E-02  0.8883472E-01
       -2   -1    0    0    0  501  0.00000000000E+00  0.00000000000E+00  0.68511231814E+03  0.68511231814E+03  0.25500000920E-02 0. -1.
        2   -1    0    0  501    0  0.00000000000E+00  0.00000000000E+00 -0.82265039386E+03  0.82265039386E+03  0.25500000920E-02 0.  1.
    10030    2    1    2    0    0  0.00000000000E+00  0.00000000000E+00 -0.13753807572E+03  0.15077627120E+04  0.15014764978E+04 0.  0.
        3    1    3    3  502    0  0.50420593919E+03 -0.55423242225E+03 -0.21554093626E+02  0.74957441001E+03  0.10100000352E+00 0. -1.
       -3    1    3    3    0  502 -0.50420593919E+03  0.55423242225E+03 -0.11598398209E+03  0.75818830200E+03  0.10100000352E+00 0.  1.
</event>
<event>
 5   0  0.2462055E-03  0.1385853E+04  0.7818609E-02  0.8964123E-01
        1   -1    0    0  501    0  0.00000000000E+00  0.00000000000E+00  0.55881799028E+03  0.55881799031E+03  0.50400001928E-02 0.  1.
       -1   -1    0    0    0  501  0.00000000000E+00  0.00000000000E+00 -0.85921869407E+03  0.85921869409E+03  0.50400001928E-02 0. -1.
    10030    2    1    2    0    0  0.00000000000E+00  0.00000000000E+00 -0.30040070379E+03  0.14180366844E+04  0.13858526096E+04 0.  0.
        2    1    3    3  502    0  0.28044624967E+03  0.61965575548E+02  0.49504480835E+03  0.57232787263E+03  0.25500000920E-02 0.  1.
       -2    1    3    3    0  502 -0.28044624967E+03 -0.61965575548E+02 -0.79544551214E+03  0.84570881176E+03  0.25500000920E-02 0. -1.
</event>
<event>
 5   0  0.4388937E-03  0.1308861E+04  0.7818609E-02  0.9022568E-01
       -2   -1    0    0    0  501  0.00000000000E+00  0.00000000000E+00  0.10089478974E+04  0.10089478974E+04  0.25500000920E-02 0. -1.
        2   -1    0    0  501    0  0.00000000000E+00  0.00000000000E+00 -0.42448083700E+03  0.42448083701E+03  0.25500000920E-02 0.  1.
    10030    2    1    2    0    0  0.00000000000E+00  0.00000000000E+00  0.58446706042E+03  0.14334287344E+04  0.13088606465E+04 0.  0.
        5    1    3    3  502    0 -0.14995351840E+03 -0.72180481118E+02 -0.40090008495E+03  0.43409566647E+03  0.46999998093E+01 0.  1.
       -5    1    3    3    0  502  0.14995351840E+03  0.72180481118E+02  0.98536714538E+03  0.99933306796E+03  0.46999998093E+01 0. -1.
</event>
<event>
 5   0  0.4306214E-03  0.1323475E+04  0.7818609E-02  0.9011154E-01
        2   -1    0    0  501    0  0.00000000000E+00  0.00000000000E+00  0.94661612688E+03  0.94661612688E+03  0.25500000920E-02 0.  1.
       -2   -1    0    0    0  501  0.00000000000E+00  0.00000000000E+00 -0.46259149555E+03  0.46259149556E+03  0.25500000920E-02 0. -1.
    10030    2    1    2    0    0  0.00000000000E+00  0.00000000000E+00  0.48402463132E+03  0.14092076224E+04  0.13234750770E+04 0.  0.
        3    1    3    3  502    0  0.38187427795E+03 -0.19392605886E+03  0.77913076408E+03  0.88908944331E+03  0.10100000352E+00 0.  1.
       -3    1    3    3    0  502 -0.38187427795E+03  0.19392605886E+03 -0.29510613276E+03  0.52011817913E+03  0.10100000352E+00 0. -1.
</event>
<event>
 5   0  0.2462055E-03  0.1360362E+04  0.7818609E-02  0.8983021E-01
        1   -1    0    0  501    0  0.00000000000E+00  0.00000000000E+00  0.12933788712E+04  0.12933788712E+04  0.50400001928E-02 0. -1.
       -1   -1    0    0    0  501  0.00000000000E+00  0.00000000000E+00 -0.35770335937E+03  0.35770335941E+03  0.50400001928E-02 0.  1.
    10030    2    1    2    0    0  0.00000000000E+00  0.00000000000E+00  0.93567551181E+03  0.16510822306E+04  0.13603616684E+04 0.  0.
        2    1    3    3  502    0 -0.62867761587E+03  0.63651142794E+02  0.16233275865E+03  0.65241009895E+03  0.25500000920E-02 0.  1.
       -2    1    3    3    0  502  0.62867761587E+03 -0.63651142794E+02  0.77334275316E+03  0.99867213165E+03  0.25500000920E-02 0. -1.
</event>
<event>
 5   0  0.2462055E-03  0.1410716E+04  0.7818609E-02  0.8946098E-01
       -1   -1    0    0    0  501  0.00000000000E+00  0.00000000000E+00  0.28643420144E+03  0.28643420149E+03  0.50400001928E-02 0.  1.
        1   -1    0    0  501    0  0.00000000000E+00  0.00000000000E+00 -0.17369789342E+04  0.17369789342E+04  0.50400001928E-02 0. -1.
    10030    2    1    2    0    0  0.00000000000E+00  0.00000000000E+00 -0.14505447328E+04  0.20234131357E+04  0.14107163769E+04 0.  0.
        2    1    3    3  502    0  0.63644525348E+01 -0.40053618603E+03 -0.15579918825E+04  0.16086666679E+04  0.25500000920E-02 0. -1.
       -2    1    3    3    0  502 -0.63644525348E+01  0.40053618603E+03  0.10744714969E+03  0.41474646781E+03  0.25500000920E-02 0.  1.
</event>
<event>
 5   0  0.2458456E-03  0.1275681E+04  0.7818609E-02  0.9049075E-01
       -1   -1    0    0    0  501  0.00000000000E+00  0.00000000000E+00  0.42752024596E+03  0.42752024599E+03  0.50400001928E-02 0.  1.
        1   -1    0    0  501    0  0.00000000000E+00  0.00000000000E+00 -0.95162934926E+03  0.95162934927E+03  0.50400001928E-02 0. -1.
    10030    2    1    2    0    0  0.00000000000E+00  0.00000000000E+00 -0.52410910330E+03  0.13791495953E+04  0.12756814861E+04 0.  0.
        5    1    3    3  502    0 -0.59387467298E+03  0.12797074747E+03 -0.51988029898E+02  0.60974460610E+03  0.46999998093E+01 0.  1.
       -5    1    3    3    0  502  0.59387467298E+03 -0.12797074747E+03 -0.47212107340E+03  0.76940498917E+03  0.46999998093E+01 0. -1.
</event>
<event>
 5   0  0.4263540E-03  0.1219105E+04  0.7818609E-02  0.9096297E-01
       -2   -1    0    0    0  501  0.00000000000E+00  0.00000000000E+00  0.58363705959E+03  0.58363705960E+03  0.25500000920E-02 0. -1.
        2   -1    0    0  501    0  0.00000000000E+00  0.00000000000E+00 -0.63661824101E+03  0.63661824101E+03  0.25500000920E-02 0.  1.
    10030    2    1    2    0    0  0.00000000000E+00  0.00000000000E+00 -0.52981181418E+02  0.12202553006E+04  0.12191045866E+04 0.  0.
        2    1    3    3  502    0  0.54760691025E+02 -0.30624568395E+03  0.49818816816E+03  0.58734708914E+03  0.25500000920E-02 0. -1.
       -2    1    3    3    0  502 -0.54760691025E+02  0.30624568395E+03 -0.55116934958E+03  0.63290821147E+03  0.25500000920E-02 0.  1.
</event>
<event>
 5   0  0.4263540E-03  0.1124691E+04  0.7818609E-02  0.9181455E-01
       -2   -1    0    0    0  501  0.00000000000E+00  0.00000000000E+00  0.10564419119E+03  0.10564419122E+03  0.25500000920E-02 0.  1.
        2   -1    0    0  501    0  0.00000000000E+00  0.00000000000E+00 -0.29933753570E+04  0.29933753570E+04  0.25500000920E-02 0. -1.
    10030    2    1    2    0    0  0.00000000000E+00  0.00000000000E+00 -0.28877311659E+04  0.30990195483E+04  0.11246914574E+04 0.  0.
        2    1    3    3  502    0 -0.48875659961E+03  0.27332366591E+03 -0.13021845645E+04  0.14174884409E+04  0.25500000920E-02 0.  1.
       -2    1    3    3    0  502  0.48875659961E+03 -0.27332366591E+03 -0.15855466014E+04  0.16815311074E+04  0.25500000920E-02 0. -1.
</event>
<event>
 5   0  0.2370801E-03  0.1299987E+04  0.7818609E-02  0.9029575E-01
       -1   -1    0    0    0  501  0.00000000000E+00  0.00000000000E+00  0.36317678499E+03  0.36317678503E+03  0.50400001928E-02 0. -1.
        1   -1    0    0  501    0  0.00000000000E+00  0.00000000000E+00 -0.11633220691E+04  0.11633220691E+04  0.50400001928E-02 0.  1.
    10030    2    1    2    0    0  0.00000000000E+00  0.00000000000E+00 -0.80014528408E+03  0.15264988541E+04  0.12999870292E+04 0.  0.
        3    1    3    3  502    0  0.32027003338E+03 -0.39430074348E+02 -0.10626237654E+04  0.11105390142E+04  0.10100000352E+00 0.  1.
       -3    1    3    3    0  502 -0.32027003338E+03  0.39430074348E+02  0.26247848134E+03  0.41595983990E+03  0.10100000352E+00 0. -1.
</event>
<event>
 5   0  0.4310889E-03  0.1292961E+04  0.7818609E-02  0.9035166E-01
        2   -1    0    0  501    0  0.00000000000E+00  0.00000000000E+00  0.11910963906E+04  0.11910963906E+04  0.25500000920E-02 0. -1.
       -2   -1    0    0    0  501  0.00000000000E+00  0.00000000000E+00 -0.35088426819E+03  0.35088426820E+03  0.25500000920E-02 0.  1.
    10030    2    1    2    0    0  0.00000000000E+00  0.00000000000E+00  0.84021212239E+03  0.15419806588E+04  0.12929609203E+04 0.  0.
        4    1    3    3  502    0 -0.18008748521E+03 -0.30407869431E+03  0.10656963572E+04  0.11227669809E+04  0.12699999809E+01 0. -1.
       -4    1    3    3    0  502  0.18008748521E+03  0.30407869431E+03 -0.22548423485E+03  0.41921367789E+03  0.12699999809E+01 0.  1.
</event>
<event>
 5   0  0.2356769E-03  0.8658181E+03  0.7818609E-02  0.9469349E-01
        1   -1    0    0  501    0  0.00000000000E+00  0.00000000000E+00  0.31651079256E+03  0.31651079260E+03  0.50400001928E-02 0.  1.
       -1   -1    0    0    0  501  0.00000000000E+00  0.00000000000E+00 -0.59211321869E+03  0.59211321871E+03  0.50400001928E-02 0. -1.
    10030    2    1    2    0    0  0.00000000000E+00  0.00000000000E+00 -0.27560242614E+03  0.90862401131E+03  0.86581805054E+03 0.  0.
        1    1    3    3  502    0 -0.14338785346E+03 -0.60678205543E+01 -0.56642172287E+03  0.58432051404E+03  0.50400001928E-02 0. -1.
       -1    1    3    3    0  502  0.14338785346E+03  0.60678205543E+01  0.29081929673E+03  0.32430349727E+03  0.50400001928E-02 0.  1.
</event>
<event>
 5   0  0.4263540E-03  0.1336349E+04  0.7818609E-02  0.9001227E-01
       -2   -1    0    0    0  501  0.00000000000E+00  0.00000000000E+00  0.76843062331E+03  0.76843062331E+03  0.25500000920E-02 0.  1.
        2   -1    0    0  501    0  0.00000000000E+00  0.00000000000E+00 -0.58099834439E+03  0.58099834439E+03  0.25500000920E-02 0. -1.
    10030    2    1    2    0    0  0.00000000000E+00  0.00000000000E+00  0.18743227892E+03  0.13494289677E+04  0.13363486370E+04 0.  0.
        2    1    3    3  502    0 -0.11653189324E+03 -0.63883336698E+03  0.25263884661E+03  0.69678844690E+03  0.25500000920E-02 0.  1.
       -2    1    3    3    0  502  0.11653189324E+03  0.63883336698E+03 -0.65206567686E+02  0.65264052080E+03  0.25500000920E-02 0. -1.
</event>
<event>
 5   0  0.2370801E-03  0.1233396E+04  0.7818609E-02  0.9084117E-01
        1   -1    0    0  501    0  0.00000000000E+00  0.00000000000E+00  0.69417708641E+03  0.69417708643E+03  0.50400001928E-02 0.  1.
       -1   -1    0    0    0  501  0.00000000000E+00  0.00000000000E+00 -0.54786654350E+03  0.54786654352E+03  0.50400001928E-02 0. -1.
    10030    2    1    2    0    0  0.00000000000E+00  0.00000000000E+00  0.14631054291E+03  0.12420436300E+04  0.12333959639E+04 0.  0.
        3    1    3    3  502    0 -0.61449551095E+03  0.50652066053E+02  0.60986426467E+02  0.61958834656E+03  0.10100000352E+00 0. -1.
       -3    1    3    3    0  502  0.61449551095E+03 -0.50652066053E+02  0.85324116444E+02  0.62245528339E+03  0.10100000352E+00 0.  1.
</event>
<event>
 5   0  0.4453011E-03  0.1292050E+04  0.7818609E-02  0.9035893E-01
        2   -1    0    0  501    0  0.00000000000E+00  0.00000000000E+00  0.57345368968E+03  0.57345368968E+03  0.25500000920E-02 0.  1.
       -2   -1    0    0    0  501  0.00000000000E+00  0.00000000000E+00 -0.72778064718E+03  0.72778064719E+03  0.25500000920E-02 0. -1.
    10030    2    1    2    0    0  0.00000000000E+00  0.00000000000E+00 -0.15432695750E+03  0.13012343369E+04  0.12920503046E+04 0.  0.
        1    1    3    3  502    0  0.52217610350E+03 -0.12674313511E+03  0.28401754834E+03  0.60778094175E+03  0.50400001928E-02 0.  1.
       -1    1    3    3    0  502 -0.52217610350E+03  0.12674313511E+03 -0.43834450585E+03  0.69345339512E+03  0.50400001928E-02 0. -1.
</event>
<event>
 5   0  0.4388937E-03  0.1308641E+04  0.7818609E-02  0.9022741E-01
        2   -1    0    0  501    0  0.00000000000E+00  0.00000000000E+00  0.88524326791E+03  0.88524326791E+03  0.25500000920E-02 0. -1.
       -2   -1    0    0    0  501  0.00000000000E+00  0.00000000000E+00 -0.48363562643E+03  0.48363562643E+03  0.25500000920E-02 0.  1.
    10030    2    1    2    0    0  0.00000000000E+00  0.00000000000E+00  0.40160764148E+03  0.13688788943E+04  0.13086407948E+04 0.  0.
        5    1    3    3  502    0  0.12972339774E+03  0.57575701991E+03 -0.94667615328E+02  0.59775275264E+03  0.46999998093E+01 0. -1.
       -5    1    3    3    0  502 -0.12972339774E+03 -0.57575701991E+03  0.49627525681E+03  0.77112614171E+03  0.46999998093E+01 0.  1.
</event>
<event>
 5   0  0.2356769E-03  0.1020492E+04  0.7818609E-02  0.9286350E-01
       -1   -1    0    0    0  501  0.00000000000E+00  0.00000000000E+00  0.19850871594E+03  0.19850871600E+03  0.50400001928E-02 0. -1.
        1   -1    0    0  501    0  0.00000000000E+00  0.00000000000E+00 -0.13115353310E+04  0.13115353310E+04  0.50400001928E-02 0.  1.
    10030    2    1    2    0    0  0.00000000000E+00  0.00000000000E+00 -0.11130266151E+04  0.15100440470E+04  0.10204924194E+04 0.  0.
        1    1    3    3  502    0  0.11091102754E+03 -0.47059867419E+03 -0.79778872840E+03  0.93286184581E+03  0.50400001928E-02 0.  1.
       -1    1    3    3    0  502 -0.11091102754E+03  0.47059867419E+03 -0.31523788668E+03  0.57718220122E+03  0.50400001928E-02 0. -1.
</event>
<event>
 5   0  0.2511542E-03  0.1380596E+04  0.7818609E-02  0.8967985E-01
       -1   -1    0    0    0  501  0.00000000000E+00  0.00000000000E+00  0.55141872264E+03  0.55141872266E+03  0.50400001928E-02 0. -1.
        1   -1    0    0  501    0  0.00000000000E+00  0.00000000000E+00 -0.86415474294E+03  0.86415474295E+03  0.50400001928E-02 0.  1.
    10030    2    1    2    0    0  0.00000000000E+00  0.00000000000E+00 -0.31273602029E+03  0.14155734656E+04  0.13805956751E+04 0.  0.
        4    1    3    3  502    0  0.20318510370E+03 -0.52669533866E+03  0.25095903280E+03  0.61779787567E+03  0.12699999809E+01 0. -1.
       -4    1    3    3    0  502 -0.20318510370E+03  0.52669533866E+03 -0.56369505309E+03  0.79777558995E+03  0.12699999809E+01 0.  1.
</event>
<event>
 5   0  0.2511542E-03  0.1298872E+04  0.7818609E-02  0.9030460E-01
       -1   -1    0    0    0  501  0.00000000000E+00  0.00000000000E+00  0.37088816427E+03  0.37088816430E+03  0.50400001928E-02 0.  1.
        1   -1    0    0  501    0  0.00000000000E+00  0.00000000000E+00 -0.11371810829E+04  0.11371810829E+04  0.50400001928E-02 0. -1.
    10030    2    1    2    0    0  0.00000000000E+00  0.00000000000E+00 -0.76629291865E+03  0.15080692472E+04  0.12988718248E+04 0.  0.
        4    1    3    3  502    0  0.52982612401E+03  0.37552077397E+03 -0.37639450792E+03  0.75060376488E+03  0.12699999809E+01 0. -1.
       -4    1    3    3    0  502 -0.52982612401E+03 -0.37552077397E+03 -0.38989841073E+03  0.75746548235E+03  0.12699999809E+01 0.  1.
</event>
<event>
 5   0  0.4263540E-03  0.1275411E+04  0.7818609E-02  0.9049295E-01
       -2   -1    0    0    0  501  0.00000000000E+00  0.00000000000E+00  0.80216594987E+03  0.80216594988E+03  0.25500000920E-02 0. -1.
        2   -1    0    0  501    0  0.00000000000E+00  0.00000000000E+00 -0.50696256832E+03  0.50696256833E+03  0.25500000920E-02 0.  1.
    10030    2    1    2    0    0  0.00000000000E+00  0.00000000000E+00  0.29520338155E+03  0.13091285182E+04  0.12754106949E+04 0.  0.
        2    1    3    3  502    0 -0.57988435525E+03  0.14380097915E+03  0.37648450016E+03  0.70617644108E+03  0.25500000920E-02 0. -1.
       -2    1    3    3    0  502  0.57988435525E+03 -0.14380097915E+03 -0.81281118608E+02  0.60295207713E+03  0.25500000920E-02 0.  1.
</event>
<event>
 5   0  0.4263540E-03  0.1312960E+04  0.7818609E-02  0.9019350E-01
       -2   -1    0    0    0  501  0.00000000000E+00  0.00000000000E+00  0.30629103156E+03  0.30629103157E+03  0.25500000920E-02 0.  1.
        2   -1    0    0  501    0  0.00000000000E+00  0.00000000000E+00 -0.14070482505E+04  0.14070482505E+04  0.25500000920E-02 0. -1.
    10030    2    1    2    0    0  0.00000000000E+00  0.00000000000E+00 -0.11007572190E+04  0.17133392821E+04  0.13129604109E+04 0.  0.
        2    1    3    3  502    0 -0.24946896344E+03 -0.32642373087E+03 -0.12185543890E+04  0.12859479052E+04  0.25500000920E-02 0. -1.
       -2    1    3    3    0  502  0.24946896344E+03  0.32642373087E+03  0.11779717005E+03  0.42739137693E+03  0.25500000920E-02 0.  1.
</event>
<event>
 5   0  0.4310889E-03  0.1316417E+04  0.7818609E-02  0.9016647E-01
        2   -1    0    0  501    0  0.00000000000E+00  0.00000000000E+00  0.14711930505E+04  0.14711930505E+04  0.25500000920E-02 0.  1.
       -2   -1    0    0    0  501  0.00000000000E+00  0.00000000000E+00 -0.29448095121E+03  0.29448095122E+03  0.25500000920E-02 0. -1.
    10030    2    1    2    0    0  0.00000000000E+00  0.00000000000E+00  0.11767120992E+04  0.17656740017E+04  0.13164168472E+04 0.  0.
        4    1    3    3  502    0 -0.92252288763E+02  0.45868343261E+03  0.12093171399E+04  0.12966690148E+04  0.12699999809E+01 0.  1.
       -4    1    3    3    0  502  0.92252288763E+02 -0.45868343261E+03 -0.32605040685E+02  0.46900498688E+03  0.12699999809E+01 0. -1.
</event>
<event>
 5   0  0.4388937E-03  0.1291105E+04  0.7818609E-02  0.9036649E-01
        2   -1    0    0  501    0  0.00000000000E+00  0.00000000000E+00  0.90438860088E+03  0.90438860088E+03  0.25500000920E-02 0.  1.
       -2   -1    0    0    0  501  0.00000000000E+00  0.00000000000E+00 -0.46079552686E+03  0.46079552687E+03  0.25500000920E-02 0. -1.
    10030    2    1    2    0    0  0.00000000000E+00  0.00000000000E+00  0.44359307402E+03  0.13651841278E+04  0.12911052968E+04 0.  0.
        5    1    3    3  502    0 -0.38500724793E+03  0.30000420473E+03  0.66850895986E+03  0.82774357335E+03  0.46999998093E+01 0.  1.
       -5    1    3    3    0  502  0.38500724793E+03 -0.30000420473E+03 -0.22491588585E+03  0.53744055440E+03  0.46999998093E+01 0. -1.
</event>
<event>
 5   0  0.4263540E-03  0.1243611E+04  0.7818609E-02  0.9075518E-01
        2   -1    0    0  501    0  0.00000000000E+00  0.00000000000E+00  0.83092099459E+03  0.83092099459E+03  0.25500000920E-02 0.  1.
       -2   -1    0    0    0  501  0.00000000000E+00  0.00000000000E+00 -0.46531713326E+03  0.46531713327E+03  0.25500000920E-02 0. -1.
    10030    2    1    2    0    0  0.00000000000E+00  0.00000000000E+00  0.36560386132E+03  0.12962381279E+04  0.12436105101E+04 0.  0.
        2    1    3    3  502    0  0.16775338328E+03 -0.54319941542E+03 -0.79719514602E+02  0.57407491108E+03  0.25500000920E-02 0. -1.
       -2    1    3    3    0  502 -0.16775338328E+03  0.54319941542E+03  0.44532337593E+03  0.72216321678E+03  0.25500000920E-02 0.  1.
</event>
<event>
 5   0  0.4453011E-03  0.8684314E+03  0.7818609E-02  0.9465927E-01
        2   -1    0    0  501    0  0.00000000000E+00  0.00000000000E+00  0.75476189824E+03  0.75476189825E+03  0.25500000920E-02 0.  1.
       -2   -1    0    0    0  501  0.00000000000E+00  0.00000000000E+00 -0.24980498843E+03  0.24980498844E+03  0.25500000920E-02 0. -1.
    10030    2    1    2    0    0  0.00000000000E+00  0.00000000000E+00  0.50495690982E+03  0.10045668867E+04  0.86843143026E+03 0.  0.
        1    1    3    3  502    0 -0.27814371556E+03 -0.30046192697E+03  0.85239611448E+02  0.41821894678E+03  0.50400001928E-02 0. -1.
       -1    1    3    3    0  502  0.27814371556E+03  0.30046192697E+03  0.41971729837E+03  0.58634793991E+03  0.50400001928E-02 0.  1.
</event>
<event>
 5   0  0.4310889E-03  0.1334968E+04  0.7818609E-02  0.9002286E-01
        2   -1    0    0  501    0  0.00000000000E+00  0.00000000000E+00  0.10363473070E+04  0.10363473070E+04  0.25500000920E-02 0.  1.
       -2   -1    0    0    0  501  0.00000000000E+00  0.00000000000E+00 -0.42990854650E+03  0.42990854650E+03  0.25500000920E-02 0. -1.
    10030    2    1    2    0    0  0.00000000000E+00  0.00000000000E+00  0.60643876047E+03  0.14662558535E+04  0.13349675118E+04 0.  0.
        4    1    3    3  502    0  0.46915609959E+03 -0.18324563202E+03  0.78429799557E+03  0.93210051292E+03  0.12699999809E+01 0.  1.
       -4    1    3    3    0  502 -0.46915609959E+03  0.18324563202E+03 -0.17785923510E+03  0.53415534055E+03  0.12699999809E+01 0. -1.
</event>
<event>
 5   0  0.4310889E-03  0.1297519E+04  0.7818609E-02  0.9031535E-01
        2   -1    0    0  501    0  0.00000000000E+00  0.00000000000E+00  0.85536179009E+03  0.85536179009E+03  0.25500000920E-02 0.  1.
       -2   -1    0    0    0  501  0.00000000000E+00  0.00000000000E+00 -0.49205921881E+03  0.49205921882E+03  0.25500000920E-02 0. -1.
    10030    2    1    2    0    0  0.00000000000E+00  0.00000000000E+00  0.36330257127E+03  0.13474210089E+04  0.12975186384E+04 0.  0.
        4    1    3    3  502    0  0.64145927989E+03  0.90452355577E+02  0.21815141287E+03  0.68355196454E+03  0.12699999809E+01 0.  1.
       -4    1    3    3    0  502 -0.64145927989E+03 -0.90452355577E+02  0.14515115841E+03  0.66386904437E+03  0.12699999809E+01 0. -1.
</event>
<event>
 5   0  0.4388937E-03  0.1277153E+04  0.7818609E-02  0.9047881E-01
       -2   -1    0    0    0  501  0.00000000000E+00  0.00000000000E+00  0.43208520372E+03  0.43208520373E+03  0.25500000920E-02 0.  1.
        2   -1    0    0  501    0  0.00000000000E+00  0.00000000000E+00 -0.94374957048E+03  0.94374957048E+03  0.25500000920E-02 0. -1.
    10030    2    1    2    0    0  0.00000000000E+00  0.00000000000E+00 -0.51166436676E+03  0.13758347742E+04  0.12771534370E+04 0.  0.
        5    1    3    3  502    0 -0.11874024265E+03  0.13653049330E+03 -0.91553668019E+03  0.93325737265E+03  0.46999998093E+01 0. -1.
       -5    1    3    3    0  502  0.11874024265E+03 -0.13653049330E+03  0.40387231343E+03  0.44257740157E+03  0.46999998093E+01 0.  1.
</event>
<event>
 5   0  0.2462055E-03  0.1346107E+04  0.7818609E-02  0.8993780E-01
       -1   -1    0    0    0  501  0.00000000000E+00  0.00000000000E+00  0.22842130652E+03  0.22842130657E+03  0.50400001928E-02 0.  1.
        1   -1    0    0  501    0  0.00000000000E+00  0.00000000000E+00 -0.19831812107E+04  0.19831812107E+04  0.50400001928E-02 0. -1.
    10030    2    1    2    0    0  0.00000000000E+00  0.00000000000E+00 -0.17547599041E+04  0.22116025172E+04  0.13461067465E+04 0.  0.
        2    1    3    3  502    0  0.21413446752E+03 -0.56119619270E+03 -0.37848694522E+03  0.70996274874E+03  0.25500000920E-02 0.  1.
       -2    1    3    3    0  502 -0.21413446752E+03  0.56119619270E+03 -0.13762729589E+04  0.15016397685E+04  0.25500000920E-02 0. -1.
</event>
<event>
 5   0  0.4388937E-03  0.1183644E+04  0.7818609E-02  0.9127295E-01
       -2   -1    0    0    0  501  0.00000000000E+00  0.00000000000E+00  0.43794171219E+03  0.43794171220E+03  0.25500000920E-02 0. -1.
        2   -1    0    0  501    0  0.00000000000E+00  0.00000000000E+00 -0.79977152950E+03  0.79977152950E+03  0.25500000920E-02 0.  1.
    10030    2    1    2    0    0  0.00000000000E+00  0.00000000000E+00 -0.36182981731E+03  0.12377132417E+04  0.11836440563E+04 0.  0.
        5    1    3    3  502    0  0.24112693888E+03  0.63781384310E+02  0.38027643116E+03  0.45479942802E+03  0.46999998093E+01 0. -1.
       -5    1    3    3    0  502 -0.24112693888E+03 -0.63781384310E+02 -0.74210624847E+03  0.78291381368E+03  0.46999998093E+01 0.  1.
</event>
<event>
 5   0  0.4306214E-03  0.1294584E+04  0.7818609E-02  0.9033871E-01
        2   -1    0    0  501    0  0.00000000000E+00  0.00000000000E+00  0.92639620895E+03  0.92639620895E+03  0.25500000920E-02 0. -1.
       -2   -1    0    0    0  501  0.00000000000E+00  0.00000000000E+00 -0.45227628498E+03  0.45227628499E+03  0.25500000920E-02 0.  1.
    10030    2    1    2    0    0  0.00000000000E+00  0.00000000000E+00  0.47411992396E+03  0.13786724939E+04  0.12945841584E+04 0.  0.
        3    1    3    3  502    0  0.21523873065E+03 -0.28282956241E+03  0.81318601826E+03  0.88746367984E+03  0.10100000352E+00 0. -1.
       -3    1    3    3    0  502 -0.21523873065E+03  0.28282956241E+03 -0.33906609429E+03  0.49120881410E+03  0.10100000352E+00 0.  1.
</event>
<event>
 5   0  0.1661750E-03  0.1311964E+04  0.7818609E-02  0.9020131E-01
       -4   -1    0    0    0  501  0.00000000000E+00  0.00000000000E+00  0.31100159451E+03  0.31100418757E+03  0.12699999809E+01 0. -1.
        4   -1    0    0  501    0  0.00000000000E+00  0.00000000000E+00 -0.13836246812E+04  0.13836252641E+04  0.12699999809E+01 0.  1.
    10030    2    1    2    0    0  0.00000000000E+00  0.00000000000E+00 -0.10726230867E+04  0.16946294517E+04  0.13119636779E+04 0.  0.
        2    1    3    3  502    0 -0.17635731377E+03  0.62998402980E+03 -0.59866600503E+03  0.88678225372E+03  0.25500000920E-02 0.  1.
       -2    1    3    3    0  502  0.17635731377E+03 -0.62998402980E+03 -0.47395708171E+03  0.80784719795E+03  0.25500000920E-02 0. -1.
</event>
<event>
 5   0  0.2356769E-03  0.1289880E+04  0.7818609E-02  0.9037629E-01
        1   -1    0    0  501    0  0.00000000000E+00  0.00000000000E+00  0.99330989383E+03  0.99330989384E+03  0.50400001928E-02 0. -1.
       -1   -1    0    0    0  501  0.00000000000E+00  0.00000000000E+00 -0.41874901099E+03  0.41874901102E+03  0.50400001928E-02 0.  1.
    10030    2    1    2    0    0  0.00000000000E+00  0.00000000000E+00  0.57456088284E+03  0.14120589049E+04  0.12898798947E+04 0.  0.
        1    1    3    3  502    0 -0.24258235528E+03 -0.57827953599E+03  0.45219544338E+03  0.77313267935E+03  0.50400001928E-02 0. -1.
       -1    1    3    3    0  502  0.24258235528E+03  0.57827953599E+03  0.12236543946E+03  0.63892622551E+03  0.50400001928E-02 0.  1.
</event>
<event>
 5   0  0.2458456E-03  0.1295532E+04  0.7818609E-02  0.9033116E-01
       -1   -1    0    0    0  501  0.00000000000E+00  0.00000000000E+00  0.32637966689E+03  0.32637966693E+03  0.50400001928E-02 0. -1.
        1   -1    0    0  501    0  0.00000000000E+00  0.00000000000E+00 -0.12856213863E+04  0.12856213863E+04  0.50400001928E-02 0.  1.
    10030    2    1    2    0    0  0.00000000000E+00  0.00000000000E+00 -0.95924171942E+03  0.16120010532E+04  0.12955318288E+04 0.  0.
        5    1    3    3  502    0 -0.18415131769E+03 -0.45941464311E+03 -0.99955179263E+03  0.11153920379E+04  0.46999998093E+01 0.  1.
       -5    1    3    3    0  502  0.18415131769E+03  0.45941464311E+03  0.40310073207E+02  0.49660901533E+03  0.46999998093E+01 0. -1.
</event>
<event>
 5   0  0.2458456E-03  0.1302433E+04  0.7818609E-02  0.9027638E-01
       -1   -1    0    0    0  501  0.00000000000E+00  0.00000000000E+00  0.24892100988E+03  0.24892100993E+03  0.50400001928E-02 0.  1.
        1   -1    0    0  501    0  0.00000000000E+00  0.00000000000E+00 -0.17036839199E+04  0.17036839199E+04  0.50400001928E-02 0. -1.
    10030    2    1    2    0    0  0.00000000000E+00  0.00000000000E+00 -0.14547629100E+04  0.19526049298E+04  0.13024326807E+04 0.  0.
        5    1    3    3  502    0 -0.45387792497E+03  0.11613855728E+03 -0.14054556225E+04  0.14814928053E+04  0.46999998093E+01 0. -1.
       -5    1    3    3    0  502  0.45387792497E+03 -0.11613855728E+03 -0.49307287457E+02  0.47111212451E+03  0.46999998093E+01 0.  1.
</event>
<event>
 5   0  0.1661750E-03  0.1328581E+04  0.7818609E-02  0.9007202E-01
        3   -1    0    0  501    0  0.00000000000E+00  0.00000000000E+00  0.22715694510E+04  0.22715694532E+04  0.10100000352E+00 0.  1.
       -3   -1    0    0    0  501  0.00000000000E+00  0.00000000000E+00 -0.19426299608E+03  0.19426302233E+03  0.10100000352E+00 0. -1.
    10030    2    1    2    0    0  0.00000000000E+00  0.00000000000E+00  0.20773064549E+04  0.24658324755E+04  0.13285810814E+04 0.  0.
        5    1    3    3  502    0  0.30419029051E+03 -0.11930961275E+03  0.21120720984E+04  0.21372031151E+04  0.46999998093E+01 0.  1.
       -5    1    3    3    0  502 -0.30419029051E+03  0.11930961275E+03 -0.34765643531E+02  0.32862936038E+03  0.46999998093E+01 0. -1.
</event>
<event>
 5   0  0.4453011E-03  0.1294073E+04  0.7818609E-02  0.9034278E-01
       -2   -1    0    0    0  501  0.00000000000E+00  0.00000000000E+00  0.37714266338E+03  0.37714266339E+03  0.25500000920E-02 0. -1.
        2   -1    0    0  501    0  0.00000000000E+00  0.00000000000E+00 -0.11100745843E+04  0.11100745843E+04  0.25500000920E-02 0.  1.
    10030    2    1    2    0    0  0.00000000000E+00  0.00000000000E+00 -0.73293192094E+03  0.14872172477E+04  0.12940733909E+04 0.  0.
        1    1    3    3  502    0  0.33924693587E+02  0.28528681115E+02  0.37539571985E+03  0.37800359388E+03  0.50400001928E-02 0. -1.
       -1    1    3    3    0  502 -0.33924693587E+02 -0.28528681115E+02 -0.11083276408E+04  0.11092136538E+04  0.50400001928E-02 0.  1.
</event>
<event>
 5   0  0.4453011E-03  0.1323761E+04  0.7818609E-02  0.9010932E-01
       -2   -1    0    0    0  501  0.00000000000E+00  0.00000000000E+00  0.43714624980E+03  0.43714624981E+03  0.25500000920E-02 0.  1.
        2   -1    0    0  501    0  0.00000000000E+00  0.00000000000E+00 -0.10021487913E+04  0.10021487913E+04  0.25500000920E-02 0. -1.
    10030    2    1    2    0    0  0.00000000000E+00  0.00000000000E+00 -0.56500254153E+03  0.14392950411E+04  0.13237606821E+04 0.  0.
        1    1    3    3  502    0 -0.27836135710E+03  0.77363155294E+02 -0.92997059635E+03  0.97381487615E+03  0.50400001928E-02 0. -1.
       -1    1    3    3    0  502  0.27836135710E+03 -0.77363155294E+02  0.36496805482E+03  0.46548016498E+03  0.50400001928E-02 0.  1.
</event>
<event>
 5   0  0.2511542E-03  0.1321877E+04  0.7818609E-02  0.9012394E-01
       -1   -1    0    0    0  501  0.00000000000E+00  0.00000000000E+00  0.50439498859E+03  0.50439498861E+03  0.50400001928E-02 0.  1.
        1   -1    0    0  501    0  0.00000000000E+00  0.00000000000E+00 -0.86606617276E+03  0.86606617278E+03  0.50400001928E-02 0. -1.
    10030    2    1    2    0    0  0.00000000000E+00  0.00000000000E+00 -0.36167118418E+03  0.13704611614E+04  0.13218766014E+04 0.  0.
        4    1    3    3  502    0  0.90335504703E+02 -0.64075385729E+03 -0.32036212694E+03  0.72205229335E+03  0.12699999809E+01 0. -1.
       -4    1    3    3    0  502 -0.90335504703E+02  0.64075385729E+03 -0.41309057235E+02  0.64840886804E+03  0.12699999809E+01 0.  1.
</event>
<event>
 5   0  0.4263540E-03  0.1314348E+04  0.7818609E-02  0.9018264E-01
        2   -1    0    0  501    0  0.00000000000E+00  0.00000000000E+00  0.54475186877E+03  0.54475186878E+03  0.25500000920E-02 0.  1.
       -2   -1    0    0    0  501  0.00000000000E+00  0.00000000000E+00 -0.79279701638E+03  0.79279701638E+03  0.25500000920E-02 0. -1.
    10030    2    1    2    0    0  0.00000000000E+00  0.00000000000E+00 -0.24804514761E+03  0.13375488852E+04  0.13143479847E+04 0.  0.
        2    1    3    3  502    0 -0.13910558860E+03 -0.52603093428E+03  0.25101878278E+03  0.59922394638E+03  0.25500000920E-02 0.  1.
       -2    1    3    3    0  502  0.13910558860E+03  0.52603093428E+03 -0.49906393039E+03  0.73832493878E+03  0.25500000920E-02 0. -1.
</event>
<event>
 5   0  0.1661750E-03  0.1260945E+04  0.7818609E-02  0.9061123E-01
        3   -1    0    0  501    0  0.00000000000E+00  0.00000000000E+00  0.44059823846E+03  0.44059825004E+03  0.10100000352E+00 0. -1.
       -3   -1    0    0    0  501  0.00000000000E+00  0.00000000000E+00 -0.90217253378E+03  0.90217253944E+03  0.10100000352E+00 0.  1.
    10030    2    1    2    0    0  0.00000000000E+00  0.00000000000E+00 -0.46157429532E+03  0.13427707895E+04  0.12609451070E+04 0.  0.
        2    1    3    3  502    0  0.52290274179E+03 -0.85583555934E+02 -0.59463737541E+03  0.79645805330E+03  0.25500000920E-02 0.  1.
       -2    1    3    3    0  502 -0.52290274179E+03  0.85583555934E+02  0.13306308009E+03  0.54631273618E+03  0.25500000920E-02 0. -1.
</event>
<event>
 5   0  0.4388937E-03  0.7836010E+03  0.7818609E-02  0.9584062E-01
        2   -1    0    0  501    0  0.00000000000E+00  0.00000000000E+00  0.34400847969E+03  0.34400847969E+03  0.25500000920E-02 0.  1.
       -2   -1    0    0    0  501  0.00000000000E+00  0.00000000000E+00 -0.44623210867E+03  0.44623210868E+03  0.25500000920E-02 0. -1.
    10030    2    1    2    0    0  0.00000000000E+00  0.00000000000E+00 -0.10222362899E+03  0.79024058837E+03  0.78360099361E+03 0.  0.
        5    1    3    3  502    0 -0.13225296760E+03 -0.87169168649E+02  0.31024852589E+03  0.34837558642E+03  0.46999998093E+01 0.  1.
       -5    1    3    3    0  502  0.13225296760E+03  0.87169168649E+02 -0.41247215488E+03  0.44186500195E+03  0.46999998093E+01 0. -1.
</event>
<event>
 5   0  0.4388937E-03  0.1294613E+04  0.7818609E-02  0.9033848E-01
        2   -1    0    0  501    0  0.00000000000E+00  0.00000000000E+00  0.72571057485E+03  0.72571057485E+03  0.25500000920E-02 0.  1.
       -2   -1    0    0    0  501  0.00000000000E+00  0.00000000000E+00 -0.57737281906E+03  0.57737281906E+03  0.25500000920E-02 0. -1.
    10030    2    1    2    0    0  0.00000000000E+00  0.00000000000E+00  0.14833775579E+03  0.13030833939E+04  0.12946127767E+04 0.  0.
        5    1    3    3  502    0 -0.23079116169E+03 -0.59364583894E+03 -0.41926715573E+02  0.63832584303E+03  0.46999998093E+01 0. -1.
       -5    1    3    3    0  502  0.23079116169E+03  0.59364583894E+03  0.19026447137E+03  0.66475755089E+03  0.46999998093E+01 0.  1.
</event>
<event>
 5   0  0.2356769E-03  0.1295755E+04  0.7818609E-02  0.9032938E-01
        1   -1    0    0  501    0  0.00000000000E+00  0.00000000000E+00  0.94719213447E+03  0.94719213449E+03  0.50400001928E-02 0.  1.
       -1   -1    0    0    0  501  0.00000000000E+00  0.00000000000E+00 -0.44314718439E+03  0.44314718442E+03  0.50400001928E-02 0. -1.
    10030    2    1    2    0    0  0.00000000000E+00  0.00000000000E+00  0.50404495008E+03  0.13903393189E+04  0.12957554206E+04 0.  0.
        1    1    3    3  502    0  0.46666693053E+03  0.39214193229E+03  0.16470806772E+02  0.60977422593E+03  0.50400001928E-02 0.  1.
       -1    1    3    3    0  502 -0.46666693053E+03 -0.39214193229E+03  0.48757414331E+03  0.78056509297E+03  0.50400001928E-02 0. -1.
</event>
<event>
 5   0  0.2511542E-03  0.1318665E+04  0.7818609E-02  0.9014893E-01
        1   -1    0    0  501    0  0.00000000000E+00  0.00000000000E+00  0.21801650331E+03  0.21801650337E+03  0.50400001928E-02 0. -1.
       -1   -1    0    0    0  501  0.00000000000E+00  0.00000000000E+00 -0.19939740125E+04  0.19939740126E+04  0.50400001928E-02 0.  1.
    10030    2    1    2    0    0  0.00000000000E+00  0.00000000000E+00 -0.17759575092E+04  0.22119905159E+04  0.13186648429E+04 0.  0.
        4    1    3    3  502    0 -0.58491584184E+03  0.26386500624E+03 -0.63376749640E+03  0.90189474771E+03  0.12699999809E+01 0.  1.
       -4    1    3    3    0  502  0.58491584184E+03 -0.26386500624E+03 -0.11421900128E+04  0.13100957682E+04  0.12699999809E+01 0. -1.
</event>
<event>
 5   0  0.4306214E-03  0.1286869E+04  0.7818609E-02  0.9040044E-01
       -2   -1    0    0    0  501  0.00000000000E+00  0.00000000000E+00  0.21081102000E+03  0.21081102001E+03  0.25500000920E-02 0.  1.
        2   -1    0    0  501    0  0.00000000000E+00  0.00000000000E+00 -0.19638816416E+04  0.19638816416E+04  0.25500000920E-02 0. -1.
    10030    2    1    2    0    0  0.00000000000E+00  0.00000000000E+00 -0.17530706216E+04  0.21746926616E+04  0.12868689009E+04 0.  0.
        3    1    3    3  502    0 -0.25557770224E+03 -0.14039351283E+03 -0.18458096943E+04  0.18687010831E+04  0.10100000352E+00 0. -1.
       -3    1    3    3    0  502  0.25557770224E+03  0.14039351283E+03  0.92739072658E+02  0.30599157852E+03  0.10100000352E+00 0.  1.
</event>
<event>
 5   0  0.4453011E-03  0.1314461E+04  0.7818609E-02  0.9018175E-01
       -2   -1    0    0    0  501  0.00000000000E+00  0.00000000000E+00  0.35929067872E+03  0.35929067873E+03  0.25500000920E-02 0. -1.
        2   -1    0    0  501    0  0.00000000000E+00  0.00000000000E+00 -0.12022358396E+04  0.12022358396E+04  0.25500000920E-02 0.  1.
    10030    2    1    2    0    0  0.00000000000E+00  0.00000000000E+00 -0.84294516088E+03  0.15615265183E+04  0.13144613053E+04 0.  0.
        1    1    3    3  502    0 -0.39094041044E+03  0.48983731666E+02 -0.10463869546E+04  0.11181053033E+04  0.50400001928E-02 0.  1.
       -1    1    3    3    0  502  0.39094041044E+03 -0.48983731666E+02  0.20344179372E+03  0.44342121503E+03  0.50400001928E-02 0. -1.
</event>
<event>
 5   0  0.4388937E-03  0.1342961E+04  0.7818609E-02  0.8996173E-01
       -2   -1    0    0    0  501  0.00000000000E+00  0.00000000000E+00  0.16795135914E+03  0.16795135916E+03  0.25500000920E-02 0. -1.
        2   -1    0    0  501    0  0.00000000000E+00  0.00000000000E+00 -0.26846239525E+04  0.26846239525E+04  0.25500000920E-02 0.  1.
    10030    2    1    2    0    0  0.00000000000E+00  0.00000000000E+00 -0.25166725934E+04  0.28525753117E+04  0.13429612677E+04 0.  0.
        5    1    3    3  502    0  0.38610858643E+03 -0.43282998904E+03 -0.19769033857E+04  0.20602404535E+04  0.46999998093E+01 0.  1.
       -5    1    3    3    0  502 -0.38610858643E+03  0.43282998904E+03 -0.53976920771E+03  0.79233485820E+03  0.46999998093E+01 0. -1.
</event>
<event>
 5   0  0.1661750E-03  0.1287352E+04  0.7818609E-02  0.9039655E-01
        4   -1    0    0  501    0  0.00000000000E+00  0.00000000000E+00  0.63557678921E+03  0.63557805806E+03  0.12699999809E+01 0.  1.
       -4   -1    0    0    0  501  0.00000000000E+00  0.00000000000E+00 -0.65187618589E+03  0.65187742301E+03  0.12699999809E+01 0. -1.
    10030    2    1    2    0    0  0.00000000000E+00  0.00000000000E+00 -0.16299396680E+02  0.12874554811E+04  0.12873523004E+04 0.  0.
        4    1    3    3  502    0  0.15963509133E+03 -0.38514554432E+03  0.48229446129E+03  0.63751863737E+03  0.12699999809E+01 0.  1.
       -4    1    3    3    0  502 -0.15963509133E+03  0.38514554432E+03 -0.49859385797E+03  0.64993684370E+03  0.12699999809E+01 0. -1.
</event>
<event>
 5   0  0.4306214E-03  0.1345908E+04  0.7818609E-02  0.8993931E-01
        2   -1    0    0  501    0  0.00000000000E+00  0.00000000000E+00  0.61740502774E+03  0.61740502774E+03  0.25500000920E-02 0.  1.
       -2   -1    0    0    0  501  0.00000000000E+00  0.00000000000E+00 -0.73350113435E+03  0.73350113436E+03  0.25500000920E-02 0. -1.
    10030    2    1    2    0    0  0.00000000000E+00  0.00000000000E+00 -0.11609610662E+03  0.13509061621E+04  0.13459083003E+04 0.  0.
        3    1    3    3  502    0  0.64911419518E+03 -0.16461148762E+03  0.86901899379E+01  0.66971763441E+03  0.10100000352E+00 0. -1.
       -3    1    3    3    0  502 -0.64911419518E+03  0.16461148762E+03 -0.12478629655E+03  0.68118852769E+03  0.10100000352E+00 0.  1.
</event>
<event>
 5   0  0.4310889E-03  0.1166209E+04  0.7818609E-02  0.9142959E-01
       -2   -1    0    0    0  501  0.00000000000E+00  0.00000000000E+00  0.63708538805E+03  0.63708538805E+03  0.25500000920E-02 0.  1.
        2   -1    0    0  501    0  0.00000000000E+00  0.00000000000E+00 -0.53369783267E+03  0.53369783268E+03  0.25500000920E-02 0. -1.
    10030    2    1    2    0    0  0.00000000000E+00  0.00000000000E+00  0.10338755538E+03  0.11707832207E+04  0.11662093994E+04 0.  0.
        4    1    3    3  502    0 -0.10093969351E+02  0.52085740554E+02  0.63465584926E+03  0.63687084443E+03  0.12699999809E+01 0.  1.
       -4    1    3    3    0  502  0.10093969351E+02 -0.52085740554E+02 -0.53126829388E+03  0.53391237630E+03  0.12699999809E+01 0. -1.
</event>
<event>
 5   0  0.2458456E-03  0.1324214E+04  0.7818609E-02  0.9010580E-01
       -1   -1    0    0    0  501  0.00000000000E+00  0.00000000000E+00  0.15909371588E+03  0.15909371596E+03  0.50400001928E-02 0. -1.
        1   -1    0    0  501    0  0.00000000000E+00  0.00000000000E+00 -0.27555202496E+04  0.27555202496E+04  0.50400001928E-02 0.  1.
    10030    2    1    2    0    0  0.00000000000E+00  0.00000000000E+00 -0.25964265337E+04  0.29146139656E+04  0.13242144174E+04 0.  0.
        5    1    3    3  502    0 -0.10830423412E+03  0.10042661421E+03 -0.27187600634E+04  0.27227731606E+04  0.46999998093E+01 0.  1.
       -5    1    3    3    0  502  0.10830423412E+03 -0.10042661421E+03  0.12233352966E+03  0.19184080495E+03  0.46999998093E+01 0. -1.
</event>
<event>
 5   0  0.4306214E-03  0.1330850E+04  0.7818609E-02  0.9005452E-01
        2   -1    0    0  501    0  0.00000000000E+00  0.00000000000E+00  0.10793753866E+04  0.10793753866E+04  0.25500000920E-02 0. -1.
       -2   -1    0    0    0  501  0.00000000000E+00  0.00000000000E+00 -0.41022846829E+03  0.41022846830E+03  0.25500000920E-02 0.  1.
    10030    2    1    2    0    0  0.00000000000E+00  0.00000000000E+00  0.66914691831E+03  0.14896038549E+04  0.13308501216E+04 0.  0.
        3    1    3    3  502    0 -0.47527867717E+02  0.56540883186E+03 -0.54520962448E+02  0.57001630758E+03  0.10100000352E+00 0.  1.
       -3    1    3    3    0  502  0.47527867717E+02 -0.56540883186E+03  0.72366788076E+03  0.91958754733E+03  0.10100000352E+00 0. -1.
</event>
<event>
 5   0  0.4310889E-03  0.1276897E+04  0.7818609E-02  0.9048089E-01
        2   -1    0    0  501    0  0.00000000000E+00  0.00000000000E+00  0.41884956387E+03  0.41884956387E+03  0.25500000920E-02 0. -1.
       -2   -1    0    0    0  501  0.00000000000E+00  0.00000000000E+00 -0.97318165264E+03  0.97318165265E+03  0.25500000920E-02 0.  1.
    10030    2    1    2    0    0  0.00000000000E+00  0.00000000000E+00 -0.55433208878E+03  0.13920312165E+04  0.12768973503E+04 0.  0.
        4    1    3    3  502    0 -0.51292075170E+03  0.34518423345E+03 -0.45082537138E+03  0.76516990331E+03  0.12699999809E+01 0. -1.
       -4    1    3    3    0  502  0.51292075170E+03 -0.34518423345E+03 -0.10350671740E+03  0.62686131321E+03  0.12699999809E+01 0.  1.
</event>
<event>
 5   0  0.4453011E-03  0.1284170E+04  0.7818609E-02  0.9042214E-01
        2   -1    0    0  501    0  0.00000000000E+00  0.00000000000E+00  0.89114809052E+03  0.89114809052E+03  0.25500000920E-02 0.  1.
       -2   -1    0    0    0  501  0.00000000000E+00  0.00000000000E+00 -0.46263126355E+03  0.46263126355E+03  0.25500000920E-02 0. -1.
    10030    2    1    2    0    0  0.00000000000E+00  0.00000000000E+00  0.42851682698E+03  0.13537793541E+04  0.12841697195E+04 0.  0.
        1    1    3    3  502    0  0.53321727706E+03 -0.34403294303E+03  0.31751484087E+03  0.70957381903E+03  0.50400001928E-02 0.  1.
       -1    1    3    3    0  502 -0.53321727706E+03  0.34403294303E+03  0.11100198610E+03  0.64420553505E+03  0.50400001928E-02 0. -1.
</event>
<event>
 5   0  0.2511542E-03  0.1280840E+04  0.7818609E-02  0.9044898E-01
       -1   -1    0    0    0  501  0.00000000000E+00  0.00000000000E+00  0.53037621634E+03  0.53037621637E+03  0.50400001928E-02 0. -1.
        1   -1    0    0  501    0  0.00000000000E+00  0.00000000000E+00 -0.77329653121E+03  0.77329653122E+03  0.50400001928E-02 0.  1.
    10030    2    1    2    0    0  0.00000000000E+00  0.00000000000E+00 -0.24292031486E+03  0.13036727476E+04  0.12808404871E+04 0.  0.
        4    1    3    3  502    0  0.57236278105E+03  0.19641301407E+03  0.91941937317E+02  0.61207202025E+03  0.12699999809E+01 0.  1.
       -4    1    3    3    0  502 -0.57236278105E+03 -0.19641301407E+03 -0.33486225218E+03  0.69160072734E+03  0.12699999809E+01 0. -1.
</event>
<event>
 5   0  0.4306214E-03  0.1300076E+04  0.7818609E-02  0.9029505E-01
       -2   -1    0    0    0  501  0.00000000000E+00  0.00000000000E+00  0.31416486995E+03  0.31416486996E+03  0.25500000920E-02 0. -1.
        2   -1    0    0  501    0  0.00000000000E+00  0.00000000000E+00 -0.13449932091E+04  0.13449932091E+04  0.25500000920E-02 0.  1.
    10030    2    1    2    0    0  0.00000000000E+00  0.00000000000E+00 -0.10308283392E+04  0.16591580791E+04  0.13000763310E+04 0.  0.
        3    1    3    3  502    0  0.52206142202E+03  0.29573992839E+03 -0.19626356220E+03  0.63129203199E+03  0.10100000352E+00 0. -1.
       -3    1    3    3    0  502 -0.52206142202E+03 -0.29573992839E+03 -0.83456477696E+03  0.10278660471E+04  0.10100000352E+00 0.  1.
</event>
<event>
 5   0  0.4388937E-03  0.1270647E+04  0.7818609E-02  0.9053171E-01
        2   -1    0    0  501    0  0.00000000000E+00  0.00000000000E+00  0.38549904901E+03  0.38549904902E+03  0.25500000920E-02 0.  1.
       -2   -1    0    0    0  501  0.00000000000E+00  0.00000000000E+00 -0.10470485415E+04  0.10470485415E+04  0.25500000920E-02 0. -1.
    10030    2    1    2    0    0  0.00000000000E+00  0.00000000000E+00 -0.66154949249E+03  0.14325475905E+04  0.12706474208E+04 0.  0.
        5    1    3    3  502    0  0.31899097729E+03  0.45105660547E+03  0.22893934838E+02  0.55294984147E+03  0.46999998093E+01 0.  1.
       -5    1    3    3    0  502 -0.31899097729E+03 -0.45105660547E+03 -0.68444342733E+03  0.87959774905E+03  0.46999998093E+01 0. -1.
</event>
<event>
 5   0  0.2370801E-03  0.1289511E+04  0.7818609E-02  0.9037925E-01
       -1   -1    0    0    0  501  0.00000000000E+00  0.00000000000E+00  0.49141441230E+03  0.49141441233E+03  0.50400001928E-02 0. -1.
        1   -1    0    0  501    0  0.00000000000E+00  0.00000000000E+00 -0.84594477769E+03  0.84594477770E+03  0.50400001928E-02 0.  1.
    10030    2    1    2    0    0  0.00000000000E+00  0.00000000000E+00 -0.35453036539E+03  0.13373591900E+04  0.12895106914E+04 0.  0.
        3    1    3    3  502    0  0.47733897480E+03 -0.34886024595E+02 -0.62531404825E+03  0.78745615796E+03  0.10100000352E+00 0.  1.
       -3    1    3    3    0  502 -0.47733897480E+03  0.34886024595E+02  0.27078368286E+03  0.54990303207E+03  0.10100000352E+00 0. -1.
</event>
<event>
 5   0  0.1661750E-03  0.1229664E+04  0.7818609E-02  0.9087280E-01
        3   -1    0    0  501    0  0.00000000000E+00  0.00000000000E+00  0.76110323623E+03  0.76110324293E+03  0.10100000352E+00 0.  1.
       -3   -1    0    0    0  501  0.00000000000E+00  0.00000000000E+00 -0.49667186571E+03  0.49667187598E+03  0.10100000352E+00 0. -1.
    10030    2    1    2    0    0  0.00000000000E+00  0.00000000000E+00  0.26443137052E+03  0.12577751189E+04  0.12296643038E+04 0.  0.
        1    1    3    3  502    0  0.13000817443E+03 -0.40713861505E+03  0.58430917360E+03  0.72393451891E+03  0.50400001928E-02 0.  1.
       -1    1    3    3    0  502 -0.13000817443E+03  0.40713861505E+03 -0.31987780308E+03  0.53384060001E+03  0.50400001928E-02 0. -1.
</event>
<event>
 5   0  0.2511542E-03  0.1251455E+04  0.7818609E-02  0.9068973E-01
       -1   -1    0    0    0  501  0.00000000000E+00  0.00000000000E+00  0.77591066511E+03  0.77591066512E+03  0.50400001928E-02 0. -1.
        1   -1    0    0  501    0  0.00000000000E+00  0.00000000000E+00 -0.50461360670E+03  0.50461360672E+03  0.50400001928E-02 0.  1.
    10030    2    1    2    0    0  0.00000000000E+00  0.00000000000E+00  0.27129705841E+03  0.12805242718E+04  0.12514552796E+04 0.  0.
        4    1    3    3  502    0  0.77268279361E+01  0.19646116539E+03 -0.47218410935E+03  0.51148425137E+03  0.12699999809E+01 0.  1.
       -4    1    3    3    0  502 -0.77268279361E+01 -0.19646116539E+03  0.74348116776E+03  0.76904002048E+03  0.12699999809E+01 0. -1.
</event>
<event>
 5   0  0.4310889E-03  0.1265227E+04  0.7818609E-02  0.9057604E-01
        2   -1    0    0  501    0  0.00000000000E+00  0.00000000000E+00  0.72040820774E+03  0.72040820774E+03  0.25500000920E-02 0.  1.
       -2   -1    0    0    0  501  0.00000000000E+00  0.00000000000E+00 -0.55551794692E+03  0.55551794693E+03  0.25500000920E-02 0. -1.
    10030    2    1    2    0    0  0.00000000000E+00  0.00000000000E+00  0.16489026081E+03  0.12759261547E+04  0.12652267599E+04 0.  0.
        4    1    3    3  502    0 -0.41832805248E+03  0.42641998720E+01 -0.39610072207E+03  0.57611972525E+03  0.12699999809E+01 0. -1.
       -4    1    3    3    0  502  0.41832805248E+03 -0.42641998720E+01  0.56099098288E+03  0.69980642943E+03  0.12699999809E+01 0.  1.
</event>
<event>
 5   0  0.2370801E-03  0.1317388E+04  0.7818609E-02  0.9015889E-01
        1   -1    0    0  501    0  0.00000000000E+00  0.00000000000E+00  0.37276566573E+03  0.37276566577E+03  0.50400001928E-02 0.  1.
       -1   -1    0    0    0  501  0.00000000000E+00  0.00000000000E+00 -0.11639419619E+04  0.11639419619E+04  0.50400001928E-02 0. -1.
    10030    2    1    2    0    0  0.00000000000E+00  0.00000000000E+00 -0.79117629614E+03  0.15367076276E+04  0.13173877187E+04 0.  0.
        3    1    3    3  502    0  0.19982169397E+03 -0.48188114135E+03 -0.86470994550E+03  0.10098818960E+04  0.10100000352E+00 0. -1.
       -3    1    3    3    0  502 -0.19982169397E+03  0.48188114135E+03  0.73533649360E+02  0.52682573168E+03  0.10100000352E+00 0.  1.
</event>
<event>
 5   0  0.4388937E-03  0.1288157E+04  0.7818609E-02  0.9039010E-01
       -2   -1    0    0    0  501  0.00000000000E+00  0.00000000000E+00  0.56445065526E+03  0.56445065526E+03  0.25500000920E-02 0. -1.
        2   -1    0    0  501    0  0.00000000000E+00  0.00000000000E+00 -0.73493932211E+03  0.73493932211E+03  0.25500000920E-02 0.  1.
    10030    2    1    2    0    0  0.00000000000E+00  0.00000000000E+00 -0.17048866685E+03  0.12993899774E+04  0.12881567947E+04 0.  0.
        5    1    3    3  502    0 -0.45313480545E+03  0.35481539244E+03 -0.37688452045E+03  0.68796013430E+03  0.46999998093E+01 0.  1.
       -5    1    3    3    0  502  0.45313480545E+03 -0.35481539244E+03  0.20639585360E+03  0.61142984308E+03  0.46999998093E+01 0. -1.
</event>
<event>
 5   0  0.4263540E-03  0.9300005E+03  0.7818609E-02  0.9388837E-01
        2   -1    0    0  501    0  0.00000000000E+00  0.00000000000E+00  0.47192615194E+03  0.47192615195E+03  0.25500000920E-02 0.  1.
       -2   -1    0    0    0  501  0.00000000000E+00  0.00000000000E+00 -0.45817597070E+03  0.45817597071E+03  0.25500000920E-02 0. -1.
    10030    2    1    2    0    0  0.00000000000E+00  0.00000000000E+00  0.13750181240E+02  0.93010212266E+03  0.93000047908E+03 0.  0.
        2    1    3    3  502    0 -0.92004110433E+01 -0.56963992738E+02 -0.45458153548E+03  0.45822910911E+03  0.25500000920E-02 0. -1.
       -2    1    3    3    0  502  0.92004110433E+01  0.56963992738E+02  0.46833171672E+03  0.47187301355E+03  0.25500000920E-02 0.  1.
</event>
<event>
 5   0  0.4388937E-03  0.1842083E+04  0.7818609E-02  0.8684235E-01
       -2   -1    0    0    0  501  0.00000000000E+00  0.00000000000E+00  0.41919899603E+03  0.41919899604E+03  0.25500000920E-02 0. -1.
        2   -1    0    0  501    0  0.00000000000E+00  0.00000000000E+00 -0.20236635187E+04  0.20236635187E+04  0.25500000920E-02 0.  1.
    10030    2    1    2    0    0  0.00000000000E+00  0.00000000000E+00 -0.16044645227E+04  0.24428625147E+04  0.18420832938E+04 0.  0.
        5    1    3    3  502    0 -0.43613977936E+03 -0.44109850462E+03  0.10062529011E+03  0.62843721797E+03  0.46999998093E+01 0.  1.
       -5    1    3    3    0  502  0.43613977936E+03  0.44109850462E+03 -0.17050898128E+04  0.18144252968E+04  0.46999998093E+01 0. -1.
</event>
<event>
 5   0  0.2370801E-03  0.8143944E+03  0.7818609E-02  0.9539412E-01
        1   -1    0    0  501    0  0.00000000000E+00  0.00000000000E+00  0.13946230055E+04  0.13946230055E+04  0.50400001928E-02 0. -1.
       -1   -1    0    0    0  501  0.00000000000E+00  0.00000000000E+00 -0.11889201501E+03  0.11889201512E+03  0.50400001928E-02 0.  1.
    10030    2    1    2    0    0  0.00000000000E+00  0.00000000000E+00  0.12757309905E+04  0.15135150207E+04  0.81439435018E+03 0.  0.
        3    1    3    3  502    0  0.19776445613E+03  0.18102248579E+03  0.12074435394E+04  0.12368507717E+04  0.10100000352E+00 0. -1.
       -3    1    3    3    0  502 -0.19776445613E+03 -0.18102248579E+03  0.68287451138E+02  0.27666424896E+03  0.10100000352E+00 0.  1.
</event>
<event>
 5   0  0.2511542E-03  0.1276690E+04  0.7818609E-02  0.9048257E-01
        1   -1    0    0  501    0  0.00000000000E+00  0.00000000000E+00  0.69501178751E+03  0.69501178752E+03  0.50400001928E-02 0.  1.
       -1   -1    0    0    0  501  0.00000000000E+00  0.00000000000E+00 -0.58629881498E+03  0.58629881501E+03  0.50400001928E-02 0. -1.
    10030    2    1    2    0    0  0.00000000000E+00  0.00000000000E+00  0.10871297252E+03  0.12813106025E+04  0.12766903892E+04 0.  0.
        4    1    3    3  502    0 -0.55193630956E+03 -0.63197217577E+02  0.36990709462E+03  0.66742823559E+03  0.12699999809E+01 0.  1.
       -4    1    3    3    0  502  0.55193630956E+03  0.63197217577E+02 -0.26119412210E+03  0.61388236694E+03  0.12699999809E+01 0. -1.
</event>
<event>
 5   0  0.4306214E-03  0.1343788E+04  0.7818609E-02  0.8995544E-01
       -2   -1    0    0    0  501  0.00000000000E+00  0.00000000000E+00  0.55689028147E+03  0.55689028148E+03  0.25500000920E-02 0. -1.
        2   -1    0    0  501    0  0.00000000000E+00  0.00000000000E+00 -0.81064701326E+03  0.81064701327E+03  0.25500000920E-02 0.  1.
    10030    2    1    2    0    0  0.00000000000E+00  0.00000000000E+00 -0.25375673179E+03  0.13675372947E+04  0.13437878455E+04 0.  0.
        3    1    3    3  502    0  0.78302127353E+02  0.62733375658E+03 -0.35841322012E+03  0.72673166427E+03  0.10100000352E+00 0.  1.
       -3    1    3    3    0  502 -0.78302127353E+02 -0.62733375658E+03  0.10465648833E+03  0.64080563047E+03  0.10100000352E+00 0. -1.
</event>
<event>
 5   0  0.2462055E-03  0.1255798E+04  0.7818609E-02  0.9065371E-01
       -1   -1    0    0    0  501  0.00000000000E+00  0.00000000000E+00  0.54498607358E+03  0.54498607360E+03  0.50400001928E-02 0. -1.
        1   -1    0    0  501    0  0.00000000000E+00  0.00000000000E+00 -0.72342632626E+03  0.72342632627E+03  0.50400001928E-02 0.  1.
    10030    2    1    2    0    0  0.00000000000E+00  0.00000000000E+00 -0.17844025268E+03  0.12684123999E+04  0.12557981894E+04 0.  0.
        2    1    3    3  502    0  0.34518805591E+02  0.26720943005E+03  0.48363186411E+03  0.55361738361E+03  0.25500000920E-02 0. -1.
       -2    1    3    3    0  502 -0.34518805591E+02 -0.26720943005E+03 -0.66207211679E+03  0.71479501627E+03  0.25500000920E-02 0.  1.
</event>
<event>
 5   0  0.4310889E-03  0.1283200E+04  0.7818609E-02  0.9042995E-01
       -2   -1    0    0    0  501  0.00000000000E+00  0.00000000000E+00  0.14464722859E+03  0.14464722861E+03  0.25500000920E-02 0. -1.
        2   -1    0    0  501    0  0.00000000000E+00  0.00000000000E+00 -0.28458944077E+04  0.28458944077E+04  0.25500000920E-02 0.  1.
    10030    2    1    2    0    0  0.00000000000E+00  0.00000000000E+00 -0.27012471791E+04  0.29905416363E+04  0.12832002789E+04 0.  0.
        4    1    3    3  502    0 -0.44904629059E+03 -0.21934982826E+03 -0.22883332299E+04  0.23422697330E+04  0.12699999809E+01 0.  1.
       -4    1    3    3    0  502  0.44904629059E+03  0.21934982826E+03 -0.41291394923E+03  0.64827190331E+03  0.12699999809E+01 0. -1.
</event>
<event>
 5   0  0.2511542E-03  0.1294991E+04  0.7818609E-02  0.9033547E-01
        1   -1    0    0  501    0  0.00000000000E+00  0.00000000000E+00  0.89999757325E+03  0.89999757326E+03  0.50400001928E-02 0. -1.
       -1   -1    0    0    0  501  0.00000000000E+00  0.00000000000E+00 -0.46583473430E+03  0.46583473433E+03  0.50400001928E-02 0.  1.
    10030    2    1    2    0    0  0.00000000000E+00  0.00000000000E+00  0.43416283894E+03  0.13658323076E+04  0.12949905489E+04 0.  0.
        4    1    3    3  502    0  0.72109360892E+02 -0.46400112450E+03 -0.25312247720E+03  0.53345047084E+03  0.12699999809E+01 0.  1.
       -4    1    3    3    0  502 -0.72109360892E+02  0.46400112450E+03  0.68728531615E+03  0.83238183676E+03  0.12699999809E+01 0. -1.
</event>
<event>
 5   0  0.2356769E-03  0.1310391E+04  0.7818609E-02  0.9021366E-01
        1   -1    0    0  501    0  0.00000000000E+00  0.00000000000E+00  0.20532916888E+04  0.20532916888E+04  0.50400001928E-02 0.  1.
       -1   -1    0    0    0  501  0.00000000000E+00  0.00000000000E+00 -0.20906959779E+03  0.20906959785E+03  0.50400001928E-02 0. -1.
    10030    2    1    2    0    0  0.00000000000E+00  0.00000000000E+00  0.18442220910E+04  0.22623612867E+04  0.13103905793E+04 0.  0.
        1    1    3    3  502    0 -0.16594787828E+03  0.65660150366E+02 -0.16629769587E+03  0.24393621570E+03  0.50400001928E-02 0. -1.
       -1    1    3    3    0  502  0.16594787828E+03 -0.65660150366E+02  0.20105197869E+04  0.20184250710E+04  0.50400001928E-02 0.  1.
</event>
<event>
 5   0  0.2458456E-03  0.1143238E+04  0.7818609E-02  0.9164044E-01
       -1   -1    0    0    0  501  0.00000000000E+00  0.00000000000E+00  0.22839663799E+03  0.22839663805E+03  0.50400001928E-02 0. -1.
        1   -1    0    0  501    0  0.00000000000E+00  0.00000000000E+00 -0.14306181049E+04  0.14306181049E+04  0.50400001928E-02 0.  1.
    10030    2    1    2    0    0  0.00000000000E+00  0.00000000000E+00 -0.12022214669E+04  0.16590147430E+04  0.11432381475E+04 0.  0.
        5    1    3    3  502    0 -0.39104973240E+03  0.23393845296E+03 -0.10034862413E+03  0.46662514864E+03  0.46999998093E+01 0. -1.
       -5    1    3    3    0  502  0.39104973240E+03 -0.23393845296E+03 -0.11018728428E+04  0.11923895943E+04  0.46999998093E+01 0.  1.
</event>
<event>
 5   0  0.2370801E-03  0.1292903E+04  0.7818609E-02  0.9035212E-01
       -1   -1    0    0    0  501  0.00000000000E+00  0.00000000000E+00  0.99836941723E+03  0.99836941724E+03  0.50400001928E-02 0. -1.
        1   -1    0    0  501    0  0.00000000000E+00  0.00000000000E+00 -0.41858230981E+03  0.41858230984E+03  0.50400001928E-02 0.  1.
    10030    2    1    2    0    0  0.00000000000E+00  0.00000000000E+00  0.57978710741E+03  0.14169517271E+04  0.12929033634E+04 0.  0.
        3    1    3    3  502    0  0.28036227999E+03 -0.24837542812E+03  0.86732938691E+03  0.94475056864E+03  0.10100000352E+00 0. -1.
       -3    1    3    3    0  502 -0.28036227999E+03  0.24837542812E+03 -0.28754227950E+03  0.47220115845E+03  0.10100000352E+00 0.  1.
</event>
<event>
 5   0  0.4263540E-03  0.1276787E+04  0.7818609E-02  0.9048179E-01
       -2   -1    0    0    0  501  0.00000000000E+00  0.00000000000E+00  0.24362616048E+03  0.24362616049E+03  0.25500000920E-02 0.  1.
        2   -1    0    0  501    0  0.00000000000E+00  0.00000000000E+00 -0.16728341134E+04  0.16728341134E+04  0.25500000920E-02 0. -1.
    10030    2    1    2    0    0  0.00000000000E+00  0.00000000000E+00 -0.14292079530E+04  0.19164602739E+04  0.12767868298E+04 0.  0.
        2    1    3    3  502    0 -0.35448122676E+03 -0.39101386547E+02  0.80162756121E+02  0.36552965137E+03  0.25500000920E-02 0.  1.
       -2    1    3    3    0  502  0.35448122676E+03  0.39101386547E+02 -0.15093707091E+04  0.15509306226E+04  0.25500000920E-02 0. -1.
</event>
<event>
 5   0  0.2511542E-03  0.1288161E+04  0.7818609E-02  0.9039007E-01
       -1   -1    0    0    0  501  0.00000000000E+00  0.00000000000E+00  0.51911635557E+03  0.51911635559E+03  0.50400001928E-02 0.  1.
        1   -1    0    0  501    0  0.00000000000E+00  0.00000000000E+00 -0.79912674102E+03  0.79912674104E+03  0.50400001928E-02 0. -1.
    10030    2    1    2    0    0  0.00000000000E+00  0.00000000000E+00 -0.28001038545E+03  0.13182430966E+04  0.12881611102E+04 0.  0.
        4    1    3    3  502    0 -0.22119089328E+03  0.34694788767E+03  0.36708634118E+03  0.55140932420E+03  0.12699999809E+01 0.  1.
       -4    1    3    3    0  502  0.22119089328E+03 -0.34694788767E+03 -0.64709672663E+03  0.76683377243E+03  0.12699999809E+01 0. -1.
</event>
<event>
 5   0  0.4306214E-03  0.1335950E+04  0.7818609E-02  0.9001532E-01
       -2   -1    0    0    0  501  0.00000000000E+00  0.00000000000E+00  0.16003702260E+04  0.16003702260E+04  0.25500000920E-02 0.  1.
        2   -1    0    0  501    0  0.00000000000E+00  0.00000000000E+00 -0.27880479370E+03  0.27880479372E+03  0.25500000920E-02 0. -1.
    10030    2    1    2    0    0  0.00000000000E+00  0.00000000000E+00  0.13215654323E+04  0.18791750197E+04  0.13359504343E+04 0.  0.
        3    1    3    3  502    0  0.80690074685E+01  0.50302629972E+03  0.12788804181E+04  0.13742764282E+04  0.10100000352E+00 0.  1.
       -3    1    3    3    0  502 -0.80690074685E+01 -0.50302629972E+03  0.42685014204E+02  0.50489859153E+03  0.10100000352E+00 0. -1.
</event>
<event>
 5   0  0.1661750E-03  0.1143619E+04  0.7818609E-02  0.9163691E-01
       -3   -1    0    0    0  501  0.00000000000E+00  0.00000000000E+00  0.13095295707E+04  0.13095295746E+04  0.10100000352E+00 0. -1.
        3   -1    0    0  501    0  0.00000000000E+00  0.00000000000E+00 -0.24968197693E+03  0.24968199736E+03  0.10100000352E+00 0.  1.
    10030    2    1    2    0    0  0.00000000000E+00  0.00000000000E+00  0.10598475938E+04  0.15592115720E+04  0.11436187320E+04 0.  0.
        3    1    3    3  502    0 -0.95208767567E+02  0.11447321325E+02  0.12984883774E+04  0.13020245109E+04  0.10100000352E+00 0. -1.
       -3    1    3    3    0  502  0.95208767567E+02 -0.11447321325E+02 -0.23864078360E+03  0.25718706107E+03  0.10100000352E+00 0.  1.
</event>
<event>
 5   0  0.4310889E-03  0.1168052E+04  0.7818609E-02  0.9141290E-01
        2   -1    0    0  501    0  0.00000000000E+00  0.00000000000E+00  0.87001020158E+03  0.87001020158E+03  0.25500000920E-02 0. -1.
       -2   -1    0    0    0  501  0.00000000000E+00  0.00000000000E+00 -0.39204855284E+03  0.39204855285E+03  0.25500000920E-02 0.  1.
    10030    2    1    2    0    0  0.00000000000E+00  0.00000000000E+00  0.47796164874E+03  0.12620587544E+04  0.11680517805E+04 0.  0.
        4    1    3    3  502    0 -0.53423595351E+03 -0.49909700486E+02  0.48816157545E+03  0.72539807614E+03  0.12699999809E+01 0. -1.
       -4    1    3    3    0  502  0.53423595351E+03  0.49909700486E+02 -0.10199926712E+02  0.53666067829E+03  0.12699999809E+01 0.  1.
</event>
<event>
 5   0  0.2356769E-03  0.1352707E+04  0.7818609E-02  0.8988782E-01
       -1   -1    0    0    0  501  0.00000000000E+00  0.00000000000E+00  0.63701025070E+03  0.63701025072E+03  0.50400001928E-02 0.  1.
        1   -1    0    0  501    0  0.00000000000E+00  0.00000000000E+00 -0.71812648178E+03  0.71812648180E+03  0.50400001928E-02 0. -1.
    10030    2    1    2    0    0  0.00000000000E+00  0.00000000000E+00 -0.81116231083E+02  0.13551367325E+04  0.13527068126E+04 0.  0.
        1    1    3    3  502    0 -0.79735993542E+02  0.45704705853E+03  0.45246828399E+03  0.64805662593E+03  0.50400001928E-02 0.  1.
       -1    1    3    3    0  502  0.79735993542E+02 -0.45704705853E+03 -0.53358451507E+03  0.70708010658E+03  0.50400001928E-02 0. -1.
</event>
<event>
 5   0  0.4388937E-03  0.1330161E+04  0.7818609E-02  0.9005983E-01
       -2   -1    0    0    0  501  0.00000000000E+00  0.00000000000E+00  0.52330556673E+03  0.52330556674E+03  0.25500000920E-02 0.  1.
        2   -1    0    0  501    0  0.00000000000E+00  0.00000000000E+00 -0.84526511247E+03  0.84526511247E+03  0.25500000920E-02 0. -1.
    10030    2    1    2    0    0  0.00000000000E+00  0.00000000000E+00 -0.32195954574E+03  0.13685706792E+04  0.13301608004E+04 0.  0.
        5    1    3    3  502    0 -0.16352193181E+03 -0.33853368298E+03 -0.72542441017E+03  0.81707229886E+03  0.46999998093E+01 0. -1.
       -5    1    3    3    0  502  0.16352193181E+03  0.33853368298E+03  0.40346486443E+03  0.55149838035E+03  0.46999998093E+01 0.  1.
</event>
<event>
 5   0  0.1661750E-03  0.1213518E+04  0.7818609E-02  0.9101106E-01
        3   -1    0    0  501    0  0.00000000000E+00  0.00000000000E+00  0.72425096803E+03  0.72425097507E+03  0.10100000352E+00 0.  1.
       -3   -1    0    0    0  501  0.00000000000E+00  0.00000000000E+00 -0.50832700415E+03  0.50832701418E+03  0.10100000352E+00 0. -1.
    10030    2    1    2    0    0  0.00000000000E+00  0.00000000000E+00  0.21592396388E+03  0.12325779892E+04  0.12135177549E+04 0.  0.
        1    1    3    3  502    0  0.51610098184E+03 -0.30741550911E+03  0.21228627606E+02  0.60109497864E+03  0.50400001928E-02 0. -1.
       -1    1    3    3    0  502 -0.51610098184E+03  0.30741550911E+03  0.19469533627E+03  0.63148301061E+03  0.50400001928E-02 0.  1.
</event>
<event>
 5   0  0.4453011E-03  0.1230190E+04  0.7818609E-02  0.9086834E-01
       -2   -1    0    0    0  501  0.00000000000E+00  0.00000000000E+00  0.24492282681E+03  0.24492282683E+03  0.25500000920E-02 0. -1.
        2   -1    0    0  501    0  0.00000000000E+00  0.00000000000E+00 -0.15447379686E+04  0.15447379686E+04  0.25500000920E-02 0.  1.
    10030    2    1    2    0    0  0.00000000000E+00  0.00000000000E+00 -0.12998151418E+04  0.17896607954E+04  0.12301895626E+04 0.  0.
        1    1    3    3  502    0  0.99500066141E+01  0.28756380305E+03 -0.14407936086E+04  0.14692440799E+04  0.50400001928E-02 0.  1.
       -1    1    3    3    0  502 -0.99500066141E+01 -0.28756380305E+03  0.14097846688E+03  0.32041671555E+03  0.50400001928E-02 0. -1.
</event>
<event>
 5   0  0.4306214E-03  0.1315308E+04  0.7818609E-02  0.9017513E-01
        2   -1    0    0  501    0  0.00000000000E+00  0.00000000000E+00  0.17500320771E+04  0.17500320771E+04  0.25500000920E-02 0. -1.
       -2   -1    0    0    0  501  0.00000000000E+00  0.00000000000E+00 -0.24714342338E+03  0.24714342339E+03  0.25500000920E-02 0.  1.
    10030    2    1    2    0    0  0.00000000000E+00  0.00000000000E+00  0.15028886537E+04  0.19971755005E+04  0.13153082051E+04 0.  0.
        3    1    3    3  502    0  0.17163584523E+02 -0.25238158705E+03  0.16732045595E+04  0.16922188281E+04  0.10100000352E+00 0. -1.
       -3    1    3    3    0  502 -0.17163584523E+02  0.25238158705E+03 -0.17031590572E+03  0.30495667243E+03  0.10100000352E+00 0.  1.
</event>
<event>
 5   0  0.2356769E-03  0.1288048E+04  0.7818609E-02  0.9039097E-01
        1   -1    0    0  501    0  0.00000000000E+00  0.00000000000E+00  0.97562072425E+03  0.97562072426E+03  0.50400001928E-02 0.  1.
       -1   -1    0    0    0  501  0.00000000000E+00  0.00000000000E+00 -0.42513147129E+03  0.42513147132E+03  0.50400001928E-02 0. -1.
    10030    2    1    2    0    0  0.00000000000E+00  0.00000000000E+00  0.55048925296E+03  0.14007521956E+04  0.12880482506E+04 0.  0.
        1    1    3    3  502    0 -0.51274099699E+03  0.37552268731E+03  0.16198552965E+03  0.65586578697E+03  0.50400001928E-02 0.  1.
       -1    1    3    3    0  502  0.51274099699E+03 -0.37552268731E+03  0.38850372331E+03  0.74488640861E+03  0.50400001928E-02 0. -1.
</event>
<event>
 5   0  0.1661750E-03  0.1303559E+04  0.7818609E-02  0.9026748E-01
       -4   -1    0    0    0  501  0.00000000000E+00  0.00000000000E+00  0.40539915263E+03  0.40540114190E+03  0.12699999809E+01 0. -1.
        4   -1    0    0  501    0  0.00000000000E+00  0.00000000000E+00 -0.10478918054E+04  0.10478925750E+04  0.12699999809E+01 0.  1.
    10030    2    1    2    0    0  0.00000000000E+00  0.00000000000E+00 -0.64249265278E+03  0.14532937169E+04  0.13035589050E+04 0.  0.
        5    1    3    3  502    0 -0.19063098731E+03 -0.84484276700E+02 -0.10096855248E+04  0.10310018018E+04  0.46999998093E+01 0. -1.
       -5    1    3    3    0  502  0.19063098731E+03  0.84484276700E+02  0.36719287200E+03  0.42229191512E+03  0.46999998093E+01 0.  1.
</event>
<event>
 5   0  0.4453011E-03  0.1280326E+04  0.7818609E-02  0.9045314E-01
        2   -1    0    0  501    0  0.00000000000E+00  0.00000000000E+00  0.17769066527E+04  0.17769066527E+04  0.25500000920E-02 0. -1.
       -2   -1    0    0    0  501  0.00000000000E+00  0.00000000000E+00 -0.23063046415E+03  0.23063046416E+03  0.25500000920E-02 0.  1.
    10030    2    1    2    0    0  0.00000000000E+00  0.00000000000E+00  0.15462761886E+04  0.20075371169E+04  0.12803262179E+04 0.  0.
        1    1    3    3  502    0  0.11336153965E+03  0.11459776827E+03  0.17445641644E+04  0.17519953227E+04  0.50400001928E-02 0. -1.
       -1    1    3    3    0  502 -0.11336153965E+03 -0.11459776827E+03 -0.19828797583E+03  0.25554179413E+03  0.50400001928E-02 0.  1.
</event>
<event>
 5   0  0.4306214E-03  0.1322923E+04  0.7818609E-02  0.9011582E-01
        2   -1    0    0  501    0  0.00000000000E+00  0.00000000000E+00  0.11089285157E+04  0.11089285157E+04  0.25500000920E-02 0. -1.
       -2   -1    0    0    0  501  0.00000000000E+00  0.00000000000E+00 -0.39455309484E+03  0.39455309485E+03  0.25500000920E-02 0.  1.
    10030    2    1    2    0    0  0.00000000000E+00  0.00000000000E+00  0.71437542088E+03  0.15034816106E+04  0.13229227912E+04 0.  0.
        3    1    3    3  502    0  0.91984490129E+02  0.33711326374E+03 -0.28109260318E+03  0.44846355569E+03  0.10100000352E+00 0.  1.
       -3    1    3    3    0  502 -0.91984490129E+02 -0.33711326374E+03  0.99546802406E+03  0.10550180549E+04  0.10100000352E+00 0. -1.
</event>
<event>
 5   0  0.2458456E-03  0.1302927E+04  0.7818609E-02  0.9027248E-01
        1   -1    0    0  501    0  0.00000000000E+00  0.00000000000E+00  0.92693027768E+03  0.92693027770E+03  0.50400001928E-02 0. -1.
       -1   -1    0    0    0  501  0.00000000000E+00  0.00000000000E+00 -0.45786018400E+03  0.45786018403E+03  0.50400001928E-02 0.  1.
    10030    2    1    2    0    0  0.00000000000E+00  0.00000000000E+00  0.46907009368E+03  0.13847904617E+04  0.13029266557E+04 0.  0.
        5    1    3    3  502    0  0.38740240980E+03 -0.16294317044E+03  0.76355498727E+03  0.87159016315E+03  0.46999998093E+01 0. -1.
       -5    1    3    3    0  502 -0.38740240980E+03  0.16294317044E+03 -0.29448489359E+03  0.51320029858E+03  0.46999998093E+01 0.  1.
</event>
<event>
 5   0  0.4306214E-03  0.1399030E+04  0.7818609E-02  0.8954521E-01
        2   -1    0    0  501    0  0.00000000000E+00  0.00000000000E+00  0.10128266595E+04  0.10128266595E+04  0.25500000920E-02 0.  1.
       -2   -1    0    0    0  501  0.00000000000E+00  0.00000000000E+00 -0.48312414289E+03  0.48312414290E+03  0.25500000920E-02 0. -1.
    10030    2    1    2    0    0  0.00000000000E+00  0.00000000000E+00  0.52970251664E+03  0.14959508024E+04  0.13990296806E+04 0.  0.
        3    1    3    3  502    0 -0.13110403691E+03 -0.18777278245E+03  0.97160568877E+03  0.99823069026E+03  0.10100000352E+00 0.  1.
       -3    1    3    3    0  502  0.13110403691E+03  0.18777278245E+03 -0.44190317213E+03  0.49772011218E+03  0.10100000352E+00 0. -1.
</event>
<event>
 5   0  0.2462055E-03  0.1310929E+04  0.7818609E-02  0.9020943E-01
        1   -1    0    0  501    0  0.00000000000E+00  0.00000000000E+00  0.25112542677E+03  0.25112542682E+03  0.50400001928E-02 0.  1.
       -1   -1    0    0    0  501  0.00000000000E+00  0.00000000000E+00 -0.17108324520E+04  0.17108324520E+04  0.50400001928E-02 0. -1.
    10030    2    1    2    0    0  0.00000000000E+00  0.00000000000E+00 -0.14597070253E+04  0.19619578789E+04  0.13109287238E+04 0.  0.
        2    1    3    3  502    0  0.24632746020E+03 -0.55716219834E+03 -0.36778793653E+03  0.71160023832E+03  0.25500000920E-02 0.  1.
       -2    1    3    3    0  502 -0.24632746020E+03  0.55716219834E+03 -0.10919190887E+04  0.12503576405E+04  0.25500000920E-02 0. -1.
</event>
<event>
 5   0  0.2511542E-03  0.6430145E+03  0.7818609E-02  0.9819976E-01
       -1   -1    0    0    0  501  0.00000000000E+00  0.00000000000E+00  0.25992459388E+03  0.25992459393E+03  0.50400001928E-02 0. -1.
        1   -1    0    0  501    0  0.00000000000E+00  0.00000000000E+00 -0.39768038435E+03  0.39768038438E+03  0.50400001928E-02 0.  1.
    10030    2    1    2    0    0  0.00000000000E+00  0.00000000000E+00 -0.13775579047E+03  0.65760497831E+03  0.64301450192E+03 0.  0.
        4    1    3    3  502    0 -0.13824256247E+03 -0.14090608215E+03  0.19065145591E+03  0.27443600457E+03  0.12699999809E+01 0. -1.
       -4    1    3    3    0  502  0.13824256247E+03  0.14090608215E+03 -0.32840724638E+03  0.38316897374E+03  0.12699999809E+01 0.  1.
</event>
<event>
 5   0  0.4306214E-03  0.1312900E+04  0.7818609E-02  0.9019397E-01
       -2   -1    0    0    0  501  0.00000000000E+00  0.00000000000E+00  0.29998734916E+03  0.29998734917E+03  0.25500000920E-02 0.  1.
        2   -1    0    0  501    0  0.00000000000E+00  0.00000000000E+00 -0.14364836700E+04  0.14364836700E+04  0.25500000920E-02 0. -1.
    10030    2    1    2    0    0  0.00000000000E+00  0.00000000000E+00 -0.11364963209E+04  0.17364710192E+04  0.13129004963E+04 0.  0.
        3    1    3    3  502    0  0.14705329926E+03 -0.54422252728E+03 -0.10130978265E+04  0.11593834776E+04  0.10100000352E+00 0. -1.
       -3    1    3    3    0  502 -0.14705329926E+03  0.54422252728E+03 -0.12339849441E+03  0.57708754158E+03  0.10100000352E+00 0.  1.
</event>
<event>
 5   0  0.2370801E-03  0.1048943E+04  0.7818609E-02  0.9256436E-01
       -1   -1    0    0    0  501  0.00000000000E+00  0.00000000000E+00  0.67740576338E+03  0.67740576339E+03  0.50400001928E-02 0.  1.
        1   -1    0    0  501    0  0.00000000000E+00  0.00000000000E+00 -0.40606438614E+03  0.40606438617E+03  0.50400001928E-02 0. -1.
    10030    2    1    2    0    0  0.00000000000E+00  0.00000000000E+00  0.27134137724E+03  0.10834701496E+04  0.10489430023E+04 0.  0.
        3    1    3    3  502    0 -0.24768178468E+03 -0.32140545761E+03 -0.20756628652E+03  0.45577572132E+03  0.10100000352E+00 0. -1.
       -3    1    3    3    0  502  0.24768178468E+03  0.32140545761E+03  0.47890766376E+03  0.62769442825E+03  0.10100000352E+00 0.  1.
</event>
<event>
 5   0  0.2356769E-03  0.1302592E+04  0.7818609E-02  0.9027512E-01
       -1   -1    0    0    0  501  0.00000000000E+00  0.00000000000E+00  0.62373657528E+03  0.62373657530E+03  0.50400001928E-02 0. -1.
        1   -1    0    0  501    0  0.00000000000E+00  0.00000000000E+00 -0.68007289517E+03  0.68007289519E+03  0.50400001928E-02 0.  1.
    10030    2    1    2    0    0  0.00000000000E+00  0.00000000000E+00 -0.56336319894E+02  0.13038094705E+04  0.13025917835E+04 0.  0.
        1    1    3    3  502    0  0.62500424034E+03 -0.17261798210E+03 -0.89536733095E+02  0.65455641070E+03  0.50400001928E-02 0. -1.
       -1    1    3    3    0  502 -0.62500424034E+03  0.17261798210E+03  0.33200413201E+02  0.64925305979E+03  0.50400001928E-02 0.  1.
</event>
<event>
 5   0  0.2511542E-03  0.8007774E+03  0.7818609E-02  0.9558892E-01
        1   -1    0    0  501    0  0.00000000000E+00  0.00000000000E+00  0.16389914232E+04  0.16389914232E+04  0.50400001928E-02 0. -1.
       -1   -1    0    0    0  501  0.00000000000E+00  0.00000000000E+00 -0.97810836537E+02  0.97810836667E+02  0.50400001928E-02 0.  1.
    10030    2    1    2    0    0  0.00000000000E+00  0.00000000000E+00  0.15411805866E+04  0.17368022598E+04  0.80077742800E+03 0.  0.
        4    1    3    3  502    0  0.36764200222E+03  0.75873184250E+02  0.10726211272E+04  0.11364132511E+04  0.12699999809E+01 0. -1.
       -4    1    3    3    0  502 -0.36764200222E+03 -0.75873184250E+02  0.46855945942E+03  0.60038900872E+03  0.12699999809E+01 0.  1.
</event>
<event>
 5   0  0.4263540E-03  0.1308615E+04  0.7818609E-02  0.9022761E-01
        2   -1    0    0  501    0  0.00000000000E+00  0.00000000000E+00  0.70409222676E+03  0.70409222676E+03  0.25500000920E-02 0.  1.
       -2   -1    0    0    0  501  0.00000000000E+00  0.00000000000E+00 -0.60804274726E+03  0.60804274727E+03  0.25500000920E-02 0. -1.
    10030    2    1    2    0    0  0.00000000000E+00  0.00000000000E+00  0.96049479496E+02  0.13121349740E+04  0.13086147972E+04 0.  0.
        2    1    3    3  502    0  0.55087821657E+03 -0.93232398088E+02  0.38946841275E+03  0.68106147599E+03  0.25500000920E-02 0. -1.
       -2    1    3    3    0  502 -0.55087821657E+03  0.93232398088E+02 -0.29341893325E+03  0.63107349805E+03  0.25500000920E-02 0.  1.
</event>
<event>
 5   0  0.4263540E-03  0.1259408E+04  0.7818609E-02  0.9062389E-01
       -2   -1    0    0    0  501  0.00000000000E+00  0.00000000000E+00  0.61251075240E+03  0.61251075240E+03  0.25500000920E-02 0. -1.
        2   -1    0    0  501    0  0.00000000000E+00  0.00000000000E+00 -0.64738024488E+03  0.64738024489E+03  0.25500000920E-02 0.  1.
    10030    2    1    2    0    0  0.00000000000E+00  0.00000000000E+00 -0.34869492485E+02  0.12598909973E+04  0.12594083704E+04 0.  0.
        2    1    3    3  502    0 -0.46171351190E+03  0.37771721018E+03  0.18432968497E+03  0.62436134626E+03  0.25500000920E-02 0.  1.
       -2    1    3    3    0  502  0.46171351190E+03 -0.37771721018E+03 -0.21919917746E+03  0.63552965103E+03  0.25500000920E-02 0. -1.
</event>
<event>
 5   0  0.4263540E-03  0.1286886E+04  0.7818609E-02  0.9040030E-01
       -2   -1    0    0    0  501  0.00000000000E+00  0.00000000000E+00  0.29279250033E+03  0.29279250034E+03  0.25500000920E-02 0.  1.
        2   -1    0    0  501    0  0.00000000000E+00  0.00000000000E+00 -0.14140356641E+04  0.14140356641E+04  0.25500000920E-02 0. -1.
    10030    2    1    2    0    0  0.00000000000E+00  0.00000000000E+00 -0.11212431637E+04  0.17068281644E+04  0.12868862229E+04 0.  0.
        2    1    3    3  502    0 -0.21034675389E+03 -0.24334659177E+03 -0.12997491712E+04  0.13389590093E+04  0.25500000920E-02 0. -1.
       -2    1    3    3    0  502  0.21034675389E+03  0.24334659177E+03  0.17850600743E+03  0.36786915512E+03  0.25500000920E-02 0.  1.
</event>
<event>
 5   0  0.2462055E-03  0.1309720E+04  0.7818609E-02  0.9021893E-01
       -1   -1    0    0    0  501  0.00000000000E+00  0.00000000000E+00  0.62108968118E+03  0.62108968120E+03  0.50400001928E-02 0.  1.
        1   -1    0    0  501    0  0.00000000000E+00  0.00000000000E+00 -0.69046639858E+03  0.69046639859E+03  0.50400001928E-02 0. -1.
    10030    2    1    2    0    0  0.00000000000E+00  0.00000000000E+00 -0.69376717396E+02  0.13115560798E+04  0.13097199019E+04 0.  0.
        2    1    3    3  502    0 -0.49692371997E+03  0.41901739149E+03  0.45002084093E+02  0.65156269492E+03  0.25500000920E-02 0.  1.
       -2    1    3    3    0  502  0.49692371997E+03 -0.41901739149E+03 -0.11437880149E+03  0.65999338487E+03  0.25500000920E-02 0. -1.
</event>
<event>
 5   0  0.2511542E-03  0.1287963E+04  0.7818609E-02  0.9039165E-01
        1   -1    0    0  501    0  0.00000000000E+00  0.00000000000E+00  0.30170495574E+03  0.30170495578E+03  0.50400001928E-02 0.  1.
       -1   -1    0    0    0  501  0.00000000000E+00  0.00000000000E+00 -0.13745620977E+04  0.13745620978E+04  0.50400001928E-02 0. -1.
    10030    2    1    2    0    0  0.00000000000E+00  0.00000000000E+00 -0.10728571420E+04  0.16762670535E+04  0.12879630381E+04 0.  0.
        4    1    3    3  502    0 -0.62227291589E+03 -0.52016798262E+02 -0.33154767895E+03  0.70700410570E+03  0.12699999809E+01 0.  1.
       -4    1    3    3    0  502  0.62227291589E+03  0.52016798262E+02 -0.74130946305E+03  0.96926294784E+03  0.12699999809E+01 0. -1.
</event>
<event>
 5   0  0.2370801E-03  0.8816402E+03  0.7818609E-02  0.9448828E-01
        1   -1    0    0  501    0  0.00000000000E+00  0.00000000000E+00  0.30958206905E+03  0.30958206909E+03  0.50400001928E-02 0.  1.
       -1   -1    0    0    0  501  0.00000000000E+00  0.00000000000E+00 -0.62769252678E+03  0.62769252680E+03  0.50400001928E-02 0. -1.
    10030    2    1    2    0    0  0.00000000000E+00  0.00000000000E+00 -0.31811045773E+03  0.93727459588E+03  0.88164017874E+03 0.  0.
        3    1    3    3  502    0  0.40600895998E+03 -0.16793708871E+03 -0.12107699358E+03  0.45574750677E+03  0.10100000352E+00 0. -1.
       -3    1    3    3    0  502 -0.40600895998E+03  0.16793708871E+03 -0.19703346415E+03  0.48152708911E+03  0.10100000352E+00 0.  1.
</event>
<event>
 5   0  0.4388937E-03  0.1387074E+04  0.7818609E-02  0.8963229E-01
        2   -1    0    0  501    0  0.00000000000E+00  0.00000000000E+00  0.12757935605E+04  0.12757935605E+04  0.25500000920E-02 0. -1.
       -2   -1    0    0    0  501  0.00000000000E+00  0.00000000000E+00 -0.37701517371E+03  0.37701517372E+03  0.25500000920E-02 0.  1.
    10030    2    1    2    0    0  0.00000000000E+00  0.00000000000E+00  0.89877838676E+03  0.16528087342E+04  0.13870739430E+04 0.  0.
        5    1    3    3  502    0 -0.17514203859E+03  0.45266162795E+03 -0.14088676547E+03  0.50541908728E+03  0.46999998093E+01 0.  1.
       -5    1    3    3    0  502  0.17514203859E+03 -0.45266162795E+03  0.10396651522E+04  0.11473896469E+04  0.46999998093E+01 0. -1.
</event>
<event>
 5   0  0.2511542E-03  0.1276555E+04  0.7818609E-02  0.9048367E-01
       -1   -1    0    0    0  501  0.00000000000E+00  0.00000000000E+00  0.19612070929E+03  0.19612070935E+03  0.50400001928E-02 0.  1.
        1   -1    0    0  501    0  0.00000000000E+00  0.00000000000E+00 -0.20772813745E+04  0.20772813745E+04  0.50400001928E-02 0. -1.
    10030    2    1    2    0    0  0.00000000000E+00  0.00000000000E+00 -0.18811606652E+04  0.22734020839E+04  0.12765545764E+04 0.  0.
        4    1    3    3  502    0  0.56579942053E+02 -0.29833899111E+03  0.59240733371E+02  0.30938409922E+03  0.12699999809E+01 0.  1.
       -4    1    3    3    0  502 -0.56579942053E+02  0.29833899111E+03 -0.19404013986E+04  0.19640179847E+04  0.12699999809E+01 0. -1.
</event>
<event>
 5   0  0.4388937E-03  0.1234728E+04  0.7818609E-02  0.9082991E-01
       -2   -1    0    0    0  501  0.00000000000E+00  0.00000000000E+00  0.32264303038E+03  0.32264303039E+03  0.25500000920E-02 0. -1.
        2   -1    0    0  501    0  0.00000000000E+00  0.00000000000E+00 -0.11812998232E+04  0.11812998232E+04  0.25500000920E-02 0.  1.
    10030    2    1    2    0    0  0.00000000000E+00  0.00000000000E+00 -0.85865679282E+03  0.15039428536E+04  0.12347277510E+04 0.  0.
        5    1    3    3  502    0 -0.50931396194E+03 -0.21391610770E+03 -0.76501887953E+03  0.94362958251E+03  0.46999998093E+01 0.  1.
       -5    1    3    3    0  502  0.50931396194E+03  0.21391610770E+03 -0.93637913297E+02  0.56031327109E+03  0.46999998093E+01 0. -1.
</event>
<event>
 5   0  0.2511542E-03  0.1278897E+04  0.7818609E-02  0.9046469E-01
       -1   -1    0    0    0  501  0.00000000000E+00  0.00000000000E+00  0.73427019717E+03  0.73427019719E+03  0.50400001928E-02 0.  1.
        1   -1    0    0  501    0  0.00000000000E+00  0.00000000000E+00 -0.55687183250E+03  0.55687183253E+03  0.50400001928E-02 0. -1.
    10030    2    1    2    0    0  0.00000000000E+00  0.00000000000E+00  0.17739836467E+03  0.12911420297E+04  0.12788970096E+04 0.  0.
        4    1    3    3  502    0  0.74031612272E+02  0.63495545710E+03  0.72939942813E+02  0.64340575089E+03  0.12699999809E+01 0. -1.
       -4    1    3    3    0  502 -0.74031612272E+02 -0.63495545710E+03  0.10445842185E+03  0.64773627883E+03  0.12699999809E+01 0.  1.
</event>
<event>
 5   0  0.2458456E-03  0.1305974E+04  0.7818609E-02  0.9024841E-01
        1   -1    0    0  501    0  0.00000000000E+00  0.00000000000E+00  0.60276094478E+03  0.60276094480E+03  0.50400001928E-02 0.  1.
       -1   -1    0    0    0  501  0.00000000000E+00  0.00000000000E+00 -0.70739865514E+03  0.70739865516E+03  0.50400001928E-02 0. -1.
    10030    2    1    2    0    0  0.00000000000E+00  0.00000000000E+00 -0.10463771036E+03  0.13101596000E+04  0.13059743975E+04 0.  0.
        5    1    3    3  502    0 -0.49337970874E+03  0.24943962262E+01 -0.48140490116E+03  0.68934935111E+03  0.46999998093E+01 0. -1.
       -5    1    3    3    0  502  0.49337970874E+03 -0.24943962262E+01  0.37676719080E+03  0.62081024885E+03  0.46999998093E+01 0.  1.
</event>
<event>
 5   0  0.2370801E-03  0.1289877E+04  0.7818609E-02  0.9037632E-01
        1   -1    0    0  501    0  0.00000000000E+00  0.00000000000E+00  0.53448154235E+03  0.53448154238E+03  0.50400001928E-02 0. -1.
       -1   -1    0    0    0  501  0.00000000000E+00  0.00000000000E+00 -0.77822247130E+03  0.77822247132E+03  0.50400001928E-02 0.  1.
    10030    2    1    2    0    0  0.00000000000E+00  0.00000000000E+00 -0.24374092895E+03  0.13127040137E+04  0.12898768108E+04 0.  0.
        3    1    3    3  502    0 -0.32929970063E+03 -0.41831933782E+03 -0.49234044662E+03  0.72514032215E+03  0.10100000352E+00 0.  1.
       -3    1    3    3    0  502  0.32929970063E+03  0.41831933782E+03  0.24859951767E+03  0.58756369154E+03  0.10100000352E+00 0. -1.
</event>
<event>
 5   0  0.2356769E-03  0.1320404E+04  0.7818609E-02  0.9013539E-01
       -1   -1    0    0    0  501  0.00000000000E+00  0.00000000000E+00  0.36734366285E+03  0.36734366288E+03  0.50400001928E-02 0. -1.
        1   -1    0    0  501    0  0.00000000000E+00  0.00000000000E+00 -0.11865370010E+04  0.11865370010E+04  0.50400001928E-02 0.  1.
    10030    2    1    2    0    0  0.00000000000E+00  0.00000000000E+00 -0.81919333816E+03  0.15538806639E+04  0.13204042534E+04 0.  0.
        1    1    3    3  502    0 -0.53873508177E+03  0.59475312119E+02 -0.85320397453E+03  0.10108065212E+04  0.50400001928E-02 0.  1.
       -1    1    3    3    0  502  0.53873508177E+03 -0.59475312119E+02  0.34010636368E+02  0.54307414272E+03  0.50400001928E-02 0. -1.
</event>
<event>
 5   0  0.4310889E-03  0.1295966E+04  0.7818609E-02  0.9032770E-01
        2   -1    0    0  501    0  0.00000000000E+00  0.00000000000E+00  0.61389889575E+03  0.61389889575E+03  0.25500000920E-02 0. -1.
       -2   -1    0    0    0  501  0.00000000000E+00  0.00000000000E+00 -0.68395970537E+03  0.68395970538E+03  0.25500000920E-02 0.  1.
    10030    2    1    2    0    0  0.00000000000E+00  0.00000000000E+00 -0.70060809625E+02  0.12978586011E+04  0.12959662154E+04 0.  0.
        4    1    3    3  502    0 -0.19591452711E+03  0.51452602924E+03  0.30717158056E+03  0.63045660398E+03  0.12699999809E+01 0. -1.
       -4    1    3    3    0  502  0.19591452711E+03 -0.51452602924E+03 -0.37723239019E+03  0.66740199715E+03  0.12699999809E+01 0.  1.
</event>
<event>
 5   0  0.4263540E-03  0.1138474E+04  0.7818609E-02  0.9168483E-01
        2   -1    0    0  501    0  0.00000000000E+00  0.00000000000E+00  0.70309821303E+03  0.70309821303E+03  0.25500000920E-02 0.  1.
       -2   -1    0    0    0  501  0.00000000000E+00  0.00000000000E+00 -0.46086097435E+03  0.46086097436E+03  0.25500000920E-02 0. -1.
    10030    2    1    2    0    0  0.00000000000E+00  0.00000000000E+00  0.24223723868E+03  0.11639591874E+04  0.11384735878E+04 0.  0.
        2    1    3    3  502    0  0.25613368028E+03  0.42895053684E+03 -0.15780257454E+03  0.52393194001E+03  0.25500000920E-02 0.  1.
       -2    1    3    3    0  502 -0.25613368028E+03 -0.42895053684E+03  0.40003981322E+03  0.64002724738E+03  0.25500000920E-02 0. -1.
</event>
<event>
 5   0  0.2370801E-03  0.1282783E+04  0.7818609E-02  0.9043331E-01
        1   -1    0    0  501    0  0.00000000000E+00  0.00000000000E+00  0.78471908181E+03  0.78471908182E+03  0.50400001928E-02 0.  1.
       -1   -1    0    0    0  501  0.00000000000E+00  0.00000000000E+00 -0.52424283811E+03  0.52424283813E+03  0.50400001928E-02 0. -1.
    10030    2    1    2    0    0  0.00000000000E+00  0.00000000000E+00  0.26047624370E+03  0.13089619200E+04  0.12827834713E+04 0.  0.
        3    1    3    3  502    0 -0.56228838845E+03  0.18650813384E+03 -0.12060335703E+03  0.60456488130E+03  0.10100000352E+00 0. -1.
       -3    1    3    3    0  502  0.56228838845E+03 -0.18650813384E+03  0.38107960074E+03  0.70439703866E+03  0.10100000352E+00 0.  1.
</event>
<event>
 5   0  0.4306214E-03  0.1377057E+04  0.7818609E-02  0.8970595E-01
        2   -1    0    0  501    0  0.00000000000E+00  0.00000000000E+00  0.16240490709E+04  0.16240490709E+04  0.25500000920E-02 0.  1.
       -2   -1    0    0    0  501  0.00000000000E+00  0.00000000000E+00 -0.29190710188E+03  0.29190710189E+03  0.25500000920E-02 0. -1.
    10030    2    1    2    0    0  0.00000000000E+00  0.00000000000E+00  0.13321419691E+04  0.19159561728E+04  0.13770569453E+04 0.  0.
        3    1    3    3  502    0 -0.31848225827E+02  0.68140180353E+03  0.79620952486E+03  0.10484618949E+04  0.10100000352E+00 0. -1.
       -3    1    3    3    0  502  0.31848225827E+02 -0.68140180353E+03  0.53593244420E+03  0.86749427796E+03  0.10100000352E+00 0.  1.
</event>
<event>
 5   0  0.2356769E-03  0.1212372E+04  0.7818609E-02  0.9102096E-01
       -1   -1    0    0    0  501  0.00000000000E+00  0.00000000000E+00  0.92987937878E+03  0.92987937879E+03  0.50400001928E-02 0.  1.
        1   -1    0    0  501    0  0.00000000000E+00  0.00000000000E+00 -0.39517099638E+03  0.39517099641E+03  0.50400001928E-02 0. -1.
    10030    2    1    2    0    0  0.00000000000E+00  0.00000000000E+00  0.53470838240E+03  0.13250503752E+04  0.12123718252E+04 0.  0.
        1    1    3    3  502    0 -0.45857229381E+03  0.21816623546E+03  0.62914279405E+03  0.80852069254E+03  0.50400001928E-02 0.  1.
       -1    1    3    3    0  502  0.45857229381E+03 -0.21816623546E+03 -0.94434411644E+02  0.51652968266E+03  0.50400001928E-02 0. -1.
</event>
<event>
 5   0  0.2511542E-03  0.1312920E+04  0.7818609E-02  0.9019382E-01
       -1   -1    0    0    0  501  0.00000000000E+00  0.00000000000E+00  0.42045677486E+03  0.42045677489E+03  0.50400001928E-02 0. -1.
        1   -1    0    0  501    0  0.00000000000E+00  0.00000000000E+00 -0.10249326741E+04  0.10249326741E+04  0.50400001928E-02 0.  1.
    10030    2    1    2    0    0  0.00000000000E+00  0.00000000000E+00 -0.60447589923E+03  0.14453894490E+04  0.13129202362E+04 0.  0.
        4    1    3    3  502    0  0.11213782533E+03 -0.50122694582E+03  0.14783213873E+03  0.53447104433E+03  0.12699999809E+01 0. -1.
       -4    1    3    3    0  502 -0.11213782533E+03  0.50122694582E+03 -0.75230803797E+03  0.91091840467E+03  0.12699999809E+01 0.  1.
</event>
<event>
 5   0  0.2458456E-03  0.1301433E+04  0.7818609E-02  0.9028430E-01
       -1   -1    0    0    0  501  0.00000000000E+00  0.00000000000E+00  0.57824150133E+03  0.57824150136E+03  0.50400001928E-02 0. -1.
        1   -1    0    0  501    0  0.00000000000E+00  0.00000000000E+00 -0.73227508895E+03  0.73227508897E+03  0.50400001928E-02 0.  1.
    10030    2    1    2    0    0  0.00000000000E+00  0.00000000000E+00 -0.15403358762E+03  0.13105165903E+04  0.13014328209E+04 0.  0.
        5    1    3    3  502    0 -0.59259450787E+03  0.16365930317E+03  0.13767814937E+03  0.63002379406E+03  0.46999998093E+01 0. -1.
       -5    1    3    3    0  502  0.59259450787E+03 -0.16365930317E+03 -0.29171173698E+03  0.68049279626E+03  0.46999998093E+01 0.  1.
</event>
<event>
 5   0  0.4306214E-03  0.1376436E+04  0.7818609E-02  0.8971054E-01
        2   -1    0    0  501    0  0.00000000000E+00  0.00000000000E+00  0.26830448541E+04  0.26830448541E+04  0.25500000920E-02 0. -1.
       -2   -1    0    0    0  501  0.00000000000E+00  0.00000000000E+00 -0.17653230775E+03  0.17653230777E+03  0.25500000920E-02 0.  1.
    10030    2    1    2    0    0  0.00000000000E+00  0.00000000000E+00  0.25065125464E+04  0.28595771619E+04  0.13764361226E+04 0.  0.
        3    1    3    3  502    0 -0.15900157947E+03  0.50501832616E+03  0.33980977420E+03  0.62912296483E+03  0.10100000352E+00 0.  1.
       -3    1    3    3    0  502  0.15900157947E+03 -0.50501832616E+03  0.21667027722E+04  0.22304541971E+04  0.10100000352E+00 0. -1.
</event>
<event>
 5   0  0.2356769E-03  0.1362931E+04  0.7818609E-02  0.8981096E-01
        1   -1    0    0  501    0  0.00000000000E+00  0.00000000000E+00  0.20305582348E+04  0.20305582348E+04  0.50400001928E-02 0. -1.
       -1   -1    0    0    0  501  0.00000000000E+00  0.00000000000E+00 -0.22870339332E+03  0.22870339337E+03  0.50400001928E-02 0.  1.
    10030    2    1    2    0    0  0.00000000000E+00  0.00000000000E+00  0.18018548415E+04  0.22592616282E+04  0.13629314857E+04 0.  0.
        1    1    3    3  502    0 -0.21477870081E+03 -0.33368433324E+03 -0.17416601986E+02  0.39721337166E+03  0.50400001928E-02 0.  1.
       -1    1    3    3    0  502  0.21477870081E+03  0.33368433324E+03  0.18192714435E+04  0.18620482565E+04  0.50400001928E-02 0. -1.
</event>
<event>
 5   0  0.4453011E-03  0.1330726E+04  0.7818609E-02  0.9005548E-01
        2   -1    0    0  501    0  0.00000000000E+00  0.00000000000E+00  0.10021179162E+04  0.10021179162E+04  0.25500000920E-02 0.  1.
       -2   -1    0    0    0  501  0.00000000000E+00  0.00000000000E+00 -0.44177204405E+03  0.44177204406E+03  0.25500000920E-02 0. -1.
    10030    2    1    2    0    0  0.00000000000E+00  0.00000000000E+00  0.56034587215E+03  0.14438899603E+04  0.13307256370E+04 0.  0.
        1    1    3    3  502    0  0.27950406241E+03  0.21944488528E+03  0.89052972838E+03  0.95881269064E+03  0.50400001928E-02 0.  1.
       -1    1    3    3    0  502 -0.27950406241E+03 -0.21944488528E+03 -0.33018385623E+03  0.48507726963E+03  0.50400001928E-02 0. -1.
</event>
<event>
 5   0  0.2511542E-03  0.1294785E+04  0.7818609E-02  0.9033711E-01
        1   -1    0    0  501    0  0.00000000000E+00  0.00000000000E+00  0.57013390077E+03  0.57013390079E+03  0.50400001928E-02 0.  1.
       -1   -1    0    0    0  501  0.00000000000E+00  0.00000000000E+00 -0.73512013809E+03  0.73512013811E+03  0.50400001928E-02 0. -1.
    10030    2    1    2    0    0  0.00000000000E+00  0.00000000000E+00 -0.16498623732E+03  0.13052540389E+04  0.12947847881E+04 0.  0.
        4    1    3    3  502    0  0.47255217739E+03 -0.40174432019E+03  0.10450946957E+03  0.62898958759E+03  0.12699999809E+01 0.  1.
       -4    1    3    3    0  502 -0.47255217739E+03  0.40174432019E+03 -0.26949570690E+03  0.67626445131E+03  0.12699999809E+01 0. -1.
</event>
<event>
 5   0  0.2458456E-03  0.1336352E+04  0.7818609E-02  0.9001224E-01
        1   -1    0    0  501    0  0.00000000000E+00  0.00000000000E+00  0.16630428724E+04  0.16630428724E+04  0.50400001928E-02 0. -1.
       -1   -1    0    0    0  501  0.00000000000E+00  0.00000000000E+00 -0.26845922825E+03  0.26845922830E+03  0.50400001928E-02 0.  1.
    10030    2    1    2    0    0  0.00000000000E+00  0.00000000000E+00  0.13945836442E+04  0.19315021007E+04  0.13363520586E+04 0.  0.
        5    1    3    3  502    0 -0.45718757006E+03  0.45959081217E+02 -0.38232870385E+01  0.45953173872E+03  0.46999998093E+01 0.  1.
       -5    1    3    3    0  502  0.45718757006E+03 -0.45959081217E+02  0.13984069312E+04  0.14719703620E+04  0.46999998093E+01 0. -1.
</event>
<event>
 5   0  0.2462055E-03  0.1309530E+04  0.7818609E-02  0.9022041E-01
        1   -1    0    0  501    0  0.00000000000E+00  0.00000000000E+00  0.18556148842E+04  0.18556148842E+04  0.50400001928E-02 0.  1.
       -1   -1    0    0    0  501  0.00000000000E+00  0.00000000000E+00 -0.23103798344E+03  0.23103798350E+03  0.50400001928E-02 0. -1.
    10030    2    1    2    0    0  0.00000000000E+00  0.00000000000E+00  0.16245769007E+04  0.20866528677E+04  0.13095304822E+04 0.  0.
        2    1    3    3  502    0 -0.25091623672E+03  0.56060822195E+03  0.45076111194E+03  0.76185701835E+03  0.25500000920E-02 0. -1.
       -2    1    3    3    0  502  0.25091623672E+03 -0.56060822195E+03  0.11738157888E+04  0.13247958493E+04  0.25500000920E-02 0.  1.
</event>
<event>
 5   0  0.2462055E-03  0.1299289E+04  0.7818609E-02  0.9030129E-01
        1   -1    0    0  501    0  0.00000000000E+00  0.00000000000E+00  0.20249599192E+04  0.20249599192E+04  0.50400001928E-02 0. -1.
       -1   -1    0    0    0  501  0.00000000000E+00  0.00000000000E+00 -0.20841789496E+03  0.20841789502E+03  0.50400001928E-02 0.  1.
    10030    2    1    2    0    0  0.00000000000E+00  0.00000000000E+00  0.18165420242E+04  0.22333778142E+04  0.12992888575E+04 0.  0.
        2    1    3    3  502    0 -0.23593453799E+03  0.15925243861E+03 -0.95514578131E+02  0.30024903008E+03  0.25500000920E-02 0.  1.
       -2    1    3    3    0  502  0.23593453799E+03 -0.15925243861E+03  0.19120566023E+04  0.19331287841E+04  0.25500000920E-02 0. -1.
</event>
<event>
 5   0  0.2458456E-03  0.1290704E+04  0.7818609E-02  0.9036970E-01
       -1   -1    0    0    0  501  0.00000000000E+00  0.00000000000E+00  0.12622584800E+04  0.12622584800E+04  0.50400001928E-02 0.  1.
        1   -1    0    0  501    0  0.00000000000E+00  0.00000000000E+00 -0.32994761255E+03  0.32994761259E+03  0.50400001928E-02 0. -1.
    10030    2    1    2    0    0  0.00000000000E+00  0.00000000000E+00  0.93231086745E+03  0.15922060926E+04  0.12907039505E+04 0.  0.
        5    1    3    3  502    0  0.39192995947E+03 -0.31519561394E+03 -0.32649959396E+02  0.50402924322E+03  0.46999998093E+01 0. -1.
       -5    1    3    3    0  502 -0.39192995947E+03  0.31519561394E+03  0.96496082684E+03  0.10881768494E+04  0.46999998093E+01 0.  1.
</event>
<event>
 5   0  0.4263540E-03  0.1353236E+04  0.7818609E-02  0.8988382E-01
       -2   -1    0    0    0  501  0.00000000000E+00  0.00000000000E+00  0.24873358802E+03  0.24873358803E+03  0.25500000920E-02 0. -1.
        2   -1    0    0  501    0  0.00000000000E+00  0.00000000000E+00 -0.18405725985E+04  0.18405725985E+04  0.25500000920E-02 0.  1.
    10030    2    1    2    0    0  0.00000000000E+00  0.00000000000E+00 -0.15918390105E+04  0.20893061865E+04  0.13532364560E+04 0.  0.
        2    1    3    3  502    0  0.87092968575E+01 -0.59923950745E+03 -0.12808431894E+04  0.14141156654E+04  0.25500000920E-02 0.  1.
       -2    1    3    3    0  502 -0.87092968575E+01  0.59923950745E+03 -0.31099582104E+03  0.67519052115E+03  0.25500000920E-02 0. -1.
</event>
<event>
 5   0  0.2511542E-03  0.1284590E+04  0.7818609E-02  0.9041875E-01
        1   -1    0    0  501    0  0.00000000000E+00  0.00000000000E+00  0.89108084760E+03  0.89108084761E+03  0.50400001928E-02 0. -1.
       -1   -1    0    0    0  501  0.00000000000E+00  0.00000000000E+00 -0.46296930675E+03  0.46296930678E+03  0.50400001928E-02 0.  1.
    10030    2    1    2    0    0  0.00000000000E+00  0.00000000000E+00  0.42811154085E+03  0.13540501544E+04  0.12845903352E+04 0.  0.
        4    1    3    3  502    0  0.28782384659E+03  0.14731452596E+03 -0.37092767882E+03  0.49207021048E+03  0.12699999809E+01 0.  1.
       -4    1    3    3    0  502 -0.28782384659E+03 -0.14731452596E+03  0.79903921968E+03  0.86197994391E+03  0.12699999809E+01 0. -1.
</event>
<event>
 5   0  0.2356769E-03  0.1268267E+04  0.7818609E-02  0.9055115E-01
        1   -1    0    0  501    0  0.00000000000E+00  0.00000000000E+00  0.92490168948E+03  0.92490168950E+03  0.50400001928E-02 0. -1.
       -1   -1    0    0    0  501  0.00000000000E+00  0.00000000000E+00 -0.43477635093E+03  0.43477635096E+03  0.50400001928E-02 0.  1.
    10030    2    1    2    0    0  0.00000000000E+00  0.00000000000E+00  0.49012533855E+03  0.13596780405E+04  0.12682671352E+04 0.  0.
        1    1    3    3  502    0 -0.44798498907E+03 -0.29474527203E+03 -0.11779971755E+03  0.54903742978E+03  0.50400001928E-02 0.  1.
       -1    1    3    3    0  502  0.44798498907E+03  0.29474527203E+03  0.60792505610E+03  0.81064061068E+03  0.50400001928E-02 0. -1.
</event>
<event>
 5   0  0.2356769E-03  0.1279714E+04  0.7818609E-02  0.9045808E-01
       -1   -1    0    0    0  501  0.00000000000E+00  0.00000000000E+00  0.32651193102E+03  0.32651193106E+03  0.50400001928E-02 0.  1.
        1   -1    0    0  501    0  0.00000000000E+00  0.00000000000E+00 -0.12539121510E+04  0.12539121510E+04  0.50400001928E-02 0. -1.
    10030    2    1    2    0    0  0.00000000000E+00  0.00000000000E+00 -0.92740022001E+03  0.15804240821E+04  0.12797144647E+04 0.  0.
        1    1    3    3  502    0  0.36596043938E+03  0.48442727071E+03 -0.21418349216E+03  0.64379452634E+03  0.50400001928E-02 0.  1.
       -1    1    3    3    0  502 -0.36596043938E+03 -0.48442727071E+03 -0.71321672785E+03  0.93662955575E+03  0.50400001928E-02 0. -1.
</event>
<event>
 5   0  0.1661750E-03  0.1317670E+04  0.7818609E-02  0.9015669E-01
        3   -1    0    0  501    0  0.00000000000E+00  0.00000000000E+00  0.55812399013E+03  0.55812399927E+03  0.10100000352E+00 0. -1.
       -3   -1    0    0    0  501  0.00000000000E+00  0.00000000000E+00 -0.77771934374E+03  0.77771935030E+03  0.10100000352E+00 0.  1.
    10030    2    1    2    0    0  0.00000000000E+00  0.00000000000E+00 -0.21959535361E+03  0.13358433496E+04  0.13176704198E+04 0.  0.
        3    1    3    3  502    0  0.11407187181E+03  0.61768923716E+02 -0.76464437059E+03  0.77556999397E+03  0.10100000352E+00 0.  1.
       -3    1    3    3    0  502 -0.11407187181E+03 -0.61768923716E+02  0.54504901698E+03  0.56027335559E+03  0.10100000352E+00 0. -1.
</event>
<event>
 5   0  0.4310889E-03  0.1364845E+04  0.7818609E-02  0.8979666E-01
       -2   -1    0    0    0  501  0.00000000000E+00  0.00000000000E+00  0.37859268472E+03  0.37859268473E+03  0.25500000920E-02 0.  1.
        2   -1    0    0  501    0  0.00000000000E+00  0.00000000000E+00 -0.12300828452E+04  0.12300828452E+04  0.25500000920E-02 0. -1.
    10030    2    1    2    0    0  0.00000000000E+00  0.00000000000E+00 -0.85149016045E+03  0.16086755299E+04  0.13648448509E+04 0.  0.
        4    1    3    3  502    0  0.46665787799E+03  0.47382765188E+03 -0.24538248031E+03  0.70886979998E+03  0.12699999809E+01 0.  1.
       -4    1    3    3    0  502 -0.46665787799E+03 -0.47382765188E+03 -0.60610768013E+03  0.89980572992E+03  0.12699999809E+01 0. -1.
</event>
<event>
 5   0  0.2356769E-03  0.1323402E+04  0.7818609E-02  0.9011210E-01
       -1   -1    0    0    0  501  0.00000000000E+00  0.00000000000E+00  0.24399777807E+03  0.24399777812E+03  0.50400001928E-02 0. -1.
        1   -1    0    0  501    0  0.00000000000E+00  0.00000000000E+00 -0.17944764169E+04  0.17944764169E+04  0.50400001928E-02 0.  1.
    10030    2    1    2    0    0  0.00000000000E+00  0.00000000000E+00 -0.15504786388E+04  0.20384741950E+04  0.13234020683E+04 0.  0.
        1    1    3    3  502    0 -0.38166617792E+03  0.30260742121E+03 -0.85337224556E+02  0.49449243135E+03  0.50400001928E-02 0. -1.
       -1    1    3    3    0  502  0.38166617792E+03 -0.30260742121E+03 -0.14651414143E+04  0.15439817637E+04  0.50400001928E-02 0.  1.
</event>
<event>
 5   0  0.4310889E-03  0.1307689E+04  0.7818609E-02  0.9023490E-01
        2   -1    0    0  501    0  0.00000000000E+00  0.00000000000E+00  0.37419231506E+03  0.37419231507E+03  0.25500000920E-02 0. -1.
       -2   -1    0    0    0  501  0.00000000000E+00  0.00000000000E+00 -0.11424950488E+04  0.11424950488E+04  0.25500000920E-02 0.  1.
    10030    2    1    2    0    0  0.00000000000E+00  0.00000000000E+00 -0.76830273374E+03  0.15166873639E+04  0.13076893626E+04 0.  0.
        4    1    3    3  502    0  0.21188663854E+03 -0.23789563255E+03  0.27808686317E+03  0.42287609999E+03  0.12699999809E+01 0. -1.
       -4    1    3    3    0  502 -0.21188663854E+03  0.23789563255E+03 -0.10463895969E+04  0.10938112639E+04  0.12699999809E+01 0.  1.
</event>
<event>
 5   0  0.4306214E-03  0.1315628E+04  0.7818609E-02  0.9017263E-01
       -2   -1    0    0    0  501  0.00000000000E+00  0.00000000000E+00  0.30862452955E+03  0.30862452956E+03  0.25500000920E-02 0.  1.
        2   -1    0    0  501    0  0.00000000000E+00  0.00000000000E+00 -0.14020902566E+04  0.14020902566E+04  0.25500000920E-02 0. -1.
    10030    2    1    2    0    0  0.00000000000E+00  0.00000000000E+00 -0.10934657271E+04  0.17107147862E+04  0.13156282847E+04 0.  0.
        3    1    3    3  502    0  0.10085478744E+03  0.57667035808E+03 -0.93682155400E+03  0.11046968020E+04  0.10100000352E+00 0. -1.
       -3    1    3    3    0  502 -0.10085478744E+03 -0.57667035808E+03 -0.15664417307E+03  0.60601798421E+03  0.10100000352E+00 0.  1.
</event>
<event>
 5   0  0.4453011E-03  0.1293634E+04  0.7818609E-02  0.9034628E-01
        2   -1    0    0  501    0  0.00000000000E+00  0.00000000000E+00  0.70353407387E+03  0.70353407387E+03  0.25500000920E-02 0.  1.
       -2   -1    0    0    0  501  0.00000000000E+00  0.00000000000E+00 -0.59467274557E+03  0.59467274558E+03  0.25500000920E-02 0. -1.
    10030    2    1    2    0    0  0.00000000000E+00  0.00000000000E+00  0.10886132829E+03  0.12982068195E+04  0.12936344759E+04 0.  0.
        1    1    3    3  502    0  0.44342077899E+02 -0.37859884163E+03  0.57883792111E+03  0.69307765921E+03  0.50400001928E-02 0.  1.
       -1    1    3    3    0  502 -0.44342077899E+02  0.37859884163E+03 -0.46997659281E+03  0.60512916024E+03  0.50400001928E-02 0. -1.
</event>
<event>
 5   0  0.4310889E-03  0.1298629E+04  0.7818609E-02  0.9030653E-01
       -2   -1    0    0    0  501  0.00000000000E+00  0.00000000000E+00  0.93377504494E+03  0.93377504494E+03  0.25500000920E-02 0.  1.
        2   -1    0    0  501    0  0.00000000000E+00  0.00000000000E+00 -0.45151047866E+03  0.45151047866E+03  0.25500000920E-02 0. -1.
    10030    2    1    2    0    0  0.00000000000E+00  0.00000000000E+00  0.48226456628E+03  0.13852855236E+04  0.12986288423E+04 0.  0.
        4    1    3    3  502    0 -0.20329001879E+03 -0.20423979203E+03  0.86182476841E+03  0.90872672940E+03  0.12699999809E+01 0.  1.
       -4    1    3    3    0  502  0.20329001879E+03  0.20423979203E+03 -0.37956020213E+03  0.47655879420E+03  0.12699999809E+01 0. -1.
</event>
<event>
 5   0  0.2356769E-03  0.1276196E+04  0.7818609E-02  0.9048658E-01
       -1   -1    0    0    0  501  0.00000000000E+00  0.00000000000E+00  0.15808252039E+04  0.15808252039E+04  0.50400001928E-02 0. -1.
        1   -1    0    0  501    0  0.00000000000E+00  0.00000000000E+00 -0.25756724909E+03  0.25756724914E+03  0.50400001928E-02 0.  1.
    10030    2    1    2    0    0  0.00000000000E+00  0.00000000000E+00  0.13232579548E+04  0.18383924531E+04  0.12761955949E+04 0.  0.
        1    1    3    3  502    0  0.39358572488E+02 -0.41854800130E+02 -0.25383370022E+03  0.26025462323E+03  0.50400001928E-02 0.  1.
       -1    1    3    3    0  502 -0.39358572488E+02  0.41854800130E+02  0.15770916551E+04  0.15781378299E+04  0.50400001928E-02 0. -1.
</event>
<event>
 5   0  0.4306214E-03  0.1212983E+04  0.7818609E-02  0.9101568E-01
        2   -1    0    0  501    0  0.00000000000E+00  0.00000000000E+00  0.31749780065E+03  0.31749780066E+03  0.25500000920E-02 0. -1.
       -2   -1    0    0    0  501  0.00000000000E+00  0.00000000000E+00 -0.11585339529E+04  0.11585339529E+04  0.25500000920E-02 0.  1.
    10030    2    1    2    0    0  0.00000000000E+00  0.00000000000E+00 -0.84103615226E+03  0.14760317536E+04  0.12129830700E+04 0.  0.
        3    1    3    3  502    0 -0.30672355800E+03  0.44030322390E+03 -0.76583776774E+02  0.54204368373E+03  0.10100000352E+00 0. -1.
       -3    1    3    3    0  502  0.30672355800E+03 -0.44030322390E+03 -0.76445237549E+03  0.93398806984E+03  0.10100000352E+00 0.  1.
</event>
<event>
 5   0  0.2356769E-03  0.1267975E+04  0.7818609E-02  0.9055354E-01
        1   -1    0    0  501    0  0.00000000000E+00  0.00000000000E+00  0.65262594906E+03  0.65262594908E+03  0.50400001928E-02 0.  1.
       -1   -1    0    0    0  501  0.00000000000E+00  0.00000000000E+00 -0.61588128100E+03  0.61588128102E+03  0.50400001928E-02 0. -1.
    10030    2    1    2    0    0  0.00000000000E+00  0.00000000000E+00  0.36744668062E+02  0.12685072301E+04  0.12679749296E+04 0.  0.
        1    1    3    3  502    0  0.28754026390E+03 -0.31594441928E+03  0.48701303651E+03  0.64782866345E+03  0.50400001928E-02 0.  1.
       -1    1    3    3    0  502 -0.28754026390E+03  0.31594441928E+03 -0.45026836845E+03  0.62067856664E+03  0.50400001928E-02 0. -1.
</event>
<event>
 5   0  0.4310889E-03  0.1295491E+04  0.7818609E-02  0.9033149E-01
        2   -1    0    0  501    0  0.00000000000E+00  0.00000000000E+00  0.13075711871E+04  0.13075711871E+04  0.25500000920E-02 0. -1.
       -2   -1    0    0    0  501  0.00000000000E+00  0.00000000000E+00 -0.32088058900E+03  0.32088058901E+03  0.25500000920E-02 0.  1.
    10030    2    1    2    0    0  0.00000000000E+00  0.00000000000E+00  0.98669059806E+03  0.16284517761E+04  0.12954909690E+04 0.  0.
        4    1    3    3  502    0 -0.55791024765E+03 -0.28906889315E+03  0.29559827564E+03  0.69440954982E+03  0.12699999809E+01 0.  1.
       -4    1    3    3    0  502  0.55791024765E+03  0.28906889315E+03  0.69109232242E+03  0.93404222626E+03  0.12699999809E+01 0. -1.
</event>
<event>
 5   0  0.4263540E-03  0.1290817E+04  0.7818609E-02  0.9036879E-01
        2   -1    0    0  501    0  0.00000000000E+00  0.00000000000E+00  0.19914180136E+04  0.19914180136E+04  0.25500000920E-02 0. -1.
       -2   -1    0    0    0  501  0.00000000000E+00  0.00000000000E+00 -0.20917373381E+03  0.20917373383E+03  0.25500000920E-02 0.  1.
    10030    2    1    2    0    0  0.00000000000E+00  0.00000000000E+00  0.17822442797E+04  0.22005917474E+04  0.12908173248E+04 0.  0.
        2    1    3    3  502    0 -0.33683424089E+02 -0.60828604092E+03  0.12543930745E+04  0.13945065313E+04  0.25500000920E-02 0.  1.
       -2    1    3    3    0  502  0.33683424089E+02  0.60828604092E+03  0.52785120528E+03  0.80608521607E+03  0.25500000920E-02 0. -1.
</event>
<event>
 5   0  0.4453011E-03  0.1301830E+04  0.7818609E-02  0.9028115E-01
       -2   -1    0    0    0  501  0.00000000000E+00  0.00000000000E+00  0.35372227655E+03  0.35372227656E+03  0.25500000920E-02 0.  1.
        2   -1    0    0  501    0  0.00000000000E+00  0.00000000000E+00 -0.11978044306E+04  0.11978044306E+04  0.25500000920E-02 0. -1.
    10030    2    1    2    0    0  0.00000000000E+00  0.00000000000E+00 -0.84408215404E+03  0.15515267072E+04  0.13018296510E+04 0.  0.
        1    1    3    3  502    0  0.22579248842E+03 -0.60808972430E+03 -0.48660510378E+03  0.81088833244E+03  0.50400001928E-02 0. -1.
       -1    1    3    3    0  502 -0.22579248842E+03  0.60808972430E+03 -0.35747705026E+03  0.74063837472E+03  0.50400001928E-02 0.  1.
</event>
<event>
 5   0  0.4306214E-03  0.1303115E+04  0.7818609E-02  0.9027098E-01
        2   -1    0    0  501    0  0.00000000000E+00  0.00000000000E+00  0.10695922588E+04  0.10695922588E+04  0.25500000920E-02 0. -1.
       -2   -1    0    0    0  501  0.00000000000E+00  0.00000000000E+00 -0.39690572138E+03  0.39690572138E+03  0.25500000920E-02 0.  1.
    10030    2    1    2    0    0  0.00000000000E+00  0.00000000000E+00  0.67268653744E+03  0.14664979802E+04  0.13031151708E+04 0.  0.
        3    1    3    3  502    0  0.26345053975E+03 -0.52858653398E+03  0.64601133158E+03  0.87529455701E+03  0.10100000352E+00 0. -1.
       -3    1    3    3    0  502 -0.26345053975E+03  0.52858653398E+03  0.26675205863E+02  0.59120342320E+03  0.10100000352E+00 0.  1.
</event>
<event>
 5   0  0.1661750E-03  0.1234830E+04  0.7818609E-02  0.9082905E-01
        3   -1    0    0  501    0  0.00000000000E+00  0.00000000000E+00  0.35586327293E+03  0.35586328726E+03  0.10100000352E+00 0. -1.
       -3   -1    0    0    0  501  0.00000000000E+00  0.00000000000E+00 -0.10712007561E+04  0.10712007609E+04  0.10100000352E+00 0.  1.
    10030    2    1    2    0    0  0.00000000000E+00  0.00000000000E+00 -0.71533748320E+03  0.14270640482E+04  0.12348295764E+04 0.  0.
        3    1    3    3  502    0 -0.51506186513E+01 -0.47341632795E+03 -0.81566025853E+03  0.94310721341E+03  0.10100000352E+00 0.  1.
       -3    1    3    3    0  502  0.51506186513E+01  0.47341632795E+03  0.10032277533E+03  0.48395683474E+03  0.10100000352E+00 0. -1.
</event>
<event>
 5   0  0.4263540E-03  0.1322549E+04  0.7818609E-02  0.9011872E-01
        2   -1    0    0  501    0  0.00000000000E+00  0.00000000000E+00  0.48133213787E+03  0.48133213788E+03  0.25500000920E-02 0.  1.
       -2   -1    0    0    0  501  0.00000000000E+00  0.00000000000E+00 -0.90848662980E+03  0.90848662981E+03  0.25500000920E-02 0. -1.
    10030    2    1    2    0    0  0.00000000000E+00  0.00000000000E+00 -0.42715449193E+03  0.13898187677E+04  0.13225487692E+04 0.  0.
        2    1    3    3  502    0 -0.31252014202E+03 -0.12099117347E+03  0.38548533491E+03  0.51079021786E+03  0.25500000920E-02 0.  1.
       -2    1    3    3    0  502  0.31252014202E+03  0.12099117347E+03 -0.81263982684E+03  0.87902854982E+03  0.25500000920E-02 0. -1.
</event>
<event>
 5   0  0.2462055E-03  0.1292917E+04  0.7818609E-02  0.9035201E-01
        1   -1    0    0  501    0  0.00000000000E+00  0.00000000000E+00  0.15943674436E+04  0.15943674436E+04  0.50400001928E-02 0. -1.
       -1   -1    0    0    0  501  0.00000000000E+00  0.00000000000E+00 -0.26211562491E+03  0.26211562496E+03  0.50400001928E-02 0.  1.
    10030    2    1    2    0    0  0.00000000000E+00  0.00000000000E+00  0.13322518187E+04  0.18564830686E+04  0.12929170412E+04 0.  0.
        2    1    3    3  502    0 -0.14003359943E+03 -0.23048402308E+03 -0.17748237003E+03  0.32285025251E+03  0.25500000920E-02 0.  1.
       -2    1    3    3    0  502  0.14003359943E+03  0.23048402308E+03  0.15097341887E+04  0.15336328160E+04  0.25500000920E-02 0. -1.
</event>
<event>
 5   0  0.2462055E-03  0.1315286E+04  0.7818609E-02  0.9017530E-01
       -1   -1    0    0    0  501  0.00000000000E+00  0.00000000000E+00  0.21350048820E+03  0.21350048826E+03  0.50400001928E-02 0.  1.
        1   -1    0    0  501    0  0.00000000000E+00  0.00000000000E+00 -0.20257296762E+04  0.20257296763E+04  0.50400001928E-02 0. -1.
    10030    2    1    2    0    0  0.00000000000E+00  0.00000000000E+00 -0.18122291880E+04  0.22392301645E+04  0.13152859384E+04 0.  0.
        2    1    3    3  502    0 -0.27970710100E+03 -0.23025921720E+03  0.28288115668E+02  0.36339453346E+03  0.25500000920E-02 0.  1.
       -2    1    3    3    0  502  0.27970710100E+03  0.23025921720E+03 -0.18405173037E+04  0.18758356311E+04  0.25500000920E-02 0. -1.
</event>
<event>
 5   0  0.2511542E-03  0.1322996E+04  0.7818609E-02  0.9011525E-01
        1   -1    0    0  501    0  0.00000000000E+00  0.00000000000E+00  0.93355239134E+03  0.93355239135E+03  0.50400001928E-02 0. -1.
       -1   -1    0    0    0  501  0.00000000000E+00  0.00000000000E+00 -0.46872517539E+03  0.46872517542E+03  0.50400001928E-02 0.  1.
    10030    2    1    2    0    0  0.00000000000E+00  0.00000000000E+00  0.46482721594E+03  0.14022775668E+04  0.13229958555E+04 0.  0.
        4    1    3    3  502    0  0.37293973363E+03  0.50931037076E+03  0.22835415064E+02  0.63166776692E+03  0.12699999809E+01 0. -1.
       -4    1    3    3    0  502 -0.37293973363E+03 -0.50931037076E+03  0.44199180088E+03  0.77060979985E+03  0.12699999809E+01 0.  1.
</event>
<event>
 5   0  0.2458456E-03  0.1303171E+04  0.7818609E-02  0.9027054E-01
        1   -1    0    0  501    0  0.00000000000E+00  0.00000000000E+00  0.39289363270E+03  0.39289363273E+03  0.50400001928E-02 0. -1.
       -1   -1    0    0    0  501  0.00000000000E+00  0.00000000000E+00 -0.10806069601E+04  0.10806069601E+04  0.50400001928E-02 0.  1.
    10030    2    1    2    0    0  0.00000000000E+00  0.00000000000E+00 -0.68771332736E+03  0.14735005928E+04  0.13031708930E+04 0.  0.
        5    1    3    3  502    0 -0.45705534185E+03 -0.12943483599E+03  0.16040253056E+03  0.50140205832E+03  0.46999998093E+01 0. -1.
       -5    1    3    3    0  502  0.45705534185E+03  0.12943483599E+03 -0.84811585792E+03  0.97209853448E+03  0.46999998093E+01 0.  1.
</event>
<event>
 5   0  0.2458456E-03  0.1320607E+04  0.7818609E-02  0.9013381E-01
       -1   -1    0    0    0  501  0.00000000000E+00  0.00000000000E+00  0.59916946127E+03  0.59916946129E+03  0.50400001928E-02 0.  1.
        1   -1    0    0  501    0  0.00000000000E+00  0.00000000000E+00 -0.72767498463E+03  0.72767498465E+03  0.50400001928E-02 0. -1.
    10030    2    1    2    0    0  0.00000000000E+00  0.00000000000E+00 -0.12850552336E+03  0.13268444459E+04  0.13206068734E+04 0.  0.
        5    1    3    3  502    0  0.55667356635E+02  0.52638710345E+02  0.59467172508E+03  0.59960506921E+03  0.46999998093E+01 0.  1.
       -5    1    3    3    0  502 -0.55667356635E+02 -0.52638710345E+02 -0.72317724843E+03  0.72723937673E+03  0.46999998093E+01 0. -1.
</event>
<event>
 5   0  0.4306214E-03  0.1313112E+04  0.7818609E-02  0.9019232E-01
        2   -1    0    0  501    0  0.00000000000E+00  0.00000000000E+00  0.23858795470E+04  0.23858795470E+04  0.25500000920E-02 0.  1.
       -2   -1    0    0    0  501  0.00000000000E+00  0.00000000000E+00 -0.18067366129E+03  0.18067366130E+03  0.25500000920E-02 0. -1.
    10030    2    1    2    0    0  0.00000000000E+00  0.00000000000E+00  0.22052058857E+04  0.25665532083E+04  0.13131117137E+04 0.  0.
        3    1    3    3  502    0  0.25732121594E+03 -0.45872859096E+03  0.33453506240E+03  0.62334568781E+03  0.10100000352E+00 0. -1.
       -3    1    3    3    0  502 -0.25732121594E+03  0.45872859096E+03  0.18706708233E+04  0.19432075205E+04  0.10100000352E+00 0.  1.
</event>
<event>
 5   0  0.4306214E-03  0.1312993E+04  0.7818609E-02  0.9019325E-01
        2   -1    0    0  501    0  0.00000000000E+00  0.00000000000E+00  0.94855270649E+03  0.94855270649E+03  0.25500000920E-02 0. -1.
       -2   -1    0    0    0  501  0.00000000000E+00  0.00000000000E+00 -0.45436308503E+03  0.45436308504E+03  0.25500000920E-02 0.  1.
    10030    2    1    2    0    0  0.00000000000E+00  0.00000000000E+00  0.49418962146E+03  0.14029157915E+04  0.13129925119E+04 0.  0.
        3    1    3    3  502    0 -0.52509916435E+03  0.26441311892E+03  0.55923923506E+03  0.81141355799E+03  0.10100000352E+00 0. -1.
       -3    1    3    3    0  502  0.52509916435E+03 -0.26441311892E+03 -0.65049613602E+02  0.59150223355E+03  0.10100000352E+00 0.  1.
</event>
<event>
 5   0  0.2458456E-03  0.1276952E+04  0.7818609E-02  0.9048045E-01
        1   -1    0    0  501    0  0.00000000000E+00  0.00000000000E+00  0.84941292124E+03  0.84941292125E+03  0.50400001928E-02 0.  1.
       -1   -1    0    0    0  501  0.00000000000E+00  0.00000000000E+00 -0.47992151951E+03  0.47992151954E+03  0.50400001928E-02 0. -1.
    10030    2    1    2    0    0  0.00000000000E+00  0.00000000000E+00  0.36949140173E+03  0.13293344408E+04  0.12769519018E+04 0.  0.
        5    1    3    3  502    0  0.61191006265E+03 -0.12748260525E+03  0.49237999499E+02  0.62700255981E+03  0.46999998093E+01 0.  1.
       -5    1    3    3    0  502 -0.61191006265E+03  0.12748260525E+03  0.32025340223E+03  0.70233188099E+03  0.46999998093E+01 0. -1.
</event>
<event>
 5   0  0.4453011E-03  0.1246972E+04  0.7818609E-02  0.9072707E-01
       -2   -1    0    0    0  501  0.00000000000E+00  0.00000000000E+00  0.65830786038E+03  0.65830786039E+03  0.25500000920E-02 0. -1.
        2   -1    0    0  501    0  0.00000000000E+00  0.00000000000E+00 -0.59050631715E+03  0.59050631716E+03  0.25500000920E-02 0.  1.
    10030    2    1    2    0    0  0.00000000000E+00  0.00000000000E+00  0.67801543227E+02  0.12488141775E+04  0.12469722534E+04 0.  0.
        1    1    3    3  502    0 -0.61550353524E+03  0.99229555505E+02  0.40532001110E+02  0.62476711639E+03  0.50400001928E-02 0.  1.
       -1    1    3    3    0  502  0.61550353524E+03 -0.99229555505E+02  0.27269542117E+02  0.62404706116E+03  0.50400001928E-02 0. -1.
</event>
<event>
 5   0  0.2462055E-03  0.1319061E+04  0.7818609E-02  0.9014585E-01
       -1   -1    0    0    0  501  0.00000000000E+00  0.00000000000E+00  0.38566375148E+03  0.38566375152E+03  0.50400001928E-02 0. -1.
        1   -1    0    0  501    0  0.00000000000E+00  0.00000000000E+00 -0.11278746212E+04  0.11278746212E+04  0.50400001928E-02 0.  1.
    10030    2    1    2    0    0  0.00000000000E+00  0.00000000000E+00 -0.74221086967E+03  0.15135383727E+04  0.13190608138E+04 0.  0.
        2    1    3    3  502    0 -0.34998064562E+03 -0.14047110443E+03  0.24974330304E+03  0.45231659367E+03  0.25500000920E-02 0. -1.
       -2    1    3    3    0  502  0.34998064562E+03  0.14047110443E+03 -0.99195417272E+03  0.10612217790E+04  0.25500000920E-02 0.  1.
</event>
<event>
 5   0  0.4306214E-03  0.1329982E+04  0.7818609E-02  0.9006122E-01
       -2   -1    0    0    0  501  0.00000000000E+00  0.00000000000E+00  0.28883083661E+03  0.28883083663E+03  0.25500000920E-02 0.  1.
        2   -1    0    0  501    0  0.00000000000E+00  0.00000000000E+00 -0.15310440436E+04  0.15310440436E+04  0.25500000920E-02 0. -1.
    10030    2    1    2    0    0  0.00000000000E+00  0.00000000000E+00 -0.12422132070E+04  0.18198748802E+04  0.13299815518E+04 0.  0.
        3    1    3    3  502    0 -0.64165155215E+03  0.12708434451E+03 -0.45721567286E+03  0.79806849750E+03  0.10100000352E+00 0.  1.
       -3    1    3    3    0  502  0.64165155215E+03 -0.12708434451E+03 -0.78499753411E+03  0.10218063827E+04  0.10100000352E+00 0. -1.
</event>
<event>
 5   0  0.4310889E-03  0.1285226E+04  0.7818609E-02  0.9041364E-01
        2   -1    0    0  501    0  0.00000000000E+00  0.00000000000E+00  0.16553138242E+04  0.16553138242E+04  0.25500000920E-02 0. -1.
       -2   -1    0    0    0  501  0.00000000000E+00  0.00000000000E+00 -0.24947027878E+03  0.24947027879E+03  0.25500000920E-02 0.  1.
    10030    2    1    2    0    0  0.00000000000E+00  0.00000000000E+00  0.14058435454E+04  0.19047841030E+04  0.12852262077E+04 0.  0.
        4    1    3    3  502    0 -0.46800158543E+03 -0.10072593851E+03  0.67570537642E+02  0.48346518914E+03  0.12699999809E+01 0.  1.
       -4    1    3    3    0  502  0.46800158543E+03  0.10072593851E+03  0.13382730078E+04  0.14213189139E+04  0.12699999809E+01 0. -1.
</event>
<event>
 5   0  0.4388937E-03  0.8086264E+03  0.7818609E-02  0.9547614E-01
        2   -1    0    0  501    0  0.00000000000E+00  0.00000000000E+00  0.69709903301E+03  0.69709903301E+03  0.25500000920E-02 0. -1.
       -2   -1    0    0    0  501  0.00000000000E+00  0.00000000000E+00 -0.23449921312E+03  0.23449921313E+03  0.25500000920E-02 0.  1.
    10030    2    1    2    0    0  0.00000000000E+00  0.00000000000E+00  0.46259981989E+03  0.93159824614E+03  0.80862642725E+03 0.  0.
        5    1    3    3  502    0  0.77896892115E+02  0.32718851527E+03  0.48975229148E+03  0.59413773432E+03  0.46999998093E+01 0. -1.
       -5    1    3    3    0  502 -0.77896892115E+02 -0.32718851527E+03 -0.27152471597E+02  0.33746051182E+03  0.46999998093E+01 0.  1.
</event>
<event>
 5   0  0.2356769E-03  0.1307291E+04  0.7818609E-02  0.9023803E-01
        1   -1    0    0  501    0  0.00000000000E+00  0.00000000000E+00  0.82113121787E+03  0.82113121789E+03  0.50400001928E-02 0.  1.
       -1   -1    0    0    0  501  0.00000000000E+00  0.00000000000E+00 -0.52032199540E+03  0.52032199543E+03  0.50400001928E-02 0. -1.
    10030    2    1    2    0    0  0.00000000000E+00  0.00000000000E+00  0.30080922247E+03  0.13414532133E+04  0.13072912970E+04 0.  0.
        1    1    3    3  502    0  0.27953407712E+03 -0.34112555614E+03  0.64544988132E+03  0.78173620528E+03  0.50400001928E-02 0.  1.
       -1    1    3    3    0  502 -0.27953407712E+03  0.34112555614E+03 -0.34464065885E+03  0.55971700803E+03  0.50400001928E-02 0. -1.
</event>
<event>
 5   0  0.2370801E-03  0.1331998E+04  0.7818609E-02  0.9004568E-01
        1   -1    0    0  501    0  0.00000000000E+00  0.00000000000E+00  0.15435656727E+04  0.15435656727E+04  0.50400001928E-02 0.  1.
       -1   -1    0    0    0  501  0.00000000000E+00  0.00000000000E+00 -0.28735720037E+03  0.28735720042E+03  0.50400001928E-02 0. -1.
    10030    2    1    2    0    0  0.00000000000E+00  0.00000000000E+00  0.12562084723E+04  0.18309228731E+04  0.13319980636E+04 0.  0.
        3    1    3    3  502    0  0.99430490332E+02 -0.42883905161E+03 -0.58857499386E+02  0.44413237895E+03  0.10100000352E+00 0. -1.
       -3    1    3    3    0  502 -0.99430490332E+02  0.42883905161E+03  0.13150659717E+04  0.13867904942E+04  0.10100000352E+00 0.  1.
</event>
<event>
 5   0  0.2511542E-03  0.1060106E+04  0.7818609E-02  0.9244972E-01
       -1   -1    0    0    0  501  0.00000000000E+00  0.00000000000E+00  0.63163118542E+03  0.63163118544E+03  0.50400001928E-02 0. -1.
        1   -1    0    0  501    0  0.00000000000E+00  0.00000000000E+00 -0.44481017564E+03  0.44481017567E+03  0.50400001928E-02 0.  1.
    10030    2    1    2    0    0  0.00000000000E+00  0.00000000000E+00  0.18682100978E+03  0.10764413611E+04  0.10601056146E+04 0.  0.
        4    1    3    3  502    0 -0.26449651090E+02  0.15661898562E+03 -0.42007485893E+03  0.44910309585E+03  0.12699999809E+01 0.  1.
       -4    1    3    3    0  502  0.26449651090E+02 -0.15661898562E+03  0.60689586871E+03  0.62733826525E+03  0.12699999809E+01 0. -1.
</event>
<event>
 5   0  0.2458456E-03  0.1272575E+04  0.7818609E-02  0.9051601E-01
        1   -1    0    0  501    0  0.00000000000E+00  0.00000000000E+00  0.68595589513E+03  0.68595589515E+03  0.50400001928E-02 0.  1.
       -1   -1    0    0    0  501  0.00000000000E+00  0.00000000000E+00 -0.59021557370E+03  0.59021557372E+03  0.50400001928E-02 0. -1.
    10030    2    1    2    0    0  0.00000000000E+00  0.00000000000E+00  0.95740321433E+02  0.12761714689E+04  0.12725751093E+04 0.  0.
        5    1    3    3  502    0 -0.47050392670E+03 -0.27971166706E+03  0.37317431888E+03  0.66249054635E+03  0.46999998093E+01 0. -1.
       -5    1    3    3    0  502  0.47050392670E+03  0.27971166706E+03 -0.27743399745E+03  0.61368092252E+03  0.46999998093E+01 0.  1.
</event>
<event>
 5   0  0.4306214E-03  0.1206024E+04  0.7818609E-02  0.9107600E-01
       -2   -1    0    0    0  501  0.00000000000E+00  0.00000000000E+00  0.27347542424E+03  0.27347542425E+03  0.25500000920E-02 0. -1.
        2   -1    0    0  501    0  0.00000000000E+00  0.00000000000E+00 -0.13296387512E+04  0.13296387512E+04  0.25500000920E-02 0.  1.
    10030    2    1    2    0    0  0.00000000000E+00  0.00000000000E+00 -0.10561633269E+04  0.16031141754E+04  0.12060240820E+04 0.  0.
        3    1    3    3  502    0  0.44071731586E+03  0.40398463491E+03 -0.42351585015E+03  0.73266706168E+03  0.10100000352E+00 0. -1.
       -3    1    3    3    0  502 -0.44071731586E+03 -0.40398463491E+03 -0.63264747679E+03  0.87044711375E+03  0.10100000352E+00 0.  1.
</event>
<event>
 5   0  0.2462055E-03  0.1196079E+04  0.7818609E-02  0.9116296E-01
       -1   -1    0    0    0  501  0.00000000000E+00  0.00000000000E+00  0.38326797106E+03  0.38326797109E+03  0.50400001928E-02 0.  1.
        1   -1    0    0  501    0  0.00000000000E+00  0.00000000000E+00 -0.93316214879E+03  0.93316214880E+03  0.50400001928E-02 0. -1.
    10030    2    1    2    0    0  0.00000000000E+00  0.00000000000E+00 -0.54989417773E+03  0.13164301199E+04  0.11960788661E+04 0.  0.
        2    1    3    3  502    0 -0.23644123564E+03  0.13659142331E+03 -0.86054546748E+03  0.90282898515E+03  0.25500000920E-02 0. -1.
       -2    1    3    3    0  502  0.23644123564E+03 -0.13659142331E+03  0.31065128974E+03  0.41360113474E+03  0.25500000920E-02 0.  1.
</event>
<event>
 5   0  0.2511542E-03  0.1264254E+04  0.7818609E-02  0.9058403E-01
       -1   -1    0    0    0  501  0.00000000000E+00  0.00000000000E+00  0.68178668072E+03  0.68178668074E+03  0.50400001928E-02 0.  1.
        1   -1    0    0  501    0  0.00000000000E+00  0.00000000000E+00 -0.58608426053E+03  0.58608426055E+03  0.50400001928E-02 0. -1.
    10030    2    1    2    0    0  0.00000000000E+00  0.00000000000E+00  0.95702420187E+02  0.12678709413E+04  0.12642538394E+04 0.  0.
        4    1    3    3  502    0 -0.22468727760E+03  0.30707199395E+03 -0.45837537731E+03  0.59572408177E+03  0.12699999809E+01 0. -1.
       -4    1    3    3    0  502  0.22468727760E+03 -0.30707199395E+03  0.55407779750E+03  0.67214685952E+03  0.12699999809E+01 0.  1.
</event>
<event>
 5   0  0.2370801E-03  0.1295795E+04  0.7818609E-02  0.9032907E-01
        1   -1    0    0  501    0  0.00000000000E+00  0.00000000000E+00  0.11093887733E+04  0.11093887733E+04  0.50400001928E-02 0.  1.
       -1   -1    0    0    0  501  0.00000000000E+00  0.00000000000E+00 -0.37838038213E+03  0.37838038216E+03  0.50400001928E-02 0. -1.
    10030    2    1    2    0    0  0.00000000000E+00  0.00000000000E+00  0.73100839117E+03  0.14877691555E+04  0.12957946566E+04 0.  0.
        3    1    3    3  502    0 -0.32885424912E+03  0.30502003986E+03 -0.17129655713E+03  0.48013004756E+03  0.10100000352E+00 0. -1.
       -3    1    3    3    0  502  0.32885424912E+03 -0.30502003986E+03  0.90230494830E+03  0.10076391079E+04  0.10100000352E+00 0.  1.
</event>
<event>
 5   0  0.2511542E-03  0.1312341E+04  0.7818609E-02  0.9019835E-01
        1   -1    0    0  501    0  0.00000000000E+00  0.00000000000E+00  0.93599717328E+03  0.93599717329E+03  0.50400001928E-02 0. -1.
       -1   -1    0    0    0  501  0.00000000000E+00  0.00000000000E+00 -0.46000138596E+03  0.46000138599E+03  0.50400001928E-02 0.  1.
    10030    2    1    2    0    0  0.00000000000E+00  0.00000000000E+00  0.47599578732E+03  0.13959985593E+04  0.13123414144E+04 0.  0.
        4    1    3    3  502    0 -0.43180923176E+03  0.49242600380E+03  0.28075735621E+03  0.71257903970E+03  0.12699999809E+01 0.  1.
       -4    1    3    3    0  502  0.43180923176E+03 -0.49242600380E+03  0.19523843111E+03  0.68341951958E+03  0.12699999809E+01 0. -1.
</event>
<event>
 5   0  0.4263540E-03  0.1324684E+04  0.7818609E-02  0.9010216E-01
       -2   -1    0    0    0  501  0.00000000000E+00  0.00000000000E+00  0.12365372404E+04  0.12365372404E+04  0.25500000920E-02 0.  1.
        2   -1    0    0  501    0  0.00000000000E+00  0.00000000000E+00 -0.35477869782E+03  0.35477869783E+03  0.25500000920E-02 0. -1.
    10030    2    1    2    0    0  0.00000000000E+00  0.00000000000E+00  0.88175854258E+03  0.15913159382E+04  0.13246842219E+04 0.  0.
        2    1    3    3  502    0 -0.26663700443E+03  0.37981637618E+03  0.10085919182E+04  0.11102312503E+04  0.25500000920E-02 0.  1.
       -2    1    3    3    0  502  0.26663700443E+03 -0.37981637618E+03 -0.12683337563E+03  0.48108468789E+03  0.25500000920E-02 0. -1.
</event>
<event>
 5   0  0.4388937E-03  0.1334048E+04  0.7818609E-02  0.9002992E-01
       -2   -1    0    0    0  501  0.00000000000E+00  0.00000000000E+00  0.16505874749E+04  0.16505874749E+04  0.25500000920E-02 0.  1.
        2   -1    0    0  501    0  0.00000000000E+00  0.00000000000E+00 -0.26955301139E+03  0.26955301140E+03  0.25500000920E-02 0. -1.
    10030    2    1    2    0    0  0.00000000000E+00  0.00000000000E+00  0.13810344635E+04  0.19201404863E+04  0.13340477119E+04 0.  0.
        5    1    3    3  502    0  0.38081159926E+03 -0.43029277990E+03  0.20298989433E+03  0.60942295474E+03  0.46999998093E+01 0. -1.
       -5    1    3    3    0  502 -0.38081159926E+03  0.43029277990E+03  0.11780445692E+04  0.13107175315E+04  0.46999998093E+01 0.  1.
</event>
<event>
 5   0  0.4306214E-03  0.1320608E+04  0.7818609E-02  0.9013381E-01
        2   -1    0    0  501    0  0.00000000000E+00  0.00000000000E+00  0.12972339248E+04  0.12972339248E+04  0.25500000920E-02 0. -1.
       -2   -1    0    0    0  501  0.00000000000E+00  0.00000000000E+00 -0.33610069139E+03  0.33610069140E+03  0.25500000920E-02 0.  1.
    10030    2    1    2    0    0  0.00000000000E+00  0.00000000000E+00  0.96113323338E+03  0.16333346162E+04  0.13206077677E+04 0.  0.
        3    1    3    3  502    0  0.18934044740E+02 -0.35114310122E+03 -0.21065287983E+03  0.40992026245E+03  0.10100000352E+00 0.  1.
       -3    1    3    3    0  502 -0.18934044740E+02  0.35114310122E+03  0.11717861132E+04  0.12234143537E+04  0.10100000352E+00 0. -1.
</event>
<event>
 5   0  0.4388937E-03  0.1303840E+04  0.7818609E-02  0.9026526E-01
       -2   -1    0    0    0  501  0.00000000000E+00  0.00000000000E+00  0.19154921741E+03  0.19154921742E+03  0.25500000920E-02 0. -1.
        2   -1    0    0  501    0  0.00000000000E+00  0.00000000000E+00 -0.22187489275E+04  0.22187489275E+04  0.25500000920E-02 0.  1.
    10030    2    1    2    0    0  0.00000000000E+00  0.00000000000E+00 -0.20271997101E+04  0.24102981449E+04  0.13038398992E+04 0.  0.
        5    1    3    3  502    0 -0.45342842423E+03 -0.88669266122E+02 -0.18637979357E+04  0.19202146780E+04  0.46999998093E+01 0.  1.
       -5    1    3    3    0  502  0.45342842423E+03  0.88669266122E+02 -0.16340177442E+03  0.49008346691E+03  0.46999998093E+01 0. -1.
</event>
<event>
 5   0  0.2511542E-03  0.1325574E+04  0.7818609E-02  0.9009527E-01
        1   -1    0    0  501    0  0.00000000000E+00  0.00000000000E+00  0.13448651889E+04  0.13448651889E+04  0.50400001928E-02 0.  1.
       -1   -1    0    0    0  501  0.00000000000E+00  0.00000000000E+00 -0.32663974610E+03  0.32663974614E+03  0.50400001928E-02 0. -1.
    10030    2    1    2    0    0  0.00000000000E+00  0.00000000000E+00  0.10182254428E+04  0.16715049350E+04  0.13255737231E+04 0.  0.
        4    1    3    3  502    0 -0.91654130852E+02  0.63006829492E+03  0.27694995180E+03  0.69432659798E+03  0.12699999809E+01 0. -1.
       -4    1    3    3    0  502  0.91654130852E+02 -0.63006829492E+03  0.74127549098E+03  0.97717833705E+03  0.12699999809E+01 0.  1.
</event>
<event>
 5   0  0.2370801E-03  0.1302604E+04  0.7818609E-02  0.9027503E-01
        1   -1    0    0  501    0  0.00000000000E+00  0.00000000000E+00  0.11936070956E+04  0.11936070956E+04  0.50400001928E-02 0. -1.
       -1   -1    0    0    0  501  0.00000000000E+00  0.00000000000E+00 -0.35538832505E+03  0.35538832509E+03  0.50400001928E-02 0.  1.
    10030    2    1    2    0    0  0.00000000000E+00  0.00000000000E+00  0.83821877055E+03  0.15489954207E+04  0.13026035875E+04 0.  0.
        3    1    3    3  502    0  0.55702610015E+03 -0.26599872974E+03  0.17206119301E+03  0.64081078706E+03  0.10100000352E+00 0.  1.
       -3    1    3    3    0  502 -0.55702610015E+03  0.26599872974E+03  0.66615757754E+03  0.90818463364E+03  0.10100000352E+00 0. -1.
</event>
<event>
 5   0  0.2370801E-03  0.1317337E+04  0.7818609E-02  0.9015929E-01
       -1   -1    0    0    0  501  0.00000000000E+00  0.00000000000E+00  0.40174911825E+03  0.40174911828E+03  0.50400001928E-02 0. -1.
        1   -1    0    0  501    0  0.00000000000E+00  0.00000000000E+00 -0.10798881763E+04  0.10798881763E+04  0.50400001928E-02 0.  1.
    10030    2    1    2    0    0  0.00000000000E+00  0.00000000000E+00 -0.67813905802E+03  0.14816372946E+04  0.13173368934E+04 0.  0.
        3    1    3    3  502    0 -0.32720033703E+03 -0.55166802982E+03 -0.17056221691E+03  0.66369357064E+03  0.10100000352E+00 0. -1.
       -3    1    3    3    0  502  0.32720033703E+03  0.55166802982E+03 -0.50757684111E+03  0.81794372392E+03  0.10100000352E+00 0.  1.
</event>
<event>
 5   0  0.2458456E-03  0.1254518E+04  0.7818609E-02  0.9066431E-01
       -1   -1    0    0    0  501  0.00000000000E+00  0.00000000000E+00  0.82195766657E+03  0.82195766658E+03  0.50400001928E-02 0. -1.
        1   -1    0    0  501    0  0.00000000000E+00  0.00000000000E+00 -0.47867897138E+03  0.47867897140E+03  0.50400001928E-02 0.  1.
    10030    2    1    2    0    0  0.00000000000E+00  0.00000000000E+00  0.34327869519E+03  0.13006366380E+04  0.12545179957E+04 0.  0.
        5    1    3    3  502    0 -0.58151936521E+03 -0.19893169247E+03  0.30151699931E+03  0.68459709410E+03  0.46999998093E+01 0. -1.
       -5    1    3    3    0  502  0.58151936521E+03  0.19893169247E+03  0.41761695881E+02  0.61603954388E+03  0.46999998093E+01 0.  1.
</event>
<event>
 5   0  0.4263540E-03  0.1497802E+04  0.7818609E-02  0.8885916E-01
       -2   -1    0    0    0  501  0.00000000000E+00  0.00000000000E+00  0.44802997920E+03  0.44802997920E+03  0.25500000920E-02 0.  1.
        2   -1    0    0  501    0  0.00000000000E+00  0.00000000000E+00 -0.12518199597E+04  0.12518199597E+04  0.25500000920E-02 0. -1.
    10030    2    1    2    0    0  0.00000000000E+00  0.00000000000E+00 -0.80378998047E+03  0.16998499389E+04  0.14978022172E+04 0.  0.
        2    1    3    3  502    0  0.38149640357E+03 -0.58545623602E+03 -0.70758966501E+03  0.99447556243E+03  0.25500000920E-02 0.  1.
       -2    1    3    3    0  502 -0.38149640357E+03  0.58545623602E+03 -0.96200315455E+02  0.70537437644E+03  0.25500000920E-02 0. -1.
</event>
<event>
 5   0  0.4306214E-03  0.1284032E+04  0.7818609E-02  0.9042325E-01
       -2   -1    0    0    0  501  0.00000000000E+00  0.00000000000E+00  0.67419980516E+03  0.67419980516E+03  0.25500000920E-02 0.  1.
        2   -1    0    0  501    0  0.00000000000E+00  0.00000000000E+00 -0.61136806812E+03  0.61136806813E+03  0.25500000920E-02 0. -1.
    10030    2    1    2    0    0  0.00000000000E+00  0.00000000000E+00  0.62831737034E+02  0.12855678733E+04  0.12840315143E+04 0.  0.
        3    1    3    3  502    0  0.35991331636E+03  0.62488847246E+02 -0.49717585072E+03  0.61694917787E+03  0.10100000352E+00 0.  1.
       -3    1    3    3    0  502 -0.35991331636E+03 -0.62488847246E+02  0.56000758776E+03  0.66861869543E+03  0.10100000352E+00 0. -1.
</event>
<event>
 5   0  0.4306214E-03  0.1231175E+04  0.7818609E-02  0.9085998E-01
       -2   -1    0    0    0  501  0.00000000000E+00  0.00000000000E+00  0.45252139960E+03  0.45252139960E+03  0.25500000920E-02 0.  1.
        2   -1    0    0  501    0  0.00000000000E+00  0.00000000000E+00 -0.83741458469E+03  0.83741458469E+03  0.25500000920E-02 0. -1.
    10030    2    1    2    0    0  0.00000000000E+00  0.00000000000E+00 -0.38489318509E+03  0.12899359843E+04  0.12311750808E+04 0.  0.
        3    1    3    3  502    0 -0.25166742455E+03 -0.38145144366E+03 -0.62457076160E+03  0.77390590054E+03  0.10100000352E+00 0. -1.
       -3    1    3    3    0  502  0.25166742455E+03  0.38145144366E+03  0.23967757651E+03  0.51603008375E+03  0.10100000352E+00 0.  1.
</event>
<event>
 5   0  0.2462055E-03  0.1373142E+04  0.7818609E-02  0.8973493E-01
        1   -1    0    0  501    0  0.00000000000E+00  0.00000000000E+00  0.39258331407E+03  0.39258331410E+03  0.50400001928E-02 0.  1.
       -1   -1    0    0    0  501  0.00000000000E+00  0.00000000000E+00 -0.12007120974E+04  0.12007120974E+04  0.50400001928E-02 0. -1.
    10030    2    1    2    0    0  0.00000000000E+00  0.00000000000E+00 -0.80812878331E+03  0.15932954115E+04  0.13731417035E+04 0.  0.
        2    1    3    3  502    0  0.63139065536E+03  0.21776177377E+03 -0.21948394028E+03  0.70302741755E+03  0.25500000920E-02 0.  1.
       -2    1    3    3    0  502 -0.63139065536E+03 -0.21776177377E+03 -0.58864484304E+03  0.89026799393E+03  0.25500000920E-02 0. -1.
</event>
<event>
 5   0  0.4310889E-03  0.1482996E+04  0.7818609E-02  0.8895840E-01
        2   -1    0    0  501    0  0.00000000000E+00  0.00000000000E+00  0.55982988324E+03  0.55982988324E+03  0.25500000920E-02 0.  1.
       -2   -1    0    0    0  501  0.00000000000E+00  0.00000000000E+00 -0.98211829331E+03  0.98211829332E+03  0.25500000920E-02 0. -1.
    10030    2    1    2    0    0  0.00000000000E+00  0.00000000000E+00 -0.42228841008E+03  0.15419481766E+04  0.14829958455E+04 0.  0.
        4    1    3    3  502    0 -0.50322649422E+03  0.41658102334E+03  0.15357161210E+03  0.67109053519E+03  0.12699999809E+01 0.  1.
       -4    1    3    3    0  502  0.50322649422E+03 -0.41658102334E+03 -0.57586002217E+03  0.87085764136E+03  0.12699999809E+01 0. -1.
</event>
<event>
 5   0  0.4306214E-03  0.1307343E+04  0.7818609E-02  0.9023762E-01
        2   -1    0    0  501    0  0.00000000000E+00  0.00000000000E+00  0.12107385344E+04  0.12107385344E+04  0.25500000920E-02 0.  1.
       -2   -1    0    0    0  501  0.00000000000E+00  0.00000000000E+00 -0.35291390216E+03  0.35291390217E+03  0.25500000920E-02 0. -1.
    10030    2    1    2    0    0  0.00000000000E+00  0.00000000000E+00  0.85782463226E+03  0.15636524366E+04  0.13073430471E+04 0.  0.
        3    1    3    3  502    0 -0.20483639525E+03 -0.47114343803E+03  0.91231980522E+03  0.10470250834E+04  0.10100000352E+00 0.  1.
       -3    1    3    3    0  502  0.20483639525E+03  0.47114343803E+03 -0.54495172955E+02  0.51662735322E+03  0.10100000352E+00 0. -1.
</event>
<event>
 5   0  0.4306214E-03  0.1206526E+04  0.7818609E-02  0.9107164E-01
       -2   -1    0    0    0  501  0.00000000000E+00  0.00000000000E+00  0.31194031145E+03  0.31194031146E+03  0.25500000920E-02 0. -1.
        2   -1    0    0  501    0  0.00000000000E+00  0.00000000000E+00 -0.11666527033E+04  0.11666527033E+04  0.25500000920E-02 0.  1.
    10030    2    1    2    0    0  0.00000000000E+00  0.00000000000E+00 -0.85471239186E+03  0.14785930148E+04  0.12065256029E+04 0.  0.
        3    1    3    3  502    0 -0.18610909783E+03 -0.57356968987E+03 -0.44883604332E+03  0.75171310313E+03  0.10100000352E+00 0.  1.
       -3    1    3    3    0  502  0.18610909783E+03  0.57356968987E+03 -0.40587634854E+03  0.72687991163E+03  0.10100000352E+00 0. -1.
</event>
<event>
 5   0  0.1661750E-03  0.1292782E+04  0.7818609E-02  0.9035309E-01
       -3   -1    0    0    0  501  0.00000000000E+00  0.00000000000E+00  0.10717202006E+04  0.10717202053E+04  0.10100000352E+00 0. -1.
        3   -1    0    0  501    0  0.00000000000E+00  0.00000000000E+00 -0.38986041148E+03  0.38986042456E+03  0.10100000352E+00 0.  1.
    10030    2    1    2    0    0  0.00000000000E+00  0.00000000000E+00  0.68185978909E+03  0.14615806299E+04  0.12927819482E+04 0.  0.
        5    1    3    3  502    0  0.49488828077E+03 -0.20849067763E+03  0.74764678122E+03  0.92053276562E+03  0.46999998093E+01 0. -1.
       -5    1    3    3    0  502 -0.49488828077E+03  0.20849067763E+03 -0.65786992136E+02  0.54104786427E+03  0.46999998093E+01 0.  1.
</event>
<event>
 5   0  0.4306214E-03  0.1204981E+04  0.7818609E-02  0.9108508E-01
        2   -1    0    0  501    0  0.00000000000E+00  0.00000000000E+00  0.23892710483E+03  0.23892710485E+03  0.25500000920E-02 0. -1.
       -2   -1    0    0    0  501  0.00000000000E+00  0.00000000000E+00 -0.15192703383E+04  0.15192703383E+04  0.25500000920E-02 0.  1.
    10030    2    1    2    0    0  0.00000000000E+00  0.00000000000E+00 -0.12803432335E+04  0.17581974432E+04  0.12049811009E+04 0.  0.
        3    1    3    3  502    0  0.14837299383E+03 -0.57928523632E+03 -0.53286097213E+03  0.80095365418E+03  0.10100000352E+00 0.  1.
       -3    1    3    3    0  502 -0.14837299383E+03  0.57928523632E+03 -0.74748226134E+03  0.95724378897E+03  0.10100000352E+00 0. -1.
</event>
<event>
 5   0  0.4388937E-03  0.1317310E+04  0.7818609E-02  0.9015950E-01
       -2   -1    0    0    0  501  0.00000000000E+00  0.00000000000E+00  0.34889800061E+03  0.34889800062E+03  0.25500000920E-02 0. -1.
        2   -1    0    0  501    0  0.00000000000E+00  0.00000000000E+00 -0.12434183294E+04  0.12434183294E+04  0.25500000920E-02 0.  1.
    10030    2    1    2    0    0  0.00000000000E+00  0.00000000000E+00 -0.89452032877E+03  0.15923163300E+04  0.13173096357E+04 0.  0.
        5    1    3    3  502    0 -0.35521772147E+02  0.11558811659E+03 -0.12298651717E+04  0.12358045313E+04  0.46999998093E+01 0.  1.
       -5    1    3    3    0  502  0.35521772147E+02 -0.11558811659E+03  0.33534484290E+03  0.35651179875E+03  0.46999998093E+01 0. -1.
</event>
<event>
 5   0  0.2370801E-03  0.1292751E+04  0.7818609E-02  0.9035333E-01
        1   -1    0    0  501    0  0.00000000000E+00  0.00000000000E+00  0.71916386932E+03  0.71916386934E+03  0.50400001928E-02 0.  1.
       -1   -1    0    0    0  501  0.00000000000E+00  0.00000000000E+00 -0.58095450383E+03  0.58095450385E+03  0.50400001928E-02 0. -1.
    10030    2    1    2    0    0  0.00000000000E+00  0.00000000000E+00  0.13820936549E+03  0.13001183732E+04  0.12927513124E+04 0.  0.
        3    1    3    3  502    0  0.15169596020E+03  0.55982450722E+03 -0.21780397622E+03  0.61955929941E+03  0.10100000352E+00 0. -1.
       -3    1    3    3    0  502 -0.15169596020E+03 -0.55982450722E+03  0.35601334171E+03  0.68055907378E+03  0.10100000352E+00 0.  1.
</event>
<event>
 5   0  0.1661750E-03  0.6975094E+03  0.7818609E-02  0.9721501E-01
        3   -1    0    0  501    0  0.00000000000E+00  0.00000000000E+00  0.15982176942E+03  0.15982180133E+03  0.10100000352E+00 0.  1.
       -3   -1    0    0    0  501  0.00000000000E+00  0.00000000000E+00 -0.76103405344E+03  0.76103406014E+03  0.10100000352E+00 0. -1.
    10030    2    1    2    0    0  0.00000000000E+00  0.00000000000E+00 -0.60121228402E+03  0.92085586147E+03  0.69750935990E+03 0.  0.
        3    1    3    3  502    0  0.35859548792E+02 -0.24428371278E+02 -0.75745677968E+03  0.75869851447E+03  0.10100000352E+00 0. -1.
       -3    1    3    3    0  502 -0.35859548792E+02  0.24428371278E+02  0.15624449566E+03  0.16215734701E+03  0.10100000352E+00 0.  1.
</event>
<event>
 5   0  0.2462055E-03  0.1238757E+04  0.7818609E-02  0.9079593E-01
       -1   -1    0    0    0  501  0.00000000000E+00  0.00000000000E+00  0.73340482969E+03  0.73340482970E+03  0.50400001928E-02 0. -1.
        1   -1    0    0  501    0  0.00000000000E+00  0.00000000000E+00 -0.52308059989E+03  0.52308059991E+03  0.50400001928E-02 0.  1.
    10030    2    1    2    0    0  0.00000000000E+00  0.00000000000E+00  0.21032422980E+03  0.12564854296E+04  0.12387571809E+04 0.  0.
        2    1    3    3  502    0  0.38236890673E+02 -0.54432711070E+03 -0.19207744295E+03  0.57848751702E+03  0.25500000920E-02 0. -1.
       -2    1    3    3    0  502 -0.38236890673E+02  0.54432711070E+03  0.40240167275E+03  0.67799791260E+03  0.25500000920E-02 0.  1.
</event>
<event>
 5   0  0.2511542E-03  0.1271817E+04  0.7818609E-02  0.9052218E-01
       -1   -1    0    0    0  501  0.00000000000E+00  0.00000000000E+00  0.46537644632E+03  0.46537644634E+03  0.50400001928E-02 0. -1.
        1   -1    0    0  501    0  0.00000000000E+00  0.00000000000E+00 -0.86893068125E+03  0.86893068127E+03  0.50400001928E-02 0.  1.
    10030    2    1    2    0    0  0.00000000000E+00  0.00000000000E+00 -0.40355423494E+03  0.13343071276E+04  0.12718173966E+04 0.  0.
        4    1    3    3  502    0 -0.50101219485E+03 -0.38607853441E+03 -0.27064065567E+03  0.68798098194E+03  0.12699999809E+01 0.  1.
       -4    1    3    3    0  502  0.50101219485E+03  0.38607853441E+03 -0.13291357927E+03  0.64632614567E+03  0.12699999809E+01 0. -1.
</event>
<event>
 5   0  0.4306214E-03  0.1301097E+04  0.7818609E-02  0.9028696E-01
        2   -1    0    0  501    0  0.00000000000E+00  0.00000000000E+00  0.17298069831E+04  0.17298069831E+04  0.25500000920E-02 0. -1.
       -2   -1    0    0    0  501  0.00000000000E+00  0.00000000000E+00 -0.24465935051E+03  0.24465935052E+03  0.25500000920E-02 0.  1.
    10030    2    1    2    0    0  0.00000000000E+00  0.00000000000E+00  0.14851476326E+04  0.19744663336E+04  0.13010971570E+04 0.  0.
        3    1    3    3  502    0  0.51376912205E+03 -0.12660459302E+03  0.16825777016E+03  0.55524600059E+03  0.10100000352E+00 0.  1.
       -3    1    3    3    0  502 -0.51376912205E+03  0.12660459302E+03  0.13168898624E+04  0.14192203330E+04  0.10100000352E+00 0. -1.
</event>
<event>
 5   0  0.4306214E-03  0.1282136E+04  0.7818609E-02  0.9043853E-01
       -2   -1    0    0    0  501  0.00000000000E+00  0.00000000000E+00  0.67648705556E+03  0.67648705557E+03  0.25500000920E-02 0.  1.
        2   -1    0    0  501    0  0.00000000000E+00  0.00000000000E+00 -0.60750328411E+03  0.60750328412E+03  0.25500000920E-02 0. -1.
    10030    2    1    2    0    0  0.00000000000E+00  0.00000000000E+00  0.68983771450E+02  0.12839903397E+04  0.12821358866E+04 0.  0.
        3    1    3    3  502    0 -0.63017953891E+03  0.32527057447E+02 -0.78737281271E+02  0.63591181023E+03  0.10100000352E+00 0. -1.
       -3    1    3    3    0  502  0.63017953891E+03 -0.32527057447E+02  0.14772105272E+03  0.64807852946E+03  0.10100000352E+00 0.  1.
</event>
<event>
 5   0  0.4453011E-03  0.1256425E+04  0.7818609E-02  0.9064852E-01
       -2   -1    0    0    0  501  0.00000000000E+00  0.00000000000E+00  0.16509561145E+03  0.16509561147E+03  0.25500000920E-02 0.  1.
        2   -1    0    0  501    0  0.00000000000E+00  0.00000000000E+00 -0.23904394551E+04  0.23904394551E+04  0.25500000920E-02 0. -1.
    10030    2    1    2    0    0  0.00000000000E+00  0.00000000000E+00 -0.22253438437E+04  0.25555350666E+04  0.12564251884E+04 0.  0.
        1    1    3    3  502    0  0.23520804083E+03  0.51158947023E+03 -0.54605630943E+03  0.78436222603E+03  0.50400001928E-02 0. -1.
       -1    1    3    3    0  502 -0.23520804083E+03 -0.51158947023E+03 -0.16792875342E+04  0.17711728406E+04  0.50400001928E-02 0.  1.
</event>
<event>
 5   0  0.2356769E-03  0.1383832E+04  0.7818609E-02  0.8965606E-01
       -1   -1    0    0    0  501  0.00000000000E+00  0.00000000000E+00  0.46331931841E+03  0.46331931844E+03  0.50400001928E-02 0. -1.
        1   -1    0    0  501    0  0.00000000000E+00  0.00000000000E+00 -0.10332999680E+04  0.10332999680E+04  0.50400001928E-02 0.  1.
    10030    2    1    2    0    0  0.00000000000E+00  0.00000000000E+00 -0.56998064955E+03  0.14966192864E+04  0.13838321241E+04 0.  0.
        1    1    3    3  502    0  0.25428744895E+03 -0.63841827442E+03 -0.37223647350E+03  0.78153694221E+03  0.50400001928E-02 0.  1.
       -1    1    3    3    0  502 -0.25428744895E+03  0.63841827442E+03 -0.19774417605E+03  0.71508234420E+03  0.50400001928E-02 0. -1.
</event>
<event>
 5   0  0.4263540E-03  0.1298505E+04  0.7818609E-02  0.9030752E-01
       -2   -1    0    0    0  501  0.00000000000E+00  0.00000000000E+00  0.60060364169E+03  0.60060364170E+03  0.25500000920E-02 0.  1.
        2   -1    0    0  501    0  0.00000000000E+00  0.00000000000E+00 -0.70184185126E+03  0.70184185127E+03  0.25500000920E-02 0. -1.
    10030    2    1    2    0    0  0.00000000000E+00  0.00000000000E+00 -0.10123820957E+03  0.13024454930E+04  0.12985049430E+04 0.  0.
        2    1    3    3  502    0  0.95587812066E+02  0.22108214039E+03 -0.65537035815E+03  0.69822965346E+03  0.25500000920E-02 0. -1.
       -2    1    3    3    0  502 -0.95587812066E+02 -0.22108214039E+03  0.55413214858E+03  0.60421583951E+03  0.25500000920E-02 0.  1.
</event>
<event>
 5   0  0.4306214E-03  0.1274559E+04  0.7818609E-02  0.9049987E-01
        2   -1    0    0  501    0  0.00000000000E+00  0.00000000000E+00  0.12554837078E+04  0.12554837078E+04  0.25500000920E-02 0.  1.
       -2   -1    0    0    0  501  0.00000000000E+00  0.00000000000E+00 -0.32348124468E+03  0.32348124469E+03  0.25500000920E-02 0. -1.
    10030    2    1    2    0    0  0.00000000000E+00  0.00000000000E+00  0.93200246311E+03  0.15789649525E+04  0.12745594258E+04 0.  0.
        3    1    3    3  502    0  0.90740485322E+02 -0.19088194025E+03  0.12108016689E+04  0.12291096136E+04  0.10100000352E+00 0.  1.
       -3    1    3    3    0  502 -0.90740485322E+02  0.19088194025E+03 -0.27879920576E+03  0.34985533885E+03  0.10100000352E+00 0. -1.
</event>
<event>
 5   0  0.2356769E-03  0.1285214E+04  0.7818609E-02  0.9041373E-01
        1   -1    0    0  501    0  0.00000000000E+00  0.00000000000E+00  0.22681928933E+04  0.22681928933E+04  0.50400001928E-02 0.  1.
       -1   -1    0    0    0  501  0.00000000000E+00  0.00000000000E+00 -0.18205854467E+03  0.18205854474E+03  0.50400001928E-02 0. -1.
    10030    2    1    2    0    0  0.00000000000E+00  0.00000000000E+00  0.20861343487E+04  0.24502514381E+04  0.12852142192E+04 0.  0.
        1    1    3    3  502    0  0.36430908135E+03  0.29460587497E+03  0.18815559175E+04  0.19390117068E+04  0.50400001928E-02 0.  1.
       -1    1    3    3    0  502 -0.36430908135E+03 -0.29460587497E+03  0.20457843115E+03  0.51123973128E+03  0.50400001928E-02 0. -1.
</event>
<event>
 5   0  0.4310889E-03  0.1320739E+04  0.7818609E-02  0.9013278E-01
        2   -1    0    0  501    0  0.00000000000E+00  0.00000000000E+00  0.66754720678E+03  0.66754720679E+03  0.25500000920E-02 0. -1.
       -2   -1    0    0    0  501  0.00000000000E+00  0.00000000000E+00 -0.65326929177E+03  0.65326929177E+03  0.25500000920E-02 0.  1.
    10030    2    1    2    0    0  0.00000000000E+00  0.00000000000E+00  0.14277915017E+02  0.13208164986E+04  0.13207393248E+04 0.  0.
        4    1    3    3  502    0 -0.16513410239E+03  0.29841833123E+02 -0.63158973675E+03  0.65350364594E+03  0.12699999809E+01 0.  1.
       -4    1    3    3    0  502  0.16513410239E+03 -0.29841833123E+02  0.64586765177E+03  0.66731285263E+03  0.12699999809E+01 0. -1.
</event>
<event>
 5   0  0.2458456E-03  0.1161542E+04  0.7818609E-02  0.9147201E-01
        1   -1    0    0  501    0  0.00000000000E+00  0.00000000000E+00  0.19664611840E+04  0.19664611840E+04  0.50400001928E-02 0.  1.
       -1   -1    0    0    0  501  0.00000000000E+00  0.00000000000E+00 -0.17152390007E+03  0.17152390015E+03  0.50400001928E-02 0. -1.
    10030    2    1    2    0    0  0.00000000000E+00  0.00000000000E+00  0.17949372839E+04  0.21379850842E+04  0.11615422364E+04 0.  0.
        5    1    3    3  502    0  0.30494596394E+03  0.18391752525E+03  0.53065961816E+02  0.36007746850E+03  0.46999998093E+01 0. -1.
       -5    1    3    3    0  502 -0.30494596394E+03 -0.18391752525E+03  0.17418713221E+04  0.17779076157E+04  0.46999998093E+01 0.  1.
</event>
<event>
 5   0  0.4388937E-03  0.1359812E+04  0.7818609E-02  0.8983434E-01
       -2   -1    0    0    0  501  0.00000000000E+00  0.00000000000E+00  0.89879549983E+03  0.89879549983E+03  0.25500000920E-02 0.  1.
        2   -1    0    0  501    0  0.00000000000E+00  0.00000000000E+00 -0.51432417613E+03  0.51432417613E+03  0.25500000920E-02 0. -1.
    10030    2    1    2    0    0  0.00000000000E+00  0.00000000000E+00  0.38447132370E+03  0.14131196760E+04  0.13598121267E+04 0.  0.
        5    1    3    3  502    0 -0.27988954543E+03  0.56584538431E+02  0.83344123491E+03  0.88101438676E+03  0.46999998093E+01 0.  1.
       -5    1    3    3    0  502  0.27988954543E+03 -0.56584538431E+02 -0.44896991121E+03  0.53210528920E+03  0.46999998093E+01 0. -1.
</event>
<event>
 5   0  0.4310889E-03  0.1120742E+04  0.7818609E-02  0.9185208E-01
        2   -1    0    0  501    0  0.00000000000E+00  0.00000000000E+00  0.50064111773E+03  0.50064111774E+03  0.25500000920E-02 0.  1.
       -2   -1    0    0    0  501  0.00000000000E+00  0.00000000000E+00 -0.62722699114E+03  0.62722699114E+03  0.25500000920E-02 0. -1.
    10030    2    1    2    0    0  0.00000000000E+00  0.00000000000E+00 -0.12658587341E+03  0.11278681089E+04  0.11207419363E+04 0.  0.
        4    1    3    3  502    0  0.26562361505E+03  0.48111228277E+03 -0.17348378892E+03  0.57630128529E+03  0.12699999809E+01 0. -1.
       -4    1    3    3    0  502 -0.26562361505E+03 -0.48111228277E+03  0.46897915509E+02  0.55156682359E+03  0.12699999809E+01 0.  1.
</event>
<event>
 5   0  0.4306214E-03  0.1314274E+04  0.7818609E-02  0.9018322E-01
       -2   -1    0    0    0  501  0.00000000000E+00  0.00000000000E+00  0.49511548145E+03  0.49511548146E+03  0.25500000920E-02 0. -1.
        2   -1    0    0  501    0  0.00000000000E+00  0.00000000000E+00 -0.87217802042E+03  0.87217802042E+03  0.25500000920E-02 0.  1.
    10030    2    1    2    0    0  0.00000000000E+00  0.00000000000E+00 -0.37706253896E+03  0.13672935019E+04  0.13142737013E+04 0.  0.
        3    1    3    3  502    0  0.24119271084E+03  0.60720908216E+03 -0.26174084283E+03  0.70383596969E+03  0.10100000352E+00 0. -1.
       -3    1    3    3    0  502 -0.24119271084E+03 -0.60720908216E+03 -0.11532169613E+03  0.66345753219E+03  0.10100000352E+00 0.  1.
</event>
<event>
 5   0  0.4306214E-03  0.1263834E+04  0.7818609E-02  0.9058747E-01
        2   -1    0    0  501    0  0.00000000000E+00  0.00000000000E+00  0.13051768703E+04  0.13051768703E+04  0.25500000920E-02 0. -1.
       -2   -1    0    0    0  501  0.00000000000E+00  0.00000000000E+00 -0.30595010668E+03  0.30595010669E+03  0.25500000920E-02 0.  1.
    10030    2    1    2    0    0  0.00000000000E+00  0.00000000000E+00  0.99922676362E+03  0.16111269770E+04  0.12638338541E+04 0.  0.
        3    1    3    3  502    0 -0.21602818812E+03 -0.21836218283E+03 -0.20437820693E+03  0.36894536536E+03  0.10100000352E+00 0.  1.
       -3    1    3    3    0  502  0.21602818812E+03  0.21836218283E+03  0.12036049706E+04  0.12421816116E+04  0.10100000352E+00 0. -1.
</event>
<event>
 5   0  0.4263540E-03  0.1064468E+04  0.7818609E-02  0.9240532E-01
       -2   -1    0    0    0  501  0.00000000000E+00  0.00000000000E+00  0.19535832640E+03  0.19535832642E+03  0.25500000920E-02 0.  1.
        2   -1    0    0  501    0  0.00000000000E+00  0.00000000000E+00 -0.14500190204E+04  0.14500190204E+04  0.25500000920E-02 0. -1.
    10030    2    1    2    0    0  0.00000000000E+00  0.00000000000E+00 -0.12546606940E+04  0.16453773468E+04  0.10644684854E+04 0.  0.
        2    1    3    3  502    0  0.21239713825E+03 -0.32376803717E+03 -0.62907230008E+02  0.39229530436E+03  0.25500000920E-02 0.  1.
       -2    1    3    3    0  502 -0.21239713825E+03  0.32376803717E+03 -0.11917534640E+04  0.12530820425E+04  0.25500000920E-02 0. -1.
</event>
<event>
 5   0  0.4306214E-03  0.1288222E+04  0.7818609E-02  0.9038958E-01
       -2   -1    0    0    0  501  0.00000000000E+00  0.00000000000E+00  0.26264984414E+03  0.26264984415E+03  0.25500000920E-02 0. -1.
        2   -1    0    0  501    0  0.00000000000E+00  0.00000000000E+00 -0.15795894495E+04  0.15795894496E+04  0.25500000920E-02 0.  1.
    10030    2    1    2    0    0  0.00000000000E+00  0.00000000000E+00 -0.13169396054E+04  0.18422392937E+04  0.12882219106E+04 0.  0.
        3    1    3    3  502    0 -0.17156797291E+03 -0.17654916678E+03  0.19271691420E+03  0.31264196269E+03  0.10100000352E+00 0. -1.
       -3    1    3    3    0  502  0.17156797291E+03  0.17654916678E+03 -0.15096565196E+04  0.15295973310E+04  0.10100000352E+00 0.  1.
</event>
<event>
 5   0  0.1661750E-03  0.1303891E+04  0.7818609E-02  0.9026485E-01
       -3   -1    0    0    0  501  0.00000000000E+00  0.00000000000E+00  0.38545108224E+03  0.38545109547E+03  0.10100000352E+00 0.  1.
        3   -1    0    0  501    0  0.00000000000E+00  0.00000000000E+00 -0.11026904348E+04  0.11026904394E+04  0.10100000352E+00 0. -1.
    10030    2    1    2    0    0  0.00000000000E+00  0.00000000000E+00 -0.71723935251E+03  0.14881415348E+04  0.13038914598E+04 0.  0.
        3    1    3    3  502    0  0.54175414905E+02 -0.49975477254E+03  0.11518587658E+03  0.51571077614E+03  0.10100000352E+00 0.  1.
       -3    1    3    3    0  502 -0.54175414905E+02  0.49975477254E+03 -0.83242522909E+03  0.97243075871E+03  0.10100000352E+00 0. -1.
</event>
<event>
 5   0  0.2458456E-03  0.1314739E+04  0.7818609E-02  0.9017958E-01
       -1   -1    0    0    0  501  0.00000000000E+00  0.00000000000E+00  0.32059333413E+03  0.32059333417E+03  0.50400001928E-02 0. -1.
        1   -1    0    0  501    0  0.00000000000E+00  0.00000000000E+00 -0.13479222629E+04  0.13479222629E+04  0.50400001928E-02 0.  1.
    10030    2    1    2    0    0  0.00000000000E+00  0.00000000000E+00 -0.10273289287E+04  0.16685155971E+04  0.13147393543E+04 0.  0.
        5    1    3    3  502    0 -0.22075852899E+03 -0.61909063867E+03 -0.50064440771E+03  0.82624116333E+03  0.46999998093E+01 0. -1.
       -5    1    3    3    0  502  0.22075852899E+03  0.61909063867E+03 -0.52668452104E+03  0.84227443373E+03  0.46999998093E+01 0.  1.
</event>
<event>
 5   0  0.4453011E-03  0.1315980E+04  0.7818609E-02  0.9016988E-01
       -2   -1    0    0    0  501  0.00000000000E+00  0.00000000000E+00  0.25057946539E+03  0.25057946540E+03  0.25500000920E-02 0.  1.
        2   -1    0    0  501    0  0.00000000000E+00  0.00000000000E+00 -0.17277996636E+04  0.17277996636E+04  0.25500000920E-02 0. -1.
    10030    2    1    2    0    0  0.00000000000E+00  0.00000000000E+00 -0.14772201983E+04  0.19783791291E+04  0.13159804194E+04 0.  0.
        1    1    3    3  502    0  0.42226144924E+03  0.21529423759E+03 -0.14247288419E+04  0.15015021189E+04  0.50400001928E-02 0. -1.
       -1    1    3    3    0  502 -0.42226144924E+03 -0.21529423759E+03 -0.52491356368E+02  0.47687701011E+03  0.50400001928E-02 0.  1.
</event>
<event>
 5   0  0.2356769E-03  0.1281242E+04  0.7818609E-02  0.9044574E-01
        1   -1    0    0  501    0  0.00000000000E+00  0.00000000000E+00  0.56516693707E+03  0.56516693709E+03  0.50400001928E-02 0.  1.
       -1   -1    0    0    0  501  0.00000000000E+00  0.00000000000E+00 -0.72614838104E+03  0.72614838106E+03  0.50400001928E-02 0. -1.
    10030    2    1    2    0    0  0.00000000000E+00  0.00000000000E+00 -0.16098144397E+03  0.12913153182E+04  0.12812416734E+04 0.  0.
        1    1    3    3  502    0  0.20965414936E+03 -0.51850568098E+03 -0.39534418438E+03  0.68490877327E+03  0.50400001928E-02 0. -1.
       -1    1    3    3    0  502 -0.20965414936E+03  0.51850568098E+03  0.23436274041E+03  0.60640654488E+03  0.50400001928E-02 0.  1.
</event>
<event>
 5   0  0.4310889E-03  0.1266429E+04  0.7818609E-02  0.9056619E-01
       -2   -1    0    0    0  501  0.00000000000E+00  0.00000000000E+00  0.38790843925E+03  0.38790843925E+03  0.25500000920E-02 0. -1.
        2   -1    0    0  501    0  0.00000000000E+00  0.00000000000E+00 -0.10336482938E+04  0.10336482938E+04  0.25500000920E-02 0.  1.
    10030    2    1    2    0    0  0.00000000000E+00  0.00000000000E+00 -0.64573985454E+03  0.14215567330E+04  0.12664294633E+04 0.  0.
        4    1    3    3  502    0 -0.36953972452E+03 -0.20055277716E+03 -0.85434137392E+03  0.95219841447E+03  0.12699999809E+01 0.  1.
       -4    1    3    3    0  502  0.36953972452E+03  0.20055277716E+03  0.20860151938E+03  0.46935831857E+03  0.12699999809E+01 0. -1.
</event>
<event>
 5   0  0.4310889E-03  0.1319667E+04  0.7818609E-02  0.9014113E-01
        2   -1    0    0  501    0  0.00000000000E+00  0.00000000000E+00  0.23155223982E+04  0.23155223982E+04  0.25500000920E-02 0. -1.
       -2   -1    0    0    0  501  0.00000000000E+00  0.00000000000E+00 -0.18802678650E+03  0.18802678652E+03  0.25500000920E-02 0.  1.
    10030    2    1    2    0    0  0.00000000000E+00  0.00000000000E+00  0.21274956117E+04  0.25035491847E+04  0.13196669817E+04 0.  0.
        4    1    3    3  502    0 -0.56109354785E+02 -0.27643585411E+03 -0.67878508838E+02  0.29012780976E+03  0.12699999809E+01 0.  1.
       -4    1    3    3    0  502  0.56109354785E+02  0.27643585411E+03  0.21953741205E+04  0.22134213750E+04  0.12699999809E+01 0. -1.
</event>
<event>
 5   0  0.1661750E-03  0.1322786E+04  0.7818609E-02  0.9011688E-01
       -3   -1    0    0    0  501  0.00000000000E+00  0.00000000000E+00  0.65515184783E+03  0.65515185562E+03  0.10100000352E+00 0. -1.
        3   -1    0    0  501    0  0.00000000000E+00  0.00000000000E+00 -0.66769366289E+03  0.66769367053E+03  0.10100000352E+00 0.  1.
    10030    2    1    2    0    0  0.00000000000E+00  0.00000000000E+00 -0.12541815058E+02  0.13228455261E+04  0.13227860707E+04 0.  0.
        2    1    3    3  502    0  0.34805171538E+03 -0.25682618919E+03 -0.50663433935E+03  0.66616667723E+03  0.25500000920E-02 0.  1.
       -2    1    3    3    0  502 -0.34805171538E+03  0.25682618919E+03  0.49409252430E+03  0.65667884891E+03  0.25500000920E-02 0. -1.
</event>
<event>
 5   0  0.4310889E-03  0.1348836E+04  0.7818609E-02  0.8991710E-01
       -2   -1    0    0    0  501  0.00000000000E+00  0.00000000000E+00  0.40611592054E+03  0.40611592055E+03  0.25500000920E-02 0. -1.
        2   -1    0    0  501    0  0.00000000000E+00  0.00000000000E+00 -0.11199744997E+04  0.11199744997E+04  0.25500000920E-02 0.  1.
    10030    2    1    2    0    0  0.00000000000E+00  0.00000000000E+00 -0.71385857919E+03  0.15260904203E+04  0.13488357572E+04 0.  0.
        4    1    3    3  502    0 -0.44890134372E+03  0.49977028637E+02  0.20971299560E+03  0.49798722194E+03  0.12699999809E+01 0. -1.
       -4    1    3    3    0  502  0.44890134372E+03 -0.49977028637E+02 -0.92357157480E+03  0.10281031983E+04  0.12699999809E+01 0.  1.
</event>
<event>
 5   0  0.4453011E-03  0.1270768E+04  0.7818609E-02  0.9053073E-01
        2   -1    0    0  501    0  0.00000000000E+00  0.00000000000E+00  0.12373814284E+04  0.12373814284E+04  0.25500000920E-02 0. -1.
       -2   -1    0    0    0  501  0.00000000000E+00  0.00000000000E+00 -0.32626391392E+03  0.32626391393E+03  0.25500000920E-02 0.  1.
    10030    2    1    2    0    0  0.00000000000E+00  0.00000000000E+00  0.91111751445E+03  0.15636453423E+04  0.12707681265E+04 0.  0.
        1    1    3    3  502    0 -0.58771837158E+03  0.12966016835E+03  0.20492787945E+03  0.63578304425E+03  0.50400001928E-02 0.  1.
       -1    1    3    3    0  502  0.58771837158E+03 -0.12966016835E+03  0.70618963500E+03  0.92786229805E+03  0.50400001928E-02 0. -1.
</event>
<event>
 5   0  0.2511542E-03  0.1248687E+04  0.7818609E-02  0.9071277E-01
       -1   -1    0    0    0  501  0.00000000000E+00  0.00000000000E+00  0.30327461263E+03  0.30327461267E+03  0.50400001928E-02 0.  1.
        1   -1    0    0  501    0  0.00000000000E+00  0.00000000000E+00 -0.12853192670E+04  0.12853192670E+04  0.50400001928E-02 0. -1.
    10030    2    1    2    0    0  0.00000000000E+00  0.00000000000E+00 -0.98204465435E+03  0.15885938797E+04  0.12486868348E+04 0.  0.
        4    1    3    3  502    0  0.42233002680E+03 -0.30563209977E+03 -0.53948743876E+02  0.52410467639E+03  0.12699999809E+01 0.  1.
       -4    1    3    3    0  502 -0.42233002680E+03  0.30563209977E+03 -0.92809591048E+03  0.10644892033E+04  0.12699999809E+01 0. -1.
</event>
<event>
 5   0  0.1661750E-03  0.1321061E+04  0.7818609E-02  0.9013028E-01
        3   -1    0    0  501    0  0.00000000000E+00  0.00000000000E+00  0.24893433707E+03  0.24893435756E+03  0.10100000352E+00 0.  1.
       -3   -1    0    0    0  501  0.00000000000E+00  0.00000000000E+00 -0.17526728756E+04  0.17526728785E+04  0.10100000352E+00 0. -1.
    10030    2    1    2    0    0  0.00000000000E+00  0.00000000000E+00 -0.15037385385E+04  0.20016072361E+04  0.13210609128E+04 0.  0.
        4    1    3    3  502    0  0.64411831697E+03 -0.40667034696E+02 -0.53890205565E+03  0.84080868956E+03  0.12699999809E+01 0.  1.
       -4    1    3    3    0  502 -0.64411831697E+03  0.40667034696E+02 -0.96483648287E+03  0.11607985465E+04  0.12699999809E+01 0. -1.
</event>
<event>
 5   0  0.2370801E-03  0.1306434E+04  0.7818609E-02  0.9024479E-01
       -1   -1    0    0    0  501  0.00000000000E+00  0.00000000000E+00  0.36295839276E+03  0.36295839280E+03  0.50400001928E-02 0. -1.
        1   -1    0    0  501    0  0.00000000000E+00  0.00000000000E+00 -0.11755954213E+04  0.11755954213E+04  0.50400001928E-02 0.  1.
    10030    2    1    2    0    0  0.00000000000E+00  0.00000000000E+00 -0.81263702853E+03  0.15385538141E+04  0.13064336565E+04 0.  0.
        3    1    3    3  502    0 -0.38542681646E+03  0.50646897838E+03 -0.57951100959E+03  0.86075413292E+03  0.10100000352E+00 0. -1.
       -3    1    3    3    0  502  0.38542681646E+03 -0.50646897838E+03 -0.23312601893E+03  0.67779968118E+03  0.10100000352E+00 0.  1.
</event>
<event>
 5   0  0.4310889E-03  0.1303064E+04  0.7818609E-02  0.9027139E-01
        2   -1    0    0  501    0  0.00000000000E+00  0.00000000000E+00  0.43462104869E+03  0.43462104870E+03  0.25500000920E-02 0.  1.
       -2   -1    0    0    0  501  0.00000000000E+00  0.00000000000E+00 -0.97669937554E+03  0.97669937555E+03  0.25500000920E-02 0. -1.
    10030    2    1    2    0    0  0.00000000000E+00  0.00000000000E+00 -0.54207832685E+03  0.14113204242E+04  0.13030642453E+04 0.  0.
        4    1    3    3  502    0  0.24354034397E+03  0.53180211607E+03  0.39800691021E+02  0.58626879305E+03  0.12699999809E+01 0.  1.
       -4    1    3    3    0  502 -0.24354034397E+03 -0.53180211607E+03 -0.58187901787E+03  0.82505163120E+03  0.12699999809E+01 0. -1.
</event>
<event>
 5   0  0.4453011E-03  0.1329323E+04  0.7818609E-02  0.9006630E-01
        2   -1    0    0  501    0  0.00000000000E+00  0.00000000000E+00  0.15203907563E+04  0.15203907563E+04  0.25500000920E-02 0.  1.
       -2   -1    0    0    0  501  0.00000000000E+00  0.00000000000E+00 -0.29056661432E+03  0.29056661434E+03  0.25500000920E-02 0. -1.
    10030    2    1    2    0    0  0.00000000000E+00  0.00000000000E+00  0.12298241419E+04  0.18109573706E+04  0.13293228269E+04 0.  0.
        1    1    3    3  502    0  0.61140744122E+03 -0.81717752190E+02  0.95214490987E+03  0.11344940633E+04  0.50400001928E-02 0. -1.
       -1    1    3    3    0  502 -0.61140744122E+03  0.81717752190E+02  0.27767923206E+03  0.67646330731E+03  0.50400001928E-02 0.  1.
</event>
<event>
 5   0  0.4263540E-03  0.1293101E+04  0.7818609E-02  0.9035054E-01
        2   -1    0    0  501    0  0.00000000000E+00  0.00000000000E+00  0.22285943668E+04  0.22285943668E+04  0.25500000920E-02 0.  1.
       -2   -1    0    0    0  501  0.00000000000E+00  0.00000000000E+00 -0.18757453614E+03  0.18757453615E+03  0.25500000920E-02 0. -1.
    10030    2    1    2    0    0  0.00000000000E+00  0.00000000000E+00  0.20410198307E+04  0.24161689029E+04  0.12931010086E+04 0.  0.
        2    1    3    3  502    0 -0.18150300350E+03  0.38577691434E+03  0.11229151735E+03  0.44088156322E+03  0.25500000920E-02 0. -1.
       -2    1    3    3    0  502  0.18150300350E+03 -0.38577691434E+03  0.19287283133E+04  0.19752873397E+04  0.25500000920E-02 0.  1.
</event>
<event>
 5   0  0.4388937E-03  0.1307029E+04  0.7818609E-02  0.9024009E-01
        2   -1    0    0  501    0  0.00000000000E+00  0.00000000000E+00  0.59635496463E+03  0.59635496464E+03  0.25500000920E-02 0. -1.
       -2   -1    0    0    0  501  0.00000000000E+00  0.00000000000E+00 -0.71615313399E+03  0.71615313399E+03  0.25500000920E-02 0.  1.
    10030    2    1    2    0    0  0.00000000000E+00  0.00000000000E+00 -0.11979816935E+03  0.13125080986E+04  0.13070294211E+04 0.  0.
        5    1    3    3  502    0  0.10605614352E+03 -0.49009837951E+03 -0.48072018356E+03  0.69466417214E+03  0.46999998093E+01 0.  1.
       -5    1    3    3    0  502 -0.10605614352E+03  0.49009837951E+03  0.36092201420E+03  0.61784392650E+03  0.46999998093E+01 0. -1.
</event>
<event>
 5   0  0.4263540E-03  0.1324608E+04  0.7818609E-02  0.9010275E-01
        2   -1    0    0  501    0  0.00000000000E+00  0.00000000000E+00  0.10398516475E+04  0.10398516475E+04  0.25500000920E-02 0.  1.
       -2   -1    0    0    0  501  0.00000000000E+00  0.00000000000E+00 -0.42183565862E+03  0.42183565863E+03  0.25500000920E-02 0. -1.
    10030    2    1    2    0    0  0.00000000000E+00  0.00000000000E+00  0.61801598884E+03  0.14616873061E+04  0.13246078734E+04 0.  0.
        2    1    3    3  502    0 -0.30272466432E+03  0.56527342078E+03  0.49190154265E+03  0.80817287154E+03  0.25500000920E-02 0. -1.
       -2    1    3    3    0  502  0.30272466432E+03 -0.56527342078E+03  0.12611444619E+03  0.65351443455E+03  0.25500000920E-02 0.  1.
</event>
<event>
 5   0  0.2370801E-03  0.1329991E+04  0.7818609E-02  0.9006114E-01
        1   -1    0    0  501    0  0.00000000000E+00  0.00000000000E+00  0.58762618047E+03  0.58762618049E+03  0.50400001928E-02 0. -1.
       -1   -1    0    0    0  501  0.00000000000E+00  0.00000000000E+00 -0.75255157580E+03  0.75255157582E+03  0.50400001928E-02 0.  1.
    10030    2    1    2    0    0  0.00000000000E+00  0.00000000000E+00 -0.16492539534E+03  0.13401777563E+04  0.13299909896E+04 0.  0.
        3    1    3    3  502    0  0.41930400185E+03 -0.51175206996E+03 -0.15015588609E+03  0.67841935955E+03  0.10100000352E+00 0.  1.
       -3    1    3    3    0  502 -0.41930400185E+03  0.51175206996E+03 -0.14769509241E+02  0.66175839676E+03  0.10100000352E+00 0. -1.
</event>
<event>
 5   0  0.4453011E-03  0.1301720E+04  0.7818609E-02  0.9028202E-01
        2   -1    0    0  501    0  0.00000000000E+00  0.00000000000E+00  0.13553347893E+04  0.13553347893E+04  0.25500000920E-02 0.  1.
       -2   -1    0    0    0  501  0.00000000000E+00  0.00000000000E+00 -0.31255649121E+03  0.31255649122E+03  0.25500000920E-02 0. -1.
    10030    2    1    2    0    0  0.00000000000E+00  0.00000000000E+00  0.10427782981E+04  0.16678912805E+04  0.13017199179E+04 0.  0.
        1    1    3    3  502    0 -0.19801682509E+03  0.13228762959E+03 -0.25473068538E+03  0.34870962428E+03  0.50400001928E-02 0. -1.
       -1    1    3    3    0  502  0.19801682509E+03 -0.13228762959E+03  0.12975089835E+04  0.13191816563E+04  0.50400001928E-02 0.  1.
</event>
<event>
 5   0  0.2462055E-03  0.1303199E+04  0.7818609E-02  0.9027032E-01
        1   -1    0    0  501    0  0.00000000000E+00  0.00000000000E+00  0.15556250560E+04  0.15556250560E+04  0.50400001928E-02 0.  1.
       -1   -1    0    0    0  501  0.00000000000E+00  0.00000000000E+00 -0.27293334069E+03  0.27293334074E+03  0.50400001928E-02 0. -1.
    10030    2    1    2    0    0  0.00000000000E+00  0.00000000000E+00  0.12826917153E+04  0.18285583968E+04  0.13031990538E+04 0.  0.
        2    1    3    3  502    0  0.45474272772E+03 -0.20219767003E+03  0.12315071301E+04  0.13282637756E+04  0.25500000920E-02 0.  1.
       -2    1    3    3    0  502 -0.45474272772E+03  0.20219767003E+03  0.51184585255E+02  0.50029462116E+03  0.25500000920E-02 0. -1.
</event>
<event>
 5   0  0.2511542E-03  0.9051861E+03  0.7818609E-02  0.9419122E-01
        1   -1    0    0  501    0  0.00000000000E+00  0.00000000000E+00  0.63796601213E+03  0.63796601215E+03  0.50400001928E-02 0.  1.
       -1   -1    0    0    0  501  0.00000000000E+00  0.00000000000E+00 -0.32108364603E+03  0.32108364607E+03  0.50400001928E-02 0. -1.
    10030    2    1    2    0    0  0.00000000000E+00  0.00000000000E+00  0.31688236610E+03  0.95904965822E+03  0.90518606540E+03 0.  0.
        4    1    3    3  502    0  0.33590721995E+03 -0.12534683991E+03  0.45108986784E+03  0.57621972585E+03  0.12699999809E+01 0.  1.
       -4    1    3    3    0  502 -0.33590721995E+03  0.12534683991E+03 -0.13420750174E+03  0.38282993237E+03  0.12699999809E+01 0. -1.
</event>
<event>
 5   0  0.4306214E-03  0.1302041E+04  0.7818609E-02  0.9027949E-01
        2   -1    0    0  501    0  0.00000000000E+00  0.00000000000E+00  0.12789689528E+04  0.12789689528E+04  0.25500000920E-02 0. -1.
       -2   -1    0    0    0  501  0.00000000000E+00  0.00000000000E+00 -0.33138210640E+03  0.33138210641E+03  0.25500000920E-02 0.  1.
    10030    2    1    2    0    0  0.00000000000E+00  0.00000000000E+00  0.94758684643E+03  0.16103510592E+04  0.13020405917E+04 0.  0.
        3    1    3    3  502    0 -0.51276717780E+03  0.23048602713E+03  0.67769252370E+02  0.56625671660E+03  0.10100000352E+00 0. -1.
       -3    1    3    3    0  502  0.51276717780E+03 -0.23048602713E+03  0.87981759406E+03  0.10440943426E+04  0.10100000352E+00 0.  1.
</event>
<event>
 5   0  0.4388937E-03  0.1536456E+04  0.7818609E-02  0.8860565E-01
        2   -1    0    0  501    0  0.00000000000E+00  0.00000000000E+00  0.63770793158E+03  0.63770793158E+03  0.25500000920E-02 0.  1.
       -2   -1    0    0    0  501  0.00000000000E+00  0.00000000000E+00 -0.92546186123E+03  0.92546186123E+03  0.25500000920E-02 0. -1.
    10030    2    1    2    0    0  0.00000000000E+00  0.00000000000E+00 -0.28775392965E+03  0.15631697928E+04  0.15364561423E+04 0.  0.
        5    1    3    3  502    0  0.66041354289E+03  0.14982335711E+02  0.25509134540E+03  0.70814137185E+03  0.46999998093E+01 0.  1.
       -5    1    3    3    0  502 -0.66041354289E+03 -0.14982335711E+02 -0.54284527505E+03  0.85502842097E+03  0.46999998093E+01 0. -1.
</event>
<event>
 5   0  0.1661750E-03  0.1297547E+04  0.7818609E-02  0.9031513E-01
       -3   -1    0    0    0  501  0.00000000000E+00  0.00000000000E+00  0.48947017294E+03  0.48947018336E+03  0.10100000352E+00 0.  1.
        3   -1    0    0  501    0  0.00000000000E+00  0.00000000000E+00 -0.85992341223E+03  0.85992341816E+03  0.10100000352E+00 0. -1.
    10030    2    1    2    0    0  0.00000000000E+00  0.00000000000E+00 -0.37045323929E+03  0.13493936015E+04  0.12975467195E+04 0.  0.
        5    1    3    3  502    0  0.27409583758E+03 -0.36886824530E+03 -0.66144599604E+03  0.80543479329E+03  0.46999998093E+01 0. -1.
       -5    1    3    3    0  502 -0.27409583758E+03  0.36886824530E+03  0.29099275676E+03  0.54395880823E+03  0.46999998093E+01 0.  1.
</event>
<event>
 5   0  0.1661750E-03  0.1285959E+04  0.7818609E-02  0.9040774E-01
       -3   -1    0    0    0  501  0.00000000000E+00  0.00000000000E+00  0.35688891144E+03  0.35688892573E+03  0.10100000352E+00 0. -1.
        3   -1    0    0  501    0  0.00000000000E+00  0.00000000000E+00 -0.11584075107E+04  0.11584075151E+04  0.10100000352E+00 0.  1.
    10030    2    1    2    0    0  0.00000000000E+00  0.00000000000E+00 -0.80151859925E+03  0.15152964408E+04  0.12859592679E+04 0.  0.
        4    1    3    3  502    0 -0.40525830377E+03 -0.25480455609E+03 -0.90656968401E+03  0.10251974734E+04  0.12699999809E+01 0. -1.
       -4    1    3    3    0  502  0.40525830377E+03  0.25480455609E+03  0.10505108476E+03  0.49009896744E+03  0.12699999809E+01 0.  1.
</event>
<event>
 5   0  0.4388937E-03  0.1333465E+04  0.7818609E-02  0.9003440E-01
        2   -1    0    0  501    0  0.00000000000E+00  0.00000000000E+00  0.10911332956E+04  0.10911332956E+04  0.25500000920E-02 0.  1.
       -2   -1    0    0    0  501  0.00000000000E+00  0.00000000000E+00 -0.40740434692E+03  0.40740434692E+03  0.25500000920E-02 0. -1.
    10030    2    1    2    0    0  0.00000000000E+00  0.00000000000E+00  0.68372894872E+03  0.14985376426E+04  0.13334653317E+04 0.  0.
        5    1    3    3  502    0  0.45350941149E+03 -0.69285335055E+02  0.88552794097E+03  0.99732295080E+03  0.46999998093E+01 0. -1.
       -5    1    3    3    0  502 -0.45350941149E+03  0.69285335055E+02 -0.20179899225E+03  0.50121469176E+03  0.46999998093E+01 0.  1.
</event>
<event>
 5   0  0.4453011E-03  0.1287803E+04  0.7818609E-02  0.9039294E-01
        2   -1    0    0  501    0  0.00000000000E+00  0.00000000000E+00  0.18561487196E+04  0.18561487196E+04  0.25500000920E-02 0.  1.
       -2   -1    0    0    0  501  0.00000000000E+00  0.00000000000E+00 -0.22337073234E+03  0.22337073236E+03  0.25500000920E-02 0. -1.
    10030    2    1    2    0    0  0.00000000000E+00  0.00000000000E+00  0.16327779872E+04  0.20795194520E+04  0.12878032441E+04 0.  0.
        1    1    3    3  502    0 -0.39921473089E+03 -0.45566900862E+03  0.11687023005E+04  0.13163858530E+04  0.50400001928E-02 0.  1.
       -1    1    3    3    0  502  0.39921473089E+03  0.45566900862E+03  0.46407568674E+03  0.76313359894E+03  0.50400001928E-02 0. -1.
</event>
<event>
 5   0  0.2511542E-03  0.1309838E+04  0.7818609E-02  0.9021800E-01
        1   -1    0    0  501    0  0.00000000000E+00  0.00000000000E+00  0.13021629762E+04  0.13021629763E+04  0.50400001928E-02 0.  1.
       -1   -1    0    0    0  501  0.00000000000E+00  0.00000000000E+00 -0.32938962082E+03  0.32938962086E+03  0.50400001928E-02 0. -1.
    10030    2    1    2    0    0  0.00000000000E+00  0.00000000000E+00  0.97277335542E+03  0.16315525971E+04  0.13098381106E+04 0.  0.
        4    1    3    3  502    0  0.23273004291E+02 -0.49997543608E+02 -0.32649067483E+03  0.33111804654E+03  0.12699999809E+01 0. -1.
       -4    1    3    3    0  502 -0.23273004291E+02  0.49997543608E+02  0.12992640303E+04  0.13004345506E+04  0.12699999809E+01 0.  1.
</event>
<event>
 5   0  0.2458456E-03  0.1344841E+04  0.7818609E-02  0.8994743E-01
       -1   -1    0    0    0  501  0.00000000000E+00  0.00000000000E+00  0.93074872928E+03  0.93074872929E+03  0.50400001928E-02 0.  1.
        1   -1    0    0  501    0  0.00000000000E+00  0.00000000000E+00 -0.48579083042E+03  0.48579083045E+03  0.50400001928E-02 0. -1.
    10030    2    1    2    0    0  0.00000000000E+00  0.00000000000E+00  0.44495789886E+03  0.14165395597E+04  0.13448408056E+04 0.  0.
        5    1    3    3  502    0  0.37755325663E+03 -0.43750219774E+03 -0.13961060165E+03  0.59453161792E+03  0.46999998093E+01 0. -1.
       -5    1    3    3    0  502 -0.37755325663E+03  0.43750219774E+03  0.58456850051E+03  0.82200794181E+03  0.46999998093E+01 0.  1.
</event>
<event>
 5   0  0.4388937E-03  0.1324032E+04  0.7818609E-02  0.9010722E-01
        2   -1    0    0  501    0  0.00000000000E+00  0.00000000000E+00  0.51435194798E+03  0.51435194798E+03  0.25500000920E-02 0. -1.
       -2   -1    0    0    0  501  0.00000000000E+00  0.00000000000E+00 -0.85207214914E+03  0.85207214914E+03  0.25500000920E-02 0.  1.
    10030    2    1    2    0    0  0.00000000000E+00  0.00000000000E+00 -0.33772020116E+03  0.13664240971E+04  0.13240316760E+04 0.  0.
        5    1    3    3  502    0  0.57036990162E+02  0.62685549575E+03  0.42745930107E+02  0.63091230399E+03  0.46999998093E+01 0. -1.
       -5    1    3    3    0  502 -0.57036990162E+02 -0.62685549575E+03 -0.38046613127E+03  0.73551179313E+03  0.46999998093E+01 0.  1.
</event>
<event>
 5   0  0.4263540E-03  0.1347956E+04  0.7818609E-02  0.8992377E-01
        2   -1    0    0  501    0  0.00000000000E+00  0.00000000000E+00  0.14789179519E+04  0.14789179519E+04  0.25500000920E-02 0. -1.
       -2   -1    0    0    0  501  0.00000000000E+00  0.00000000000E+00 -0.30714775120E+03  0.30714775121E+03  0.25500000920E-02 0.  1.
    10030    2    1    2    0    0  0.00000000000E+00  0.00000000000E+00  0.11717702007E+04  0.17860657031E+04  0.13479559683E+04 0.  0.
        2    1    3    3  502    0  0.53829475125E+02 -0.13199240030E+03  0.14587156136E+04  0.14656639613E+04  0.25500000920E-02 0. -1.
       -2    1    3    3    0  502 -0.53829475125E+02  0.13199240030E+03 -0.28694541292E+03  0.32040174178E+03  0.25500000920E-02 0.  1.
</event>
<event>
 5   0  0.4306214E-03  0.1255737E+04  0.7818609E-02  0.9065422E-01
        2   -1    0    0  501    0  0.00000000000E+00  0.00000000000E+00  0.12452383619E+04  0.12452383619E+04  0.25500000920E-02 0.  1.
       -2   -1    0    0    0  501  0.00000000000E+00  0.00000000000E+00 -0.31658106710E+03  0.31658106711E+03  0.25500000920E-02 0. -1.
    10030    2    1    2    0    0  0.00000000000E+00  0.00000000000E+00  0.92865729477E+03  0.15618194290E+04  0.12557370575E+04 0.  0.
        3    1    3    3  502    0 -0.20291611067E+03  0.18004787890E+03 -0.23992961028E+03  0.36215799695E+03  0.10100000352E+00 0. -1.
       -3    1    3    3    0  502  0.20291611067E+03 -0.18004787890E+03  0.11685869050E+04  0.11996614320E+04  0.10100000352E+00 0.  1.
</event>
<event>
 5   0  0.2356769E-03  0.1345078E+04  0.7818609E-02  0.8994562E-01
       -1   -1    0    0    0  501  0.00000000000E+00  0.00000000000E+00  0.10824356525E+04  0.10824356525E+04  0.50400001928E-02 0.  1.
        1   -1    0    0  501    0  0.00000000000E+00  0.00000000000E+00 -0.41786188521E+03  0.41786188524E+03  0.50400001928E-02 0. -1.
    10030    2    1    2    0    0  0.00000000000E+00  0.00000000000E+00  0.66457376726E+03  0.15002975377E+04  0.13450778452E+04 0.  0.
        1    1    3    3  502    0  0.26134835756E+03 -0.46029857394E+03  0.79505065082E+03  0.95513521481E+03  0.50400001928E-02 0.  1.
       -1    1    3    3    0  502 -0.26134835756E+03  0.46029857394E+03 -0.13047688356E+03  0.54516232292E+03  0.50400001928E-02 0. -1.
</event>
<event>
 5   0  0.4306214E-03  0.1127188E+04  0.7818609E-02  0.9179090E-01
        2   -1    0    0  501    0  0.00000000000E+00  0.00000000000E+00  0.61242526714E+03  0.61242526714E+03  0.25500000920E-02 0. -1.
       -2   -1    0    0    0  501  0.00000000000E+00  0.00000000000E+00 -0.51865648302E+03  0.51865648303E+03  0.25500000920E-02 0.  1.
    10030    2    1    2    0    0  0.00000000000E+00  0.00000000000E+00  0.93768784118E+02  0.11310817502E+04  0.11271882455E+04 0.  0.
        3    1    3    3  502    0 -0.16440451186E+02 -0.56129905195E+03 -0.13588087186E+01  0.56154142387E+03  0.10100000352E+00 0.  1.
       -3    1    3    3    0  502  0.16440451186E+02  0.56129905195E+03  0.95127592837E+02  0.56954032630E+03  0.10100000352E+00 0. -1.
</event>
<event>
 5   0  0.4388937E-03  0.1306176E+04  0.7818609E-02  0.9024682E-01
       -2   -1    0    0    0  501  0.00000000000E+00  0.00000000000E+00  0.33005471196E+03  0.33005471197E+03  0.25500000920E-02 0. -1.
        2   -1    0    0  501    0  0.00000000000E+00  0.00000000000E+00 -0.12922818628E+04  0.12922818628E+04  0.25500000920E-02 0.  1.
    10030    2    1    2    0    0  0.00000000000E+00  0.00000000000E+00 -0.96222715080E+03  0.16223365747E+04  0.13061756666E+04 0.  0.
        5    1    3    3  502    0  0.17901022313E+03 -0.36636628966E+03 -0.11147210799E+04  0.11869684470E+04  0.46999998093E+01 0.  1.
       -5    1    3    3    0  502 -0.17901022313E+03  0.36636628966E+03  0.15249392914E+03  0.43536812769E+03  0.46999998093E+01 0. -1.
</event>
<event>
 5   0  0.2356769E-03  0.1246568E+04  0.7818609E-02  0.9073045E-01
       -1   -1    0    0    0  501  0.00000000000E+00  0.00000000000E+00  0.10751632366E+04  0.10751632366E+04  0.50400001928E-02 0. -1.
        1   -1    0    0  501    0  0.00000000000E+00  0.00000000000E+00 -0.36132453670E+03  0.36132453673E+03  0.50400001928E-02 0.  1.
    10030    2    1    2    0    0  0.00000000000E+00  0.00000000000E+00  0.71383869987E+03  0.14364877733E+04  0.12465678615E+04 0.  0.
        1    1    3    3  502    0  0.34107562019E+03  0.49673949734E+03  0.54057494381E+03  0.80950847852E+03  0.50400001928E-02 0. -1.
       -1    1    3    3    0  502 -0.34107562019E+03 -0.49673949734E+03  0.17326375606E+03  0.62697929479E+03  0.50400001928E-02 0.  1.
</event>
<event>
 5   0  0.2462055E-03  0.1314980E+04  0.7818609E-02  0.9017770E-01
       -1   -1    0    0    0  501  0.00000000000E+00  0.00000000000E+00  0.23762750725E+03  0.23762750730E+03  0.50400001928E-02 0. -1.
        1   -1    0    0  501    0  0.00000000000E+00  0.00000000000E+00 -0.18192034555E+04  0.18192034555E+04  0.50400001928E-02 0.  1.
    10030    2    1    2    0    0  0.00000000000E+00  0.00000000000E+00 -0.15815759483E+04  0.20568309628E+04  0.13149795168E+04 0.  0.
        2    1    3    3  502    0 -0.39738802234E+01  0.37172568124E+03 -0.16390400224E+04  0.16806689051E+04  0.25500000920E-02 0.  1.
       -2    1    3    3    0  502  0.39738802234E+01 -0.37172568124E+03  0.57464074099E+02  0.37616205767E+03  0.25500000920E-02 0. -1.
</event>
<event>
 5   0  0.4310889E-03  0.1225522E+04  0.7818609E-02  0.9090806E-01
       -2   -1    0    0    0  501  0.00000000000E+00  0.00000000000E+00  0.45236107977E+03  0.45236107978E+03  0.25500000920E-02 0. -1.
        2   -1    0    0  501    0  0.00000000000E+00  0.00000000000E+00 -0.83003596885E+03  0.83003596886E+03  0.25500000920E-02 0.  1.
    10030    2    1    2    0    0  0.00000000000E+00  0.00000000000E+00 -0.37767488908E+03  0.12823970486E+04  0.12255218760E+04 0.  0.
        4    1    3    3  502    0 -0.12582279731E+03  0.32805658145E+03 -0.71415334424E+03  0.79590772640E+03  0.12699999809E+01 0.  1.
       -4    1    3    3    0  502  0.12582279731E+03 -0.32805658145E+03  0.33647845516E+03  0.48648932223E+03  0.12699999809E+01 0. -1.
</event>
<event>
 5   0  0.4310889E-03  0.1272941E+04  0.7818609E-02  0.9051303E-01
       -2   -1    0    0    0  501  0.00000000000E+00  0.00000000000E+00  0.41778896334E+03  0.41778896335E+03  0.25500000920E-02 0.  1.
        2   -1    0    0  501    0  0.00000000000E+00  0.00000000000E+00 -0.96961564977E+03  0.96961564977E+03  0.25500000920E-02 0. -1.
    10030    2    1    2    0    0  0.00000000000E+00  0.00000000000E+00 -0.55182668643E+03  0.13874046131E+04  0.12729410311E+04 0.  0.
        4    1    3    3  502    0  0.37993590999E+03 -0.25443657083E+03  0.20661978897E+03  0.50177944793E+03  0.12699999809E+01 0.  1.
       -4    1    3    3    0  502 -0.37993590999E+03  0.25443657083E+03 -0.75844647540E+03  0.88562516519E+03  0.12699999809E+01 0. -1.
</event>
<event>
 5   0  0.4263540E-03  0.1344582E+04  0.7818609E-02  0.8994940E-01
        2   -1    0    0  501    0  0.00000000000E+00  0.00000000000E+00  0.12327342755E+04  0.12327342755E+04  0.25500000920E-02 0.  1.
       -2   -1    0    0    0  501  0.00000000000E+00  0.00000000000E+00 -0.36664419980E+03  0.36664419981E+03  0.25500000920E-02 0. -1.
    10030    2    1    2    0    0  0.00000000000E+00  0.00000000000E+00  0.86609007569E+03  0.15993784753E+04  0.13445815290E+04 0.  0.
        2    1    3    3  502    0 -0.19661654064E+03 -0.21582291950E+02 -0.33124954797E+03  0.38581099313E+03  0.25500000920E-02 0. -1.
       -2    1    3    3    0  502  0.19661654064E+03  0.21582291950E+02  0.11973396237E+04  0.12135674822E+04  0.25500000920E-02 0.  1.
</event>
<event>
 5   0  0.4453011E-03  0.1462773E+04  0.7818609E-02  0.8909593E-01
        2   -1    0    0  501    0  0.00000000000E+00  0.00000000000E+00  0.13313636164E+04  0.13313636164E+04  0.25500000920E-02 0.  1.
       -2   -1    0    0    0  501  0.00000000000E+00  0.00000000000E+00 -0.40178842648E+03  0.40178842649E+03  0.25500000920E-02 0. -1.
    10030    2    1    2    0    0  0.00000000000E+00  0.00000000000E+00  0.92957518990E+03  0.17331520429E+04  0.14627733830E+04 0.  0.
        1    1    3    3  502    0 -0.63478095813E+03 -0.36321889835E+03  0.45627160784E+03  0.86200847622E+03  0.50400001928E-02 0. -1.
       -1    1    3    3    0  502  0.63478095813E+03  0.36321889835E+03  0.47330358206E+03  0.87114356666E+03  0.50400001928E-02 0.  1.
</event>
<event>
 5   0  0.4310889E-03  0.1294220E+04  0.7818609E-02  0.9034161E-01
       -2   -1    0    0    0  501  0.00000000000E+00  0.00000000000E+00  0.25524469680E+03  0.25524469682E+03  0.25500000920E-02 0. -1.
        2   -1    0    0  501    0  0.00000000000E+00  0.00000000000E+00 -0.16405883369E+04  0.16405883369E+04  0.25500000920E-02 0.  1.
    10030    2    1    2    0    0  0.00000000000E+00  0.00000000000E+00 -0.13853436401E+04  0.18958330337E+04  0.12942201863E+04 0.  0.
        4    1    3    3  502    0  0.20069370633E+03 -0.52875062140E+03 -0.11533295612E+04  0.12845333289E+04  0.12699999809E+01 0.  1.
       -4    1    3    3    0  502 -0.20069370633E+03  0.52875062140E+03 -0.23201407887E+03  0.61129970480E+03  0.12699999809E+01 0. -1.
</event>
<event>
 5   0  0.4306214E-03  0.1302686E+04  0.7818609E-02  0.9027438E-01
       -2   -1    0    0    0  501  0.00000000000E+00  0.00000000000E+00  0.87012029654E+03  0.87012029654E+03  0.25500000920E-02 0. -1.
        2   -1    0    0  501    0  0.00000000000E+00  0.00000000000E+00 -0.48757377147E+03  0.48757377148E+03  0.25500000920E-02 0.  1.
    10030    2    1    2    0    0  0.00000000000E+00  0.00000000000E+00  0.38254652507E+03  0.13576940680E+04  0.13026862011E+04 0.  0.
        3    1    3    3  502    0 -0.36819013119E+03  0.11093953352E+03  0.73918737247E+03  0.83322838083E+03  0.10100000352E+00 0. -1.
       -3    1    3    3    0  502  0.36819013119E+03 -0.11093953352E+03 -0.35664084741E+03  0.52446568719E+03  0.10100000352E+00 0.  1.
</event>
<event>
 5   0  0.2356769E-03  0.1344805E+04  0.7818609E-02  0.8994770E-01
        1   -1    0    0  501    0  0.00000000000E+00  0.00000000000E+00  0.10243010232E+04  0.10243010232E+04  0.50400001928E-02 0.  1.
       -1   -1    0    0    0  501  0.00000000000E+00  0.00000000000E+00 -0.44139851927E+03  0.44139851930E+03  0.50400001928E-02 0. -1.
    10030    2    1    2    0    0  0.00000000000E+00  0.00000000000E+00  0.58290250396E+03  0.14656995425E+04  0.13448047516E+04 0.  0.
        1    1    3    3  502    0 -0.63130265988E+03  0.31412913805E+02  0.54140433980E+03  0.83225505628E+03  0.50400001928E-02 0.  1.
       -1    1    3    3    0  502  0.63130265988E+03 -0.31412913805E+02  0.41498164153E+02  0.63344448626E+03  0.50400001928E-02 0. -1.
</event>
<event>
 5   0  0.2356769E-03  0.1329010E+04  0.7818609E-02  0.9006871E-01
       -1   -1    0    0    0  501  0.00000000000E+00  0.00000000000E+00  0.61762059631E+03  0.61762059633E+03  0.50400001928E-02 0. -1.
        1   -1    0    0  501    0  0.00000000000E+00  0.00000000000E+00 -0.71494873798E+03  0.71494873799E+03  0.50400001928E-02 0.  1.
    10030    2    1    2    0    0  0.00000000000E+00  0.00000000000E+00 -0.97328141665E+02  0.13325693343E+04  0.13290102572E+04 0.  0.
        1    1    3    3  502    0  0.23052622718E+03  0.28852003873E+03  0.50524715281E+03  0.62582812306E+03  0.50400001928E-02 0. -1.
       -1    1    3    3    0  502 -0.23052622718E+03 -0.28852003873E+03 -0.60257529447E+03  0.70674121127E+03  0.50400001928E-02 0.  1.
</event>
<event>
 5   0  0.2511542E-03  0.1354757E+04  0.7818609E-02  0.8987235E-01
       -1   -1    0    0    0  501  0.00000000000E+00  0.00000000000E+00  0.26969993549E+03  0.26969993554E+03  0.50400001928E-02 0.  1.
        1   -1    0    0  501    0  0.00000000000E+00  0.00000000000E+00 -0.17013039977E+04  0.17013039977E+04  0.50400001928E-02 0. -1.
    10030    2    1    2    0    0  0.00000000000E+00  0.00000000000E+00 -0.14316040622E+04  0.19710039333E+04  0.13547569206E+04 0.  0.
        4    1    3    3  502    0 -0.39529239625E+03 -0.29807147335E+03 -0.43187484201E+02  0.49696021315E+03  0.12699999809E+01 0.  1.
       -4    1    3    3    0  502  0.39529239625E+03  0.29807147335E+03 -0.13884165780E+04  0.14740437201E+04  0.12699999809E+01 0. -1.
</event>
<event>
 5   0  0.2356769E-03  0.7006419E+03  0.7818609E-02  0.9716135E-01
       -1   -1    0    0    0  501  0.00000000000E+00  0.00000000000E+00  0.32784808662E+03  0.32784808666E+03  0.50400001928E-02 0. -1.
        1   -1    0    0  501    0  0.00000000000E+00  0.00000000000E+00 -0.37433422298E+03  0.37433422301E+03  0.50400001928E-02 0.  1.
    10030    2    1    2    0    0  0.00000000000E+00  0.00000000000E+00 -0.46486136356E+02  0.70218230968E+03  0.70064187368E+03 0.  0.
        1    1    3    3  502    0 -0.50616348041E+02  0.23485652228E+03 -0.27876471855E+03  0.36800729487E+03  0.50400001928E-02 0.  1.
       -1    1    3    3    0  502  0.50616348041E+02 -0.23485652228E+03  0.23227858219E+03  0.33417501480E+03  0.50400001928E-02 0. -1.
</event>
<event>
 5   0  0.4453011E-03  0.1284487E+04  0.7818609E-02  0.9041958E-01
       -2   -1    0    0    0  501  0.00000000000E+00  0.00000000000E+00  0.35641278454E+03  0.35641278455E+03  0.25500000920E-02 0.  1.
        2   -1    0    0  501    0  0.00000000000E+00  0.00000000000E+00 -0.11573006934E+04  0.11573006934E+04  0.25500000920E-02 0. -1.
    10030    2    1    2    0    0  0.00000000000E+00  0.00000000000E+00 -0.80088790890E+03  0.15137134780E+04  0.12844870770E+04 0.  0.
        1    1    3    3  502    0  0.13623829477E+03 -0.56573025516E+03 -0.72072687789E+03  0.92631464800E+03  0.50400001928E-02 0. -1.
       -1    1    3    3    0  502 -0.13623829477E+03  0.56573025516E+03 -0.80161031010E+02  0.58739883000E+03  0.50400001928E-02 0.  1.
</event>
<event>
 5   0  0.4310889E-03  0.1298350E+04  0.7818609E-02  0.9030875E-01
       -2   -1    0    0    0  501  0.00000000000E+00  0.00000000000E+00  0.86221139111E+03  0.86221139111E+03  0.25500000920E-02 0.  1.
        2   -1    0    0  501    0  0.00000000000E+00  0.00000000000E+00 -0.48877567322E+03  0.48877567322E+03  0.25500000920E-02 0. -1.
    10030    2    1    2    0    0  0.00000000000E+00  0.00000000000E+00  0.37343571789E+03  0.13509870643E+04  0.12983496496E+04 0.  0.
        4    1    3    3  502    0 -0.61969573602E+03  0.12063830882E+03  0.34400817875E+03  0.71897124194E+03  0.12699999809E+01 0. -1.
       -4    1    3    3    0  502  0.61969573602E+03 -0.12063830882E+03  0.29427539144E+02  0.63201582239E+03  0.12699999809E+01 0.  1.
</event>
<event>
 5   0  0.4263540E-03  0.1284713E+04  0.7818609E-02  0.9041777E-01
        2   -1    0    0  501    0  0.00000000000E+00  0.00000000000E+00  0.92853322704E+03  0.92853322704E+03  0.25500000920E-02 0. -1.
       -2   -1    0    0    0  501  0.00000000000E+00  0.00000000000E+00 -0.44438003002E+03  0.44438003003E+03  0.25500000920E-02 0.  1.
    10030    2    1    2    0    0  0.00000000000E+00  0.00000000000E+00  0.48415319701E+03  0.13729132571E+04  0.12847126112E+04 0.  0.
        2    1    3    3  502    0  0.54963868263E+03 -0.26181750732E+03  0.23144538997E+02  0.60925098135E+03  0.25500000920E-02 0.  1.
       -2    1    3    3    0  502 -0.54963868263E+03  0.26181750732E+03  0.46100865801E+03  0.76366227572E+03  0.25500000920E-02 0. -1.
</event>
<event>
 5   0  0.2458456E-03  0.9819334E+03  0.7818609E-02  0.9328585E-01
        1   -1    0    0  501    0  0.00000000000E+00  0.00000000000E+00  0.17335121049E+04  0.17335121049E+04  0.50400001928E-02 0. -1.
       -1   -1    0    0    0  501  0.00000000000E+00  0.00000000000E+00 -0.13905197585E+03  0.13905197594E+03  0.50400001928E-02 0.  1.
    10030    2    1    2    0    0  0.00000000000E+00  0.00000000000E+00  0.15944601290E+04  0.18725640808E+04  0.98193336522E+03 0.  0.
        5    1    3    3  502    0  0.14862935924E+01  0.86102084175E+02 -0.12449367313E+03  0.15144815158E+03  0.46999998093E+01 0.  1.
       -5    1    3    3    0  502 -0.14862935924E+01 -0.86102084175E+02  0.17189538021E+04  0.17211159292E+04  0.46999998093E+01 0. -1.
</event>
<event>
 5   0  0.2370801E-03  0.1372980E+04  0.7818609E-02  0.8973612E-01
        1   -1    0    0  501    0  0.00000000000E+00  0.00000000000E+00  0.73924147215E+03  0.73924147216E+03  0.50400001928E-02 0.  1.
       -1   -1    0    0    0  501  0.00000000000E+00  0.00000000000E+00 -0.63750297010E+03  0.63750297012E+03  0.50400001928E-02 0. -1.
    10030    2    1    2    0    0  0.00000000000E+00  0.00000000000E+00  0.10173850205E+03  0.13767444423E+04  0.13729801661E+04 0.  0.
        3    1    3    3  502    0 -0.11078459138E+03 -0.41273399593E+02 -0.62721838406E+03  0.63826297927E+03  0.10100000352E+00 0. -1.
       -3    1    3    3    0  502  0.11078459138E+03  0.41273399593E+02  0.72895688611E+03  0.73848146301E+03  0.10100000352E+00 0.  1.
</event>
<event>
 5   0  0.4453011E-03  0.1467504E+04  0.7818609E-02  0.8906355E-01
        2   -1    0    0  501    0  0.00000000000E+00  0.00000000000E+00  0.12533835705E+04  0.12533835705E+04  0.25500000920E-02 0.  1.
       -2   -1    0    0    0  501  0.00000000000E+00  0.00000000000E+00 -0.42955058626E+03  0.42955058627E+03  0.25500000920E-02 0. -1.
    10030    2    1    2    0    0  0.00000000000E+00  0.00000000000E+00  0.82383298423E+03  0.16829341568E+04  0.14675035230E+04 0.  0.
        1    1    3    3  502    0  0.32146403196E+03 -0.65641533705E+03  0.48598445444E+03  0.87772496179E+03  0.50400001928E-02 0. -1.
       -1    1    3    3    0  502 -0.32146403196E+03  0.65641533705E+03  0.33784852979E+03  0.80520919497E+03  0.50400001928E-02 0.  1.
</event>
<event>
 5   0  0.2511542E-03  0.1348402E+04  0.7818609E-02  0.8992039E-01
        1   -1    0    0  501    0  0.00000000000E+00  0.00000000000E+00  0.55604870688E+03  0.55604870691E+03  0.50400001928E-02 0.  1.
       -1   -1    0    0    0  501  0.00000000000E+00  0.00000000000E+00 -0.81745912910E+03  0.81745912911E+03  0.50400001928E-02 0. -1.
    10030    2    1    2    0    0  0.00000000000E+00  0.00000000000E+00 -0.26141042222E+03  0.13735078360E+04  0.13484021532E+04 0.  0.
        4    1    3    3  502    0  0.17552185805E+02 -0.54421516718E+02  0.55357294661E+03  0.55651990155E+03  0.12699999809E+01 0.  1.
       -4    1    3    3    0  502 -0.17552185805E+02  0.54421516718E+02 -0.81498336882E+03  0.81698793447E+03  0.12699999809E+01 0. -1.
</event>
<event>
 5   0  0.2370801E-03  0.1408299E+04  0.7818609E-02  0.8947833E-01
        1   -1    0    0  501    0  0.00000000000E+00  0.00000000000E+00  0.10429668372E+04  0.10429668372E+04  0.50400001928E-02 0. -1.
       -1   -1    0    0    0  501  0.00000000000E+00  0.00000000000E+00 -0.47539996320E+03  0.47539996323E+03  0.50400001928E-02 0.  1.
    10030    2    1    2    0    0  0.00000000000E+00  0.00000000000E+00  0.56756687399E+03  0.15183668004E+04  0.14082988263E+04 0.  0.
        3    1    3    3  502    0  0.42616697167E+03  0.43575165452E+03  0.66394428918E+03  0.90128786828E+03  0.10100000352E+00 0.  1.
       -3    1    3    3    0  502 -0.42616697167E+03 -0.43575165452E+03 -0.96377415190E+02  0.61707893216E+03  0.10100000352E+00 0. -1.
</event>
<event>
 5   0  0.2356769E-03  0.1322685E+04  0.7818609E-02  0.9011766E-01
       -1   -1    0    0    0  501  0.00000000000E+00  0.00000000000E+00  0.58383833390E+03  0.58383833392E+03  0.50400001928E-02 0.  1.
        1   -1    0    0  501    0  0.00000000000E+00  0.00000000000E+00 -0.74913584821E+03  0.74913584823E+03  0.50400001928E-02 0. -1.
    10030    2    1    2    0    0  0.00000000000E+00  0.00000000000E+00 -0.16529751431E+03  0.13329741821E+04  0.13226854887E+04 0.  0.
        1    1    3    3  502    0 -0.29521260945E+01 -0.10620428010E+03  0.57518152780E+03  0.58491183448E+03  0.50400001928E-02 0.  1.
       -1    1    3    3    0  502  0.29521260945E+01  0.10620428010E+03 -0.74047904212E+03  0.74806234767E+03  0.50400001928E-02 0. -1.
</event>
<event>
 5   0  0.1661750E-03  0.1326106E+04  0.7818609E-02  0.9009115E-01
        3   -1    0    0  501    0  0.00000000000E+00  0.00000000000E+00  0.32939100083E+03  0.32939101632E+03  0.10100000352E+00 0. -1.
       -3   -1    0    0    0  501  0.00000000000E+00  0.00000000000E+00 -0.13347036977E+04  0.13347037016E+04  0.10100000352E+00 0.  1.
    10030    2    1    2    0    0  0.00000000000E+00  0.00000000000E+00 -0.10053126969E+04  0.16640947179E+04  0.13261061841E+04 0.  0.
        3    1    3    3  502    0 -0.45484389542E+03  0.47322355412E+03 -0.38483259461E+03  0.76086768722E+03  0.10100000352E+00 0. -1.
       -3    1    3    3    0  502  0.45484389542E+03 -0.47322355412E+03 -0.62048010230E+03  0.90322703066E+03  0.10100000352E+00 0.  1.
</event>
<event>
 5   0  0.2458456E-03  0.1233409E+04  0.7818609E-02  0.9084106E-01
        1   -1    0    0  501    0  0.00000000000E+00  0.00000000000E+00  0.22360013202E+04  0.22360013203E+04  0.50400001928E-02 0. -1.
       -1   -1    0    0    0  501  0.00000000000E+00  0.00000000000E+00 -0.17009141536E+03  0.17009141544E+03  0.50400001928E-02 0.  1.
    10030    2    1    2    0    0  0.00000000000E+00  0.00000000000E+00  0.20659099049E+04  0.24060927357E+04  0.12334093066E+04 0.  0.
        5    1    3    3  502    0  0.77185859747E+02 -0.67186528402E+02 -0.15337831835E+03  0.18444154922E+03  0.46999998093E+01 0.  1.
       -5    1    3    3    0  502 -0.77185859747E+02  0.67186528402E+02  0.22192882232E+04  0.22216511865E+04  0.46999998093E+01 0. -1.
</event>
<event>
 5   0  0.2370801E-03  0.1314445E+04  0.7818609E-02  0.9018188E-01
       -1   -1    0    0    0  501  0.00000000000E+00  0.00000000000E+00  0.58245741854E+03  0.58245741856E+03  0.50400001928E-02 0.  1.
        1   -1    0    0  501    0  0.00000000000E+00  0.00000000000E+00 -0.74158503840E+03  0.74158503842E+03  0.50400001928E-02 0. -1.
    10030    2    1    2    0    0  0.00000000000E+00  0.00000000000E+00 -0.15912761987E+03  0.13240424570E+04  0.13144454452E+04 0.  0.
        3    1    3    3  502    0  0.12650024390E+03  0.35363969620E+02 -0.72822884001E+03  0.73997984816E+03  0.10100000352E+00 0. -1.
       -3    1    3    3    0  502 -0.12650024390E+03 -0.35363969620E+02  0.56910122015E+03  0.58406260882E+03  0.10100000352E+00 0.  1.
</event>
<event>
 5   0  0.4310889E-03  0.1270840E+04  0.7818609E-02  0.9053015E-01
        2   -1    0    0  501    0  0.00000000000E+00  0.00000000000E+00  0.72609736800E+03  0.72609736801E+03  0.25500000920E-02 0.  1.
       -2   -1    0    0    0  501  0.00000000000E+00  0.00000000000E+00 -0.55606636373E+03  0.55606636373E+03  0.25500000920E-02 0. -1.
    10030    2    1    2    0    0  0.00000000000E+00  0.00000000000E+00  0.17003100427E+03  0.12821637317E+04  0.12708396014E+04 0.  0.
        4    1    3    3  502    0 -0.73095120092E+02  0.31667129081E+03  0.63589657540E+03  0.71413561073E+03  0.12699999809E+01 0.  1.
       -4    1    3    3    0  502  0.73095120092E+02 -0.31667129081E+03 -0.46586557112E+03  0.56802812101E+03  0.12699999809E+01 0. -1.
</event>
<event>
 5   0  0.4453011E-03  0.1286828E+04  0.7818609E-02  0.9040077E-01
        2   -1    0    0  501    0  0.00000000000E+00  0.00000000000E+00  0.12528010200E+04  0.12528010200E+04  0.25500000920E-02 0.  1.
       -2   -1    0    0    0  501  0.00000000000E+00  0.00000000000E+00 -0.33044454734E+03  0.33044454735E+03  0.25500000920E-02 0. -1.
    10030    2    1    2    0    0  0.00000000000E+00  0.00000000000E+00  0.92235647261E+03  0.15832455673E+04  0.12868275191E+04 0.  0.
        1    1    3    3  502    0  0.27540066175E+03 -0.23419415068E+03 -0.19367303498E+03  0.41012396810E+03  0.50400001928E-02 0. -1.
       -1    1    3    3    0  502 -0.27540066175E+03  0.23419415068E+03  0.11160295076E+04  0.11731215992E+04  0.50400001928E-02 0.  1.
</event>
<event>
 5   0  0.2511542E-03  0.1285276E+04  0.7818609E-02  0.9041323E-01
        1   -1    0    0  501    0  0.00000000000E+00  0.00000000000E+00  0.84479487674E+03  0.84479487676E+03  0.50400001928E-02 0.  1.
       -1   -1    0    0    0  501  0.00000000000E+00  0.00000000000E+00 -0.48885683997E+03  0.48885684000E+03  0.50400001928E-02 0. -1.
    10030    2    1    2    0    0  0.00000000000E+00  0.00000000000E+00  0.35593803677E+03  0.13336517168E+04  0.12852762410E+04 0.  0.
        4    1    3    3  502    0  0.62692246664E+03 -0.10868584630E+03  0.84364226016E+02  0.64184369429E+03  0.12699999809E+01 0. -1.
       -4    1    3    3    0  502 -0.62692246664E+03  0.10868584630E+03  0.27157381075E+03  0.69180802247E+03  0.12699999809E+01 0.  1.
</event>
<event>
 5   0  0.4388937E-03  0.1274099E+04  0.7818609E-02  0.9050361E-01
        2   -1    0    0  501    0  0.00000000000E+00  0.00000000000E+00  0.25988847812E+03  0.25988847813E+03  0.25500000920E-02 0.  1.
       -2   -1    0    0    0  501  0.00000000000E+00  0.00000000000E+00 -0.15615623705E+04  0.15615623705E+04  0.25500000920E-02 0. -1.
    10030    2    1    2    0    0  0.00000000000E+00  0.00000000000E+00 -0.13016738924E+04  0.18214508487E+04  0.12740990040E+04 0.  0.
        5    1    3    3  502    0 -0.41187644603E+03  0.42504912071E+03 -0.98763125768E+03  0.11514106795E+04  0.46999998093E+01 0. -1.
       -5    1    3    3    0  502  0.41187644603E+03 -0.42504912071E+03 -0.31404263473E+03  0.67004016912E+03  0.46999998093E+01 0.  1.
</event>
<event>
 5   0  0.2511542E-03  0.1322620E+04  0.7818609E-02  0.9011817E-01
       -1   -1    0    0    0  501  0.00000000000E+00  0.00000000000E+00  0.54924306463E+03  0.54924306465E+03  0.50400001928E-02 0. -1.
        1   -1    0    0  501    0  0.00000000000E+00  0.00000000000E+00 -0.79624329227E+03  0.79624329228E+03  0.50400001928E-02 0.  1.
    10030    2    1    2    0    0  0.00000000000E+00  0.00000000000E+00 -0.24700022764E+03  0.13454863569E+04  0.13226202872E+04 0.  0.
        4    1    3    3  502    0  0.57758609283E+03 -0.22475926506E+03 -0.35815456445E+03  0.71582031739E+03  0.12699999809E+01 0.  1.
       -4    1    3    3    0  502 -0.57758609283E+03  0.22475926506E+03  0.11115433682E+03  0.62966603954E+03  0.12699999809E+01 0. -1.
</event>
<event>
 5   0  0.2356769E-03  0.1357490E+04  0.7818609E-02  0.8985178E-01
       -1   -1    0    0    0  501  0.00000000000E+00  0.00000000000E+00  0.33728402567E+03  0.33728402571E+03  0.50400001928E-02 0.  1.
        1   -1    0    0  501    0  0.00000000000E+00  0.00000000000E+00 -0.13658947295E+04  0.13658947295E+04  0.50400001928E-02 0. -1.
    10030    2    1    2    0    0  0.00000000000E+00  0.00000000000E+00 -0.10286107038E+04  0.17031787552E+04  0.13574895551E+04 0.  0.
        1    1    3    3  502    0 -0.47092650344E+03  0.75165716944E+02  0.91671173967E+02  0.48561843129E+03  0.50400001928E-02 0.  1.
       -1    1    3    3    0  502  0.47092650344E+03 -0.75165716944E+02 -0.11202818778E+04  0.12175603239E+04  0.50400001928E-02 0. -1.
</event>
<event>
 5   0  0.2356769E-03  0.1296812E+04  0.7818609E-02  0.9032097E-01
       -1   -1    0    0    0  501  0.00000000000E+00  0.00000000000E+00  0.31427126525E+03  0.31427126529E+03  0.50400001928E-02 0.  1.
        1   -1    0    0  501    0  0.00000000000E+00  0.00000000000E+00 -0.13377948610E+04  0.13377948610E+04  0.50400001928E-02 0. -1.
    10030    2    1    2    0    0  0.00000000000E+00  0.00000000000E+00 -0.10235235957E+04  0.16520661263E+04  0.12968122203E+04 0.  0.
        1    1    3    3  502    0 -0.24916725860E+02  0.58646164239E+02  0.31027297149E+03  0.31674837438E+03  0.50400001928E-02 0.  1.
       -1    1    3    3    0  502  0.24916725860E+02 -0.58646164239E+02 -0.13337965672E+04  0.13353177519E+04  0.50400001928E-02 0. -1.
</event>
<event>
 5   0  0.2370801E-03  0.1314256E+04  0.7818609E-02  0.9018336E-01
        1   -1    0    0  501    0  0.00000000000E+00  0.00000000000E+00  0.49939281233E+03  0.49939281235E+03  0.50400001928E-02 0. -1.
       -1   -1    0    0    0  501  0.00000000000E+00  0.00000000000E+00 -0.86468457263E+03  0.86468457265E+03  0.50400001928E-02 0.  1.
    10030    2    1    2    0    0  0.00000000000E+00  0.00000000000E+00 -0.36529176031E+03  0.13640773850E+04  0.13142560794E+04 0.  0.
        3    1    3    3  502    0 -0.44700559613E+03 -0.17755007777E+03 -0.64736837311E+03  0.80648859495E+03  0.10100000352E+00 0.  1.
       -3    1    3    3    0  502  0.44700559613E+03  0.17755007777E+03  0.28207661280E+03  0.55758879004E+03  0.10100000352E+00 0. -1.
</event>
<event>
 5   0  0.4388937E-03  0.1299095E+04  0.7818609E-02  0.9030283E-01
       -2   -1    0    0    0  501  0.00000000000E+00  0.00000000000E+00  0.39276479905E+03  0.39276479906E+03  0.25500000920E-02 0.  1.
        2   -1    0    0  501    0  0.00000000000E+00  0.00000000000E+00 -0.10742096682E+04  0.10742096683E+04  0.25500000920E-02 0. -1.
    10030    2    1    2    0    0  0.00000000000E+00  0.00000000000E+00 -0.68144486920E+03  0.14669744673E+04  0.12990946763E+04 0.  0.
        5    1    3    3  502    0  0.30454690588E+03 -0.53624657693E+03 -0.11045828849E+03  0.62652400803E+03  0.46999998093E+01 0.  1.
       -5    1    3    3    0  502 -0.30454690588E+03  0.53624657693E+03 -0.57098658071E+03  0.84045045928E+03  0.46999998093E+01 0. -1.
</event>
<event>
 5   0  0.4453011E-03  0.1296176E+04  0.7818609E-02  0.9032604E-01
       -2   -1    0    0    0  501  0.00000000000E+00  0.00000000000E+00  0.28440476909E+03  0.28440476910E+03  0.25500000920E-02 0. -1.
        2   -1    0    0  501    0  0.00000000000E+00  0.00000000000E+00 -0.14768309060E+04  0.14768309060E+04  0.25500000920E-02 0.  1.
    10030    2    1    2    0    0  0.00000000000E+00  0.00000000000E+00 -0.11924261369E+04  0.17612356751E+04  0.12961755326E+04 0.  0.
        1    1    3    3  502    0  0.12906392265E+03 -0.90149794160E+02 -0.14504540512E+04  0.14589727332E+04  0.50400001928E-02 0.  1.
       -1    1    3    3    0  502 -0.12906392265E+03  0.90149794160E+02  0.25802791425E+03  0.30226294195E+03  0.50400001928E-02 0. -1.
</event>
<event>
 5   0  0.2511542E-03  0.1324831E+04  0.7818609E-02  0.9010103E-01
        1   -1    0    0  501    0  0.00000000000E+00  0.00000000000E+00  0.56503996335E+03  0.56503996337E+03  0.50400001928E-02 0. -1.
       -1   -1    0    0    0  501  0.00000000000E+00  0.00000000000E+00 -0.77657197143E+03  0.77657197145E+03  0.50400001928E-02 0.  1.
    10030    2    1    2    0    0  0.00000000000E+00  0.00000000000E+00 -0.21153200809E+03  0.13416119348E+04  0.13248308546E+04 0.  0.
        4    1    3    3  502    0 -0.13823048007E+03  0.31868820049E+03 -0.67693397197E+03  0.76086204404E+03  0.12699999809E+01 0.  1.
       -4    1    3    3    0  502  0.13823048007E+03 -0.31868820049E+03  0.46540196388E+03  0.58074989078E+03  0.12699999809E+01 0. -1.
</event>
<event>
 5   0  0.2370801E-03  0.1263548E+04  0.7818609E-02  0.9058982E-01
        1   -1    0    0  501    0  0.00000000000E+00  0.00000000000E+00  0.13682580965E+04  0.13682580965E+04  0.50400001928E-02 0. -1.
       -1   -1    0    0    0  501  0.00000000000E+00  0.00000000000E+00 -0.29171287388E+03  0.29171287392E+03  0.50400001928E-02 0.  1.
    10030    2    1    2    0    0  0.00000000000E+00  0.00000000000E+00  0.10765452226E+04  0.16599709704E+04  0.12635481812E+04 0.  0.
        3    1    3    3  502    0 -0.73378689400E+02  0.62571246344E+03  0.47612333854E+03  0.78967965825E+03  0.10100000352E+00 0. -1.
       -3    1    3    3    0  502  0.73378689400E+02 -0.62571246344E+03  0.60042188406E+03  0.87029131216E+03  0.10100000352E+00 0.  1.
</event>
<event>
 5   0  0.4388937E-03  0.7842918E+03  0.7818609E-02  0.9583036E-01
       -2   -1    0    0    0  501  0.00000000000E+00  0.00000000000E+00  0.18121998452E+03  0.18121998454E+03  0.25500000920E-02 0. -1.
        2   -1    0    0  501    0  0.00000000000E+00  0.00000000000E+00 -0.84857321324E+03  0.84857321324E+03  0.25500000920E-02 0.  1.
    10030    2    1    2    0    0  0.00000000000E+00  0.00000000000E+00 -0.66735322872E+03  0.10297931978E+04  0.78429184511E+03 0.  0.
        5    1    3    3  502    0  0.56269119345E+02 -0.32346566441E+03 -0.61516645801E+03  0.69731492950E+03  0.46999998093E+01 0.  1.
       -5    1    3    3    0  502 -0.56269119345E+02  0.32346566441E+03 -0.52186770711E+02  0.33247826828E+03  0.46999998093E+01 0. -1.
</event>
<event>
 5   0  0.2370801E-03  0.1215202E+04  0.7818609E-02  0.9099653E-01
        1   -1    0    0  501    0  0.00000000000E+00  0.00000000000E+00  0.55214885243E+03  0.55214885245E+03  0.50400001928E-02 0.  1.
       -1   -1    0    0    0  501  0.00000000000E+00  0.00000000000E+00 -0.66862201640E+03  0.66862201642E+03  0.50400001928E-02 0. -1.
    10030    2    1    2    0    0  0.00000000000E+00  0.00000000000E+00 -0.11647316397E+03  0.12207708689E+04  0.12152018418E+04 0.  0.
        3    1    3    3  502    0 -0.59434044996E+03  0.11128667960E+03 -0.11812162722E+03  0.61609903793E+03  0.10100000352E+00 0.  1.
       -3    1    3    3    0  502  0.59434044996E+03 -0.11128667960E+03  0.16484632445E+01  0.60467183095E+03  0.10100000352E+00 0. -1.
</event>
<event>
 5   0  0.2356769E-03  0.1293919E+04  0.7818609E-02  0.9034402E-01
        1   -1    0    0  501    0  0.00000000000E+00  0.00000000000E+00  0.99411957705E+03  0.99411957706E+03  0.50400001928E-02 0. -1.
       -1   -1    0    0    0  501  0.00000000000E+00  0.00000000000E+00 -0.42103218824E+03  0.42103218827E+03  0.50400001928E-02 0.  1.
    10030    2    1    2    0    0  0.00000000000E+00  0.00000000000E+00  0.57308738881E+03  0.14151517653E+04  0.12939186078E+04 0.  0.
        1    1    3    3  502    0  0.14150895099E+03  0.18080913390E+03  0.94806132672E+03  0.97546758294E+03  0.50400001928E-02 0. -1.
       -1    1    3    3    0  502 -0.14150895099E+03 -0.18080913390E+03 -0.37497393791E+03  0.43968418240E+03  0.50400001928E-02 0.  1.
</event>
<event>
 5   0  0.4310889E-03  0.1310271E+04  0.7818609E-02  0.9021460E-01
       -2   -1    0    0    0  501  0.00000000000E+00  0.00000000000E+00  0.72921915630E+03  0.72921915630E+03  0.25500000920E-02 0.  1.
        2   -1    0    0  501    0  0.00000000000E+00  0.00000000000E+00 -0.58857827830E+03  0.58857827831E+03  0.25500000920E-02 0. -1.
    10030    2    1    2    0    0  0.00000000000E+00  0.00000000000E+00  0.14064087799E+03  0.13177974346E+04  0.13102710491E+04 0.  0.
        4    1    3    3  502    0 -0.49057757692E+03  0.22300053058E+03  0.44502640733E+03  0.69888891230E+03  0.12699999809E+01 0.  1.
       -4    1    3    3    0  502  0.49057757692E+03 -0.22300053058E+03 -0.30438552934E+03  0.61890852231E+03  0.12699999809E+01 0. -1.
</event>
<event>
 5   0  0.4263540E-03  0.1311216E+04  0.7818609E-02  0.9020718E-01
        2   -1    0    0  501    0  0.00000000000E+00  0.00000000000E+00  0.81308194005E+03  0.81308194006E+03  0.25500000920E-02 0.  1.
       -2   -1    0    0    0  501  0.00000000000E+00  0.00000000000E+00 -0.52863262645E+03  0.52863262646E+03  0.25500000920E-02 0. -1.
    10030    2    1    2    0    0  0.00000000000E+00  0.00000000000E+00  0.28444931360E+03  0.13417145665E+04  0.13112156825E+04 0.  0.
        2    1    3    3  502    0  0.40828299783E+03  0.44348269647E+03 -0.12154972896E+03  0.61493596821E+03  0.25500000920E-02 0. -1.
       -2    1    3    3    0  502 -0.40828299783E+03 -0.44348269647E+03  0.40599904256E+03  0.72677859830E+03  0.25500000920E-02 0.  1.
</event>
<event>
 5   0  0.2462055E-03  0.1318886E+04  0.7818609E-02  0.9014721E-01
       -1   -1    0    0    0  501  0.00000000000E+00  0.00000000000E+00  0.66990932494E+03  0.66990932496E+03  0.50400001928E-02 0.  1.
        1   -1    0    0  501    0  0.00000000000E+00  0.00000000000E+00 -0.64913986838E+03  0.64913986840E+03  0.50400001928E-02 0. -1.
    10030    2    1    2    0    0  0.00000000000E+00  0.00000000000E+00  0.20769456569E+02  0.13190491934E+04  0.13188856676E+04 0.  0.
        2    1    3    3  502    0  0.46361180264E+03  0.25297898144E+03 -0.38454469810E+03  0.65330612537E+03  0.25500000920E-02 0. -1.
       -2    1    3    3    0  502 -0.46361180264E+03 -0.25297898144E+03  0.40531415467E+03  0.66574306799E+03  0.25500000920E-02 0.  1.
</event>
<event>
 5   0  0.4263540E-03  0.1323767E+04  0.7818609E-02  0.9010927E-01
        2   -1    0    0  501    0  0.00000000000E+00  0.00000000000E+00  0.19292783271E+04  0.19292783271E+04  0.25500000920E-02 0. -1.
       -2   -1    0    0    0  501  0.00000000000E+00  0.00000000000E+00 -0.22707451586E+03  0.22707451588E+03  0.25500000920E-02 0.  1.
    10030    2    1    2    0    0  0.00000000000E+00  0.00000000000E+00  0.17022038112E+04  0.21563528430E+04  0.13237672637E+04 0.  0.
        2    1    3    3  502    0  0.51927176312E+03  0.19028918348E+03  0.14434600476E+04  0.15457781362E+04  0.25500000920E-02 0. -1.
       -2    1    3    3    0  502 -0.51927176312E+03 -0.19028918348E+03  0.25874376361E+03  0.61057470676E+03  0.25500000920E-02 0.  1.
</event>
<event>
 5   0  0.2462055E-03  0.1325384E+04  0.7818609E-02  0.9009674E-01
        1   -1    0    0  501    0  0.00000000000E+00  0.00000000000E+00  0.14598786681E+04  0.14598786681E+04  0.50400001928E-02 0.  1.
       -1   -1    0    0    0  501  0.00000000000E+00  0.00000000000E+00 -0.30081986209E+03  0.30081986213E+03  0.50400001928E-02 0. -1.
    10030    2    1    2    0    0  0.00000000000E+00  0.00000000000E+00  0.11590588060E+04  0.17606985302E+04  0.13253837175E+04 0.  0.
        2    1    3    3  502    0  0.43558369889E+03 -0.47061639188E+02 -0.80979417847E+02  0.44553969828E+03  0.25500000920E-02 0. -1.
       -2    1    3    3    0  502 -0.43558369889E+03  0.47061639188E+02  0.12400382238E+04  0.13151588319E+04  0.25500000920E-02 0.  1.
</event>
<event>
 5   0  0.1661750E-03  0.1310473E+04  0.7818609E-02  0.9021301E-01
        3   -1    0    0  501    0  0.00000000000E+00  0.00000000000E+00  0.60251974473E+03  0.60251975319E+03  0.10100000352E+00 0.  1.
       -3   -1    0    0    0  501  0.00000000000E+00  0.00000000000E+00 -0.71256515673E+03  0.71256516389E+03  0.10100000352E+00 0. -1.
    10030    2    1    2    0    0  0.00000000000E+00  0.00000000000E+00 -0.11004541201E+03  0.13150849171E+04  0.13104725661E+04 0.  0.
        2    1    3    3  502    0 -0.38179575377E+03 -0.51913401294E+03  0.63996858720E+02  0.64758298226E+03  0.25500000920E-02 0.  1.
       -2    1    3    3    0  502  0.38179575377E+03  0.51913401294E+03 -0.17404227073E+03  0.66750193482E+03  0.25500000920E-02 0. -1.
</event>
<event>
 5   0  0.2356769E-03  0.1392505E+04  0.7818609E-02  0.8959262E-01
       -1   -1    0    0    0  501  0.00000000000E+00  0.00000000000E+00  0.80287622539E+03  0.80287622541E+03  0.50400001928E-02 0.  1.
        1   -1    0    0  501    0  0.00000000000E+00  0.00000000000E+00 -0.60378889596E+03  0.60378889598E+03  0.50400001928E-02 0. -1.
    10030    2    1    2    0    0  0.00000000000E+00  0.00000000000E+00  0.19908732943E+03  0.14066651214E+04  0.13925052959E+04 0.  0.
        1    1    3    3  502    0  0.34099002373E+03  0.12979861020E+03 -0.49948365110E+03  0.61855136669E+03  0.50400001928E-02 0. -1.
       -1    1    3    3    0  502 -0.34099002373E+03 -0.12979861020E+03  0.69857098053E+03  0.78811375470E+03  0.50400001928E-02 0.  1.
</event>
<event>
 5   0  0.4263540E-03  0.1294470E+04  0.7818609E-02  0.9033962E-01
       -2   -1    0    0    0  501  0.00000000000E+00  0.00000000000E+00  0.53382910166E+03  0.53382910166E+03  0.25500000920E-02 0.  1.
        2   -1    0    0  501    0  0.00000000000E+00  0.00000000000E+00 -0.78473247353E+03  0.78473247354E+03  0.25500000920E-02 0. -1.
    10030    2    1    2    0    0  0.00000000000E+00  0.00000000000E+00 -0.25090337188E+03  0.13185615752E+04  0.12944698241E+04 0.  0.
        2    1    3    3  502    0 -0.18701709444E+02 -0.63938825513E+03 -0.24892840850E+02  0.64014588046E+03  0.25500000920E-02 0. -1.
       -2    1    3    3    0  502  0.18701709444E+02  0.63938825513E+03 -0.22601053103E+03  0.67841569474E+03  0.25500000920E-02 0.  1.
</event>
<event>
 5   0  0.4310889E-03  0.1379021E+04  0.7818609E-02  0.8969146E-01
        2   -1    0    0  501    0  0.00000000000E+00  0.00000000000E+00  0.10876854331E+04  0.10876854331E+04  0.25500000920E-02 0.  1.
       -2   -1    0    0    0  501  0.00000000000E+00  0.00000000000E+00 -0.43709739263E+03  0.43709739263E+03  0.25500000920E-02 0. -1.
    10030    2    1    2    0    0  0.00000000000E+00  0.00000000000E+00  0.65058804051E+03  0.15247828258E+04  0.13790206189E+04 0.  0.
        4    1    3    3  502    0  0.61875447702E+02 -0.90533294422E+02 -0.42739280103E+03  0.44123810771E+03  0.12699999809E+01 0. -1.
       -4    1    3    3    0  502 -0.61875447702E+02  0.90533294422E+02  0.10779808415E+04  0.10835447181E+04  0.12699999809E+01 0.  1.
</event>
<event>
 5   0  0.4453011E-03  0.8656926E+03  0.7818609E-02  0.9469514E-01
       -2   -1    0    0    0  501  0.00000000000E+00  0.00000000000E+00  0.34366913926E+03  0.34366913927E+03  0.25500000920E-02 0. -1.
        2   -1    0    0  501    0  0.00000000000E+00  0.00000000000E+00 -0.54516367843E+03  0.54516367844E+03  0.25500000920E-02 0.  1.
    10030    2    1    2    0    0  0.00000000000E+00  0.00000000000E+00 -0.20149453917E+03  0.88883281771E+03  0.86569262936E+03 0.  0.
        1    1    3    3  502    0  0.19616064925E+03 -0.14811201291E+03  0.26506241905E+03  0.36148894132E+03  0.50400001928E-02 0. -1.
       -1    1    3    3    0  502 -0.19616064925E+03  0.14811201291E+03 -0.46655695821E+03  0.52734387639E+03  0.50400001928E-02 0.  1.
</event>
<event>
 5   0  0.4453011E-03  0.1276515E+04  0.7818609E-02  0.9048399E-01
        2   -1    0    0  501    0  0.00000000000E+00  0.00000000000E+00  0.10320214299E+04  0.10320214299E+04  0.25500000920E-02 0. -1.
       -2   -1    0    0    0  501  0.00000000000E+00  0.00000000000E+00 -0.39473252785E+03  0.39473252786E+03  0.25500000920E-02 0.  1.
    10030    2    1    2    0    0  0.00000000000E+00  0.00000000000E+00  0.63728890201E+03  0.14267539577E+04  0.12765146733E+04 0.  0.
        1    1    3    3  502    0 -0.63244622529E+03 -0.85749842358E+02  0.31240490579E+03  0.71058995808E+03  0.50400001928E-02 0.  1.
       -1    1    3    3    0  502  0.63244622529E+03  0.85749842358E+02  0.32488399622E+03  0.71616399963E+03  0.50400001928E-02 0. -1.
</event>
<event>
 5   0  0.2462055E-03  0.1454858E+04  0.7818609E-02  0.8915040E-01
       -1   -1    0    0    0  501  0.00000000000E+00  0.00000000000E+00  0.11781180052E+04  0.11781180052E+04  0.50400001928E-02 0. -1.
        1   -1    0    0  501    0  0.00000000000E+00  0.00000000000E+00 -0.44915086821E+03  0.44915086824E+03  0.50400001928E-02 0.  1.
    10030    2    1    2    0    0  0.00000000000E+00  0.00000000000E+00  0.72896713696E+03  0.16272688734E+04  0.14548576905E+04 0.  0.
        2    1    3    3  502    0 -0.52571122730E+03 -0.23369602909E+03 -0.13343007683E+03  0.59058421409E+03  0.25500000920E-02 0.  1.
       -2    1    3    3    0  502  0.52571122730E+03  0.23369602909E+03  0.86239721379E+03  0.10366846593E+04  0.25500000920E-02 0. -1.
</event>
<event>
 5   0  0.1661750E-03  0.7899799E+03  0.7818609E-02  0.9574635E-01
       -4   -1    0    0    0  501  0.00000000000E+00  0.00000000000E+00  0.48506321445E+03  0.48506487701E+03  0.12699999809E+01 0.  1.
        4   -1    0    0  501    0  0.00000000000E+00  0.00000000000E+00 -0.32163923585E+03  0.32164174315E+03  0.12699999809E+01 0. -1.
    10030    2    1    2    0    0  0.00000000000E+00  0.00000000000E+00  0.16342397860E+03  0.80670662016E+03  0.78997985685E+03 0.  0.
        4    1    3    3  502    0 -0.29362977945E+02 -0.38568302939E+03  0.63091719642E-02  0.38680123652E+03  0.12699999809E+01 0. -1.
       -4    1    3    3    0  502  0.29362977945E+02  0.38568302939E+03  0.16341766943E+03  0.41990538364E+03  0.12699999809E+01 0.  1.
</event>
<event>
 5   0  0.4453011E-03  0.1373792E+04  0.7818609E-02  0.8973010E-01
        2   -1    0    0  501    0  0.00000000000E+00  0.00000000000E+00  0.49345353389E+03  0.49345353390E+03  0.25500000920E-02 0. -1.
       -2   -1    0    0    0  501  0.00000000000E+00  0.00000000000E+00 -0.95617186361E+03  0.95617186361E+03  0.25500000920E-02 0.  1.
    10030    2    1    2    0    0  0.00000000000E+00  0.00000000000E+00 -0.46271832972E+03  0.14496253975E+04  0.13737923935E+04 0.  0.
        1    1    3    3  502    0  0.36218457186E+03  0.50858636341E+03 -0.53350144462E+03  0.82125607735E+03  0.50400001928E-02 0.  1.
       -1    1    3    3    0  502 -0.36218457186E+03 -0.50858636341E+03  0.70783114909E+02  0.62836932016E+03  0.50400001928E-02 0. -1.
</event>
<event>
 5   0  0.4388937E-03  0.1320286E+04  0.7818609E-02  0.9013631E-01
        2   -1    0    0  501    0  0.00000000000E+00  0.00000000000E+00  0.59236260572E+03  0.59236260573E+03  0.25500000920E-02 0. -1.
       -2   -1    0    0    0  501  0.00000000000E+00  0.00000000000E+00 -0.73567943015E+03  0.73567943016E+03  0.25500000920E-02 0.  1.
    10030    2    1    2    0    0  0.00000000000E+00  0.00000000000E+00 -0.14331682443E+03  0.13280420359E+04  0.13202863087E+04 0.  0.
        5    1    3    3  502    0 -0.22082507384E+03 -0.11999517474E+03  0.54234057684E+03  0.59776077697E+03  0.46999998093E+01 0. -1.
       -5    1    3    3    0  502  0.22082507384E+03  0.11999517474E+03 -0.68565740127E+03  0.73028125891E+03  0.46999998093E+01 0.  1.
</event>
<event>
 5   0  0.4310889E-03  0.1289383E+04  0.7818609E-02  0.9038027E-01
       -2   -1    0    0    0  501  0.00000000000E+00  0.00000000000E+00  0.25770689755E+03  0.25770689756E+03  0.25500000920E-02 0. -1.
        2   -1    0    0  501    0  0.00000000000E+00  0.00000000000E+00 -0.16127910990E+04  0.16127910990E+04  0.25500000920E-02 0.  1.
    10030    2    1    2    0    0  0.00000000000E+00  0.00000000000E+00 -0.13550842014E+04  0.18704979965E+04  0.12893834038E+04 0.  0.
        4    1    3    3  502    0 -0.45691177938E+03 -0.12546020835E+03 -0.13117402785E+04  0.13946945218E+04  0.12699999809E+01 0.  1.
       -4    1    3    3    0  502  0.45691177938E+03  0.12546020835E+03 -0.43343922927E+02  0.47580347473E+03  0.12699999809E+01 0. -1.
</event>
<event>
 5   0  0.2356769E-03  0.1290444E+04  0.7818609E-02  0.9037178E-01
        1   -1    0    0  501    0  0.00000000000E+00  0.00000000000E+00  0.52536485097E+03  0.52536485100E+03  0.50400001928E-02 0. -1.
       -1   -1    0    0    0  501  0.00000000000E+00  0.00000000000E+00 -0.79242344438E+03  0.79242344440E+03  0.50400001928E-02 0.  1.
    10030    2    1    2    0    0  0.00000000000E+00  0.00000000000E+00 -0.26705859341E+03  0.13177882954E+04  0.12904439930E+04 0.  0.
        1    1    3    3  502    0  0.27684185270E+03 -0.80648809834E+02  0.45590673626E+03  0.53944100153E+03  0.50400001928E-02 0. -1.
       -1    1    3    3    0  502 -0.27684185270E+03  0.80648809834E+02 -0.72296532967E+03  0.77834729386E+03  0.50400001928E-02 0.  1.
</event>
<event>
 5   0  0.4306214E-03  0.1165881E+04  0.7818609E-02  0.9143257E-01
       -2   -1    0    0    0  501  0.00000000000E+00  0.00000000000E+00  0.40903867250E+03  0.40903867251E+03  0.25500000920E-02 0. -1.
        2   -1    0    0  501    0  0.00000000000E+00  0.00000000000E+00 -0.83077585495E+03  0.83077585495E+03  0.25500000920E-02 0.  1.
    10030    2    1    2    0    0  0.00000000000E+00  0.00000000000E+00 -0.42173718245E+03  0.12398145275E+04  0.11658807021E+04 0.  0.
        3    1    3    3  502    0 -0.25059339225E+03  0.50001046508E+03 -0.36093149406E+02  0.56045538543E+03  0.10100000352E+00 0. -1.
       -3    1    3    3    0  502  0.25059339225E+03 -0.50001046508E+03 -0.38564403304E+03  0.67935914202E+03  0.10100000352E+00 0.  1.
</event>
<event>
 5   0  0.4453011E-03  0.1372609E+04  0.7818609E-02  0.8973887E-01
        2   -1    0    0  501    0  0.00000000000E+00  0.00000000000E+00  0.68844955243E+03  0.68844955243E+03  0.25500000920E-02 0.  1.
       -2   -1    0    0    0  501  0.00000000000E+00  0.00000000000E+00 -0.68416658830E+03  0.68416658831E+03  0.25500000920E-02 0. -1.
    10030    2    1    2    0    0  0.00000000000E+00  0.00000000000E+00  0.42829641221E+01  0.13726161407E+04  0.13726094587E+04 0.  0.
        1    1    3    3  502    0  0.47117043984E+03  0.27151544575E+03 -0.41653938390E+03  0.68500166352E+03  0.50400001928E-02 0. -1.
       -1    1    3    3    0  502 -0.47117043984E+03 -0.27151544575E+03  0.42082234802E+03  0.68761447722E+03  0.50400001928E-02 0.  1.
</event>
<event>
 5   0  0.2511542E-03  0.1298369E+04  0.7818609E-02  0.9030859E-01
        1   -1    0    0  501    0  0.00000000000E+00  0.00000000000E+00  0.13120956092E+04  0.13120956092E+04  0.50400001928E-02 0. -1.
       -1   -1    0    0    0  501  0.00000000000E+00  0.00000000000E+00 -0.32119658051E+03  0.32119658055E+03  0.50400001928E-02 0.  1.
    10030    2    1    2    0    0  0.00000000000E+00  0.00000000000E+00  0.99089902866E+03  0.16332921897E+04  0.12983691663E+04 0.  0.
        4    1    3    3  502    0 -0.51467541225E+03 -0.11219215796E+03  0.18152909205E+02  0.52707589709E+03  0.12699999809E+01 0.  1.
       -4    1    3    3    0  502  0.51467541225E+03  0.11219215796E+03  0.97274611945E+03  0.11062162926E+04  0.12699999809E+01 0. -1.
</event>
<event>
 5   0  0.4306214E-03  0.1432928E+04  0.7818609E-02  0.8930322E-01
        2   -1    0    0  501    0  0.00000000000E+00  0.00000000000E+00  0.59450111780E+03  0.59450111781E+03  0.25500000920E-02 0.  1.
       -2   -1    0    0    0  501  0.00000000000E+00  0.00000000000E+00 -0.86344808496E+03  0.86344808496E+03  0.25500000920E-02 0. -1.
    10030    2    1    2    0    0  0.00000000000E+00  0.00000000000E+00 -0.26894696715E+03  0.14579492028E+04  0.14329282629E+04 0.  0.
        3    1    3    3  502    0 -0.47487569251E+02 -0.27503827466E+03  0.53691206815E+03  0.60512453337E+03  0.10100000352E+00 0.  1.
       -3    1    3    3    0  502  0.47487569251E+02  0.27503827466E+03 -0.80585903530E+03  0.85282466940E+03  0.10100000352E+00 0. -1.
</event>
<event>
 5   0  0.4453011E-03  0.1174435E+04  0.7818609E-02  0.9135533E-01
        2   -1    0    0  501    0  0.00000000000E+00  0.00000000000E+00  0.13892031334E+04  0.13892031334E+04  0.25500000920E-02 0. -1.
       -2   -1    0    0    0  501  0.00000000000E+00  0.00000000000E+00 -0.24821721142E+03  0.24821721143E+03  0.25500000920E-02 0.  1.
    10030    2    1    2    0    0  0.00000000000E+00  0.00000000000E+00  0.11409859220E+04  0.16374203448E+04  0.11744345497E+04 0.  0.
        1    1    3    3  502    0  0.39744293779E+03 -0.54780257381E+02  0.11683230663E+04  0.12352896635E+04  0.50400001928E-02 0. -1.
       -1    1    3    3    0  502 -0.39744293779E+03  0.54780257381E+02 -0.27337144333E+02  0.40213068135E+03  0.50400001928E-02 0.  1.
</event>
<event>
 5   0  0.2462055E-03  0.1408372E+04  0.7818609E-02  0.8947781E-01
       -1   -1    0    0    0  501  0.00000000000E+00  0.00000000000E+00  0.29244956828E+03  0.29244956832E+03  0.50400001928E-02 0.  1.
        1   -1    0    0  501    0  0.00000000000E+00  0.00000000000E+00 -0.16956011583E+04  0.16956011584E+04  0.50400001928E-02 0. -1.
    10030    2    1    2    0    0  0.00000000000E+00  0.00000000000E+00 -0.14031515901E+04  0.19880507267E+04  0.14083718639E+04 0.  0.
        2    1    3    3  502    0 -0.28399094669E+03 -0.81958094460E+01  0.20795575197E+03  0.35208468282E+03  0.25500000920E-02 0.  1.
       -2    1    3    3    0  502  0.28399094669E+03  0.81958094460E+01 -0.16111073420E+04  0.16359660439E+04  0.25500000920E-02 0. -1.
</event>
<event>
 5   0  0.4388937E-03  0.1288671E+04  0.7818609E-02  0.9038598E-01
        2   -1    0    0  501    0  0.00000000000E+00  0.00000000000E+00  0.23257841722E+04  0.23257841722E+04  0.25500000920E-02 0. -1.
       -2   -1    0    0    0  501  0.00000000000E+00  0.00000000000E+00 -0.17850669788E+03  0.17850669789E+03  0.25500000920E-02 0.  1.
    10030    2    1    2    0    0  0.00000000000E+00  0.00000000000E+00  0.21472774743E+04  0.25042908701E+04  0.12886707145E+04 0.  0.
        5    1    3    3  502    0 -0.25340956780E+03  0.78340671681E+02 -0.67455693496E+02  0.27372619618E+03  0.46999998093E+01 0.  1.
       -5    1    3    3    0  502  0.25340956780E+03 -0.78340671681E+02  0.22147331678E+04  0.22305646739E+04  0.46999998093E+01 0. -1.
</event>
<event>
 5   0  0.2356769E-03  0.1335801E+04  0.7818609E-02  0.9001647E-01
        1   -1    0    0  501    0  0.00000000000E+00  0.00000000000E+00  0.64292546694E+03  0.64292546696E+03  0.50400001928E-02 0. -1.
       -1   -1    0    0    0  501  0.00000000000E+00  0.00000000000E+00 -0.69384588801E+03  0.69384588803E+03  0.50400001928E-02 0.  1.
    10030    2    1    2    0    0  0.00000000000E+00  0.00000000000E+00 -0.50920421075E+02  0.13367713550E+04  0.13358011702E+04 0.  0.
        1    1    3    3  502    0 -0.26757980296E+03 -0.60858164533E+03  0.38778479395E+02  0.66593869123E+03  0.50400001928E-02 0. -1.
       -1    1    3    3    0  502  0.26757980296E+03  0.60858164533E+03 -0.89698900470E+02  0.67083266375E+03  0.50400001928E-02 0.  1.
</event>
<event>
 5   0  0.4453011E-03  0.9453584E+03  0.7818609E-02  0.9370592E-01
       -2   -1    0    0    0  501  0.00000000000E+00  0.00000000000E+00  0.10987295128E+03  0.10987295131E+03  0.25500000920E-02 0.  1.
        2   -1    0    0  501    0  0.00000000000E+00  0.00000000000E+00 -0.20334908369E+04  0.20334908369E+04  0.25500000920E-02 0. -1.
    10030    2    1    2    0    0  0.00000000000E+00  0.00000000000E+00 -0.19236178856E+04  0.21433637882E+04  0.94535842870E+03 0.  0.
        1    1    3    3  502    0 -0.32521859585E+03  0.17922761344E+03 -0.16249009203E+04  0.16667911307E+04  0.50400001928E-02 0. -1.
       -1    1    3    3    0  502  0.32521859585E+03 -0.17922761344E+03 -0.29871696534E+03  0.47657265754E+03  0.50400001928E-02 0.  1.
</event>
<event>
 5   0  0.4263540E-03  0.1303276E+04  0.7818609E-02  0.9026972E-01
       -2   -1    0    0    0  501  0.00000000000E+00  0.00000000000E+00  0.24415105985E+03  0.24415105986E+03  0.25500000920E-02 0. -1.
        2   -1    0    0  501    0  0.00000000000E+00  0.00000000000E+00 -0.17392176969E+04  0.17392176969E+04  0.25500000920E-02 0.  1.
    10030    2    1    2    0    0  0.00000000000E+00  0.00000000000E+00 -0.14950666371E+04  0.19833687568E+04  0.13032756332E+04 0.  0.
        2    1    3    3  502    0 -0.61647419076E+03  0.11997476980E+03 -0.48307789575E+03  0.79233744492E+03  0.25500000920E-02 0.  1.
       -2    1    3    3    0  502  0.61647419076E+03 -0.11997476980E+03 -0.10119887413E+04  0.11910313119E+04  0.25500000920E-02 0. -1.
</event>
<event>
 5   0  0.2458456E-03  0.1649591E+04  0.7818609E-02  0.8790649E-01
       -1   -1    0    0    0  501  0.00000000000E+00  0.00000000000E+00  0.60984046219E+03  0.60984046221E+03  0.50400001928E-02 0. -1.
        1   -1    0    0  501    0  0.00000000000E+00  0.00000000000E+00 -0.11155169402E+04  0.11155169402E+04  0.50400001928E-02 0.  1.
    10030    2    1    2    0    0  0.00000000000E+00  0.00000000000E+00 -0.50567647798E+03  0.17253574024E+04  0.16495906964E+04 0.  0.
        5    1    3    3  502    0 -0.45093885778E+03  0.67837375431E+03 -0.11755904247E+03  0.82303038975E+03  0.46999998093E+01 0.  1.
       -5    1    3    3    0  502  0.45093885778E+03 -0.67837375431E+03 -0.38811743551E+03  0.90232701264E+03  0.46999998093E+01 0. -1.
</event>
<event>
 5   0  0.2370801E-03  0.1290864E+04  0.7818609E-02  0.9036842E-01
        1   -1    0    0  501    0  0.00000000000E+00  0.00000000000E+00  0.10922569002E+04  0.10922569002E+04  0.50400001928E-02 0. -1.
       -1   -1    0    0    0  501  0.00000000000E+00  0.00000000000E+00 -0.38139592244E+03  0.38139592247E+03  0.50400001928E-02 0.  1.
    10030    2    1    2    0    0  0.00000000000E+00  0.00000000000E+00  0.71086097773E+03  0.14736528227E+04  0.12908637852E+04 0.  0.
        3    1    3    3  502    0  0.44049064163E+03 -0.39333046342E+02 -0.18124785119E+03  0.47794339378E+03  0.10100000352E+00 0.  1.
       -3    1    3    3    0  502 -0.44049064163E+03  0.39333046342E+02  0.89210882892E+03  0.99570942887E+03  0.10100000352E+00 0. -1.
</event>
<event>
 5   0  0.4306214E-03  0.1276439E+04  0.7818609E-02  0.9048461E-01
        2   -1    0    0  501    0  0.00000000000E+00  0.00000000000E+00  0.75995241509E+03  0.75995241509E+03  0.25500000920E-02 0. -1.
       -2   -1    0    0    0  501  0.00000000000E+00  0.00000000000E+00 -0.53598622461E+03  0.53598622462E+03  0.25500000920E-02 0.  1.
    10030    2    1    2    0    0  0.00000000000E+00  0.00000000000E+00  0.22396619047E+03  0.12959386397E+04  0.12764388365E+04 0.  0.
        3    1    3    3  502    0  0.88007958456E+02 -0.17262087152E+03 -0.50540253941E+03  0.54127174606E+03  0.10100000352E+00 0.  1.
       -3    1    3    3    0  502 -0.88007958456E+02  0.17262087152E+03  0.72936872989E+03  0.75466689365E+03  0.10100000352E+00 0. -1.
</event>
<event>
 5   0  0.4388937E-03  0.1242526E+04  0.7818609E-02  0.9076427E-01
        2   -1    0    0  501    0  0.00000000000E+00  0.00000000000E+00  0.19873463051E+04  0.19873463051E+04  0.25500000920E-02 0. -1.
       -2   -1    0    0    0  501  0.00000000000E+00  0.00000000000E+00 -0.19421247840E+03  0.19421247841E+03  0.25500000920E-02 0.  1.
    10030    2    1    2    0    0  0.00000000000E+00  0.00000000000E+00  0.17931338267E+04  0.21815587835E+04  0.12425255754E+04 0.  0.
        5    1    3    3  502    0 -0.46970100068E+03  0.40658232307E+03  0.88929679121E+03  0.10848037096E+04  0.46999998093E+01 0.  1.
       -5    1    3    3    0  502  0.46970100068E+03 -0.40658232307E+03  0.90383703552E+03  0.10967550740E+04  0.46999998093E+01 0. -1.
</event>
<event>
 5   0  0.2458456E-03  0.1324157E+04  0.7818609E-02  0.9010625E-01
       -1   -1    0    0    0  501  0.00000000000E+00  0.00000000000E+00  0.37688583984E+03  0.37688583988E+03  0.50400001928E-02 0. -1.
        1   -1    0    0  501    0  0.00000000000E+00  0.00000000000E+00 -0.11630785573E+04  0.11630785573E+04  0.50400001928E-02 0.  1.
    10030    2    1    2    0    0  0.00000000000E+00  0.00000000000E+00 -0.78619271742E+03  0.15399643971E+04  0.13241568470E+04 0.  0.
        5    1    3    3  502    0  0.45473917604E+03 -0.27704889634E+03 -0.85063880755E+03  0.10035697684E+04  0.46999998093E+01 0.  1.
       -5    1    3    3    0  502 -0.45473917604E+03  0.27704889634E+03  0.64446090137E+02  0.53639462872E+03  0.46999998093E+01 0. -1.
</event>
<event>
 5   0  0.4453011E-03  0.1367815E+04  0.7818609E-02  0.8977451E-01
        2   -1    0    0  501    0  0.00000000000E+00  0.00000000000E+00  0.12947030974E+04  0.12947030974E+04  0.25500000920E-02 0.  1.
       -2   -1    0    0    0  501  0.00000000000E+00  0.00000000000E+00 -0.36126413869E+03  0.36126413870E+03  0.25500000920E-02 0. -1.
    10030    2    1    2    0    0  0.00000000000E+00  0.00000000000E+00  0.93343895871E+03  0.16559672361E+04  0.13678154837E+04 0.  0.
        1    1    3    3  502    0  0.97555923901E+02 -0.38527869980E+03 -0.20710375225E+03  0.44816157692E+03  0.50400001928E-02 0. -1.
       -1    1    3    3    0  502 -0.97555923901E+02  0.38527869980E+03  0.11405427110E+04  0.12078056592E+04  0.50400001928E-02 0.  1.
</event>
<event>
 5   0  0.2356769E-03  0.1262479E+04  0.7818609E-02  0.9059861E-01
       -1   -1    0    0    0  501  0.00000000000E+00  0.00000000000E+00  0.45774496500E+03  0.45774496503E+03  0.50400001928E-02 0.  1.
        1   -1    0    0  501    0  0.00000000000E+00  0.00000000000E+00 -0.87049128882E+03  0.87049128884E+03  0.50400001928E-02 0. -1.
    10030    2    1    2    0    0  0.00000000000E+00  0.00000000000E+00 -0.41274632382E+03  0.13282362539E+04  0.12624785219E+04 0.  0.
        1    1    3    3  502    0  0.52527062925E+03  0.12040434905E+03 -0.55221450340E+03  0.77158751870E+03  0.50400001928E-02 0. -1.
       -1    1    3    3    0  502 -0.52527062925E+03 -0.12040434905E+03  0.13946817957E+03  0.55664873517E+03  0.50400001928E-02 0.  1.
</event>
<event>
 5   0  0.4306214E-03  0.1336436E+04  0.7818609E-02  0.9001160E-01
       -2   -1    0    0    0  501  0.00000000000E+00  0.00000000000E+00  0.12133156786E+04  0.12133156786E+04  0.25500000920E-02 0.  1.
        2   -1    0    0  501    0  0.00000000000E+00  0.00000000000E+00 -0.36801224570E+03  0.36801224570E+03  0.25500000920E-02 0. -1.
    10030    2    1    2    0    0  0.00000000000E+00  0.00000000000E+00  0.84530343292E+03  0.15813279243E+04  0.13364355991E+04 0.  0.
        3    1    3    3  502    0 -0.54866297766E+03 -0.13824824352E+03  0.20236338262E+01  0.56581599941E+03  0.10100000352E+00 0.  1.
       -3    1    3    3    0  502  0.54866297766E+03  0.13824824352E+03  0.84327979909E+03  0.10155119249E+04  0.10100000352E+00 0. -1.
</event>
<event>
 5   0  0.4310889E-03  0.1308468E+04  0.7818609E-02  0.9022877E-01
        2   -1    0    0  501    0  0.00000000000E+00  0.00000000000E+00  0.22040209402E+04  0.22040209402E+04  0.25500000920E-02 0.  1.
       -2   -1    0    0    0  501  0.00000000000E+00  0.00000000000E+00 -0.19420066492E+03  0.19420066494E+03  0.25500000920E-02 0. -1.
    10030    2    1    2    0    0  0.00000000000E+00  0.00000000000E+00  0.20098202753E+04  0.23982216052E+04  0.13084683139E+04 0.  0.
        4    1    3    3  502    0  0.45743999968E+03  0.43135665696E+03  0.67346985365E+03  0.92134856351E+03  0.12699999809E+01 0. -1.
       -4    1    3    3    0  502 -0.45743999968E+03 -0.43135665696E+03  0.13363504217E+04  0.14768730417E+04  0.12699999809E+01 0.  1.
</event>
<event>
 5   0  0.4263540E-03  0.1310206E+04  0.7818609E-02  0.9021511E-01
        2   -1    0    0  501    0  0.00000000000E+00  0.00000000000E+00  0.76916262626E+03  0.76916262626E+03  0.25500000920E-02 0. -1.
       -2   -1    0    0    0  501  0.00000000000E+00  0.00000000000E+00 -0.55795721634E+03  0.55795721634E+03  0.25500000920E-02 0.  1.
    10030    2    1    2    0    0  0.00000000000E+00  0.00000000000E+00  0.21120540992E+03  0.13271198426E+04  0.13102058432E+04 0.  0.
        2    1    3    3  502    0  0.53423490196E+03 -0.25847052495E+02  0.48875145903E+03  0.72453639612E+03  0.25500000920E-02 0. -1.
       -2    1    3    3    0  502 -0.53423490196E+03  0.25847052495E+02 -0.27754604911E+03  0.60258344648E+03  0.25500000920E-02 0.  1.
</event>
<event>
 5   0  0.4263540E-03  0.1251195E+04  0.7818609E-02  0.9069189E-01
        2   -1    0    0  501    0  0.00000000000E+00  0.00000000000E+00  0.46742975162E+03  0.46742975163E+03  0.25500000920E-02 0.  1.
       -2   -1    0    0    0  501  0.00000000000E+00  0.00000000000E+00 -0.83728562502E+03  0.83728562503E+03  0.25500000920E-02 0. -1.
    10030    2    1    2    0    0  0.00000000000E+00  0.00000000000E+00 -0.36985587340E+03  0.13047153767E+04  0.12511949676E+04 0.  0.
        2    1    3    3  502    0 -0.14770792305E+03 -0.62111825001E+01  0.44895260042E+03  0.47266758588E+03  0.25500000920E-02 0.  1.
       -2    1    3    3    0  502  0.14770792305E+03  0.62111825001E+01 -0.81880847382E+03  0.83204779077E+03  0.25500000920E-02 0. -1.
</event>
<event>
 5   0  0.4453011E-03  0.1253386E+04  0.7818609E-02  0.9067370E-01
       -2   -1    0    0    0  501  0.00000000000E+00  0.00000000000E+00  0.55901619166E+03  0.55901619167E+03  0.25500000920E-02 0.  1.
        2   -1    0    0  501    0  0.00000000000E+00  0.00000000000E+00 -0.70256338131E+03  0.70256338131E+03  0.25500000920E-02 0. -1.
    10030    2    1    2    0    0  0.00000000000E+00  0.00000000000E+00 -0.14354718964E+03  0.12615795730E+04  0.12533863025E+04 0.  0.
        1    1    3    3  502    0  0.20474773556E+03  0.34179598525E+03  0.41512210548E+03  0.57538899297E+03  0.50400001928E-02 0.  1.
       -1    1    3    3    0  502 -0.20474773556E+03 -0.34179598525E+03 -0.55866929513E+03  0.68619058001E+03  0.50400001928E-02 0. -1.
</event>
<event>
 5   0  0.2458456E-03  0.1282944E+04  0.7818609E-02  0.9043201E-01
       -1   -1    0    0    0  501  0.00000000000E+00  0.00000000000E+00  0.36651891823E+03  0.36651891826E+03  0.50400001928E-02 0. -1.
        1   -1    0    0  501    0  0.00000000000E+00  0.00000000000E+00 -0.11226877225E+04  0.11226877225E+04  0.50400001928E-02 0.  1.
    10030    2    1    2    0    0  0.00000000000E+00  0.00000000000E+00 -0.75616880425E+03  0.14892066408E+04  0.12829439420E+04 0.  0.
        5    1    3    3  502    0  0.26309082938E+03  0.44533726761E+03 -0.81844766145E+03  0.96820490133E+03  0.46999998093E+01 0.  1.
       -5    1    3    3    0  502 -0.26309082938E+03 -0.44533726761E+03  0.62278857204E+02  0.52100173942E+03  0.46999998093E+01 0. -1.
</event>
<event>
 5   0  0.2356769E-03  0.1288482E+04  0.7818609E-02  0.9038749E-01
       -1   -1    0    0    0  501  0.00000000000E+00  0.00000000000E+00  0.27799985545E+03  0.27799985549E+03  0.50400001928E-02 0.  1.
        1   -1    0    0  501    0  0.00000000000E+00  0.00000000000E+00 -0.14929732606E+04  0.14929732606E+04  0.50400001928E-02 0. -1.
    10030    2    1    2    0    0  0.00000000000E+00  0.00000000000E+00 -0.12149734051E+04  0.17709731161E+04  0.12884818209E+04 0.  0.
        1    1    3    3  502    0  0.30889035626E+03  0.69867748951E+02  0.16362562048E+03  0.35646612495E+03  0.50400001928E-02 0.  1.
       -1    1    3    3    0  502 -0.30889035626E+03 -0.69867748951E+02 -0.13785990256E+04  0.14145069911E+04  0.50400001928E-02 0. -1.
</event>
<event>
 5   0  0.4453011E-03  0.1086577E+04  0.7818609E-02  0.9218375E-01
       -2   -1    0    0    0  501  0.00000000000E+00  0.00000000000E+00  0.28817408879E+03  0.28817408880E+03  0.25500000920E-02 0. -1.
        2   -1    0    0  501    0  0.00000000000E+00  0.00000000000E+00 -0.10242501958E+04  0.10242501958E+04  0.25500000920E-02 0.  1.
    10030    2    1    2    0    0  0.00000000000E+00  0.00000000000E+00 -0.73607610699E+03  0.13124242846E+04  0.10865769496E+04 0.  0.
        1    1    3    3  502    0 -0.19498935290E+03 -0.19021014528E+03 -0.93580772796E+03  0.97464703911E+03  0.50400001928E-02 0.  1.
       -1    1    3    3    0  502  0.19498935290E+03  0.19021014528E+03  0.19973162097E+03  0.33777724547E+03  0.50400001928E-02 0. -1.
</event>
<event>
 5   0  0.2462055E-03  0.1289008E+04  0.7818609E-02  0.9038328E-01
        1   -1    0    0  501    0  0.00000000000E+00  0.00000000000E+00  0.14713980213E+04  0.14713980213E+04  0.50400001928E-02 0.  1.
       -1   -1    0    0    0  501  0.00000000000E+00  0.00000000000E+00 -0.28230640575E+03  0.28230640579E+03  0.50400001928E-02 0. -1.
    10030    2    1    2    0    0  0.00000000000E+00  0.00000000000E+00  0.11890916156E+04  0.17537044271E+04  0.12890075048E+04 0.  0.
        2    1    3    3  502    0 -0.46363676044E+03 -0.42192757890E+03  0.79818229034E+03  0.10149270398E+04  0.25500000920E-02 0.  1.
       -2    1    3    3    0  502  0.46363676044E+03  0.42192757890E+03  0.39090932522E+03  0.73877738732E+03  0.25500000920E-02 0. -1.
</event>
<event>
 5   0  0.2370801E-03  0.1333989E+04  0.7818609E-02  0.9003038E-01
        1   -1    0    0  501    0  0.00000000000E+00  0.00000000000E+00  0.89379105848E+03  0.89379105850E+03  0.50400001928E-02 0. -1.
       -1   -1    0    0    0  501  0.00000000000E+00  0.00000000000E+00 -0.49774660807E+03  0.49774660809E+03  0.50400001928E-02 0.  1.
    10030    2    1    2    0    0  0.00000000000E+00  0.00000000000E+00  0.39604445042E+03  0.13915376666E+04  0.13339887072E+04 0.  0.
        3    1    3    3  502    0 -0.55732720096E+03 -0.20627637198E+02  0.57964966049E+03  0.80438352013E+03  0.10100000352E+00 0. -1.
       -3    1    3    3    0  502  0.55732720096E+03  0.20627637198E+02 -0.18360521008E+03  0.58715414647E+03  0.10100000352E+00 0.  1.
</event>
<event>
 5   0  0.2511542E-03  0.1348057E+04  0.7818609E-02  0.8992300E-01
        1   -1    0    0  501    0  0.00000000000E+00  0.00000000000E+00  0.98942489973E+03  0.98942489974E+03  0.50400001928E-02 0.  1.
       -1   -1    0    0    0  501  0.00000000000E+00  0.00000000000E+00 -0.45916996687E+03  0.45916996690E+03  0.50400001928E-02 0. -1.
    10030    2    1    2    0    0  0.00000000000E+00  0.00000000000E+00  0.53025493286E+03  0.14485948666E+04  0.13480566731E+04 0.  0.
        4    1    3    3  502    0 -0.36687511015E+03  0.68038981483E+02  0.86831631052E+03  0.94509336971E+03  0.12699999809E+01 0.  1.
       -4    1    3    3    0  502  0.36687511015E+03 -0.68038981483E+02 -0.33806137766E+03  0.50350149694E+03  0.12699999809E+01 0. -1.
</event>
<event>
 5   0  0.4453011E-03  0.1285988E+04  0.7818609E-02  0.9040751E-01
        2   -1    0    0  501    0  0.00000000000E+00  0.00000000000E+00  0.93089708373E+03  0.93089708373E+03  0.25500000920E-02 0.  1.
       -2   -1    0    0    0  501  0.00000000000E+00  0.00000000000E+00 -0.44413224075E+03  0.44413224076E+03  0.25500000920E-02 0. -1.
    10030    2    1    2    0    0  0.00000000000E+00  0.00000000000E+00  0.48676484298E+03  0.13750293245E+04  0.12859881923E+04 0.  0.
        1    1    3    3  502    0  0.54590973797E+03 -0.28694637900E+03  0.48893255596E+02  0.61866486638E+03  0.50400001928E-02 0. -1.
       -1    1    3    3    0  502 -0.54590973797E+03  0.28694637900E+03  0.43787158738E+03  0.75636445811E+03  0.50400001928E-02 0.  1.
</event>
<event>
 5   0  0.2462055E-03  0.1364076E+04  0.7818609E-02  0.8980241E-01
       -1   -1    0    0    0  501  0.00000000000E+00  0.00000000000E+00  0.58169102515E+03  0.58169102517E+03  0.50400001928E-02 0. -1.
        1   -1    0    0  501    0  0.00000000000E+00  0.00000000000E+00 -0.79969518991E+03  0.79969518992E+03  0.50400001928E-02 0.  1.
    10030    2    1    2    0    0  0.00000000000E+00  0.00000000000E+00 -0.21800416476E+03  0.13813862151E+04  0.13640755329E+04 0.  0.
        2    1    3    3  502    0 -0.45802849802E+02 -0.72086485997E+02 -0.79425845383E+03  0.79883718867E+03  0.25500000920E-02 0.  1.
       -2    1    3    3    0  502  0.45802849802E+02  0.72086485997E+02  0.57625428907E+03  0.58254902643E+03  0.25500000920E-02 0. -1.
</event>
<event>
 5   0  0.2370801E-03  0.1174408E+04  0.7818609E-02  0.9135556E-01
       -1   -1    0    0    0  501  0.00000000000E+00  0.00000000000E+00  0.16410403633E+03  0.16410403640E+03  0.50400001928E-02 0. -1.
        1   -1    0    0  501    0  0.00000000000E+00  0.00000000000E+00 -0.21011597147E+04  0.21011597147E+04  0.50400001928E-02 0.  1.
    10030    2    1    2    0    0  0.00000000000E+00  0.00000000000E+00 -0.19370556784E+04  0.22652637511E+04  0.11744084302E+04 0.  0.
        3    1    3    3  502    0  0.57951684505E+03 -0.28630314226E+02 -0.11426524159E+04  0.12815280029E+04  0.10100000352E+00 0.  1.
       -3    1    3    3    0  502 -0.57951684505E+03  0.28630314226E+02 -0.79440326252E+03  0.98373574820E+03  0.10100000352E+00 0. -1.
</event>
<event>
 5   0  0.2458456E-03  0.1321394E+04  0.7818609E-02  0.9012769E-01
        1   -1    0    0  501    0  0.00000000000E+00  0.00000000000E+00  0.26341725526E+04  0.26341725526E+04  0.50400001928E-02 0.  1.
       -1   -1    0    0    0  501  0.00000000000E+00  0.00000000000E+00 -0.16571453532E+03  0.16571453539E+03  0.50400001928E-02 0. -1.
    10030    2    1    2    0    0  0.00000000000E+00  0.00000000000E+00  0.24684580173E+04  0.27998870880E+04  0.13213942343E+04 0.  0.
        5    1    3    3  502    0 -0.64225537434E+03 -0.37276669874E+02  0.91556990829E+03  0.11190048539E+04  0.46999998093E+01 0.  1.
       -5    1    3    3    0  502  0.64225537434E+03  0.37276669874E+02  0.15528881090E+04  0.16808822341E+04  0.46999998093E+01 0. -1.
</event>
<event>
 5   0  0.4453011E-03  0.1264708E+04  0.7818609E-02  0.9058030E-01
        2   -1    0    0  501    0  0.00000000000E+00  0.00000000000E+00  0.10267993970E+04  0.10267993970E+04  0.25500000920E-02 0. -1.
       -2   -1    0    0    0  501  0.00000000000E+00  0.00000000000E+00 -0.38943504856E+03  0.38943504857E+03  0.25500000920E-02 0.  1.
    10030    2    1    2    0    0  0.00000000000E+00  0.00000000000E+00  0.63736434847E+03  0.14162344456E+04  0.12647081451E+04 0.  0.
        1    1    3    3  502    0  0.60572705018E+03  0.18367369900E+02  0.52095944025E+03  0.79915039762E+03  0.50400001928E-02 0. -1.
       -1    1    3    3    0  502 -0.60572705018E+03 -0.18367369900E+02  0.11640490822E+03  0.61708404799E+03  0.50400001928E-02 0.  1.
</event>
<event>
 5   0  0.1661750E-03  0.1253911E+04  0.7818609E-02  0.9066935E-01
        3   -1    0    0  501    0  0.00000000000E+00  0.00000000000E+00  0.71199011973E+03  0.71199012689E+03  0.10100000352E+00 0. -1.
       -3   -1    0    0    0  501  0.00000000000E+00  0.00000000000E+00 -0.55207654633E+03  0.55207655557E+03  0.10100000352E+00 0.  1.
    10030    2    1    2    0    0  0.00000000000E+00  0.00000000000E+00  0.15991357340E+03  0.12640666825E+04  0.12539107730E+04 0.  0.
        1    1    3    3  502    0  0.11307683665E+03  0.22879537179E+03 -0.49734130998E+03  0.55900095866E+03  0.50400001928E-02 0.  1.
       -1    1    3    3    0  502 -0.11307683665E+03 -0.22879537179E+03  0.65725488338E+03  0.70506572381E+03  0.50400001928E-02 0. -1.
</event>
<event>
 5   0  0.2458456E-03  0.1251911E+04  0.7818609E-02  0.9068594E-01
        1   -1    0    0  501    0  0.00000000000E+00  0.00000000000E+00  0.50098195655E+03  0.50098195658E+03  0.50400001928E-02 0.  1.
       -1   -1    0    0    0  501  0.00000000000E+00  0.00000000000E+00 -0.78210472741E+03  0.78210472743E+03  0.50400001928E-02 0. -1.
    10030    2    1    2    0    0  0.00000000000E+00  0.00000000000E+00 -0.28112277086E+03  0.12830866840E+04  0.12519111096E+04 0.  0.
        5    1    3    3  502    0 -0.60509433448E+03  0.13517280802E+02 -0.30414940722E+03  0.67738528358E+03  0.46999998093E+01 0.  1.
       -5    1    3    3    0  502  0.60509433448E+03 -0.13517280802E+02  0.23026636363E+02  0.60570140043E+03  0.46999998093E+01 0. -1.
</event>
<event>
 5   0  0.4263540E-03  0.1314300E+04  0.7818609E-02  0.9018302E-01
        2   -1    0    0  501    0  0.00000000000E+00  0.00000000000E+00  0.80194460573E+03  0.80194460574E+03  0.25500000920E-02 0.  1.
       -2   -1    0    0    0  501  0.00000000000E+00  0.00000000000E+00 -0.53849849792E+03  0.53849849793E+03  0.25500000920E-02 0. -1.
    10030    2    1    2    0    0  0.00000000000E+00  0.00000000000E+00  0.26344610781E+03  0.13404431037E+04  0.13142997613E+04 0.  0.
        2    1    3    3  502    0  0.45014434904E+02 -0.55531878728E+03  0.48713834275E+03  0.74007365838E+03  0.25500000920E-02 0.  1.
       -2    1    3    3    0  502 -0.45014434904E+02  0.55531878728E+03 -0.22369223494E+03  0.60036944528E+03  0.25500000920E-02 0. -1.
</event>
<event>
 5   0  0.2462055E-03  0.1418667E+04  0.7818609E-02  0.8940416E-01
       -1   -1    0    0    0  501  0.00000000000E+00  0.00000000000E+00  0.91623371864E+03  0.91623371866E+03  0.50400001928E-02 0. -1.
        1   -1    0    0  501    0  0.00000000000E+00  0.00000000000E+00 -0.54915473213E+03  0.54915473216E+03  0.50400001928E-02 0.  1.
    10030    2    1    2    0    0  0.00000000000E+00  0.00000000000E+00  0.36707898651E+03  0.14653884508E+04  0.14186670961E+04 0.  0.
        2    1    3    3  502    0  0.36027256445E+03  0.28074412963E+03  0.74412875545E+03  0.87312152173E+03  0.25500000920E-02 0. -1.
       -2    1    3    3    0  502 -0.36027256445E+03 -0.28074412963E+03 -0.37704976894E+03  0.59226692908E+03  0.25500000920E-02 0.  1.
</event>
<event>
 5   0  0.4388937E-03  0.1208859E+04  0.7818609E-02  0.9105137E-01
        2   -1    0    0  501    0  0.00000000000E+00  0.00000000000E+00  0.73629155897E+03  0.73629155897E+03  0.25500000920E-02 0. -1.
       -2   -1    0    0    0  501  0.00000000000E+00  0.00000000000E+00 -0.49618249899E+03  0.49618249900E+03  0.25500000920E-02 0.  1.
    10030    2    1    2    0    0  0.00000000000E+00  0.00000000000E+00  0.24010905998E+03  0.12324740580E+04  0.12088589425E+04 0.  0.
        5    1    3    3  502    0  0.43219485142E+03  0.18039592551E+02 -0.31032342013E+03  0.53239133311E+03  0.46999998093E+01 0.  1.
       -5    1    3    3    0  502 -0.43219485142E+03 -0.18039592551E+02  0.55043248011E+03  0.70008272486E+03  0.46999998093E+01 0. -1.
</event>
<event>
 5   0  0.4310889E-03  0.1291957E+04  0.7818609E-02  0.9035968E-01
        2   -1    0    0  501    0  0.00000000000E+00  0.00000000000E+00  0.83462391363E+03  0.83462391363E+03  0.25500000920E-02 0. -1.
       -2   -1    0    0    0  501  0.00000000000E+00  0.00000000000E+00 -0.49997122591E+03  0.49997122591E+03  0.25500000920E-02 0.  1.
    10030    2    1    2    0    0  0.00000000000E+00  0.00000000000E+00  0.33465268772E+03  0.13345951395E+04  0.12919565647E+04 0.  0.
        4    1    3    3  502    0  0.55471788434E+03  0.30888734656E+03  0.29026241210E+03  0.69812406122E+03  0.12699999809E+01 0. -1.
       -4    1    3    3    0  502 -0.55471788434E+03 -0.30888734656E+03  0.44390275616E+02  0.63647107832E+03  0.12699999809E+01 0.  1.
</event>
<event>
 5   0  0.4310889E-03  0.1281636E+04  0.7818609E-02  0.9044256E-01
       -2   -1    0    0    0  501  0.00000000000E+00  0.00000000000E+00  0.47998841472E+03  0.47998841473E+03  0.25500000920E-02 0. -1.
        2   -1    0    0  501    0  0.00000000000E+00  0.00000000000E+00 -0.85553673874E+03  0.85553673875E+03  0.25500000920E-02 0.  1.
    10030    2    1    2    0    0  0.00000000000E+00  0.00000000000E+00 -0.37554832402E+03  0.13355251535E+04  0.12816360216E+04 0.  0.
        4    1    3    3  502    0  0.36419451560E+03 -0.52554813107E+03 -0.14347028286E+03  0.65530437068E+03  0.12699999809E+01 0.  1.
       -4    1    3    3    0  502 -0.36419451560E+03  0.52554813107E+03 -0.23207804116E+03  0.68022078280E+03  0.12699999809E+01 0. -1.
</event>
<event>
 5   0  0.2458456E-03  0.1390797E+04  0.7818609E-02  0.8960508E-01
        1   -1    0    0  501    0  0.00000000000E+00  0.00000000000E+00  0.14676507290E+04  0.14676507290E+04  0.50400001928E-02 0.  1.
       -1   -1    0    0    0  501  0.00000000000E+00  0.00000000000E+00 -0.32949172985E+03  0.32949172989E+03  0.50400001928E-02 0. -1.
    10030    2    1    2    0    0  0.00000000000E+00  0.00000000000E+00  0.11381589992E+04  0.17971424589E+04  0.13907965740E+04 0.  0.
        5    1    3    3  502    0 -0.27699162601E+03  0.58248737012E+03  0.90489594610E+03  0.11112491442E+04  0.46999998093E+01 0.  1.
       -5    1    3    3    0  502  0.27699162601E+03 -0.58248737012E+03  0.23326305306E+03  0.68589331470E+03  0.46999998093E+01 0. -1.
</event>
<event>
 5   0  0.2458456E-03  0.1346635E+04  0.7818609E-02  0.8993380E-01
        1   -1    0    0  501    0  0.00000000000E+00  0.00000000000E+00  0.81130962877E+03  0.81130962879E+03  0.50400001928E-02 0.  1.
       -1   -1    0    0    0  501  0.00000000000E+00  0.00000000000E+00 -0.55879556821E+03  0.55879556823E+03  0.50400001928E-02 0. -1.
    10030    2    1    2    0    0  0.00000000000E+00  0.00000000000E+00  0.25251406056E+03  0.13701051970E+04  0.13466346572E+04 0.  0.
        5    1    3    3  502    0  0.41028114911E+03  0.47611616165E+03  0.37195490199E+03  0.73033537489E+03  0.46999998093E+01 0.  1.
       -5    1    3    3    0  502 -0.41028114911E+03 -0.47611616165E+03 -0.11944084143E+03  0.63976982212E+03  0.46999998093E+01 0. -1.
</event>
<event>
 5   0  0.2458456E-03  0.1299335E+04  0.7818609E-02  0.9030093E-01
        1   -1    0    0  501    0  0.00000000000E+00  0.00000000000E+00  0.58990936927E+03  0.58990936929E+03  0.50400001928E-02 0. -1.
       -1   -1    0    0    0  501  0.00000000000E+00  0.00000000000E+00 -0.71547889068E+03  0.71547889070E+03  0.50400001928E-02 0.  1.
    10030    2    1    2    0    0  0.00000000000E+00  0.00000000000E+00 -0.12556952142E+03  0.13053882600E+04  0.12993347546E+04 0.  0.
        5    1    3    3  502    0  0.64961273546E+03  0.68383826340E+01 -0.64255000216E+02  0.65283555709E+03  0.46999998093E+01 0. -1.
       -5    1    3    3    0  502 -0.64961273546E+03 -0.68383826340E+01 -0.61314521201E+02  0.65255270290E+03  0.46999998093E+01 0.  1.
</event>
<event>
 5   0  0.4310889E-03  0.1295486E+04  0.7818609E-02  0.9033152E-01
       -2   -1    0    0    0  501  0.00000000000E+00  0.00000000000E+00  0.75003983995E+03  0.75003983996E+03  0.25500000920E-02 0. -1.
        2   -1    0    0  501    0  0.00000000000E+00  0.00000000000E+00 -0.55939840487E+03  0.55939840488E+03  0.25500000920E-02 0.  1.
    10030    2    1    2    0    0  0.00000000000E+00  0.00000000000E+00  0.19064143508E+03  0.13094382448E+04  0.12954861482E+04 0.  0.
        4    1    3    3  502    0 -0.13393963851E+03  0.11141169308E+03  0.72591233802E+03  0.74652711104E+03  0.12699999809E+01 0. -1.
       -4    1    3    3    0  502  0.13393963851E+03 -0.11141169308E+03 -0.53527090294E+03  0.56291113380E+03  0.12699999809E+01 0.  1.
</event>
<event>
 5   0  0.4388937E-03  0.1139401E+04  0.7818609E-02  0.9167618E-01
        2   -1    0    0  501    0  0.00000000000E+00  0.00000000000E+00  0.15250511327E+04  0.15250511327E+04  0.25500000920E-02 0.  1.
       -2   -1    0    0    0  501  0.00000000000E+00  0.00000000000E+00 -0.21281815217E+03  0.21281815218E+03  0.25500000920E-02 0. -1.
    10030    2    1    2    0    0  0.00000000000E+00  0.00000000000E+00  0.13122329806E+04  0.17378692849E+04  0.11394008321E+04 0.  0.
        5    1    3    3  502    0 -0.23362882130E+03  0.13416940494E+03 -0.10948014056E+03  0.29084677502E+03  0.46999998093E+01 0. -1.
       -5    1    3    3    0  502  0.23362882130E+03 -0.13416940494E+03  0.14217131211E+04  0.14470225099E+04  0.46999998093E+01 0.  1.
</event>
<event>
 5   0  0.2370801E-03  0.1251875E+04  0.7818609E-02  0.9068624E-01
        1   -1    0    0  501    0  0.00000000000E+00  0.00000000000E+00  0.52812327171E+03  0.52812327174E+03  0.50400001928E-02 0. -1.
       -1   -1    0    0    0  501  0.00000000000E+00  0.00000000000E+00 -0.74186812172E+03  0.74186812174E+03  0.50400001928E-02 0.  1.
    10030    2    1    2    0    0  0.00000000000E+00  0.00000000000E+00 -0.21374485000E+03  0.12699913935E+04  0.12518751050E+04 0.  0.
        3    1    3    3  502    0  0.53907502085E+02  0.42427868655E+03  0.35677469525E+03  0.55696195204E+03  0.10100000352E+00 0. -1.
       -3    1    3    3    0  502 -0.53907502085E+02 -0.42427868655E+03 -0.57051954525E+03  0.71302944144E+03  0.10100000352E+00 0.  1.
</event>
<event>
 5   0  0.4310889E-03  0.1282988E+04  0.7818609E-02  0.9043166E-01
       -2   -1    0    0    0  501  0.00000000000E+00  0.00000000000E+00  0.25900564885E+03  0.25900564886E+03  0.25500000920E-02 0. -1.
        2   -1    0    0  501    0  0.00000000000E+00  0.00000000000E+00 -0.15888235085E+04  0.15888235085E+04  0.25500000920E-02 0.  1.
    10030    2    1    2    0    0  0.00000000000E+00  0.00000000000E+00 -0.13298178597E+04  0.18478291574E+04  0.12829875506E+04 0.  0.
        4    1    3    3  502    0 -0.12517143218E+03 -0.42448037207E+03  0.39358765841E+01  0.44257042122E+03  0.12699999809E+01 0. -1.
       -4    1    3    3    0  502  0.12517143218E+03  0.42448037207E+03 -0.13337537363E+04  0.14052587362E+04  0.12699999809E+01 0.  1.
</event>
<event>
 5   0  0.4453011E-03  0.7421430E+03  0.7818609E-02  0.9647758E-01
        2   -1    0    0  501    0  0.00000000000E+00  0.00000000000E+00  0.13635857230E+04  0.13635857230E+04  0.25500000920E-02 0.  1.
       -2   -1    0    0    0  501  0.00000000000E+00  0.00000000000E+00 -0.10097940129E+03  0.10097940132E+03  0.25500000920E-02 0. -1.
    10030    2    1    2    0    0  0.00000000000E+00  0.00000000000E+00  0.12626063217E+04  0.14645651243E+04  0.74214303187E+03 0.  0.
        1    1    3    3  502    0 -0.18371221662E+02 -0.36727776215E+03  0.53335250088E+03  0.64783898199E+03  0.50400001928E-02 0.  1.
       -1    1    3    3    0  502  0.18371221662E+02  0.36727776215E+03  0.72925382085E+03  0.81672614236E+03  0.50400001928E-02 0. -1.
</event>
<event>
 5   0  0.2356769E-03  0.1340029E+04  0.7818609E-02  0.8998411E-01
        1   -1    0    0  501    0  0.00000000000E+00  0.00000000000E+00  0.95094563422E+03  0.95094563423E+03  0.50400001928E-02 0. -1.
       -1   -1    0    0    0  501  0.00000000000E+00  0.00000000000E+00 -0.47207662436E+03  0.47207662438E+03  0.50400001928E-02 0.  1.
    10030    2    1    2    0    0  0.00000000000E+00  0.00000000000E+00  0.47886900986E+03  0.14230222586E+04  0.13400286638E+04 0.  0.
        1    1    3    3  502    0 -0.15338827966E+03  0.37801225719E+03  0.80385824712E+03  0.90144845244E+03  0.50400001928E-02 0. -1.
       -1    1    3    3    0  502  0.15338827966E+03 -0.37801225719E+03 -0.32498923726E+03  0.52157380617E+03  0.50400001928E-02 0.  1.
</event>
<event>
 5   0  0.4306214E-03  0.1296929E+04  0.7818609E-02  0.9032004E-01
        2   -1    0    0  501    0  0.00000000000E+00  0.00000000000E+00  0.89119221516E+03  0.89119221516E+03  0.25500000920E-02 0.  1.
       -2   -1    0    0    0  501  0.00000000000E+00  0.00000000000E+00 -0.47184687141E+03  0.47184687142E+03  0.25500000920E-02 0. -1.
    10030    2    1    2    0    0  0.00000000000E+00  0.00000000000E+00  0.41934534374E+03  0.13630390866E+04  0.12969290783E+04 0.  0.
        3    1    3    3  502    0  0.57438317192E+03 -0.29217659792E+03  0.28562733029E+03  0.70488734884E+03  0.10100000352E+00 0. -1.
       -3    1    3    3    0  502 -0.57438317192E+03  0.29217659792E+03  0.13371801346E+03  0.65815173773E+03  0.10100000352E+00 0.  1.
</event>
<event>
 5   0  0.2370801E-03  0.1334759E+04  0.7818609E-02  0.9002447E-01
        1   -1    0    0  501    0  0.00000000000E+00  0.00000000000E+00  0.75743726405E+03  0.75743726407E+03  0.50400001928E-02 0. -1.
       -1   -1    0    0    0  501  0.00000000000E+00  0.00000000000E+00 -0.58802902872E+03  0.58802902874E+03  0.50400001928E-02 0.  1.
    10030    2    1    2    0    0  0.00000000000E+00  0.00000000000E+00  0.16940823533E+03  0.13454662928E+04  0.13347585530E+04 0.  0.
        3    1    3    3  502    0  0.64886837498E+02 -0.32284625564E+03  0.66983916991E+03  0.74640775064E+03  0.10100000352E+00 0. -1.
       -3    1    3    3    0  502 -0.64886837498E+02  0.32284625564E+03 -0.50043093458E+03  0.59905854217E+03  0.10100000352E+00 0.  1.
</event>
<event>
 5   0  0.2458456E-03  0.7096246E+03  0.7818609E-02  0.9700913E-01
        1   -1    0    0  501    0  0.00000000000E+00  0.00000000000E+00  0.32959431003E+03  0.32959431007E+03  0.50400001928E-02 0. -1.
       -1   -1    0    0    0  501  0.00000000000E+00  0.00000000000E+00 -0.38195973304E+03  0.38195973307E+03  0.50400001928E-02 0.  1.
    10030    2    1    2    0    0  0.00000000000E+00  0.00000000000E+00 -0.52365423010E+02  0.71155404314E+03  0.70962456185E+03 0.  0.
        5    1    3    3  502    0 -0.83073831434E+02  0.23370008622E+03  0.22818533036E+03  0.33705730486E+03  0.46999998093E+01 0. -1.
       -5    1    3    3    0  502  0.83073831434E+02 -0.23370008622E+03 -0.28055075337E+03  0.37449673828E+03  0.46999998093E+01 0.  1.
</event>
<event>
 5   0  0.2356769E-03  0.1300979E+04  0.7818609E-02  0.9028789E-01
       -1   -1    0    0    0  501  0.00000000000E+00  0.00000000000E+00  0.42241033936E+03  0.42241033939E+03  0.50400001928E-02 0. -1.
        1   -1    0    0  501    0  0.00000000000E+00  0.00000000000E+00 -0.10017198767E+04  0.10017198768E+04  0.50400001928E-02 0.  1.
    10030    2    1    2    0    0  0.00000000000E+00  0.00000000000E+00 -0.57930953739E+03  0.14241302161E+04  0.13009793743E+04 0.  0.
        1    1    3    3  502    0  0.49097472720E+03 -0.41229639785E+03 -0.41002921337E+03  0.76103118088E+03  0.50400001928E-02 0.  1.
       -1    1    3    3    0  502 -0.49097472720E+03  0.41229639785E+03 -0.16928032402E+03  0.66309903526E+03  0.50400001928E-02 0. -1.
</event>
<event>
 5   0  0.2356769E-03  0.1302584E+04  0.7818609E-02  0.9027519E-01
       -1   -1    0    0    0  501  0.00000000000E+00  0.00000000000E+00  0.46150274644E+03  0.46150274647E+03  0.50400001928E-02 0. -1.
        1   -1    0    0  501    0  0.00000000000E+00  0.00000000000E+00 -0.91913007182E+03  0.91913007184E+03  0.50400001928E-02 0.  1.
    10030    2    1    2    0    0  0.00000000000E+00  0.00000000000E+00 -0.45762732538E+03  0.13806328183E+04  0.13025836672E+04 0.  0.
        1    1    3    3  502    0 -0.32609468086E+03 -0.38766806797E+03  0.20505028943E+03  0.54650699266E+03  0.50400001928E-02 0. -1.
       -1    1    3    3    0  502  0.32609468086E+03  0.38766806797E+03 -0.66267761481E+03  0.83412582564E+03  0.50400001928E-02 0.  1.
</event>
<event>
 5   0  0.4306214E-03  0.1314921E+04  0.7818609E-02  0.9017815E-01
       -2   -1    0    0    0  501  0.00000000000E+00  0.00000000000E+00  0.42786494189E+03  0.42786494190E+03  0.25500000920E-02 0.  1.
        2   -1    0    0  501    0  0.00000000000E+00  0.00000000000E+00 -0.10102594949E+04  0.10102594949E+04  0.25500000920E-02 0. -1.
    10030    2    1    2    0    0  0.00000000000E+00  0.00000000000E+00 -0.58239455296E+03  0.14381244368E+04  0.13149214730E+04 0.  0.
        3    1    3    3  502    0 -0.49908041221E+03 -0.20741305706E+03  0.11825012557E+03  0.55324907274E+03  0.10100000352E+00 0.  1.
       -3    1    3    3    0  502  0.49908041221E+03  0.20741305706E+03 -0.70064467853E+03  0.88487536402E+03  0.10100000352E+00 0. -1.
</event>
<event>
 5   0  0.2356769E-03  0.1298704E+04  0.7818609E-02  0.9030593E-01
       -1   -1    0    0    0  501  0.00000000000E+00  0.00000000000E+00  0.55000754765E+03  0.55000754767E+03  0.50400001928E-02 0.  1.
        1   -1    0    0  501    0  0.00000000000E+00  0.00000000000E+00 -0.76664078137E+03  0.76664078138E+03  0.50400001928E-02 0. -1.
    10030    2    1    2    0    0  0.00000000000E+00  0.00000000000E+00 -0.21663323372E+03  0.13166483291E+04  0.12987043022E+04 0.  0.
        1    1    3    3  502    0  0.36059755635E+03  0.38974706106E+03 -0.48727920192E+03  0.72067634198E+03  0.50400001928E-02 0. -1.
       -1    1    3    3    0  502 -0.36059755635E+03 -0.38974706106E+03  0.27064596820E+03  0.59597198707E+03  0.50400001928E-02 0.  1.
</event>
<event>
 5   0  0.2462055E-03  0.1286137E+04  0.7818609E-02  0.9040632E-01
        1   -1    0    0  501    0  0.00000000000E+00  0.00000000000E+00  0.11638336121E+04  0.11638336121E+04  0.50400001928E-02 0. -1.
       -1   -1    0    0    0  501  0.00000000000E+00  0.00000000000E+00 -0.35532301845E+03  0.35532301848E+03  0.50400001928E-02 0.  1.
    10030    2    1    2    0    0  0.00000000000E+00  0.00000000000E+00  0.80851059365E+03  0.15191566306E+04  0.12861366522E+04 0.  0.
        2    1    3    3  502    0  0.10269981286E+03  0.55418921496E+02  0.11512217744E+04  0.11571214640E+04  0.25500000920E-02 0. -1.
       -2    1    3    3    0  502 -0.10269981286E+03 -0.55418921496E+02 -0.34271118079E+03  0.36203516662E+03  0.25500000920E-02 0.  1.
</event>
<event>
 5   0  0.2458456E-03  0.1320868E+04  0.7818609E-02  0.9013179E-01
        1   -1    0    0  501    0  0.00000000000E+00  0.00000000000E+00  0.11622573180E+04  0.11622573180E+04  0.50400001928E-02 0.  1.
       -1   -1    0    0    0  501  0.00000000000E+00  0.00000000000E+00 -0.37528071044E+03  0.37528071047E+03  0.50400001928E-02 0. -1.
    10030    2    1    2    0    0  0.00000000000E+00  0.00000000000E+00  0.78697660752E+03  0.15375380284E+04  0.13208675210E+04 0.  0.
        5    1    3    3  502    0 -0.10813805733E+03 -0.42645581438E+03  0.96681884316E+03  0.10622236895E+04  0.46999998093E+01 0.  1.
       -5    1    3    3    0  502  0.10813805733E+03  0.42645581438E+03 -0.17984223565E+03  0.47531433892E+03  0.46999998093E+01 0. -1.
</event>
<event>
 5   0  0.4310889E-03  0.1520639E+04  0.7818609E-02  0.8870843E-01
       -2   -1    0    0    0  501  0.00000000000E+00  0.00000000000E+00  0.58212077724E+03  0.58212077724E+03  0.25500000920E-02 0. -1.
        2   -1    0    0  501    0  0.00000000000E+00  0.00000000000E+00 -0.99306846152E+03  0.99306846153E+03  0.25500000920E-02 0.  1.
    10030    2    1    2    0    0  0.00000000000E+00  0.00000000000E+00 -0.41094768429E+03  0.15751892388E+04  0.15206390560E+04 0.  0.
        4    1    3    3  502    0  0.17079371196E+03 -0.71541646356E+03 -0.40497818823E+03  0.83964287302E+03  0.12699999809E+01 0. -1.
       -4    1    3    3    0  502 -0.17079371196E+03  0.71541646356E+03 -0.59694960618E+01  0.73554636575E+03  0.12699999809E+01 0.  1.
</event>
<event>
 5   0  0.4306214E-03  0.1335758E+04  0.7818609E-02  0.9001680E-01
        2   -1    0    0  501    0  0.00000000000E+00  0.00000000000E+00  0.15433857444E+04  0.15433857444E+04  0.25500000920E-02 0. -1.
       -2   -1    0    0    0  501  0.00000000000E+00  0.00000000000E+00 -0.28901541496E+03  0.28901541497E+03  0.25500000920E-02 0.  1.
    10030    2    1    2    0    0  0.00000000000E+00  0.00000000000E+00  0.12543703295E+04  0.18324011594E+04  0.13357578693E+04 0.  0.
        3    1    3    3  502    0 -0.92277781975E+01 -0.10508312716E+03  0.15318856397E+04  0.15355133470E+04  0.10100000352E+00 0. -1.
       -3    1    3    3    0  502  0.92277781975E+01  0.10508312716E+03 -0.27751531026E+03  0.29688781237E+03  0.10100000352E+00 0.  1.
</event>
<event>
 5   0  0.2511542E-03  0.7658115E+03  0.7818609E-02  0.9610866E-01
       -1   -1    0    0    0  501  0.00000000000E+00  0.00000000000E+00  0.25073060315E+03  0.25073060320E+03  0.50400001928E-02 0. -1.
        1   -1    0    0  501    0  0.00000000000E+00  0.00000000000E+00 -0.58475833405E+03  0.58475833407E+03  0.50400001928E-02 0.  1.
    10030    2    1    2    0    0  0.00000000000E+00  0.00000000000E+00 -0.33402773090E+03  0.83548893727E+03  0.76581149071E+03 0.  0.
        4    1    3    3  502    0 -0.26755478217E+03 -0.89758558001E+02 -0.44935153196E+03  0.53062281553E+03  0.12699999809E+01 0.  1.
       -4    1    3    3    0  502  0.26755478217E+03  0.89758558001E+02  0.11532380106E+03  0.30486612174E+03  0.12699999809E+01 0. -1.
</event>
<event>
 5   0  0.2462055E-03  0.1309013E+04  0.7818609E-02  0.9022448E-01
       -1   -1    0    0    0  501  0.00000000000E+00  0.00000000000E+00  0.48383381352E+03  0.48383381355E+03  0.50400001928E-02 0.  1.
        1   -1    0    0  501    0  0.00000000000E+00  0.00000000000E+00 -0.88538466907E+03  0.88538466908E+03  0.50400001928E-02 0. -1.
    10030    2    1    2    0    0  0.00000000000E+00  0.00000000000E+00 -0.40155085554E+03  0.13692184826E+04  0.13090134314E+04 0.  0.
        2    1    3    3  502    0  0.39826668330E+03 -0.42768900307E+03 -0.50902364686E+03  0.77500923055E+03  0.25500000920E-02 0. -1.
       -2    1    3    3    0  502 -0.39826668330E+03  0.42768900307E+03  0.10747279132E+03  0.59420925208E+03  0.25500000920E-02 0.  1.
</event>
<event>
 5   0  0.2511542E-03  0.1139420E+04  0.7818609E-02  0.9167600E-01
        1   -1    0    0  501    0  0.00000000000E+00  0.00000000000E+00  0.12727307174E+04  0.12727307174E+04  0.50400001928E-02 0. -1.
       -1   -1    0    0    0  501  0.00000000000E+00  0.00000000000E+00 -0.25501801038E+03  0.25501801043E+03  0.50400001928E-02 0.  1.
    10030    2    1    2    0    0  0.00000000000E+00  0.00000000000E+00  0.10177127071E+04  0.15277487279E+04  0.11394195985E+04 0.  0.
        4    1    3    3  502    0 -0.26515881621E+03  0.38692934390E+03  0.94238526640E+03  0.10526704699E+04  0.12699999809E+01 0. -1.
       -4    1    3    3    0  502  0.26515881621E+03 -0.38692934390E+03  0.75327440653E+02  0.47507825797E+03  0.12699999809E+01 0.  1.
</event>
<event>
 5   0  0.2356769E-03  0.1168740E+04  0.7818609E-02  0.9140667E-01
       -1   -1    0    0    0  501  0.00000000000E+00  0.00000000000E+00  0.70434197566E+03  0.70434197568E+03  0.50400001928E-02 0. -1.
        1   -1    0    0  501    0  0.00000000000E+00  0.00000000000E+00 -0.48483329319E+03  0.48483329322E+03  0.50400001928E-02 0.  1.
    10030    2    1    2    0    0  0.00000000000E+00  0.00000000000E+00  0.21950868247E+03  0.11891752689E+04  0.11687402442E+04 0.  0.
        1    1    3    3  502    0 -0.72505446484E+02  0.24891969889E+03  0.64261950214E+03  0.69294868556E+03  0.50400001928E-02 0. -1.
       -1    1    3    3    0  502  0.72505446484E+02 -0.24891969889E+03 -0.42311081967E+03  0.49622658334E+03  0.50400001928E-02 0.  1.
</event>
<event>
 5   0  0.1661750E-03  0.1311200E+04  0.7818609E-02  0.9020730E-01
        3   -1    0    0  501    0  0.00000000000E+00  0.00000000000E+00  0.92960445639E+03  0.92960446187E+03  0.10100000352E+00 0. -1.
       -3   -1    0    0    0  501  0.00000000000E+00  0.00000000000E+00 -0.46235926407E+03  0.46235927510E+03  0.10100000352E+00 0.  1.
    10030    2    1    2    0    0  0.00000000000E+00  0.00000000000E+00  0.46724519232E+03  0.13919637370E+04  0.13111998228E+04 0.  0.
        2    1    3    3  502    0 -0.46752537018E+03 -0.19524248267E+03  0.67531728906E+03  0.84424702529E+03  0.25500000920E-02 0. -1.
       -2    1    3    3    0  502  0.46752537018E+03  0.19524248267E+03 -0.20807209675E+03  0.54771671168E+03  0.25500000920E-02 0.  1.
</event>
<event>
 5   0  0.2511542E-03  0.1303380E+04  0.7818609E-02  0.9026889E-01
        1   -1    0    0  501    0  0.00000000000E+00  0.00000000000E+00  0.15499159290E+04  0.15499159290E+04  0.50400001928E-02 0.  1.
       -1   -1    0    0    0  501  0.00000000000E+00  0.00000000000E+00 -0.27401491824E+03  0.27401491829E+03  0.50400001928E-02 0. -1.
    10030    2    1    2    0    0  0.00000000000E+00  0.00000000000E+00  0.12759010108E+04  0.18239308473E+04  0.13033803537E+04 0.  0.
        4    1    3    3  502    0  0.14455651458E+03  0.17874526610E+03  0.14912908308E+04  0.15089056998E+04  0.12699999809E+01 0.  1.
       -4    1    3    3    0  502 -0.14455651458E+03 -0.17874526610E+03 -0.21538982004E+03  0.31502514746E+03  0.12699999809E+01 0. -1.
</event>
<event>
 5   0  0.4310889E-03  0.6586791E+03  0.7818609E-02  0.9790628E-01
       -2   -1    0    0    0  501  0.00000000000E+00  0.00000000000E+00  0.13755757344E+03  0.13755757346E+03  0.25500000920E-02 0.  1.
        2   -1    0    0  501    0  0.00000000000E+00  0.00000000000E+00 -0.78850295605E+03  0.78850295605E+03  0.25500000920E-02 0. -1.
    10030    2    1    2    0    0  0.00000000000E+00  0.00000000000E+00 -0.65094538261E+03  0.92606052951E+03  0.65867914282E+03 0.  0.
        4    1    3    3  502    0  0.26910399353E+03  0.33641162264E+02 -0.58817678562E+03  0.64768991900E+03  0.12699999809E+01 0. -1.
       -4    1    3    3    0  502 -0.26910399353E+03 -0.33641162264E+02 -0.62768596985E+02  0.27837061051E+03  0.12699999809E+01 0.  1.
</event>
<event>
 5   0  0.1661750E-03  0.1298284E+04  0.7818609E-02  0.9030927E-01
        3   -1    0    0  501    0  0.00000000000E+00  0.00000000000E+00  0.16329294265E+04  0.16329294297E+04  0.10100000352E+00 0. -1.
       -3   -1    0    0    0  501  0.00000000000E+00  0.00000000000E+00 -0.25805465376E+03  0.25805467353E+03  0.10100000352E+00 0.  1.
    10030    2    1    2    0    0  0.00000000000E+00  0.00000000000E+00  0.13748747728E+04  0.18909841032E+04  0.12982835737E+04 0.  0.
        3    1    3    3  502    0  0.35930017498E+03  0.48878555911E+03  0.35092903535E+03  0.70082746563E+03  0.10100000352E+00 0.  1.
       -3    1    3    3    0  502 -0.35930017498E+03 -0.48878555911E+03  0.10239457374E+04  0.11901566376E+04  0.10100000352E+00 0. -1.
</event>
<event>
 5   0  0.4310889E-03  0.1311002E+04  0.7818609E-02  0.9020885E-01
        2   -1    0    0  501    0  0.00000000000E+00  0.00000000000E+00  0.10980151240E+04  0.10980151240E+04  0.25500000920E-02 0. -1.
       -2   -1    0    0    0  501  0.00000000000E+00  0.00000000000E+00 -0.39132590980E+03  0.39132590980E+03  0.25500000920E-02 0.  1.
    10030    2    1    2    0    0  0.00000000000E+00  0.00000000000E+00  0.70668921416E+03  0.14893410338E+04  0.13110023148E+04 0.  0.
        4    1    3    3  502    0  0.35432947904E+03 -0.14655598982E+03  0.95731662425E+03  0.10312539793E+04  0.12699999809E+01 0. -1.
       -4    1    3    3    0  502 -0.35432947904E+03  0.14655598982E+03 -0.25062741010E+03  0.45808705445E+03  0.12699999809E+01 0.  1.
</event>
<event>
 5   0  0.2356769E-03  0.1084110E+04  0.7818609E-02  0.9220819E-01
       -1   -1    0    0    0  501  0.00000000000E+00  0.00000000000E+00  0.27744244769E+03  0.27744244774E+03  0.50400001928E-02 0. -1.
        1   -1    0    0  501    0  0.00000000000E+00  0.00000000000E+00 -0.10590437301E+04  0.10590437301E+04  0.50400001928E-02 0.  1.
    10030    2    1    2    0    0  0.00000000000E+00  0.00000000000E+00 -0.78160128241E+03  0.13364861779E+04  0.10841101138E+04 0.  0.
        1    1    3    3  502    0  0.48552862097E+03 -0.21029074255E+03 -0.53595386349E+03  0.75313131790E+03  0.50400001928E-02 0.  1.
       -1    1    3    3    0  502 -0.48552862097E+03  0.21029074255E+03 -0.24564741892E+03  0.58335485996E+03  0.50400001928E-02 0. -1.
</event>
<event>
 5   0  0.2511542E-03  0.1318536E+04  0.7818609E-02  0.9014994E-01
       -1   -1    0    0    0  501  0.00000000000E+00  0.00000000000E+00  0.20552176006E+03  0.20552176012E+03  0.50400001928E-02 0. -1.
        1   -1    0    0  501    0  0.00000000000E+00  0.00000000000E+00 -0.21147832310E+04  0.21147832310E+04  0.50400001928E-02 0.  1.
    10030    2    1    2    0    0  0.00000000000E+00  0.00000000000E+00 -0.19092614709E+04  0.23203049911E+04  0.13185355086E+04 0.  0.
        4    1    3    3  502    0 -0.45031050155E+02 -0.65485681002E+03 -0.10626392709E+04  0.12490272495E+04  0.12699999809E+01 0.  1.
       -4    1    3    3    0  502  0.45031050155E+02  0.65485681002E+03 -0.84662220002E+03  0.10712777416E+04  0.12699999809E+01 0. -1.
</event>
<event>
 5   0  0.4310889E-03  0.1261870E+04  0.7818609E-02  0.9060361E-01
       -2   -1    0    0    0  501  0.00000000000E+00  0.00000000000E+00  0.28573848166E+03  0.28573848168E+03  0.25500000920E-02 0. -1.
        2   -1    0    0  501    0  0.00000000000E+00  0.00000000000E+00 -0.13931582793E+04  0.13931582793E+04  0.25500000920E-02 0.  1.
    10030    2    1    2    0    0  0.00000000000E+00  0.00000000000E+00 -0.11074197976E+04  0.16788967610E+04  0.12618699322E+04 0.  0.
        4    1    3    3  502    0 -0.25825107234E+03  0.10700310278E+03  0.19884748798E+03  0.34305279002E+03  0.12699999809E+01 0. -1.
       -4    1    3    3    0  502  0.25825107234E+03 -0.10700310278E+03 -0.13062672856E+04  0.13358439710E+04  0.12699999809E+01 0.  1.
</event>
<event>
 5   0  0.4310889E-03  0.1296202E+04  0.7818609E-02  0.9032583E-01
       -2   -1    0    0    0  501  0.00000000000E+00  0.00000000000E+00  0.41919421164E+03  0.41919421165E+03  0.25500000920E-02 0.  1.
        2   -1    0    0  501    0  0.00000000000E+00  0.00000000000E+00 -0.10020053117E+04  0.10020053117E+04  0.25500000920E-02 0. -1.
    10030    2    1    2    0    0  0.00000000000E+00  0.00000000000E+00 -0.58281110009E+03  0.14211995234E+04  0.12962018774E+04 0.  0.
        4    1    3    3  502    0 -0.31334221823E+03 -0.96756913340E+02 -0.90431886615E+03  0.96194566925E+03  0.12699999809E+01 0. -1.
       -4    1    3    3    0  502  0.31334221823E+03  0.96756913340E+02  0.32150776606E+03  0.45925385414E+03  0.12699999809E+01 0.  1.
</event>
<event>
 5   0  0.4388937E-03  0.1326569E+04  0.7818609E-02  0.9008757E-01
       -2   -1    0    0    0  501  0.00000000000E+00  0.00000000000E+00  0.46165968952E+03  0.46165968953E+03  0.25500000920E-02 0.  1.
        2   -1    0    0  501    0  0.00000000000E+00  0.00000000000E+00 -0.95296625164E+03  0.95296625165E+03  0.25500000920E-02 0. -1.
    10030    2    1    2    0    0  0.00000000000E+00  0.00000000000E+00 -0.49130656212E+03  0.14146259412E+04  0.13265686622E+04 0.  0.
        5    1    3    3  502    0  0.62595947659E+03 -0.21197994602E+03 -0.30562943929E+03  0.72814298597E+03  0.46999998093E+01 0.  1.
       -5    1    3    3    0  502 -0.62595947659E+03  0.21197994602E+03 -0.18567712283E+03  0.68648295521E+03  0.46999998093E+01 0. -1.
</event>
<event>
 5   0  0.4453011E-03  0.1352515E+04  0.7818609E-02  0.8988927E-01
       -2   -1    0    0    0  501  0.00000000000E+00  0.00000000000E+00  0.25806136593E+03  0.25806136594E+03  0.25500000920E-02 0.  1.
        2   -1    0    0  501    0  0.00000000000E+00  0.00000000000E+00 -0.17721519395E+04  0.17721519395E+04  0.25500000920E-02 0. -1.
    10030    2    1    2    0    0  0.00000000000E+00  0.00000000000E+00 -0.15140905735E+04  0.20302133054E+04  0.13525146212E+04 0.  0.
        1    1    3    3  502    0 -0.14653592852E+03 -0.15816578105E+03 -0.17191742540E+04  0.17326422909E+04  0.50400001928E-02 0. -1.
       -1    1    3    3    0  502  0.14653592852E+03  0.15816578105E+03  0.20508368046E+03  0.29757101449E+03  0.50400001928E-02 0.  1.
</event>
<event>
 5   0  0.2458456E-03  0.1301049E+04  0.7818609E-02  0.9028733E-01
        1   -1    0    0  501    0  0.00000000000E+00  0.00000000000E+00  0.14907319030E+04  0.14907319030E+04  0.50400001928E-02 0. -1.
       -1   -1    0    0    0  501  0.00000000000E+00  0.00000000000E+00 -0.28387561967E+03  0.28387561971E+03  0.50400001928E-02 0.  1.
    10030    2    1    2    0    0  0.00000000000E+00  0.00000000000E+00  0.12068562833E+04  0.17746075227E+04  0.13010494883E+04 0.  0.
        5    1    3    3  502    0  0.29349590430E+03  0.34191084542E+03  0.12433630017E+04  0.13225038813E+04  0.46999998093E+01 0. -1.
       -5    1    3    3    0  502 -0.29349590430E+03 -0.34191084542E+03 -0.36506718422E+02  0.45210364137E+03  0.46999998093E+01 0.  1.
</event>
<event>
 5   0  0.4388937E-03  0.1257294E+04  0.7818609E-02  0.9064134E-01
        2   -1    0    0  501    0  0.00000000000E+00  0.00000000000E+00  0.21162620288E+04  0.21162620288E+04  0.25500000920E-02 0.  1.
       -2   -1    0    0    0  501  0.00000000000E+00  0.00000000000E+00 -0.18674299607E+03  0.18674299609E+03  0.25500000920E-02 0. -1.
    10030    2    1    2    0    0  0.00000000000E+00  0.00000000000E+00  0.19295190327E+04  0.23030050249E+04  0.12572940972E+04 0.  0.
        5    1    3    3  502    0  0.28328521253E+03 -0.15404586091E+03 -0.23678647977E+02  0.32336265597E+03  0.46999998093E+01 0. -1.
       -5    1    3    3    0  502 -0.28328521253E+03  0.15404586091E+03  0.19531976807E+04  0.19796423689E+04  0.46999998093E+01 0.  1.
</event>
<event>
 5   0  0.1661750E-03  0.1298758E+04  0.7818609E-02  0.9030551E-01
       -4   -1    0    0    0  501  0.00000000000E+00  0.00000000000E+00  0.32460321795E+03  0.32460570236E+03  0.12699999809E+01 0.  1.
        4   -1    0    0  501    0  0.00000000000E+00  0.00000000000E+00 -0.12990948365E+04  0.12990954573E+04  0.12699999809E+01 0. -1.
    10030    2    1    2    0    0  0.00000000000E+00  0.00000000000E+00 -0.97449161859E+03  0.16237011597E+04  0.12987576915E+04 0.  0.
        5    1    3    3  502    0  0.54302176087E+03  0.15185925799E+03 -0.88991153101E+03  0.10535171997E+04  0.46999998093E+01 0. -1.
       -5    1    3    3    0  502 -0.54302176087E+03 -0.15185925799E+03 -0.84580087572E+02  0.57018395998E+03  0.46999998093E+01 0.  1.
</event>
<event>
 5   0  0.4388937E-03  0.1317199E+04  0.7818609E-02  0.9016037E-01
        2   -1    0    0  501    0  0.00000000000E+00  0.00000000000E+00  0.84931911252E+03  0.84931911252E+03  0.25500000920E-02 0. -1.
       -2   -1    0    0    0  501  0.00000000000E+00  0.00000000000E+00 -0.51070685820E+03  0.51070685821E+03  0.25500000920E-02 0.  1.
    10030    2    1    2    0    0  0.00000000000E+00  0.00000000000E+00  0.33861225432E+03  0.13600259707E+04  0.13171986875E+04 0.  0.
        5    1    3    3  502    0 -0.52696636945E+03  0.36166914572E+03  0.52927299733E+01  0.63917777534E+03  0.46999998093E+01 0.  1.
       -5    1    3    3    0  502  0.52696636945E+03 -0.36166914572E+03  0.33331952434E+03  0.72084819540E+03  0.46999998093E+01 0. -1.
</event>
<event>
 5   0  0.2370801E-03  0.1285567E+04  0.7818609E-02  0.9041089E-01
       -1   -1    0    0    0  501  0.00000000000E+00  0.00000000000E+00  0.38890464065E+03  0.38890464068E+03  0.50400001928E-02 0. -1.
        1   -1    0    0  501    0  0.00000000000E+00  0.00000000000E+00 -0.10623961038E+04  0.10623961038E+04  0.50400001928E-02 0.  1.
    10030    2    1    2    0    0  0.00000000000E+00  0.00000000000E+00 -0.67349146318E+03  0.14513007445E+04  0.12855672289E+04 0.  0.
        3    1    3    3  502    0  0.55209162710E+03  0.27162155969E+03 -0.12679319123E+03  0.62821967491E+03  0.10100000352E+00 0.  1.
       -3    1    3    3    0  502 -0.55209162710E+03 -0.27162155969E+03 -0.54669827195E+03  0.82308106961E+03  0.10100000352E+00 0. -1.
</event>
<event>
 5   0  0.2511542E-03  0.1299858E+04  0.7818609E-02  0.9029678E-01
       -1   -1    0    0    0  501  0.00000000000E+00  0.00000000000E+00  0.75582954273E+03  0.75582954274E+03  0.50400001928E-02 0.  1.
        1   -1    0    0  501    0  0.00000000000E+00  0.00000000000E+00 -0.55886637866E+03  0.55886637869E+03  0.50400001928E-02 0. -1.
    10030    2    1    2    0    0  0.00000000000E+00  0.00000000000E+00  0.19696316406E+03  0.13146959214E+04  0.12998580222E+04 0.  0.
        4    1    3    3  502    0 -0.12195561502E+03  0.46498219906E+03 -0.34391796939E+03  0.59106920073E+03  0.12699999809E+01 0. -1.
       -4    1    3    3    0  502  0.12195561502E+03 -0.46498219906E+03  0.54088113346E+03  0.72362672070E+03  0.12699999809E+01 0.  1.
</event>
<event>
 5   0  0.2370801E-03  0.1306374E+04  0.7818609E-02  0.9024526E-01
       -1   -1    0    0    0  501  0.00000000000E+00  0.00000000000E+00  0.24285705797E+03  0.24285705803E+03  0.50400001928E-02 0. -1.
        1   -1    0    0  501    0  0.00000000000E+00  0.00000000000E+00 -0.17568085333E+04  0.17568085334E+04  0.50400001928E-02 0.  1.
    10030    2    1    2    0    0  0.00000000000E+00  0.00000000000E+00 -0.15139514754E+04  0.19996655914E+04  0.13063741453E+04 0.  0.
        3    1    3    3  502    0 -0.13966117150E+03 -0.63116843906E+03 -0.90035983821E+03  0.11083892321E+04  0.10100000352E+00 0.  1.
       -3    1    3    3    0  502  0.13966117150E+03  0.63116843906E+03 -0.61359163717E+03  0.89127635932E+03  0.10100000352E+00 0. -1.
</event>
<event>
 5   0  0.2370801E-03  0.1300049E+04  0.7818609E-02  0.9029527E-01
       -1   -1    0    0    0  501  0.00000000000E+00  0.00000000000E+00  0.44522272343E+03  0.44522272345E+03  0.50400001928E-02 0. -1.
        1   -1    0    0  501    0  0.00000000000E+00  0.00000000000E+00 -0.94903435136E+03  0.94903435138E+03  0.50400001928E-02 0.  1.
    10030    2    1    2    0    0  0.00000000000E+00  0.00000000000E+00 -0.50381162794E+03  0.13942570748E+04  0.13000487046E+04 0.  0.
        3    1    3    3  502    0  0.35459448459E+03  0.52343929561E+03 -0.41386477144E+03  0.75565203892E+03  0.10100000352E+00 0.  1.
       -3    1    3    3    0  502 -0.35459448459E+03 -0.52343929561E+03 -0.89946856502E+02  0.63860503591E+03  0.10100000352E+00 0. -1.
</event>
<event>
 5   0  0.4263540E-03  0.1410064E+04  0.7818609E-02  0.8946566E-01
        2   -1    0    0  501    0  0.00000000000E+00  0.00000000000E+00  0.97430474115E+03  0.97430474116E+03  0.25500000920E-02 0.  1.
       -2   -1    0    0    0  501  0.00000000000E+00  0.00000000000E+00 -0.51017944740E+03  0.51017944740E+03  0.25500000920E-02 0. -1.
    10030    2    1    2    0    0  0.00000000000E+00  0.00000000000E+00  0.46412529376E+03  0.14844841886E+04  0.14100641892E+04 0.  0.
        2    1    3    3  502    0  0.25055314578E+03 -0.97105333064E+02  0.91827988574E+03  0.95678852059E+03  0.25500000920E-02 0.  1.
       -2    1    3    3    0  502 -0.25055314578E+03  0.97105333064E+02 -0.45415459198E+03  0.52769566797E+03  0.25500000920E-02 0. -1.
</event>
<event>
 5   0  0.2458456E-03  0.1230191E+04  0.7818609E-02  0.9086833E-01
       -1   -1    0    0    0  501  0.00000000000E+00  0.00000000000E+00  0.83458048246E+03  0.83458048248E+03  0.50400001928E-02 0.  1.
        1   -1    0    0  501    0  0.00000000000E+00  0.00000000000E+00 -0.45333276485E+03  0.45333276487E+03  0.50400001928E-02 0. -1.
    10030    2    1    2    0    0  0.00000000000E+00  0.00000000000E+00  0.38124771762E+03  0.12879132474E+04  0.12301913309E+04 0.  0.
        5    1    3    3  502    0 -0.29924284183E+03 -0.49814339615E+03  0.40164395493E+03  0.70642273324E+03  0.46999998093E+01 0.  1.
       -5    1    3    3    0  502  0.29924284183E+03  0.49814339615E+03 -0.20396237310E+02  0.58149051411E+03  0.46999998093E+01 0. -1.
</event>
<event>
 5   0  0.2462055E-03  0.1330096E+04  0.7818609E-02  0.9006033E-01
        1   -1    0    0  501    0  0.00000000000E+00  0.00000000000E+00  0.89394211600E+03  0.89394211602E+03  0.50400001928E-02 0.  1.
       -1   -1    0    0    0  501  0.00000000000E+00  0.00000000000E+00 -0.49476247759E+03  0.49476247761E+03  0.50400001928E-02 0. -1.
    10030    2    1    2    0    0  0.00000000000E+00  0.00000000000E+00  0.39917963842E+03  0.13887045936E+04  0.13300962614E+04 0.  0.
        2    1    3    3  502    0 -0.58824657409E+02 -0.54663017261E+03  0.59027617215E+03  0.80665410514E+03  0.25500000920E-02 0.  1.
       -2    1    3    3    0  502  0.58824657409E+02  0.54663017261E+03 -0.19109653373E+03  0.58205048848E+03  0.25500000920E-02 0. -1.
</event>
<event>
 5   0  0.2370801E-03  0.1301409E+04  0.7818609E-02  0.9028448E-01
        1   -1    0    0  501    0  0.00000000000E+00  0.00000000000E+00  0.81359645170E+03  0.81359645171E+03  0.50400001928E-02 0. -1.
       -1   -1    0    0    0  501  0.00000000000E+00  0.00000000000E+00 -0.52042558926E+03  0.52042558928E+03  0.50400001928E-02 0.  1.
    10030    2    1    2    0    0  0.00000000000E+00  0.00000000000E+00  0.29317086244E+03  0.13340220410E+04  0.13014091022E+04 0.  0.
        3    1    3    3  502    0  0.17607027150E+03 -0.44790253866E+03 -0.30233803710E+03  0.56835351985E+03  0.10100000352E+00 0.  1.
       -3    1    3    3    0  502 -0.17607027150E+03  0.44790253866E+03  0.59550889954E+03  0.76566852115E+03  0.10100000352E+00 0. -1.
</event>
<event>
 5   0  0.4453011E-03  0.1359035E+04  0.7818609E-02  0.8984017E-01
       -2   -1    0    0    0  501  0.00000000000E+00  0.00000000000E+00  0.47444104787E+03  0.47444104787E+03  0.25500000920E-02 0. -1.
        2   -1    0    0  501    0  0.00000000000E+00  0.00000000000E+00 -0.97323739733E+03  0.97323739734E+03  0.25500000920E-02 0.  1.
    10030    2    1    2    0    0  0.00000000000E+00  0.00000000000E+00 -0.49879634947E+03  0.14476784452E+04  0.13590346142E+04 0.  0.
        1    1    3    3  502    0 -0.52111848145E+03 -0.34059761247E+03 -0.53950853586E+03  0.82379649526E+03  0.50400001928E-02 0.  1.
       -1    1    3    3    0  502  0.52111848145E+03  0.34059761247E+03  0.40712186389E+02  0.62388194995E+03  0.50400001928E-02 0. -1.
</event>
<event>
 5   0  0.4263540E-03  0.1753872E+04  0.7818609E-02  0.8731222E-01
        2   -1    0    0  501    0  0.00000000000E+00  0.00000000000E+00  0.10434636402E+04  0.10434636402E+04  0.25500000920E-02 0. -1.
       -2   -1    0    0    0  501  0.00000000000E+00  0.00000000000E+00 -0.73698437628E+03  0.73698437629E+03  0.25500000920E-02 0.  1.
    10030    2    1    2    0    0  0.00000000000E+00  0.00000000000E+00  0.30647926387E+03  0.17804480164E+04  0.17538716031E+04 0.  0.
        2    1    3    3  502    0 -0.78143796611E+03  0.93063142743E+02  0.54602691998E+03  0.95783685498E+03  0.25500000920E-02 0. -1.
       -2    1    3    3    0  502  0.78143796611E+03 -0.93063142743E+02 -0.23954765611E+03  0.82261116146E+03  0.25500000920E-02 0.  1.
</event>
<event>
 5   0  0.2370801E-03  0.1332039E+04  0.7818609E-02  0.9004536E-01
       -1   -1    0    0    0  501  0.00000000000E+00  0.00000000000E+00  0.39140379717E+03  0.39140379720E+03  0.50400001928E-02 0.  1.
        1   -1    0    0  501    0  0.00000000000E+00  0.00000000000E+00 -0.11333110970E+04  0.11333110970E+04  0.50400001928E-02 0. -1.
    10030    2    1    2    0    0  0.00000000000E+00  0.00000000000E+00 -0.74190729983E+03  0.15247148942E+04  0.13320394390E+04 0.  0.
        3    1    3    3  502    0 -0.18215995347E+03 -0.60098852284E+03 -0.11702563858E+03  0.63879923570E+03  0.10100000352E+00 0.  1.
       -3    1    3    3    0  502  0.18215995347E+03  0.60098852284E+03 -0.62488166125E+03  0.88591565852E+03  0.10100000352E+00 0. -1.
</event>
<event>
 5   0  0.4453011E-03  0.1347253E+04  0.7818609E-02  0.8992910E-01
        2   -1    0    0  501    0  0.00000000000E+00  0.00000000000E+00  0.70212833688E+03  0.70212833689E+03  0.25500000920E-02 0.  1.
       -2   -1    0    0    0  501  0.00000000000E+00  0.00000000000E+00 -0.64628199834E+03  0.64628199835E+03  0.25500000920E-02 0. -1.
    10030    2    1    2    0    0  0.00000000000E+00  0.00000000000E+00  0.55846338542E+02  0.13484103352E+04  0.13472533610E+04 0.  0.
        1    1    3    3  502    0 -0.33185622202E+03  0.51056820827E+03 -0.26035969946E+03  0.66226552116E+03  0.50400001928E-02 0.  1.
       -1    1    3    3    0  502  0.33185622202E+03 -0.51056820827E+03  0.31620603800E+03  0.68614481408E+03  0.50400001928E-02 0. -1.
</event>
<event>
 5   0  0.2356769E-03  0.1295703E+04  0.7818609E-02  0.9032980E-01
       -1   -1    0    0    0  501  0.00000000000E+00  0.00000000000E+00  0.10020151075E+04  0.10020151075E+04  0.50400001928E-02 0. -1.
        1   -1    0    0  501    0  0.00000000000E+00  0.00000000000E+00 -0.41886759573E+03  0.41886759576E+03  0.50400001928E-02 0.  1.
    10030    2    1    2    0    0  0.00000000000E+00  0.00000000000E+00  0.58314751175E+03  0.14208827033E+04  0.12957031434E+04 0.  0.
        1    1    3    3  502    0  0.61112464574E+02 -0.41801601661E+03  0.83018691157E+03  0.93149472980E+03  0.50400001928E-02 0. -1.
       -1    1    3    3    0  502 -0.61112464574E+02  0.41801601661E+03 -0.24703939982E+03  0.48938797345E+03  0.50400001928E-02 0.  1.
</event>
<event>
 5   0  0.2370801E-03  0.1236043E+04  0.7818609E-02  0.9081880E-01
        1   -1    0    0  501    0  0.00000000000E+00  0.00000000000E+00  0.77691848195E+03  0.77691848196E+03  0.50400001928E-02 0.  1.
       -1   -1    0    0    0  501  0.00000000000E+00  0.00000000000E+00 -0.49162247730E+03  0.49162247732E+03  0.50400001928E-02 0. -1.
    10030    2    1    2    0    0  0.00000000000E+00  0.00000000000E+00  0.28529600465E+03  0.12685409593E+04  0.12360430232E+04 0.  0.
        3    1    3    3  502    0  0.15288466774E+03 -0.57153461032E+03  0.32602154432E+03  0.67551135445E+03  0.10100000352E+00 0.  1.
       -3    1    3    3    0  502 -0.15288466774E+03  0.57153461032E+03 -0.40725539669E+02  0.59302960484E+03  0.10100000352E+00 0. -1.
</event>
<event>
 5   0  0.4310889E-03  0.1285801E+04  0.7818609E-02  0.9040901E-01
       -2   -1    0    0    0  501  0.00000000000E+00  0.00000000000E+00  0.25236958093E+03  0.25236958094E+03  0.25500000920E-02 0.  1.
        2   -1    0    0  501    0  0.00000000000E+00  0.00000000000E+00 -0.16377612078E+04  0.16377612078E+04  0.25500000920E-02 0. -1.
    10030    2    1    2    0    0  0.00000000000E+00  0.00000000000E+00 -0.13853916269E+04  0.18901307888E+04  0.12858010883E+04 0.  0.
        4    1    3    3  502    0  0.15679888371E+03  0.22812535718E+03 -0.15456677492E+04  0.15702603200E+04  0.12699999809E+01 0. -1.
       -4    1    3    3    0  502 -0.15679888371E+03 -0.22812535718E+03  0.16027612234E+03  0.31987046880E+03  0.12699999809E+01 0.  1.
</event>
<event>
 5   0  0.4388937E-03  0.1188244E+04  0.7818609E-02  0.9123209E-01
       -2   -1    0    0    0  501  0.00000000000E+00  0.00000000000E+00  0.47340959838E+03  0.47340959839E+03  0.25500000920E-02 0. -1.
        2   -1    0    0  501    0  0.00000000000E+00  0.00000000000E+00 -0.74561441471E+03  0.74561441472E+03  0.25500000920E-02 0.  1.
    10030    2    1    2    0    0  0.00000000000E+00  0.00000000000E+00 -0.27220481633E+03  0.12190240131E+04  0.11882441174E+04 0.  0.
        5    1    3    3  502    0  0.32606830778E+03  0.21115606910E+03  0.32504272688E+03  0.50653952575E+03  0.46999998093E+01 0. -1.
       -5    1    3    3    0  502 -0.32606830778E+03 -0.21115606910E+03 -0.59724754320E+03  0.71248448735E+03  0.46999998093E+01 0.  1.
</event>
<event>
 5   0  0.1661750E-03  0.1249615E+04  0.7818609E-02  0.9070504E-01
       -3   -1    0    0    0  501  0.00000000000E+00  0.00000000000E+00  0.19978013966E+03  0.19978016519E+03  0.10100000352E+00 0.  1.
        3   -1    0    0  501    0  0.00000000000E+00  0.00000000000E+00 -0.19540709145E+04  0.19540709171E+04  0.10100000352E+00 0. -1.
    10030    2    1    2    0    0  0.00000000000E+00  0.00000000000E+00 -0.17542907748E+04  0.21538510823E+04  0.12496152856E+04 0.  0.
        4    1    3    3  502    0  0.56311449160E+03 -0.85892000067E+02 -0.43465164892E+03  0.71651869141E+03  0.12699999809E+01 0.  1.
       -4    1    3    3    0  502 -0.56311449160E+03  0.85892000067E+02 -0.13196391259E+04  0.14373323908E+04  0.12699999809E+01 0. -1.
</event>
<event>
 5   0  0.4453011E-03  0.1215140E+04  0.7818609E-02  0.9099707E-01
       -2   -1    0    0    0  501  0.00000000000E+00  0.00000000000E+00  0.29527093757E+03  0.29527093758E+03  0.25500000920E-02 0. -1.
        2   -1    0    0  501    0  0.00000000000E+00  0.00000000000E+00 -0.12501787376E+04  0.12501787376E+04  0.25500000920E-02 0.  1.
    10030    2    1    2    0    0  0.00000000000E+00  0.00000000000E+00 -0.95490780002E+03  0.15454496752E+04  0.12151402355E+04 0.  0.
        1    1    3    3  502    0 -0.27708863839E+03  0.38043210493E+03 -0.96613186845E+03  0.10746708739E+04  0.50400001928E-02 0.  1.
       -1    1    3    3    0  502  0.27708863839E+03 -0.38043210493E+03  0.11224068421E+02  0.47077880127E+03  0.50400001928E-02 0. -1.
</event>
<event>
 5   0  0.4388937E-03  0.1193915E+04  0.7818609E-02  0.9118200E-01
       -2   -1    0    0    0  501  0.00000000000E+00  0.00000000000E+00  0.40174581227E+03  0.40174581228E+03  0.25500000920E-02 0.  1.
        2   -1    0    0  501    0  0.00000000000E+00  0.00000000000E+00 -0.88702396529E+03  0.88702396529E+03  0.25500000920E-02 0. -1.
    10030    2    1    2    0    0  0.00000000000E+00  0.00000000000E+00 -0.48527815302E+03  0.12887697776E+04  0.11939148436E+04 0.  0.
        5    1    3    3  502    0 -0.47780629112E+02  0.20364578952E+02  0.39928206712E+03  0.40267352001E+03  0.46999998093E+01 0.  1.
       -5    1    3    3    0  502  0.47780629112E+02 -0.20364578952E+02 -0.88456022014E+03  0.88609625755E+03  0.46999998093E+01 0. -1.
</event>
<event>
 5   0  0.4310889E-03  0.1280713E+04  0.7818609E-02  0.9045001E-01
        2   -1    0    0  501    0  0.00000000000E+00  0.00000000000E+00  0.21853376118E+04  0.21853376118E+04  0.25500000920E-02 0. -1.
       -2   -1    0    0    0  501  0.00000000000E+00  0.00000000000E+00 -0.18763986650E+03  0.18763986652E+03  0.25500000920E-02 0.  1.
    10030    2    1    2    0    0  0.00000000000E+00  0.00000000000E+00  0.19976977453E+04  0.23729774783E+04  0.12807130167E+04 0.  0.
        4    1    3    3  502    0 -0.39922512551E+03  0.48094442386E+03  0.12566997077E+04  0.14035611878E+04  0.12699999809E+01 0. -1.
       -4    1    3    3    0  502  0.39922512551E+03 -0.48094442386E+03  0.74099803756E+03  0.96941629048E+03  0.12699999809E+01 0.  1.
</event>
<event>
 5   0  0.2370801E-03  0.1302620E+04  0.7818609E-02  0.9027490E-01
       -1   -1    0    0    0  501  0.00000000000E+00  0.00000000000E+00  0.11662092112E+04  0.11662092112E+04  0.50400001928E-02 0. -1.
        1   -1    0    0  501    0  0.00000000000E+00  0.00000000000E+00 -0.36374681804E+03  0.36374681807E+03  0.50400001928E-02 0.  1.
    10030    2    1    2    0    0  0.00000000000E+00  0.00000000000E+00  0.80246239318E+03  0.15299560293E+04  0.13026202667E+04 0.  0.
        3    1    3    3  502    0  0.36029585310E+03  0.28134969335E+03  0.94613104373E+03  0.10507781468E+04  0.10100000352E+00 0. -1.
       -3    1    3    3    0  502 -0.36029585310E+03 -0.28134969335E+03 -0.14366865055E+03  0.47917788248E+03  0.10100000352E+00 0.  1.
</event>
<event>
 5   0  0.2370801E-03  0.1237168E+04  0.7818609E-02  0.9080931E-01
       -1   -1    0    0    0  501  0.00000000000E+00  0.00000000000E+00  0.45769683408E+03  0.45769683410E+03  0.50400001928E-02 0. -1.
        1   -1    0    0  501    0  0.00000000000E+00  0.00000000000E+00 -0.83602525640E+03  0.83602525642E+03  0.50400001928E-02 0.  1.
    10030    2    1    2    0    0  0.00000000000E+00  0.00000000000E+00 -0.37832842233E+03  0.12937220905E+04  0.12371679160E+04 0.  0.
        3    1    3    3  502    0  0.53869881778E+03  0.20459940988E+02 -0.50639811700E+03  0.73963104895E+03  0.10100000352E+00 0. -1.
       -3    1    3    3    0  502 -0.53869881778E+03 -0.20459940988E+02  0.12806969467E+03  0.55409104158E+03  0.10100000352E+00 0.  1.
</event>
<event>
 5   0  0.4306214E-03  0.1342646E+04  0.7818609E-02  0.8996414E-01
       -2   -1    0    0    0  501  0.00000000000E+00  0.00000000000E+00  0.68217914360E+03  0.68217914360E+03  0.25500000920E-02 0. -1.
        2   -1    0    0  501    0  0.00000000000E+00  0.00000000000E+00 -0.66063978718E+03  0.66063978719E+03  0.25500000920E-02 0.  1.
    10030    2    1    2    0    0  0.00000000000E+00  0.00000000000E+00  0.21539356418E+02  0.13428189308E+04  0.13426461697E+04 0.  0.
        3    1    3    3  502    0 -0.58183725538E+03  0.24101795049E+03 -0.22174771965E+03  0.66767979270E+03  0.10100000352E+00 0.  1.
       -3    1    3    3    0  502  0.58183725538E+03 -0.24101795049E+03  0.24328707607E+03  0.67513913809E+03  0.10100000352E+00 0. -1.
</event>
<event>
 5   0  0.4310889E-03  0.1293488E+04  0.7818609E-02  0.9034745E-01
        2   -1    0    0  501    0  0.00000000000E+00  0.00000000000E+00  0.15846756739E+04  0.15846756739E+04  0.25500000920E-02 0. -1.
       -2   -1    0    0    0  501  0.00000000000E+00  0.00000000000E+00 -0.26395178603E+03  0.26395178604E+03  0.25500000920E-02 0.  1.
    10030    2    1    2    0    0  0.00000000000E+00  0.00000000000E+00  0.13207238879E+04  0.18486274600E+04  0.12934882673E+04 0.  0.
        4    1    3    3  502    0  0.44787006705E+03 -0.39287649430E+03  0.10200409172E+04  0.11812809244E+04  0.12699999809E+01 0. -1.
       -4    1    3    3    0  502 -0.44787006705E+03  0.39287649430E+03  0.30068297070E+03  0.66734653554E+03  0.12699999809E+01 0.  1.
</event>
<event>
 5   0  0.2462055E-03  0.1262351E+04  0.7818609E-02  0.9059966E-01
       -1   -1    0    0    0  501  0.00000000000E+00  0.00000000000E+00  0.23383599259E+03  0.23383599265E+03  0.50400001928E-02 0. -1.
        1   -1    0    0  501    0  0.00000000000E+00  0.00000000000E+00 -0.17036822819E+04  0.17036822819E+04  0.50400001928E-02 0.  1.
    10030    2    1    2    0    0  0.00000000000E+00  0.00000000000E+00 -0.14698462893E+04  0.19375182745E+04  0.12623505654E+04 0.  0.
        2    1    3    3  502    0 -0.47346230842E+03  0.12685584725E+03 -0.12459453611E+03  0.50574970283E+03  0.25500000920E-02 0. -1.
       -2    1    3    3    0  502  0.47346230842E+03 -0.12685584725E+03 -0.13452517532E+04  0.14317685717E+04  0.25500000920E-02 0.  1.
</event>
<event>
 5   0  0.2356769E-03  0.1265150E+04  0.7818609E-02  0.9057667E-01
       -1   -1    0    0    0  501  0.00000000000E+00  0.00000000000E+00  0.10278581637E+04  0.10278581638E+04  0.50400001928E-02 0. -1.
        1   -1    0    0  501    0  0.00000000000E+00  0.00000000000E+00 -0.38930582596E+03  0.38930582599E+03  0.50400001928E-02 0.  1.
    10030    2    1    2    0    0  0.00000000000E+00  0.00000000000E+00  0.63855233778E+03  0.14171639897E+04  0.12651500645E+04 0.  0.
        1    1    3    3  502    0  0.35674825493E+03 -0.73164926077E+02  0.89865589564E+03  0.96964160523E+03  0.50400001928E-02 0. -1.
       -1    1    3    3    0  502 -0.35674825493E+03  0.73164926077E+02 -0.26010355786E+03  0.44752238451E+03  0.50400001928E-02 0.  1.
</event>
<event>
 5   0  0.2462055E-03  0.1317003E+04  0.7818609E-02  0.9016189E-01
       -1   -1    0    0    0  501  0.00000000000E+00  0.00000000000E+00  0.47208557730E+03  0.47208557733E+03  0.50400001928E-02 0.  1.
        1   -1    0    0  501    0  0.00000000000E+00  0.00000000000E+00 -0.91852934040E+03  0.91852934041E+03  0.50400001928E-02 0. -1.
    10030    2    1    2    0    0  0.00000000000E+00  0.00000000000E+00 -0.44644376309E+03  0.13906149177E+04  0.13170033469E+04 0.  0.
        2    1    3    3  502    0 -0.38386851018E+03 -0.95914011467E+02 -0.77901696090E+03  0.87374021086E+03  0.25500000920E-02 0. -1.
       -2    1    3    3    0  502  0.38386851018E+03  0.95914011467E+02  0.33257319781E+03  0.51687470688E+03  0.25500000920E-02 0.  1.
</event>
<event>
 5   0  0.1661750E-03  0.1310487E+04  0.7818609E-02  0.9021290E-01
        3   -1    0    0  501    0  0.00000000000E+00  0.00000000000E+00  0.83583350586E+03  0.83583351197E+03  0.10100000352E+00 0. -1.
       -3   -1    0    0    0  501  0.00000000000E+00  0.00000000000E+00 -0.51367146928E+03  0.51367147921E+03  0.10100000352E+00 0.  1.
    10030    2    1    2    0    0  0.00000000000E+00  0.00000000000E+00  0.32216203658E+03  0.13495049912E+04  0.13104866819E+04 0.  0.
        3    1    3    3  502    0  0.88847243200E+02 -0.19824143751E+03 -0.47550779180E+03  0.52278214434E+03  0.10100000352E+00 0.  1.
       -3    1    3    3    0  502 -0.88847243200E+02  0.19824143751E+03  0.79766982838E+03  0.82672284684E+03  0.10100000352E+00 0. -1.
</event>
<event>
 5   0  0.4310889E-03  0.1295130E+04  0.7818609E-02  0.9033436E-01
        2   -1    0    0  501    0  0.00000000000E+00  0.00000000000E+00  0.92413987424E+03  0.92413987424E+03  0.25500000920E-02 0. -1.
       -2   -1    0    0    0  501  0.00000000000E+00  0.00000000000E+00 -0.45376285430E+03  0.45376285431E+03  0.25500000920E-02 0.  1.
    10030    2    1    2    0    0  0.00000000000E+00  0.00000000000E+00  0.47037701994E+03  0.13779027285E+04  0.12951298732E+04 0.  0.
        4    1    3    3  502    0 -0.49888097855E+03 -0.21741252962E+03  0.60860196465E+03  0.81642415635E+03  0.12699999809E+01 0. -1.
       -4    1    3    3    0  502  0.49888097855E+03  0.21741252962E+03 -0.13822494472E+03  0.56147857220E+03  0.12699999809E+01 0.  1.
</event>
<event>
 5   0  0.4310889E-03  0.1397461E+04  0.7818609E-02  0.8955658E-01
       -2   -1    0    0    0  501  0.00000000000E+00  0.00000000000E+00  0.23220580179E+03  0.23220580181E+03  0.25500000920E-02 0.  1.
        2   -1    0    0  501    0  0.00000000000E+00  0.00000000000E+00 -0.21025508098E+04  0.21025508098E+04  0.25500000920E-02 0. -1.
    10030    2    1    2    0    0  0.00000000000E+00  0.00000000000E+00 -0.18703450080E+04  0.23347566116E+04  0.13974612647E+04 0.  0.
        4    1    3    3  502    0  0.69249705084E+03 -0.75406048860E+02 -0.84389825759E+03  0.10942596217E+04  0.12699999809E+01 0. -1.
       -4    1    3    3    0  502 -0.69249705084E+03  0.75406048860E+02 -0.10264467504E+04  0.12404969899E+04  0.12699999809E+01 0.  1.
</event>
<event>
 5   0  0.4388937E-03  0.1359799E+04  0.7818609E-02  0.8983444E-01
       -2   -1    0    0    0  501  0.00000000000E+00  0.00000000000E+00  0.29154290020E+03  0.29154290022E+03  0.25500000920E-02 0.  1.
        2   -1    0    0  501    0  0.00000000000E+00  0.00000000000E+00 -0.15855746103E+04  0.15855746103E+04  0.25500000920E-02 0. -1.
    10030    2    1    2    0    0  0.00000000000E+00  0.00000000000E+00 -0.12940317101E+04  0.18771175105E+04  0.13597985445E+04 0.  0.
        5    1    3    3  502    0  0.45029474160E+03 -0.15720294518E+03 -0.13158701786E+04  0.13996480047E+04  0.46999998093E+01 0. -1.
       -5    1    3    3    0  502 -0.45029474160E+03  0.15720294518E+03  0.21838468448E+02  0.47746950582E+03  0.46999998093E+01 0.  1.
</event>
<event>
 5   0  0.2370801E-03  0.1314187E+04  0.7818609E-02  0.9018390E-01
       -1   -1    0    0    0  501  0.00000000000E+00  0.00000000000E+00  0.68012510213E+03  0.68012510214E+03  0.50400001928E-02 0. -1.
        1   -1    0    0  501    0  0.00000000000E+00  0.00000000000E+00 -0.63484175698E+03  0.63484175700E+03  0.50400001928E-02 0.  1.
    10030    2    1    2    0    0  0.00000000000E+00  0.00000000000E+00  0.45283345150E+02  0.13149668591E+04  0.13141869195E+04 0.  0.
        3    1    3    3  502    0  0.43538211515E+03 -0.48022137174E+03  0.13041656421E+03  0.66119485970E+03  0.10100000352E+00 0.  1.
       -3    1    3    3    0  502 -0.43538211515E+03  0.48022137174E+03 -0.85133219059E+02  0.65377199944E+03  0.10100000352E+00 0. -1.
</event>
<event>
 5   0  0.2462055E-03  0.1298727E+04  0.7818609E-02  0.9030575E-01
       -1   -1    0    0    0  501  0.00000000000E+00  0.00000000000E+00  0.30493644917E+03  0.30493644921E+03  0.50400001928E-02 0.  1.
        1   -1    0    0  501    0  0.00000000000E+00  0.00000000000E+00 -0.13828220949E+04  0.13828220949E+04  0.50400001928E-02 0. -1.
    10030    2    1    2    0    0  0.00000000000E+00  0.00000000000E+00 -0.10778856457E+04  0.16877585441E+04  0.12987268527E+04 0.  0.
        2    1    3    3  502    0 -0.70546225160E+02 -0.14599335955E+03  0.27820562047E+03  0.32200807161E+03  0.25500000920E-02 0.  1.
       -2    1    3    3    0  502  0.70546225160E+02  0.14599335955E+03 -0.13560912662E+04  0.13657504725E+04  0.25500000920E-02 0. -1.
</event>
<event>
 5   0  0.4453011E-03  0.1277114E+04  0.7818609E-02  0.9047913E-01
       -2   -1    0    0    0  501  0.00000000000E+00  0.00000000000E+00  0.43373880465E+03  0.43373880466E+03  0.25500000920E-02 0.  1.
        2   -1    0    0  501    0  0.00000000000E+00  0.00000000000E+00 -0.94009398948E+03  0.94009398949E+03  0.25500000920E-02 0. -1.
    10030    2    1    2    0    0  0.00000000000E+00  0.00000000000E+00 -0.50635518483E+03  0.13738327941E+04  0.12771143148E+04 0.  0.
        1    1    3    3  502    0 -0.15200727429E+03  0.39676613421E+03 -0.76595962470E+03  0.87591307982E+03  0.50400001928E-02 0. -1.
       -1    1    3    3    0  502  0.15200727429E+03 -0.39676613421E+03  0.25960443987E+03  0.49791971433E+03  0.50400001928E-02 0.  1.
</event>
<event>
 5   0  0.2511542E-03  0.8844091E+03  0.7818609E-02  0.9445283E-01
        1   -1    0    0  501    0  0.00000000000E+00  0.00000000000E+00  0.54374772418E+03  0.54374772421E+03  0.50400001928E-02 0.  1.
       -1   -1    0    0    0  501  0.00000000000E+00  0.00000000000E+00 -0.35962427411E+03  0.35962427414E+03  0.50400001928E-02 0. -1.
    10030    2    1    2    0    0  0.00000000000E+00  0.00000000000E+00  0.18412345008E+03  0.90337199835E+03  0.88440913752E+03 0.  0.
        4    1    3    3  502    0 -0.23284747155E+03  0.24259761863E+03 -0.20127465280E+03  0.39189877307E+03  0.12699999809E+01 0. -1.
       -4    1    3    3    0  502  0.23284747155E+03 -0.24259761863E+03  0.38539810288E+03  0.51147322528E+03  0.12699999809E+01 0.  1.
</event>
<event>
 5   0  0.4310889E-03  0.1369392E+04  0.7818609E-02  0.8976277E-01
        2   -1    0    0  501    0  0.00000000000E+00  0.00000000000E+00  0.13762623201E+04  0.13762623201E+04  0.25500000920E-02 0.  1.
       -2   -1    0    0    0  501  0.00000000000E+00  0.00000000000E+00 -0.34063894853E+03  0.34063894854E+03  0.25500000920E-02 0. -1.
    10030    2    1    2    0    0  0.00000000000E+00  0.00000000000E+00  0.10356233715E+04  0.17169012686E+04  0.13693919083E+04 0.  0.
        4    1    3    3  502    0 -0.24241897878E+03 -0.10965415952E+03 -0.27317249382E+03  0.38133426315E+03  0.12699999809E+01 0. -1.
       -4    1    3    3    0  502  0.24241897878E+03  0.10965415952E+03  0.13087958654E+04  0.13355670054E+04  0.12699999809E+01 0.  1.
</event>
<event>
 5   0  0.1661750E-03  0.1280540E+04  0.7818609E-02  0.9045141E-01
       -3   -1    0    0    0  501  0.00000000000E+00  0.00000000000E+00  0.84813172444E+03  0.84813173045E+03  0.10100000352E+00 0. -1.
        3   -1    0    0  501    0  0.00000000000E+00  0.00000000000E+00 -0.48335111351E+03  0.48335112406E+03  0.10100000352E+00 0.  1.
    10030    2    1    2    0    0  0.00000000000E+00  0.00000000000E+00  0.36478061093E+03  0.13314828545E+04  0.12805396119E+04 0.  0.
        4    1    3    3  502    0  0.59425821164E+03  0.22932266253E+03  0.11490764420E+03  0.64725349381E+03  0.12699999809E+01 0.  1.
       -4    1    3    3    0  502 -0.59425821164E+03 -0.22932266253E+03  0.24987296673E+03  0.68422936071E+03  0.12699999809E+01 0. -1.
</event>
<event>
 5   0  0.4263540E-03  0.1310863E+04  0.7818609E-02  0.9020995E-01
        2   -1    0    0  501    0  0.00000000000E+00  0.00000000000E+00  0.10155034181E+04  0.10155034181E+04  0.25500000920E-02 0.  1.
       -2   -1    0    0    0  501  0.00000000000E+00  0.00000000000E+00 -0.42303194807E+03  0.42303194808E+03  0.25500000920E-02 0. -1.
    10030    2    1    2    0    0  0.00000000000E+00  0.00000000000E+00  0.59247146998E+03  0.14385353661E+04  0.13108629055E+04 0.  0.
        2    1    3    3  502    0 -0.15614002897E+03 -0.37732508951E+03 -0.26637248333E+03  0.48755331165E+03  0.25500000920E-02 0.  1.
       -2    1    3    3    0  502  0.15614002897E+03  0.37732508951E+03  0.85884395331E+03  0.95098205449E+03  0.25500000920E-02 0. -1.
</event>
<event>
 5   0  0.2511542E-03  0.1338713E+04  0.7818609E-02  0.8999417E-01
        1   -1    0    0  501    0  0.00000000000E+00  0.00000000000E+00  0.15437529854E+04  0.15437529854E+04  0.50400001928E-02 0. -1.
       -1   -1    0    0    0  501  0.00000000000E+00  0.00000000000E+00 -0.29022649118E+03  0.29022649122E+03  0.50400001928E-02 0.  1.
    10030    2    1    2    0    0  0.00000000000E+00  0.00000000000E+00  0.12535264943E+04  0.18339794767E+04  0.13387128329E+04 0.  0.
        4    1    3    3  502    0 -0.21818322900E+03  0.41898586595E+03 -0.22896066414E+02  0.47294705839E+03  0.12699999809E+01 0.  1.
       -4    1    3    3    0  502  0.21818322900E+03 -0.41898586595E+03  0.12764225607E+04  0.13610324183E+04  0.12699999809E+01 0. -1.
</event>
<event>
 5   0  0.4310889E-03  0.1285234E+04  0.7818609E-02  0.9041358E-01
        2   -1    0    0  501    0  0.00000000000E+00  0.00000000000E+00  0.29795294903E+04  0.29795294903E+04  0.25500000920E-02 0.  1.
       -2   -1    0    0    0  501  0.00000000000E+00  0.00000000000E+00 -0.13859786151E+03  0.13859786153E+03  0.25500000920E-02 0. -1.
    10030    2    1    2    0    0  0.00000000000E+00  0.00000000000E+00  0.28409316288E+04  0.31181273519E+04  0.12852336997E+04 0.  0.
        4    1    3    3  502    0  0.24440897643E+03  0.16952412574E+03  0.28024597262E+04  0.28182008990E+04  0.12699999809E+01 0.  1.
       -4    1    3    3    0  502 -0.24440897643E+03 -0.16952412574E+03  0.38471902633E+02  0.29992645292E+03  0.12699999809E+01 0. -1.
</event>
<event>
 5   0  0.2370801E-03  0.1300500E+04  0.7818609E-02  0.9029169E-01
       -1   -1    0    0    0  501  0.00000000000E+00  0.00000000000E+00  0.42413256672E+03  0.42413256675E+03  0.50400001928E-02 0. -1.
        1   -1    0    0  501    0  0.00000000000E+00  0.00000000000E+00 -0.99691721935E+03  0.99691721936E+03  0.50400001928E-02 0.  1.
    10030    2    1    2    0    0  0.00000000000E+00  0.00000000000E+00 -0.57278465263E+03  0.14210497861E+04  0.13004999947E+04 0.  0.
        3    1    3    3  502    0  0.46601839805E+03  0.44904100740E+02  0.20669712222E+03  0.51177459503E+03  0.10100000352E+00 0. -1.
       -3    1    3    3    0  502 -0.46601839805E+03 -0.44904100740E+02 -0.77948177485E+03  0.90927519108E+03  0.10100000352E+00 0.  1.
</event>
<event>
 5   0  0.4388937E-03  0.1300050E+04  0.7818609E-02  0.9029525E-01
       -2   -1    0    0    0  501  0.00000000000E+00  0.00000000000E+00  0.40695629351E+03  0.40695629352E+03  0.25500000920E-02 0.  1.
        2   -1    0    0  501    0  0.00000000000E+00  0.00000000000E+00 -0.10382754149E+04  0.10382754149E+04  0.25500000920E-02 0. -1.
    10030    2    1    2    0    0  0.00000000000E+00  0.00000000000E+00 -0.63131912137E+03  0.14452317084E+04  0.13000503290E+04 0.  0.
        5    1    3    3  502    0 -0.31025911485E+03 -0.56926535066E+03 -0.26367331313E+03  0.69990675369E+03  0.46999998093E+01 0. -1.
       -5    1    3    3    0  502  0.31025911485E+03  0.56926535066E+03 -0.36764580824E+03  0.74532495472E+03  0.46999998093E+01 0.  1.
</event>
<event>
 5   0  0.4388937E-03  0.1065026E+04  0.7818609E-02  0.9239967E-01
        2   -1    0    0  501    0  0.00000000000E+00  0.00000000000E+00  0.14307171388E+04  0.14307171388E+04  0.25500000920E-02 0.  1.
       -2   -1    0    0    0  501  0.00000000000E+00  0.00000000000E+00 -0.19820126759E+03  0.19820126761E+03  0.25500000920E-02 0. -1.
    10030    2    1    2    0    0  0.00000000000E+00  0.00000000000E+00  0.12325158712E+04  0.16289184064E+04  0.10650257283E+04 0.  0.
        5    1    3    3  502    0 -0.50390044365E+03 -0.14254198410E+03  0.46865091126E+03  0.70277282316E+03  0.46999998093E+01 0. -1.
       -5    1    3    3    0  502  0.50390044365E+03  0.14254198410E+03  0.76386495990E+03  0.92614558321E+03  0.46999998093E+01 0.  1.
</event>
<event>
 5   0  0.4453011E-03  0.1054632E+04  0.7818609E-02  0.9250574E-01
       -2   -1    0    0    0  501  0.00000000000E+00  0.00000000000E+00  0.28910538499E+03  0.28910538500E+03  0.25500000920E-02 0. -1.
        2   -1    0    0  501    0  0.00000000000E+00  0.00000000000E+00 -0.96180266289E+03  0.96180266289E+03  0.25500000920E-02 0.  1.
    10030    2    1    2    0    0  0.00000000000E+00  0.00000000000E+00 -0.67269727790E+03  0.12509080479E+04  0.10546323135E+04 0.  0.
        1    1    3    3  502    0  0.37530194135E+03 -0.23317794518E+03  0.50338852873E+01  0.44186971080E+03  0.50400001928E-02 0. -1.
       -1    1    3    3    0  502 -0.37530194135E+03  0.23317794518E+03 -0.67773116319E+03  0.80903833709E+03  0.50400001928E-02 0.  1.
</event>
<event>
 5   0  0.2462055E-03  0.1279488E+04  0.7818609E-02  0.9045991E-01
        1   -1    0    0  501    0  0.00000000000E+00  0.00000000000E+00  0.29662947192E+03  0.29662947196E+03  0.50400001928E-02 0. -1.
       -1   -1    0    0    0  501  0.00000000000E+00  0.00000000000E+00 -0.13797431714E+04  0.13797431714E+04  0.50400001928E-02 0.  1.
    10030    2    1    2    0    0  0.00000000000E+00  0.00000000000E+00 -0.10831136995E+04  0.16763726434E+04  0.12794881607E+04 0.  0.
        2    1    3    3  502    0  0.37266681999E+00 -0.32727048883E+03 -0.12617638889E+04  0.13035161000E+04  0.25500000920E-02 0.  1.
       -2    1    3    3    0  502 -0.37266681999E+00  0.32727048883E+03  0.17865018940E+03  0.37285654335E+03  0.25500000920E-02 0. -1.
</event>
<event>
 5   0  0.2370801E-03  0.1250289E+04  0.7818609E-02  0.9069943E-01
        1   -1    0    0  501    0  0.00000000000E+00  0.00000000000E+00  0.12992511191E+04  0.12992511191E+04  0.50400001928E-02 0. -1.
       -1   -1    0    0    0  501  0.00000000000E+00  0.00000000000E+00 -0.30079283202E+03  0.30079283206E+03  0.50400001928E-02 0.  1.
    10030    2    1    2    0    0  0.00000000000E+00  0.00000000000E+00  0.99845828705E+03  0.16000439511E+04  0.12502886445E+04 0.  0.
        3    1    3    3  502    0  0.55178043717E+03  0.15435936103E+03  0.81920743670E+03  0.99969460223E+03  0.10100000352E+00 0. -1.
       -3    1    3    3    0  502 -0.55178043717E+03 -0.15435936103E+03  0.17925085036E+03  0.60034934891E+03  0.10100000352E+00 0.  1.
</event>
<event>
 5   0  0.2356769E-03  0.1341244E+04  0.7818609E-02  0.8997483E-01
       -1   -1    0    0    0  501  0.00000000000E+00  0.00000000000E+00  0.29363571574E+03  0.29363571578E+03  0.50400001928E-02 0. -1.
        1   -1    0    0  501    0  0.00000000000E+00  0.00000000000E+00 -0.15316043986E+04  0.15316043986E+04  0.50400001928E-02 0.  1.
    10030    2    1    2    0    0  0.00000000000E+00  0.00000000000E+00 -0.12379686828E+04  0.18252401144E+04  0.13412438314E+04 0.  0.
        1    1    3    3  502    0 -0.56789634998E+03 -0.33637961875E+03 -0.78044087479E+03  0.10221279134E+04  0.50400001928E-02 0. -1.
       -1    1    3    3    0  502  0.56789634998E+03  0.33637961875E+03 -0.45752780805E+03  0.80311220099E+03  0.50400001928E-02 0.  1.
</event>
<event>
 5   0  0.4310889E-03  0.1313326E+04  0.7818609E-02  0.9019064E-01
       -2   -1    0    0    0  501  0.00000000000E+00  0.00000000000E+00  0.39247177468E+03  0.39247177468E+03  0.25500000920E-02 0. -1.
        2   -1    0    0  501    0  0.00000000000E+00  0.00000000000E+00 -0.10986942317E+04  0.10986942317E+04  0.25500000920E-02 0.  1.
    10030    2    1    2    0    0  0.00000000000E+00  0.00000000000E+00 -0.70622245700E+03  0.14911660064E+04  0.13133262732E+04 0.  0.
        4    1    3    3  502    0 -0.30679600206E+03 -0.39219133438E+03  0.13295509880E+03  0.51537995774E+03  0.12699999809E+01 0. -1.
       -4    1    3    3    0  502  0.30679600206E+03  0.39219133438E+03 -0.83917755580E+03  0.97578604863E+03  0.12699999809E+01 0.  1.
</event>
<event>
 5   0  0.2458456E-03  0.1376342E+04  0.7818609E-02  0.8971124E-01
       -1   -1    0    0    0  501  0.00000000000E+00  0.00000000000E+00  0.76620930042E+03  0.76620930044E+03  0.50400001928E-02 0. -1.
        1   -1    0    0  501    0  0.00000000000E+00  0.00000000000E+00 -0.61808072076E+03  0.61808072078E+03  0.50400001928E-02 0.  1.
    10030    2    1    2    0    0  0.00000000000E+00  0.00000000000E+00  0.14812857967E+03  0.13842900212E+04  0.13763418132E+04 0.  0.
        5    1    3    3  502    0 -0.47983773686E+03 -0.29866229972E+03 -0.32077592995E+03  0.64989438389E+03  0.46999998093E+01 0.  1.
       -5    1    3    3    0  502  0.47983773686E+03  0.29866229972E+03  0.46890450961E+03  0.73439563732E+03  0.46999998093E+01 0. -1.
</event>
<event>
 5   0  0.2511542E-03  0.1302708E+04  0.7818609E-02  0.9027420E-01
        1   -1    0    0  501    0  0.00000000000E+00  0.00000000000E+00  0.13712166830E+04  0.13712166830E+04  0.50400001928E-02 0.  1.
       -1   -1    0    0    0  501  0.00000000000E+00  0.00000000000E+00 -0.30940573884E+03  0.30940573888E+03  0.50400001928E-02 0. -1.
    10030    2    1    2    0    0  0.00000000000E+00  0.00000000000E+00  0.10618109442E+04  0.16806224219E+04  0.13027084263E+04 0.  0.
        4    1    3    3  502    0  0.35659321663E+03  0.54409280497E+03  0.57300689911E+03  0.86691073468E+03  0.12699999809E+01 0.  1.
       -4    1    3    3    0  502 -0.35659321663E+03 -0.54409280497E+03  0.48880404509E+03  0.81371168724E+03  0.12699999809E+01 0. -1.
</event>
<event>
 5   0  0.2462055E-03  0.1293838E+04  0.7818609E-02  0.9034466E-01
       -1   -1    0    0    0  501  0.00000000000E+00  0.00000000000E+00  0.43531933651E+03  0.43531933654E+03  0.50400001928E-02 0. -1.
        1   -1    0    0  501    0  0.00000000000E+00  0.00000000000E+00 -0.96137247500E+03  0.96137247502E+03  0.50400001928E-02 0.  1.
    10030    2    1    2    0    0  0.00000000000E+00  0.00000000000E+00 -0.52605313849E+03  0.13966918116E+04  0.12938377456E+04 0.  0.
        2    1    3    3  502    0  0.18146329738E+03 -0.16591727194E+03 -0.90896410457E+03  0.94163326876E+03  0.25500000920E-02 0.  1.
       -2    1    3    3    0  502 -0.18146329738E+03  0.16591727194E+03  0.38291096608E+03  0.45505854280E+03  0.25500000920E-02 0. -1.
</event>
<event>
 5   0  0.4306214E-03  0.1289189E+04  0.7818609E-02  0.9038183E-01
        2   -1    0    0  501    0  0.00000000000E+00  0.00000000000E+00  0.16864575251E+04  0.16864575251E+04  0.25500000920E-02 0. -1.
       -2   -1    0    0    0  501  0.00000000000E+00  0.00000000000E+00 -0.24637547885E+03  0.24637547887E+03  0.25500000920E-02 0.  1.
    10030    2    1    2    0    0  0.00000000000E+00  0.00000000000E+00  0.14400820462E+04  0.19328330039E+04  0.12891885515E+04 0.  0.
        3    1    3    3  502    0  0.34074571477E+03  0.42610764022E+03  0.12346758937E+04  0.13498518200E+04  0.10100000352E+00 0. -1.
       -3    1    3    3    0  502 -0.34074571477E+03 -0.42610764022E+03  0.20540615254E+03  0.58298118399E+03  0.10100000352E+00 0.  1.
</event>
<event>
 5   0  0.4310889E-03  0.1303000E+04  0.7818609E-02  0.9027190E-01
        2   -1    0    0  501    0  0.00000000000E+00  0.00000000000E+00  0.33749540915E+03  0.33749540916E+03  0.25500000920E-02 0.  1.
       -2   -1    0    0    0  501  0.00000000000E+00  0.00000000000E+00 -0.12576527820E+04  0.12576527820E+04  0.25500000920E-02 0. -1.
    10030    2    1    2    0    0  0.00000000000E+00  0.00000000000E+00 -0.92015737286E+03  0.15951481912E+04  0.13029996780E+04 0.  0.
        4    1    3    3  502    0 -0.10815036387E+03  0.64110714136E+03 -0.40907794691E+03  0.76815444245E+03  0.12699999809E+01 0.  1.
       -4    1    3    3    0  502  0.10815036387E+03 -0.64110714136E+03 -0.51107942595E+03  0.82699374873E+03  0.12699999809E+01 0. -1.
</event>
<event>
 5   0  0.4453011E-03  0.1311694E+04  0.7818609E-02  0.9020343E-01
        2   -1    0    0  501    0  0.00000000000E+00  0.00000000000E+00  0.11417271365E+04  0.11417271365E+04  0.25500000920E-02 0.  1.
       -2   -1    0    0    0  501  0.00000000000E+00  0.00000000000E+00 -0.37674076010E+03  0.37674076011E+03  0.25500000920E-02 0. -1.
    10030    2    1    2    0    0  0.00000000000E+00  0.00000000000E+00  0.76498637640E+03  0.15184678966E+04  0.13116937893E+04 0.  0.
        1    1    3    3  502    0 -0.64959089199E+03  0.87109548378E+02  0.41034274047E+03  0.77326422720E+03  0.50400001928E-02 0. -1.
       -1    1    3    3    0  502  0.64959089199E+03 -0.87109548378E+02  0.35464363592E+03  0.74520366941E+03  0.50400001928E-02 0.  1.
</event>
<event>
 5   0  0.4306214E-03  0.1334436E+04  0.7818609E-02  0.9002695E-01
        2   -1    0    0  501    0  0.00000000000E+00  0.00000000000E+00  0.89400825617E+03  0.89400825617E+03  0.25500000920E-02 0. -1.
       -2   -1    0    0    0  501  0.00000000000E+00  0.00000000000E+00 -0.49795910238E+03  0.49795910239E+03  0.25500000920E-02 0.  1.
    10030    2    1    2    0    0  0.00000000000E+00  0.00000000000E+00  0.39604915379E+03  0.13919673586E+04  0.13344355343E+04 0.  0.
        3    1    3    3  502    0 -0.21475922607E+03 -0.62018438676E+03  0.72723534630E+02  0.66033243254E+03  0.10100000352E+00 0.  1.
       -3    1    3    3    0  502  0.21475922607E+03  0.62018438676E+03  0.32332561916E+03  0.73163492602E+03  0.10100000352E+00 0. -1.
</event>
<event>
 5   0  0.2458456E-03  0.1121617E+04  0.7818609E-02  0.9184375E-01
       -1   -1    0    0    0  501  0.00000000000E+00  0.00000000000E+00  0.11505154341E+04  0.11505154341E+04  0.50400001928E-02 0. -1.
        1   -1    0    0  501    0  0.00000000000E+00  0.00000000000E+00 -0.27336128089E+03  0.27336128093E+03  0.50400001928E-02 0.  1.
    10030    2    1    2    0    0  0.00000000000E+00  0.00000000000E+00  0.87715415323E+03  0.14238767151E+04  0.11216173551E+04 0.  0.
        5    1    3    3  502    0 -0.28462751770E+03 -0.44401591709E+03  0.19663661499E+03  0.56289520056E+03  0.46999998093E+01 0.  1.
       -5    1    3    3    0  502  0.28462751770E+03  0.44401591709E+03  0.68051753824E+03  0.86098151450E+03  0.46999998093E+01 0. -1.
</event>
<event>
 5   0  0.2511542E-03  0.1223554E+04  0.7818609E-02  0.9092486E-01
        1   -1    0    0  501    0  0.00000000000E+00  0.00000000000E+00  0.11474929564E+04  0.11474929564E+04  0.50400001928E-02 0.  1.
       -1   -1    0    0    0  501  0.00000000000E+00  0.00000000000E+00 -0.32616443496E+03  0.32616443500E+03  0.50400001928E-02 0. -1.
    10030    2    1    2    0    0  0.00000000000E+00  0.00000000000E+00  0.82132852145E+03  0.14736573914E+04  0.12235544807E+04 0.  0.
        4    1    3    3  502    0 -0.48966447282E+02 -0.37370889626E+03 -0.16972204841E+03  0.41335606772E+03  0.12699999809E+01 0. -1.
       -4    1    3    3    0  502  0.48966447282E+02  0.37370889626E+03  0.99105056987E+03  0.10603013237E+04  0.12699999809E+01 0.  1.
</event>
<event>
 5   0  0.2458456E-03  0.1097669E+04  0.7818609E-02  0.9207467E-01
       -1   -1    0    0    0  501  0.00000000000E+00  0.00000000000E+00  0.42833572662E+03  0.42833572665E+03  0.50400001928E-02 0. -1.
        1   -1    0    0  501    0  0.00000000000E+00  0.00000000000E+00 -0.70323135420E+03  0.70323135422E+03  0.50400001928E-02 0.  1.
    10030    2    1    2    0    0  0.00000000000E+00  0.00000000000E+00 -0.27489562758E+03  0.11315670809E+04  0.10976686442E+04 0.  0.
        5    1    3    3  502    0 -0.19112945624E+02  0.50173981111E+03  0.90954558090E+02  0.51029693746E+03  0.46999998093E+01 0. -1.
       -5    1    3    3    0  502  0.19112945624E+02 -0.50173981111E+03 -0.36585018567E+03  0.62127014341E+03  0.46999998093E+01 0.  1.
</event>
<event>
 5   0  0.2356769E-03  0.1035808E+04  0.7818609E-02  0.9270121E-01
       -1   -1    0    0    0  501  0.00000000000E+00  0.00000000000E+00  0.66484392686E+03  0.66484392688E+03  0.50400001928E-02 0. -1.
        1   -1    0    0  501    0  0.00000000000E+00  0.00000000000E+00 -0.40343949215E+03  0.40343949218E+03  0.50400001928E-02 0.  1.
    10030    2    1    2    0    0  0.00000000000E+00  0.00000000000E+00  0.26140443472E+03  0.10682834191E+04  0.10358075038E+04 0.  0.
        1    1    3    3  502    0  0.59308943892E+02  0.94675516626E+01 -0.39983566128E+03  0.40432133435E+03  0.50400001928E-02 0.  1.
       -1    1    3    3    0  502 -0.59308943892E+02 -0.94675516626E+01  0.66124009599E+03  0.66396208471E+03  0.50400001928E-02 0. -1.
</event>
<event>
 5   0  0.4310889E-03  0.1249444E+04  0.7818609E-02  0.9070646E-01
        2   -1    0    0  501    0  0.00000000000E+00  0.00000000000E+00  0.10574477555E+04  0.10574477555E+04  0.25500000920E-02 0. -1.
       -2   -1    0    0    0  501  0.00000000000E+00  0.00000000000E+00 -0.36907500787E+03  0.36907500788E+03  0.25500000920E-02 0.  1.
    10030    2    1    2    0    0  0.00000000000E+00  0.00000000000E+00  0.68837274762E+03  0.14265227634E+04  0.12494439382E+04 0.  0.
        4    1    3    3  502    0  0.31198608779E+03  0.45448031336E+03  0.86116248036E+01  0.55132880134E+03  0.12699999809E+01 0. -1.
       -4    1    3    3    0  502 -0.31198608779E+03 -0.45448031336E+03  0.67976112282E+03  0.87519396204E+03  0.12699999809E+01 0.  1.
</event>
<event>
 5   0  0.4453011E-03  0.1277972E+04  0.7818609E-02  0.9047218E-01
        2   -1    0    0  501    0  0.00000000000E+00  0.00000000000E+00  0.12045745172E+04  0.12045745172E+04  0.25500000920E-02 0.  1.
       -2   -1    0    0    0  501  0.00000000000E+00  0.00000000000E+00 -0.33896035596E+03  0.33896035597E+03  0.25500000920E-02 0. -1.
    10030    2    1    2    0    0  0.00000000000E+00  0.00000000000E+00  0.86561416125E+03  0.15435348732E+04  0.12779718419E+04 0.  0.
        1    1    3    3  502    0 -0.47665131935E+02 -0.16410346602E+03 -0.31084993660E+03  0.35472467559E+03  0.50400001928E-02 0. -1.
       -1    1    3    3    0  502  0.47665131935E+02  0.16410346602E+03  0.11764640979E+04  0.11888101976E+04  0.50400001928E-02 0.  1.
</event>
<event>
 5   0  0.4263540E-03  0.1280367E+04  0.7818609E-02  0.9045281E-01
       -2   -1    0    0    0  501  0.00000000000E+00  0.00000000000E+00  0.32423032641E+03  0.32423032642E+03  0.25500000920E-02 0. -1.
        2   -1    0    0  501    0  0.00000000000E+00  0.00000000000E+00 -0.12640246451E+04  0.12640246451E+04  0.25500000920E-02 0.  1.
    10030    2    1    2    0    0  0.00000000000E+00  0.00000000000E+00 -0.93979431868E+03  0.15882549715E+04  0.12803673274E+04 0.  0.
        2    1    3    3  502    0 -0.43525937735E+03 -0.11215305944E+03  0.95579618361E+02  0.45952638419E+03  0.25500000920E-02 0. -1.
       -2    1    3    3    0  502  0.43525937735E+03  0.11215305944E+03 -0.10353739370E+04  0.11287285873E+04  0.25500000920E-02 0.  1.
</event>
<event>
 5   0  0.2370801E-03  0.1280912E+04  0.7818609E-02  0.9044840E-01
        1   -1    0    0  501    0  0.00000000000E+00  0.00000000000E+00  0.12902348237E+04  0.12902348237E+04  0.50400001928E-02 0. -1.
       -1   -1    0    0    0  501  0.00000000000E+00  0.00000000000E+00 -0.31791433736E+03  0.31791433740E+03  0.50400001928E-02 0.  1.
    10030    2    1    2    0    0  0.00000000000E+00  0.00000000000E+00  0.97232048631E+03  0.16081491611E+04  0.12809124077E+04 0.  0.
        3    1    3    3  502    0  0.31961200068E+03  0.54952178274E+03  0.58387851231E+03  0.86315708189E+03  0.10100000352E+00 0.  1.
       -3    1    3    3    0  502 -0.31961200068E+03 -0.54952178274E+03  0.38844197399E+03  0.74499207918E+03  0.10100000352E+00 0. -1.
</event>
<event>
 5   0  0.4306214E-03  0.1294879E+04  0.7818609E-02  0.9033636E-01
       -2   -1    0    0    0  501  0.00000000000E+00  0.00000000000E+00  0.45307602948E+03  0.45307602948E+03  0.25500000920E-02 0. -1.
        2   -1    0    0  501    0  0.00000000000E+00  0.00000000000E+00 -0.92518236871E+03  0.92518236871E+03  0.25500000920E-02 0.  1.
    10030    2    1    2    0    0  0.00000000000E+00  0.00000000000E+00 -0.47210633923E+03  0.13782583982E+04  0.12948790741E+04 0.  0.
        3    1    3    3  502    0 -0.26987392892E+03  0.24799858495E+03 -0.80412596035E+03  0.88371590795E+03  0.10100000352E+00 0.  1.
       -3    1    3    3    0  502  0.26987392892E+03 -0.24799858495E+03  0.33201962112E+03  0.49454249025E+03  0.10100000352E+00 0. -1.
</event>
<event>
 5   0  0.4388937E-03  0.1145819E+04  0.7818609E-02  0.9161650E-01
        2   -1    0    0  501    0  0.00000000000E+00  0.00000000000E+00  0.90464136371E+03  0.90464136372E+03  0.25500000920E-02 0. -1.
       -2   -1    0    0    0  501  0.00000000000E+00  0.00000000000E+00 -0.36282354005E+03  0.36282354006E+03  0.25500000920E-02 0.  1.
    10030    2    1    2    0    0  0.00000000000E+00  0.00000000000E+00  0.54181782366E+03  0.12674649038E+04  0.11458188026E+04 0.  0.
        5    1    3    3  502    0  0.13509674417E+03  0.51291238596E+02  0.88412880805E+03  0.89587262524E+03  0.46999998093E+01 0. -1.
       -5    1    3    3    0  502 -0.13509674417E+03 -0.51291238596E+02 -0.34231098439E+03  0.37159227854E+03  0.46999998093E+01 0.  1.
</event>
<event>
 5   0  0.4453011E-03  0.1287542E+04  0.7818609E-02  0.9039503E-01
        2   -1    0    0  501    0  0.00000000000E+00  0.00000000000E+00  0.96898486110E+03  0.96898486111E+03  0.25500000920E-02 0. -1.
       -2   -1    0    0    0  501  0.00000000000E+00  0.00000000000E+00 -0.42770637151E+03  0.42770637152E+03  0.25500000920E-02 0.  1.
    10030    2    1    2    0    0  0.00000000000E+00  0.00000000000E+00  0.54127848959E+03  0.13966912326E+04  0.12875418424E+04 0.  0.
        1    1    3    3  502    0  0.21801556011E+03  0.40300014893E+02 -0.38498596202E+03  0.44426238489E+03  0.50400001928E-02 0.  1.
       -1    1    3    3    0  502 -0.21801556011E+03 -0.40300014893E+02  0.92626445161E+03  0.95242884773E+03  0.50400001928E-02 0. -1.
</event>
<event>
 5   0  0.2370801E-03  0.1380291E+04  0.7818609E-02  0.8968210E-01
       -1   -1    0    0    0  501  0.00000000000E+00  0.00000000000E+00  0.81952643358E+03  0.81952643360E+03  0.50400001928E-02 0.  1.
        1   -1    0    0  501    0  0.00000000000E+00  0.00000000000E+00 -0.58119043883E+03  0.58119043885E+03  0.50400001928E-02 0. -1.
    10030    2    1    2    0    0  0.00000000000E+00  0.00000000000E+00  0.23833599475E+03  0.14007168724E+04  0.13802911687E+04 0.  0.
        3    1    3    3  502    0  0.68485607751E+03  0.80487149625E+02  0.14777899203E+03  0.70522667905E+03  0.10100000352E+00 0. -1.
       -3    1    3    3    0  502 -0.68485607751E+03 -0.80487149625E+02  0.90557002727E+02  0.69549019339E+03  0.10100000352E+00 0.  1.
</event>
<event>
 5   0  0.2511542E-03  0.1368632E+04  0.7818609E-02  0.8976843E-01
        1   -1    0    0  501    0  0.00000000000E+00  0.00000000000E+00  0.37899515144E+03  0.37899515148E+03  0.50400001928E-02 0.  1.
       -1   -1    0    0    0  501  0.00000000000E+00  0.00000000000E+00 -0.12356045890E+04  0.12356045890E+04  0.50400001928E-02 0. -1.
    10030    2    1    2    0    0  0.00000000000E+00  0.00000000000E+00 -0.85660943757E+03  0.16145997405E+04  0.13686316500E+04 0.  0.
        4    1    3    3  502    0 -0.54825781762E+03 -0.31927086189E+03 -0.73084211978E+03  0.96780800512E+03  0.12699999809E+01 0.  1.
       -4    1    3    3    0  502  0.54825781762E+03  0.31927086189E+03 -0.12576731780E+03  0.64679173538E+03  0.12699999809E+01 0. -1.
</event>
<event>
 5   0  0.2370801E-03  0.1291804E+04  0.7818609E-02  0.9036090E-01
       -1   -1    0    0    0  501  0.00000000000E+00  0.00000000000E+00  0.13272943980E+04  0.13272943980E+04  0.50400001928E-02 0.  1.
        1   -1    0    0  501    0  0.00000000000E+00  0.00000000000E+00 -0.31431551700E+03  0.31431551704E+03  0.50400001928E-02 0. -1.
    10030    2    1    2    0    0  0.00000000000E+00  0.00000000000E+00  0.10129788810E+04  0.16416099150E+04  0.12918037389E+04 0.  0.
        3    1    3    3  502    0  0.40162667745E+03 -0.12577974684E+03 -0.11615134492E+03  0.43659555413E+03  0.10100000352E+00 0. -1.
       -3    1    3    3    0  502 -0.40162667745E+03  0.12577974684E+03  0.11291302259E+04  0.12050143609E+04  0.10100000352E+00 0.  1.
</event>
<event>
 5   0  0.4310889E-03  0.1332967E+04  0.7818609E-02  0.9003823E-01
        2   -1    0    0  501    0  0.00000000000E+00  0.00000000000E+00  0.36833527838E+03  0.36833527838E+03  0.25500000920E-02 0.  1.
       -2   -1    0    0    0  501  0.00000000000E+00  0.00000000000E+00 -0.12059678016E+04  0.12059678016E+04  0.25500000920E-02 0. -1.
    10030    2    1    2    0    0  0.00000000000E+00  0.00000000000E+00 -0.83763252321E+03  0.15743030800E+04  0.13329673453E+04 0.  0.
        4    1    3    3  502    0  0.58777144334E+03  0.49899154452E+02 -0.52435739974E+02  0.59221306550E+03  0.12699999809E+01 0.  1.
       -4    1    3    3    0  502 -0.58777144334E+03 -0.49899154452E+02 -0.78519678323E+03  0.98209001447E+03  0.12699999809E+01 0. -1.
</event>
<event>
 5   0  0.4388937E-03  0.1304595E+04  0.7818609E-02  0.9025929E-01
        2   -1    0    0  501    0  0.00000000000E+00  0.00000000000E+00  0.14760778833E+04  0.14760778833E+04  0.25500000920E-02 0.  1.
       -2   -1    0    0    0  501  0.00000000000E+00  0.00000000000E+00 -0.28825852128E+03  0.28825852129E+03  0.25500000920E-02 0. -1.
    10030    2    1    2    0    0  0.00000000000E+00  0.00000000000E+00  0.11878193621E+04  0.17643364046E+04  0.13045949992E+04 0.  0.
        5    1    3    3  502    0  0.48091049108E+03  0.34543977498E+03  0.22386926614E+03  0.63304271332E+03  0.46999998093E+01 0. -1.
       -5    1    3    3    0  502 -0.48091049108E+03 -0.34543977498E+03  0.96395009592E+03  0.11312936913E+04  0.46999998093E+01 0.  1.
</event>
<event>
 5   0  0.4263540E-03  0.1310888E+04  0.7818609E-02  0.9020975E-01
       -2   -1    0    0    0  501  0.00000000000E+00  0.00000000000E+00  0.19375257389E+03  0.19375257391E+03  0.25500000920E-02 0. -1.
        2   -1    0    0  501    0  0.00000000000E+00  0.00000000000E+00 -0.22172962013E+04  0.22172962013E+04  0.25500000920E-02 0.  1.
    10030    2    1    2    0    0  0.00000000000E+00  0.00000000000E+00 -0.20235436274E+04  0.24110487752E+04  0.13108880137E+04 0.  0.
        2    1    3    3  502    0 -0.43480854121E+03 -0.39575610358E+03 -0.15446001755E+04  0.16527162682E+04  0.25500000920E-02 0.  1.
       -2    1    3    3    0  502  0.43480854121E+03  0.39575610358E+03 -0.47894345190E+03  0.75833250699E+03  0.25500000920E-02 0. -1.
</event>
<event>
 5   0  0.4306214E-03  0.1308108E+04  0.7818609E-02  0.9023160E-01
       -2   -1    0    0    0  501  0.00000000000E+00  0.00000000000E+00  0.64126588723E+03  0.64126588723E+03  0.25500000920E-02 0.  1.
        2   -1    0    0  501    0  0.00000000000E+00  0.00000000000E+00 -0.66709735310E+03  0.66709735311E+03  0.25500000920E-02 0. -1.
    10030    2    1    2    0    0  0.00000000000E+00  0.00000000000E+00 -0.25831465871E+02  0.13083632403E+04  0.13081082157E+04 0.  0.
        3    1    3    3  502    0 -0.32825735218E+03 -0.26106065254E+03  0.48905979808E+03  0.64427094445E+03  0.10100000352E+00 0.  1.
       -3    1    3    3    0  502  0.32825735218E+03  0.26106065254E+03 -0.51489126395E+03  0.66409229589E+03  0.10100000352E+00 0. -1.
</event>
<event>
 5   0  0.4263540E-03  0.1309526E+04  0.7818609E-02  0.9022045E-01
        2   -1    0    0  501    0  0.00000000000E+00  0.00000000000E+00  0.42458035517E+03  0.42458035518E+03  0.25500000920E-02 0.  1.
       -2   -1    0    0    0  501  0.00000000000E+00  0.00000000000E+00 -0.10097364953E+04  0.10097364953E+04  0.25500000920E-02 0. -1.
    10030    2    1    2    0    0  0.00000000000E+00  0.00000000000E+00 -0.58515614013E+03  0.14343168505E+04  0.13095255321E+04 0.  0.
        2    1    3    3  502    0  0.12134682878E+03  0.42935504729E+03  0.23229970138E+03  0.50302481127E+03  0.25500000920E-02 0.  1.
       -2    1    3    3    0  502 -0.12134682878E+03 -0.42935504729E+03 -0.81745584151E+03  0.93129203922E+03  0.25500000920E-02 0. -1.
</event>
<event>
 5   0  0.4306214E-03  0.1305468E+04  0.7818609E-02  0.9025240E-01
        2   -1    0    0  501    0  0.00000000000E+00  0.00000000000E+00  0.10937630512E+04  0.10937630512E+04  0.25500000920E-02 0.  1.
       -2   -1    0    0    0  501  0.00000000000E+00  0.00000000000E+00 -0.38953731129E+03  0.38953731129E+03  0.25500000920E-02 0. -1.
    10030    2    1    2    0    0  0.00000000000E+00  0.00000000000E+00  0.70422573994E+03  0.14833003625E+04  0.13054677601E+04 0.  0.
        3    1    3    3  502    0  0.32601182085E+03  0.52750923207E+03  0.58361169472E+03  0.85155875762E+03  0.10100000352E+00 0.  1.
       -3    1    3    3    0  502 -0.32601182085E+03 -0.52750923207E+03  0.12061404521E+03  0.63174160490E+03  0.10100000352E+00 0. -1.
</event>
<event>
 5   0  0.4306214E-03  0.1345379E+04  0.7818609E-02  0.8994334E-01
       -2   -1    0    0    0  501  0.00000000000E+00  0.00000000000E+00  0.11784863857E+04  0.11784863857E+04  0.25500000920E-02 0.  1.
        2   -1    0    0  501    0  0.00000000000E+00  0.00000000000E+00 -0.38397635489E+03  0.38397635489E+03  0.25500000920E-02 0. -1.
    10030    2    1    2    0    0  0.00000000000E+00  0.00000000000E+00  0.79451003086E+03  0.15624627406E+04  0.13453786184E+04 0.  0.
        3    1    3    3  502    0 -0.45765099390E+03  0.23658535610E+03  0.89959168885E+03  0.10366688381E+04  0.10100000352E+00 0.  1.
       -3    1    3    3    0  502  0.45765099390E+03 -0.23658535610E+03 -0.10508165800E+03  0.52579390258E+03  0.10100000352E+00 0. -1.
</event>
<event>
 5   0  0.4310889E-03  0.1298937E+04  0.7818609E-02  0.9030409E-01
        2   -1    0    0  501    0  0.00000000000E+00  0.00000000000E+00  0.17088667774E+04  0.17088667774E+04  0.25500000920E-02 0.  1.
       -2   -1    0    0    0  501  0.00000000000E+00  0.00000000000E+00 -0.24683566591E+03  0.24683566592E+03  0.25500000920E-02 0. -1.
    10030    2    1    2    0    0  0.00000000000E+00  0.00000000000E+00  0.14620311115E+04  0.19557024433E+04  0.12989369022E+04 0.  0.
        4    1    3    3  502    0  0.57131202025E+03 -0.30888525768E+03  0.73047441083E+03  0.97744667612E+03  0.12699999809E+01 0. -1.
       -4    1    3    3    0  502 -0.57131202025E+03  0.30888525768E+03  0.73155670066E+03  0.97825576720E+03  0.12699999809E+01 0.  1.
</event>
<event>
 5   0  0.2370801E-03  0.1326231E+04  0.7818609E-02  0.9009019E-01
        1   -1    0    0  501    0  0.00000000000E+00  0.00000000000E+00  0.64357328035E+03  0.64357328037E+03  0.50400001928E-02 0.  1.
       -1   -1    0    0    0  501  0.00000000000E+00  0.00000000000E+00 -0.68325061809E+03  0.68325061811E+03  0.50400001928E-02 0. -1.
    10030    2    1    2    0    0  0.00000000000E+00  0.00000000000E+00 -0.39677337745E+02  0.13268238985E+04  0.13262305103E+04 0.  0.
        3    1    3    3  502    0  0.57071255016E+03 -0.74670456282E+02  0.30960084402E+03  0.65356039107E+03  0.10100000352E+00 0.  1.
       -3    1    3    3    0  502 -0.57071255016E+03  0.74670456282E+02 -0.34927818176E+03  0.67326350741E+03  0.10100000352E+00 0. -1.
</event>
<event>
 5   0  0.2462055E-03  0.1254184E+04  0.7818609E-02  0.9066708E-01
        1   -1    0    0  501    0  0.00000000000E+00  0.00000000000E+00  0.47452098460E+03  0.47452098463E+03  0.50400001928E-02 0. -1.
       -1   -1    0    0    0  501  0.00000000000E+00  0.00000000000E+00 -0.82871807839E+03  0.82871807840E+03  0.50400001928E-02 0.  1.
    10030    2    1    2    0    0  0.00000000000E+00  0.00000000000E+00 -0.35419709378E+03  0.13032390630E+04  0.12541835887E+04 0.  0.
        2    1    3    3  502    0 -0.49166338631E+03 -0.34054991748E+03  0.18787397986E+02  0.59838123138E+03  0.25500000920E-02 0. -1.
       -2    1    3    3    0  502  0.49166338631E+03  0.34054991748E+03 -0.37298449177E+03  0.70485783165E+03  0.25500000920E-02 0.  1.
</event>
<event>
 5   0  0.2462055E-03  0.1343188E+04  0.7818609E-02  0.8996001E-01
       -1   -1    0    0    0  501  0.00000000000E+00  0.00000000000E+00  0.53843660222E+03  0.53843660224E+03  0.50400001928E-02 0.  1.
        1   -1    0    0  501    0  0.00000000000E+00  0.00000000000E+00 -0.83768198288E+03  0.83768198289E+03  0.50400001928E-02 0. -1.
    10030    2    1    2    0    0  0.00000000000E+00  0.00000000000E+00 -0.29924538066E+03  0.13761185851E+04  0.13431882081E+04 0.  0.
        2    1    3    3  502    0 -0.77441611708E+02  0.66355834113E+03 -0.22009696067E+03  0.70338435255E+03  0.25500000920E-02 0. -1.
       -2    1    3    3    0  502  0.77441611708E+02 -0.66355834113E+03 -0.79148419986E+02  0.67273423259E+03  0.25500000920E-02 0.  1.
</event>
<event>
 5   0  0.2370801E-03  0.1301054E+04  0.7818609E-02  0.9028730E-01
       -1   -1    0    0    0  501  0.00000000000E+00  0.00000000000E+00  0.55512931824E+03  0.55512931826E+03  0.50400001928E-02 0. -1.
        1   -1    0    0  501    0  0.00000000000E+00  0.00000000000E+00 -0.76231853359E+03  0.76231853361E+03  0.50400001928E-02 0.  1.
    10030    2    1    2    0    0  0.00000000000E+00  0.00000000000E+00 -0.20718921535E+03  0.13174478519E+04  0.13010539848E+04 0.  0.
        3    1    3    3  502    0 -0.47104363704E+03  0.24130889047E+03 -0.48661100475E+03  0.71895922608E+03  0.10100000352E+00 0.  1.
       -3    1    3    3    0  502  0.47104363704E+03 -0.24130889047E+03  0.27942178940E+03  0.59848862580E+03  0.10100000352E+00 0. -1.
</event>
<event>
 5   0  0.4453011E-03  0.1236335E+04  0.7818609E-02  0.9081634E-01
        2   -1    0    0  501    0  0.00000000000E+00  0.00000000000E+00  0.97283814164E+03  0.97283814164E+03  0.25500000920E-02 0. -1.
       -2   -1    0    0    0  501  0.00000000000E+00  0.00000000000E+00 -0.39280049532E+03  0.39280049533E+03  0.25500000920E-02 0.  1.
    10030    2    1    2    0    0  0.00000000000E+00  0.00000000000E+00  0.58003764632E+03  0.13656386370E+04  0.12363353977E+04 0.  0.
        1    1    3    3  502    0  0.60400717746E+03 -0.10572115100E+03  0.20353834173E+03  0.64608783364E+03  0.50400001928E-02 0. -1.
       -1    1    3    3    0  502 -0.60400717746E+03  0.10572115100E+03  0.37649930459E+03  0.71955080333E+03  0.50400001928E-02 0.  1.
</event>
<event>
 5   0  0.2370801E-03  0.1294574E+04  0.7818609E-02  0.9033879E-01
        1   -1    0    0  501    0  0.00000000000E+00  0.00000000000E+00  0.70333127857E+03  0.70333127859E+03  0.50400001928E-02 0. -1.
       -1   -1    0    0    0  501  0.00000000000E+00  0.00000000000E+00 -0.59570849063E+03  0.59570849065E+03  0.50400001928E-02 0.  1.
    10030    2    1    2    0    0  0.00000000000E+00  0.00000000000E+00  0.10762278794E+03  0.12990397692E+04  0.12945739290E+04 0.  0.
        3    1    3    3  502    0 -0.15419563341E+03 -0.28917317718E+03 -0.50631038137E+03  0.60311494116E+03  0.10100000352E+00 0.  1.
       -3    1    3    3    0  502  0.15419563341E+03  0.28917317718E+03  0.61393316931E+03  0.69592482808E+03  0.10100000352E+00 0. -1.
</event>
<event>
 5   0  0.4306214E-03  0.1282721E+04  0.7818609E-02  0.9043381E-01
        2   -1    0    0  501    0  0.00000000000E+00  0.00000000000E+00  0.12748698419E+04  0.12748698419E+04  0.25500000920E-02 0. -1.
       -2   -1    0    0    0  501  0.00000000000E+00  0.00000000000E+00 -0.32265500294E+03  0.32265500295E+03  0.25500000920E-02 0.  1.
    10030    2    1    2    0    0  0.00000000000E+00  0.00000000000E+00  0.95221483895E+03  0.15975248448E+04  0.12827207531E+04 0.  0.
        3    1    3    3  502    0 -0.22016791545E+03  0.52828873038E+03  0.11562318928E+03  0.58389350548E+03  0.10100000352E+00 0.  1.
       -3    1    3    3    0  502  0.22016791545E+03 -0.52828873038E+03  0.83659164968E+03  0.10136313394E+04  0.10100000352E+00 0. -1.
</event>
<event>
 5   0  0.2356769E-03  0.1278083E+04  0.7818609E-02  0.9047128E-01
        1   -1    0    0  501    0  0.00000000000E+00  0.00000000000E+00  0.64725799760E+03  0.64725799762E+03  0.50400001928E-02 0. -1.
       -1   -1    0    0    0  501  0.00000000000E+00  0.00000000000E+00 -0.63092956867E+03  0.63092956869E+03  0.50400001928E-02 0.  1.
    10030    2    1    2    0    0  0.00000000000E+00  0.00000000000E+00  0.16328428924E+02  0.12781875663E+04  0.12780832669E+04 0.  0.
        1    1    3    3  502    0  0.29626233084E+03 -0.26818403966E+03  0.50688332454E+03  0.64546475699E+03  0.50400001928E-02 0. -1.
       -1    1    3    3    0  502 -0.29626233084E+03  0.26818403966E+03 -0.49055489561E+03  0.63272280932E+03  0.50400001928E-02 0.  1.
</event>
<event>
 5   0  0.4310889E-03  0.1302190E+04  0.7818609E-02  0.9027830E-01
        2   -1    0    0  501    0  0.00000000000E+00  0.00000000000E+00  0.17788342995E+04  0.17788342995E+04  0.25500000920E-02 0.  1.
       -2   -1    0    0    0  501  0.00000000000E+00  0.00000000000E+00 -0.23831618144E+03  0.23831618145E+03  0.25500000920E-02 0. -1.
    10030    2    1    2    0    0  0.00000000000E+00  0.00000000000E+00  0.15405181180E+04  0.20171504809E+04  0.13021904587E+04 0.  0.
        4    1    3    3  502    0 -0.32891594395E+03 -0.56058931096E+03  0.82979781547E+03  0.10540455878E+04  0.12699999809E+01 0. -1.
       -4    1    3    3    0  502  0.32891594395E+03  0.56058931096E+03  0.71072030255E+03  0.96310489310E+03  0.12699999809E+01 0.  1.
</event>
<event>
 5   0  0.4310889E-03  0.1293537E+04  0.7818609E-02  0.9034706E-01
        2   -1    0    0  501    0  0.00000000000E+00  0.00000000000E+00  0.91393719537E+03  0.91393719538E+03  0.25500000920E-02 0. -1.
       -2   -1    0    0    0  501  0.00000000000E+00  0.00000000000E+00 -0.45770043952E+03  0.45770043953E+03  0.25500000920E-02 0.  1.
    10030    2    1    2    0    0  0.00000000000E+00  0.00000000000E+00  0.45623675586E+03  0.13716376349E+04  0.12935369435E+04 0.  0.
        4    1    3    3  502    0 -0.51184253618E+03  0.79641654590E+02 -0.18253983657E+03  0.54922489003E+03  0.12699999809E+01 0.  1.
       -4    1    3    3    0  502  0.51184253618E+03 -0.79641654590E+02  0.63877659243E+03  0.82241274487E+03  0.12699999809E+01 0. -1.
</event>
<event>
 5   0  0.2458456E-03  0.1461611E+04  0.7818609E-02  0.8910390E-01
       -1   -1    0    0    0  501  0.00000000000E+00  0.00000000000E+00  0.52474127221E+03  0.52474127223E+03  0.50400001928E-02 0.  1.
        1   -1    0    0  501    0  0.00000000000E+00  0.00000000000E+00 -0.10177900563E+04  0.10177900563E+04  0.50400001928E-02 0. -1.
    10030    2    1    2    0    0  0.00000000000E+00  0.00000000000E+00 -0.49304878405E+03  0.15425313285E+04  0.14616106855E+04 0.  0.
        5    1    3    3  502    0 -0.22562624556E+03  0.34681878876E+03 -0.88225651472E+03  0.97446863607E+03  0.46999998093E+01 0. -1.
       -5    1    3    3    0  502  0.22562624556E+03 -0.34681878876E+03  0.38920773067E+03  0.56806269243E+03  0.46999998093E+01 0.  1.
</event>
<event>
 5   0  0.2370801E-03  0.1268956E+04  0.7818609E-02  0.9054552E-01
        1   -1    0    0  501    0  0.00000000000E+00  0.00000000000E+00  0.70300147043E+03  0.70300147044E+03  0.50400001928E-02 0. -1.
       -1   -1    0    0    0  501  0.00000000000E+00  0.00000000000E+00 -0.57263343785E+03  0.57263343787E+03  0.50400001928E-02 0.  1.
    10030    2    1    2    0    0  0.00000000000E+00  0.00000000000E+00  0.13036803258E+03  0.12756349083E+04  0.12689557106E+04 0.  0.
        3    1    3    3  502    0 -0.48380425387E+03  0.37643156364E+03  0.22973696948E+03  0.65463452668E+03  0.10100000352E+00 0. -1.
       -3    1    3    3    0  502  0.48380425387E+03 -0.37643156364E+03 -0.99368936898E+02  0.62100038164E+03  0.10100000352E+00 0.  1.
</event>
<event>
 5   0  0.2462055E-03  0.1254182E+04  0.7818609E-02  0.9066710E-01
       -1   -1    0    0    0  501  0.00000000000E+00  0.00000000000E+00  0.21764670305E+03  0.21764670311E+03  0.50400001928E-02 0. -1.
        1   -1    0    0  501    0  0.00000000000E+00  0.00000000000E+00 -0.18067949409E+04  0.18067949409E+04  0.50400001928E-02 0.  1.
    10030    2    1    2    0    0  0.00000000000E+00  0.00000000000E+00 -0.15891482378E+04  0.20244416440E+04  0.12541817445E+04 0.  0.
        2    1    3    3  502    0 -0.84843239460E+02  0.35834704496E+03  0.24729125826E+02  0.36908333691E+03  0.25500000920E-02 0. -1.
       -2    1    3    3    0  502  0.84843239460E+02 -0.35834704496E+03 -0.16138773637E+04  0.16553583071E+04  0.25500000920E-02 0.  1.
</event>
<event>
 5   0  0.4310889E-03  0.1330094E+04  0.7818609E-02  0.9006035E-01
        2   -1    0    0  501    0  0.00000000000E+00  0.00000000000E+00  0.70787253100E+03  0.70787253101E+03  0.25500000920E-02 0. -1.
       -2   -1    0    0    0  501  0.00000000000E+00  0.00000000000E+00 -0.62481283394E+03  0.62481283394E+03  0.25500000920E-02 0.  1.
    10030    2    1    2    0    0  0.00000000000E+00  0.00000000000E+00  0.83059697065E+02  0.13326853650E+04  0.13300944961E+04 0.  0.
        4    1    3    3  502    0  0.12940234835E+02 -0.29440105308E+03 -0.55582505932E+03  0.62911250123E+03  0.12699999809E+01 0.  1.
       -4    1    3    3    0  502 -0.12940234835E+02  0.29440105308E+03  0.63888475639E+03  0.70357286373E+03  0.12699999809E+01 0. -1.
</event>
<event>
 5   0  0.2370801E-03  0.1296067E+04  0.7818609E-02  0.9032690E-01
       -1   -1    0    0    0  501  0.00000000000E+00  0.00000000000E+00  0.53572409847E+03  0.53572409849E+03  0.50400001928E-02 0.  1.
        1   -1    0    0  501    0  0.00000000000E+00  0.00000000000E+00 -0.78388721043E+03  0.78388721044E+03  0.50400001928E-02 0. -1.
    10030    2    1    2    0    0  0.00000000000E+00  0.00000000000E+00 -0.24816311196E+03  0.13196113089E+04  0.12960667716E+04 0.  0.
        3    1    3    3  502    0 -0.16559965765E+03 -0.33709102915E+03  0.41361588023E+03  0.55868749326E+03  0.10100000352E+00 0.  1.
       -3    1    3    3    0  502  0.16559965765E+03  0.33709102915E+03 -0.66177899219E+03  0.76092381567E+03  0.10100000352E+00 0. -1.
</event>
<event>
 5   0  0.4263540E-03  0.1285402E+04  0.7818609E-02  0.9041222E-01
        2   -1    0    0  501    0  0.00000000000E+00  0.00000000000E+00  0.67721768316E+03  0.67721768316E+03  0.25500000920E-02 0.  1.
       -2   -1    0    0    0  501  0.00000000000E+00  0.00000000000E+00 -0.60994336891E+03  0.60994336891E+03  0.25500000920E-02 0. -1.
    10030    2    1    2    0    0  0.00000000000E+00  0.00000000000E+00  0.67274314248E+02  0.12871610521E+04  0.12854017818E+04 0.  0.
        2    1    3    3  502    0 -0.48499769175E+03  0.26246761676E+03  0.36416834283E+03  0.66085595464E+03  0.25500000920E-02 0.  1.
       -2    1    3    3    0  502  0.48499769175E+03 -0.26246761676E+03 -0.29689402859E+03  0.62630509743E+03  0.25500000920E-02 0. -1.
</event>
<event>
 5   0  0.4310889E-03  0.1308221E+04  0.7818609E-02  0.9023071E-01
        2   -1    0    0  501    0  0.00000000000E+00  0.00000000000E+00  0.21217756942E+04  0.21217756942E+04  0.25500000920E-02 0.  1.
       -2   -1    0    0    0  501  0.00000000000E+00  0.00000000000E+00 -0.20165197777E+03  0.20165197778E+03  0.25500000920E-02 0. -1.
    10030    2    1    2    0    0  0.00000000000E+00  0.00000000000E+00  0.19201237164E+04  0.23234276719E+04  0.13082205703E+04 0.  0.
        4    1    3    3  502    0  0.54749234304E+03 -0.34785522009E+02  0.32738742438E+03  0.63885995083E+03  0.12699999809E+01 0. -1.
       -4    1    3    3    0  502 -0.54749234304E+03  0.34785522009E+02  0.15927362920E+04  0.16845677211E+04  0.12699999809E+01 0.  1.
</event>
<event>
 5   0  0.2458456E-03  0.9347989E+03  0.7818609E-02  0.9383097E-01
        1   -1    0    0  501    0  0.00000000000E+00  0.00000000000E+00  0.11782248634E+04  0.11782248634E+04  0.50400001928E-02 0. -1.
       -1   -1    0    0    0  501  0.00000000000E+00  0.00000000000E+00 -0.18541641701E+03  0.18541641708E+03  0.50400001928E-02 0.  1.
    10030    2    1    2    0    0  0.00000000000E+00  0.00000000000E+00  0.99280844637E+03  0.13636412805E+04  0.93479887176E+03 0.  0.
        5    1    3    3  502    0 -0.94880945877E+02  0.33611299015E+03  0.94947772217E+03  0.10116839284E+04  0.46999998093E+01 0. -1.
       -5    1    3    3    0  502  0.94880945877E+02 -0.33611299015E+03  0.43330724197E+02  0.35195735210E+03  0.46999998093E+01 0.  1.
</event>
<event>
 5   0  0.1661750E-03  0.1332677E+04  0.7818609E-02  0.9004046E-01
        4   -1    0    0  501    0  0.00000000000E+00  0.00000000000E+00  0.15638332544E+04  0.15638337701E+04  0.12699999809E+01 0. -1.
       -4   -1    0    0    0  501  0.00000000000E+00  0.00000000000E+00 -0.28392021576E+03  0.28392305615E+03  0.12699999809E+01 0.  1.
    10030    2    1    2    0    0  0.00000000000E+00  0.00000000000E+00  0.12799130387E+04  0.18477568263E+04  0.13326769685E+04 0.  0.
        1    1    3    3  502    0  0.55748517282E+02  0.15896444273E+03 -0.25391077068E+03  0.30471014214E+03  0.50400001928E-02 0.  1.
       -1    1    3    3    0  502 -0.55748517282E+02 -0.15896444273E+03  0.15338238094E+04  0.15430466841E+04  0.50400001928E-02 0. -1.
</event>
<event>
 5   0  0.4263540E-03  0.1284265E+04  0.7818609E-02  0.9042137E-01
       -2   -1    0    0    0  501  0.00000000000E+00  0.00000000000E+00  0.85668599666E+03  0.85668599667E+03  0.25500000920E-02 0.  1.
        2   -1    0    0  501    0  0.00000000000E+00  0.00000000000E+00 -0.48131279795E+03  0.48131279795E+03  0.25500000920E-02 0. -1.
    10030    2    1    2    0    0  0.00000000000E+00  0.00000000000E+00  0.37537319872E+03  0.13379987946E+04  0.12842646675E+04 0.  0.
        2    1    3    3  502    0 -0.18804899250E+03  0.53413599173E+03 -0.12775241145E+03  0.58050353994E+03  0.25500000920E-02 0. -1.
       -2    1    3    3    0  502  0.18804899250E+03 -0.53413599173E+03  0.50312561017E+03  0.75749525468E+03  0.25500000920E-02 0.  1.
</event>
<event>
 5   0  0.4306214E-03  0.1226731E+04  0.7818609E-02  0.9089775E-01
        2   -1    0    0  501    0  0.00000000000E+00  0.00000000000E+00  0.11875871287E+04  0.11875871287E+04  0.25500000920E-02 0. -1.
       -2   -1    0    0    0  501  0.00000000000E+00  0.00000000000E+00 -0.31679144373E+03  0.31679144374E+03  0.25500000920E-02 0.  1.
    10030    2    1    2    0    0  0.00000000000E+00  0.00000000000E+00  0.87079568499E+03  0.15043785725E+04  0.12267313334E+04 0.  0.
        3    1    3    3  502    0 -0.77008435467E+02 -0.32984005004E+03 -0.19170308492E+03  0.38919768847E+03  0.10100000352E+00 0.  1.
       -3    1    3    3    0  502  0.77008435467E+02  0.32984005004E+03  0.10624987699E+04  0.11151808840E+04  0.10100000352E+00 0. -1.
</event>
<event>
 5   0  0.4388937E-03  0.1300947E+04  0.7818609E-02  0.9028814E-01
       -2   -1    0    0    0  501  0.00000000000E+00  0.00000000000E+00  0.16296453606E+03  0.16296453608E+03  0.25500000920E-02 0. -1.
        2   -1    0    0  501    0  0.00000000000E+00  0.00000000000E+00 -0.25963682225E+04  0.25963682225E+04  0.25500000920E-02 0.  1.
    10030    2    1    2    0    0  0.00000000000E+00  0.00000000000E+00 -0.24334036864E+04  0.27593327586E+04  0.13009472593E+04 0.  0.
        5    1    3    3  502    0  0.57443061776E+03  0.28144492976E+03 -0.96652894514E+03  0.11590436035E+04  0.46999998093E+01 0. -1.
       -5    1    3    3    0  502 -0.57443061776E+03 -0.28144492976E+03 -0.14668747413E+04  0.16002891550E+04  0.46999998093E+01 0.  1.
</event>
<event>
 5   0  0.2462055E-03  0.1304647E+04  0.7818609E-02  0.9025888E-01
        1   -1    0    0  501    0  0.00000000000E+00  0.00000000000E+00  0.50923906619E+03  0.50923906621E+03  0.50400001928E-02 0. -1.
       -1   -1    0    0    0  501  0.00000000000E+00  0.00000000000E+00 -0.83561108102E+03  0.83561108103E+03  0.50400001928E-02 0.  1.
    10030    2    1    2    0    0  0.00000000000E+00  0.00000000000E+00 -0.32637201483E+03  0.13448501472E+04  0.13046467823E+04 0.  0.
        2    1    3    3  502    0 -0.54036968686E+03 -0.19239081700E+03  0.15705136516E+03  0.59470896769E+03  0.25500000920E-02 0. -1.
       -2    1    3    3    0  502  0.54036968686E+03  0.19239081700E+03 -0.48342337999E+03  0.75014117956E+03  0.25500000920E-02 0.  1.
</event>
<event>
 5   0  0.4263540E-03  0.1304036E+04  0.7818609E-02  0.9026371E-01
       -2   -1    0    0    0  501  0.00000000000E+00  0.00000000000E+00  0.30200059982E+03  0.30200059983E+03  0.25500000920E-02 0. -1.
        2   -1    0    0  501    0  0.00000000000E+00  0.00000000000E+00 -0.14077039785E+04  0.14077039785E+04  0.25500000920E-02 0.  1.
    10030    2    1    2    0    0  0.00000000000E+00  0.00000000000E+00 -0.11057033787E+04  0.17097045783E+04  0.13040359595E+04 0.  0.
        2    1    3    3  502    0 -0.46191535713E+03 -0.43971527868E+03 -0.73075475594E+03  0.96990609689E+03  0.25500000920E-02 0.  1.
       -2    1    3    3    0  502  0.46191535713E+03  0.43971527868E+03 -0.37494862274E+03  0.73979848145E+03  0.25500000920E-02 0. -1.
</event>
<event>
 5   0  0.2462055E-03  0.1307017E+04  0.7818609E-02  0.9024019E-01
        1   -1    0    0  501    0  0.00000000000E+00  0.00000000000E+00  0.62012442448E+03  0.62012442450E+03  0.50400001928E-02 0.  1.
       -1   -1    0    0    0  501  0.00000000000E+00  0.00000000000E+00 -0.68869028936E+03  0.68869028938E+03  0.50400001928E-02 0. -1.
    10030    2    1    2    0    0  0.00000000000E+00  0.00000000000E+00 -0.68565864874E+02  0.13088147139E+04  0.13070174740E+04 0.  0.
        2    1    3    3  502    0  0.32681690454E+03 -0.37093569570E+03  0.39370515875E+03  0.63198602158E+03  0.25500000920E-02 0.  1.
       -2    1    3    3    0  502 -0.32681690454E+03  0.37093569570E+03 -0.46227102362E+03  0.67682869230E+03  0.25500000920E-02 0. -1.
</event>
<event>
 5   0  0.4388937E-03  0.1386121E+04  0.7818609E-02  0.8963927E-01
       -2   -1    0    0    0  501  0.00000000000E+00  0.00000000000E+00  0.28337677112E+03  0.28337677113E+03  0.25500000920E-02 0.  1.
        2   -1    0    0  501    0  0.00000000000E+00  0.00000000000E+00 -0.16950324393E+04  0.16950324393E+04  0.25500000920E-02 0. -1.
    10030    2    1    2    0    0  0.00000000000E+00  0.00000000000E+00 -0.14116556682E+04  0.19784092104E+04  0.13861209465E+04 0.  0.
        5    1    3    3  502    0 -0.56067049927E+03  0.15019289463E+03 -0.16533278837E+03  0.60354480800E+03  0.46999998093E+01 0.  1.
       -5    1    3    3    0  502  0.56067049927E+03 -0.15019289463E+03 -0.12463228798E+04  0.13748644024E+04  0.46999998093E+01 0. -1.
</event>
<event>
 5   0  0.2356769E-03  0.1323735E+04  0.7818609E-02  0.9010952E-01
        1   -1    0    0  501    0  0.00000000000E+00  0.00000000000E+00  0.97928034912E+03  0.97928034914E+03  0.50400001928E-02 0. -1.
       -1   -1    0    0    0  501  0.00000000000E+00  0.00000000000E+00 -0.44733706062E+03  0.44733706065E+03  0.50400001928E-02 0.  1.
    10030    2    1    2    0    0  0.00000000000E+00  0.00000000000E+00  0.53194328850E+03  0.14266174098E+04  0.13237347059E+04 0.  0.
        1    1    3    3  502    0  0.39741016692E+03  0.47114872863E+03  0.52586219472E+03  0.81021417732E+03  0.50400001928E-02 0. -1.
       -1    1    3    3    0  502 -0.39741016692E+03 -0.47114872863E+03  0.60810937819E+01  0.61640323247E+03  0.50400001928E-02 0.  1.
</event>
<event>
 5   0  0.2462055E-03  0.1324125E+04  0.7818609E-02  0.9010650E-01
       -1   -1    0    0    0  501  0.00000000000E+00  0.00000000000E+00  0.36557749426E+03  0.36557749430E+03  0.50400001928E-02 0.  1.
        1   -1    0    0  501    0  0.00000000000E+00  0.00000000000E+00 -0.11989984000E+04  0.11989984000E+04  0.50400001928E-02 0. -1.
    10030    2    1    2    0    0  0.00000000000E+00  0.00000000000E+00 -0.83342090573E+03  0.15645758943E+04  0.13241251160E+04 0.  0.
        2    1    3    3  502    0  0.16757929206E+03 -0.29618912576E+02  0.33929318294E+03  0.37957866524E+03  0.25500000920E-02 0.  1.
       -2    1    3    3    0  502 -0.16757929206E+03  0.29618912576E+02 -0.11727140887E+04  0.11849972291E+04  0.25500000920E-02 0. -1.
</event>
<event>
 5   0  0.2356769E-03  0.1070365E+04  0.7818609E-02  0.9234568E-01
        1   -1    0    0  501    0  0.00000000000E+00  0.00000000000E+00  0.92231325801E+03  0.92231325802E+03  0.50400001928E-02 0. -1.
       -1   -1    0    0    0  501  0.00000000000E+00  0.00000000000E+00 -0.31054531922E+03  0.31054531926E+03  0.50400001928E-02 0.  1.
    10030    2    1    2    0    0  0.00000000000E+00  0.00000000000E+00  0.61176793879E+03  0.12328585773E+04  0.10703645457E+04 0.  0.
        1    1    3    3  502    0 -0.24892798944E+03  0.47376208741E+03  0.30346633313E+03  0.61522961142E+03  0.50400001928E-02 0.  1.
       -1    1    3    3    0  502  0.24892798944E+03 -0.47376208741E+03  0.30830160567E+03  0.61762896587E+03  0.50400001928E-02 0. -1.
</event>
<event>
 5   0  0.4388937E-03  0.1299632E+04  0.7818609E-02  0.9029857E-01
       -2   -1    0    0    0  501  0.00000000000E+00  0.00000000000E+00  0.23853106459E+03  0.23853106461E+03  0.25500000920E-02 0.  1.
        2   -1    0    0  501    0  0.00000000000E+00  0.00000000000E+00 -0.17702552183E+04  0.17702552183E+04  0.25500000920E-02 0. -1.
    10030    2    1    2    0    0  0.00000000000E+00  0.00000000000E+00 -0.15317241537E+04  0.20087862829E+04  0.12996320430E+04 0.  0.
        5    1    3    3  502    0 -0.60073910689E+03 -0.18639985064E+03 -0.51374264248E+03  0.81214898360E+03  0.46999998093E+01 0.  1.
       -5    1    3    3    0  502  0.60073910689E+03  0.18639985064E+03 -0.10179815112E+04  0.11966372993E+04  0.46999998093E+01 0. -1.
</event>
<event>
 5   0  0.2458456E-03  0.1199432E+04  0.7818609E-02  0.9113354E-01
       -1   -1    0    0    0  501  0.00000000000E+00  0.00000000000E+00  0.13146676732E+04  0.13146676732E+04  0.50400001928E-02 0. -1.
        1   -1    0    0  501    0  0.00000000000E+00  0.00000000000E+00 -0.27357432448E+03  0.27357432453E+03  0.50400001928E-02 0.  1.
    10030    2    1    2    0    0  0.00000000000E+00  0.00000000000E+00  0.10410933487E+04  0.15882419977E+04  0.11994320667E+04 0.  0.
        5    1    3    3  502    0 -0.45894448066E+03 -0.11084716249E+03  0.30928866099E+02  0.47317630384E+03  0.46999998093E+01 0.  1.
       -5    1    3    3    0  502  0.45894448066E+03  0.11084716249E+03  0.10101644826E+04  0.11150656939E+04  0.46999998093E+01 0. -1.
</event>
<event>
 5   0  0.2370801E-03  0.1307018E+04  0.7818609E-02  0.9024018E-01
       -1   -1    0    0    0  501  0.00000000000E+00  0.00000000000E+00  0.10562684937E+04  0.10562684937E+04  0.50400001928E-02 0. -1.
        1   -1    0    0  501    0  0.00000000000E+00  0.00000000000E+00 -0.40432347999E+03  0.40432348003E+03  0.50400001928E-02 0.  1.
    10030    2    1    2    0    0  0.00000000000E+00  0.00000000000E+00  0.65194501372E+03  0.14605919738E+04  0.13070182144E+04 0.  0.
        3    1    3    3  502    0  0.75017344048E+02  0.56384429471E+03 -0.33588267220E+02  0.56980362624E+03  0.10100000352E+00 0.  1.
       -3    1    3    3    0  502 -0.75017344048E+02 -0.56384429471E+03  0.68553328094E+03  0.89078834751E+03  0.10100000352E+00 0. -1.
</event>
<event>
 5   0  0.4453011E-03  0.1169102E+04  0.7818609E-02  0.9140340E-01
       -2   -1    0    0    0  501  0.00000000000E+00  0.00000000000E+00  0.21364251618E+03  0.21364251620E+03  0.25500000920E-02 0.  1.
        2   -1    0    0  501    0  0.00000000000E+00  0.00000000000E+00 -0.15994010373E+04  0.15994010373E+04  0.25500000920E-02 0. -1.
    10030    2    1    2    0    0  0.00000000000E+00  0.00000000000E+00 -0.13857585211E+04  0.18130435535E+04  0.11691023257E+04 0.  0.
        1    1    3    3  502    0  0.46103415209E+03  0.30430101405E+03 -0.98935576799E+03  0.11331268385E+04  0.50400001928E-02 0. -1.
       -1    1    3    3    0  502 -0.46103415209E+03 -0.30430101405E+03 -0.39640275308E+03  0.67991671492E+03  0.50400001928E-02 0.  1.
</event>
<event>
 5   0  0.2356769E-03  0.1303020E+04  0.7818609E-02  0.9027174E-01
        1   -1    0    0  501    0  0.00000000000E+00  0.00000000000E+00  0.16831810460E+04  0.16831810460E+04  0.50400001928E-02 0. -1.
       -1   -1    0    0    0  501  0.00000000000E+00  0.00000000000E+00 -0.25218039942E+03  0.25218039947E+03  0.50400001928E-02 0.  1.
    10030    2    1    2    0    0  0.00000000000E+00  0.00000000000E+00  0.14310006465E+04  0.19353614454E+04  0.13030199822E+04 0.  0.
        1    1    3    3  502    0 -0.60411079040E+03  0.19301869978E+02  0.10767123214E+04  0.12347598278E+04  0.50400001928E-02 0. -1.
       -1    1    3    3    0  502  0.60411079040E+03 -0.19301869978E+02  0.35428832511E+03  0.70060161761E+03  0.50400001928E-02 0.  1.
</event>
<event>
 5   0  0.4306214E-03  0.8353379E+03  0.7818609E-02  0.9510230E-01
        2   -1    0    0  501    0  0.00000000000E+00  0.00000000000E+00  0.14777650213E+04  0.14777650213E+04  0.25500000920E-02 0. -1.
       -2   -1    0    0    0  501  0.00000000000E+00  0.00000000000E+00 -0.11804810578E+03  0.11804810581E+03  0.25500000920E-02 0.  1.
    10030    2    1    2    0    0  0.00000000000E+00  0.00000000000E+00  0.13597169155E+04  0.15958131271E+04  0.83533792342E+03 0.  0.
        3    1    3    3  502    0 -0.27807931706E+03 -0.12196809759E+03  0.13199872583E+03  0.33110118881E+03  0.10100000352E+00 0.  1.
       -3    1    3    3    0  502  0.27807931706E+03  0.12196809759E+03  0.12277181896E+04  0.12647119383E+04  0.10100000352E+00 0. -1.
</event>
<event>
 5   0  0.2356769E-03  0.1260064E+04  0.7818609E-02  0.9061848E-01
        1   -1    0    0  501    0  0.00000000000E+00  0.00000000000E+00  0.10253966450E+04  0.10253966450E+04  0.50400001928E-02 0.  1.
       -1   -1    0    0    0  501  0.00000000000E+00  0.00000000000E+00 -0.38710915104E+03  0.38710915107E+03  0.50400001928E-02 0. -1.
    10030    2    1    2    0    0  0.00000000000E+00  0.00000000000E+00  0.63828749393E+03  0.14125057961E+04  0.12600641646E+04 0.  0.
        1    1    3    3  502    0 -0.19866260897E+03 -0.51853721689E+03 -0.14510504037E+02  0.55548018169E+03  0.50400001928E-02 0. -1.
       -1    1    3    3    0  502  0.19866260897E+03  0.51853721689E+03  0.65279799797E+03  0.85702561436E+03  0.50400001928E-02 0.  1.
</event>
<event>
 5   0  0.2511542E-03  0.1288910E+04  0.7818609E-02  0.9038406E-01
       -1   -1    0    0    0  501  0.00000000000E+00  0.00000000000E+00  0.27597535198E+03  0.27597535202E+03  0.50400001928E-02 0. -1.
        1   -1    0    0  501    0  0.00000000000E+00  0.00000000000E+00 -0.15049247505E+04  0.15049247505E+04  0.50400001928E-02 0.  1.
    10030    2    1    2    0    0  0.00000000000E+00  0.00000000000E+00 -0.12289493985E+04  0.17809001025E+04  0.12889098305E+04 0.  0.
        4    1    3    3  502    0 -0.10707854904E+03  0.11608730538E+03 -0.14777711168E+04  0.14861867866E+04  0.12699999809E+01 0.  1.
       -4    1    3    3    0  502  0.10707854904E+03 -0.11608730538E+03  0.24882171833E+03  0.29471331587E+03  0.12699999809E+01 0. -1.
</event>
<event>
 5   0  0.4453011E-03  0.1313832E+04  0.7818609E-02  0.9018667E-01
       -2   -1    0    0    0  501  0.00000000000E+00  0.00000000000E+00  0.13631993878E+03  0.13631993881E+03  0.25500000920E-02 0. -1.
        2   -1    0    0  501    0  0.00000000000E+00  0.00000000000E+00 -0.31656328275E+04  0.31656328275E+04  0.25500000920E-02 0.  1.
    10030    2    1    2    0    0  0.00000000000E+00  0.00000000000E+00 -0.30293128887E+04  0.33019527663E+04  0.13138323688E+04 0.  0.
        1    1    3    3  502    0  0.61146745069E+03  0.63760379190E+02 -0.20964065692E+04  0.21846918164E+04  0.50400001928E-02 0.  1.
       -1    1    3    3    0  502 -0.61146745069E+03 -0.63760379190E+02 -0.93290631957E+03  0.11172609500E+04  0.50400001928E-02 0. -1.
</event>
<event>
 5   0  0.2356769E-03  0.1293935E+04  0.7818609E-02  0.9034389E-01
        1   -1    0    0  501    0  0.00000000000E+00  0.00000000000E+00  0.57899655982E+03  0.57899655984E+03  0.50400001928E-02 0. -1.
       -1   -1    0    0    0  501  0.00000000000E+00  0.00000000000E+00 -0.72291747677E+03  0.72291747678E+03  0.50400001928E-02 0.  1.
    10030    2    1    2    0    0  0.00000000000E+00  0.00000000000E+00 -0.14392091695E+03  0.13019140366E+04  0.12939346693E+04 0.  0.
        1    1    3    3  502    0  0.21366401303E+03  0.58531090409E+03 -0.24717672653E+03  0.67032641234E+03  0.50400001928E-02 0. -1.
       -1    1    3    3    0  502 -0.21366401303E+03 -0.58531090409E+03  0.10325580958E+03  0.63158762429E+03  0.50400001928E-02 0.  1.
</event>
<event>
 5   0  0.2356769E-03  0.1065573E+04  0.7818609E-02  0.9239412E-01
        1   -1    0    0  501    0  0.00000000000E+00  0.00000000000E+00  0.40127206706E+03  0.40127206709E+03  0.50400001928E-02 0. -1.
       -1   -1    0    0    0  501  0.00000000000E+00  0.00000000000E+00 -0.70740428035E+03  0.70740428037E+03  0.50400001928E-02 0.  1.
    10030    2    1    2    0    0  0.00000000000E+00  0.00000000000E+00 -0.30613221329E+03  0.11086763475E+04  0.10655732314E+04 0.  0.
        1    1    3    3  502    0 -0.15122828162E+03 -0.36173378824E+03 -0.52840822494E+03  0.65797916298E+03  0.50400001928E-02 0.  1.
       -1    1    3    3    0  502  0.15122828162E+03  0.36173378824E+03  0.22227601165E+03  0.45069718448E+03  0.50400001928E-02 0. -1.
</event>
<event>
 5   0  0.4306214E-03  0.1274005E+04  0.7818609E-02  0.9050437E-01
       -2   -1    0    0    0  501  0.00000000000E+00  0.00000000000E+00  0.58863509391E+03  0.58863509391E+03  0.25500000920E-02 0.  1.
        2   -1    0    0  501    0  0.00000000000E+00  0.00000000000E+00 -0.68934426126E+03  0.68934426126E+03  0.25500000920E-02 0. -1.
    10030    2    1    2    0    0  0.00000000000E+00  0.00000000000E+00 -0.10070916735E+03  0.12779793552E+04  0.12740050612E+04 0.  0.
        3    1    3    3  502    0  0.53290109559E+03  0.34148378325E+03  0.21824462534E+02  0.63330172057E+03  0.10100000352E+00 0. -1.
       -3    1    3    3    0  502 -0.53290109559E+03 -0.34148378325E+03 -0.12253362988E+03  0.64467763461E+03  0.10100000352E+00 0.  1.
</event>
<event>
 5   0  0.4388937E-03  0.1366297E+04  0.7818609E-02  0.8978582E-01
       -2   -1    0    0    0  501  0.00000000000E+00  0.00000000000E+00  0.28626818029E+03  0.28626818030E+03  0.25500000920E-02 0. -1.
        2   -1    0    0  501    0  0.00000000000E+00  0.00000000000E+00 -0.16302621115E+04  0.16302621115E+04  0.25500000920E-02 0.  1.
    10030    2    1    2    0    0  0.00000000000E+00  0.00000000000E+00 -0.13439939312E+04  0.19165302918E+04  0.13662974319E+04 0.  0.
        5    1    3    3  502    0 -0.19535777756E+03 -0.45209185618E+03 -0.13360597834E+04  0.14239485744E+04  0.46999998093E+01 0.  1.
       -5    1    3    3    0  502  0.19535777756E+03  0.45209185618E+03 -0.79341478545E+01  0.49258171746E+03  0.46999998093E+01 0. -1.
</event>
<event>
 5   0  0.4263540E-03  0.1315953E+04  0.7818609E-02  0.9017009E-01
        2   -1    0    0  501    0  0.00000000000E+00  0.00000000000E+00  0.10636040619E+04  0.10636040619E+04  0.25500000920E-02 0.  1.
       -2   -1    0    0    0  501  0.00000000000E+00  0.00000000000E+00 -0.40704358067E+03  0.40704358068E+03  0.25500000920E-02 0. -1.
    10030    2    1    2    0    0  0.00000000000E+00  0.00000000000E+00  0.65656048124E+03  0.14706476426E+04  0.13159531995E+04 0.  0.
        2    1    3    3  502    0 -0.64347464483E+03 -0.13718607403E+03  0.33645965599E+03  0.73897546479E+03  0.25500000920E-02 0. -1.
       -2    1    3    3    0  502  0.64347464483E+03  0.13718607403E+03  0.32010082525E+03  0.73167217781E+03  0.25500000920E-02 0.  1.
</event>
<event>
 5   0  0.4263540E-03  0.1302127E+04  0.7818609E-02  0.9027880E-01
        2   -1    0    0  501    0  0.00000000000E+00  0.00000000000E+00  0.19662286881E+04  0.19662286881E+04  0.25500000920E-02 0. -1.
       -2   -1    0    0    0  501  0.00000000000E+00  0.00000000000E+00 -0.21558213525E+03  0.21558213526E+03  0.25500000920E-02 0.  1.
    10030    2    1    2    0    0  0.00000000000E+00  0.00000000000E+00  0.17506465529E+04  0.21818108234E+04  0.13021271505E+04 0.  0.
        2    1    3    3  502    0 -0.43649546055E+03 -0.12003376874E+03  0.16593548998E+04  0.17199985686E+04  0.25500000920E-02 0. -1.
       -2    1    3    3    0  502  0.43649546055E+03  0.12003376874E+03  0.91291653137E+02  0.46181225478E+03  0.25500000920E-02 0.  1.
</event>
<event>
 5   0  0.4306214E-03  0.1344322E+04  0.7818609E-02  0.8995137E-01
        2   -1    0    0  501    0  0.00000000000E+00  0.00000000000E+00  0.61362481307E+03  0.61362481307E+03  0.25500000920E-02 0.  1.
       -2   -1    0    0    0  501  0.00000000000E+00  0.00000000000E+00 -0.73628140425E+03  0.73628140426E+03  0.25500000920E-02 0. -1.
    10030    2    1    2    0    0  0.00000000000E+00  0.00000000000E+00 -0.12265659118E+03  0.13499062173E+04  0.13443221921E+04 0.  0.
        3    1    3    3  502    0 -0.16890448721E+03 -0.48805657896E+03  0.37065929148E+03  0.63570140052E+03  0.10100000352E+00 0.  1.
       -3    1    3    3    0  502  0.16890448721E+03  0.48805657896E+03 -0.49331588266E+03  0.71420481681E+03  0.10100000352E+00 0. -1.
</event>
<event>
 5   0  0.2462055E-03  0.1310034E+04  0.7818609E-02  0.9021646E-01
        1   -1    0    0  501    0  0.00000000000E+00  0.00000000000E+00  0.22773113845E+04  0.22773113845E+04  0.50400001928E-02 0. -1.
       -1   -1    0    0    0  501  0.00000000000E+00  0.00000000000E+00 -0.18840083171E+03  0.18840083177E+03  0.50400001928E-02 0.  1.
    10030    2    1    2    0    0  0.00000000000E+00  0.00000000000E+00  0.20889105528E+04  0.24657122163E+04  0.13100341354E+04 0.  0.
        2    1    3    3  502    0  0.26982142594E+03 -0.27378849440E+03  0.20426884400E+04  0.20785427117E+04  0.25500000920E-02 0. -1.
       -2    1    3    3    0  502 -0.26982142594E+03  0.27378849440E+03  0.46222112832E+02  0.38716950459E+03  0.25500000920E-02 0.  1.
</event>
<event>
 5   0  0.4453011E-03  0.1291749E+04  0.7818609E-02  0.9036134E-01
       -2   -1    0    0    0  501  0.00000000000E+00  0.00000000000E+00  0.25858229431E+03  0.25858229432E+03  0.25500000920E-02 0. -1.
        2   -1    0    0  501    0  0.00000000000E+00  0.00000000000E+00 -0.16132350365E+04  0.16132350365E+04  0.25500000920E-02 0.  1.
    10030    2    1    2    0    0  0.00000000000E+00  0.00000000000E+00 -0.13546527422E+04  0.18718173309E+04  0.12917492280E+04 0.  0.
        1    1    3    3  502    0  0.41668380228E+03  0.76842158313E+01  0.37676203294E+02  0.41845422040E+03  0.50400001928E-02 0. -1.
       -1    1    3    3    0  502 -0.41668380228E+03 -0.76842158313E+01 -0.13923289455E+04  0.14533631105E+04  0.50400001928E-02 0.  1.
</event>
<event>
 5   0  0.2356769E-03  0.1301497E+04  0.7818609E-02  0.9028379E-01
       -1   -1    0    0    0  501  0.00000000000E+00  0.00000000000E+00  0.29371809995E+03  0.29371809999E+03  0.50400001928E-02 0.  1.
        1   -1    0    0  501    0  0.00000000000E+00  0.00000000000E+00 -0.14417678292E+04  0.14417678292E+04  0.50400001928E-02 0. -1.
    10030    2    1    2    0    0  0.00000000000E+00  0.00000000000E+00 -0.11480497292E+04  0.17354859292E+04  0.13014965346E+04 0.  0.
        1    1    3    3  502    0  0.50426904169E+03  0.16802691490E+03 -0.10746529820E+04  0.11989159029E+04  0.50400001928E-02 0. -1.
       -1    1    3    3    0  502 -0.50426904169E+03 -0.16802691490E+03 -0.73396747235E+02  0.53657002625E+03  0.50400001928E-02 0.  1.
</event>
<event>
 5   0  0.2370801E-03  0.1301924E+04  0.7818609E-02  0.9028041E-01
       -1   -1    0    0    0  501  0.00000000000E+00  0.00000000000E+00  0.11811493923E+04  0.11811493923E+04  0.50400001928E-02 0.  1.
        1   -1    0    0  501    0  0.00000000000E+00  0.00000000000E+00 -0.35876189472E+03  0.35876189476E+03  0.50400001928E-02 0. -1.
    10030    2    1    2    0    0  0.00000000000E+00  0.00000000000E+00  0.82238749759E+03  0.15399112871E+04  0.13019237980E+04 0.  0.
        3    1    3    3  502    0  0.25190454193E+02  0.21618042143E+03 -0.31445265946E+03  0.38242518070E+03  0.10100000352E+00 0. -1.
       -3    1    3    3    0  502 -0.25190454193E+02 -0.21618042143E+03  0.11368401570E+04  0.11574861064E+04  0.10100000352E+00 0.  1.
</event>
<event>
 5   0  0.2511542E-03  0.1322667E+04  0.7818609E-02  0.9011781E-01
        1   -1    0    0  501    0  0.00000000000E+00  0.00000000000E+00  0.12501937553E+04  0.12501937553E+04  0.50400001928E-02 0.  1.
       -1   -1    0    0    0  501  0.00000000000E+00  0.00000000000E+00 -0.34983527030E+03  0.34983527034E+03  0.50400001928E-02 0. -1.
    10030    2    1    2    0    0  0.00000000000E+00  0.00000000000E+00  0.90035848497E+03  0.16000290256E+04  0.13226668066E+04 0.  0.
        4    1    3    3  502    0 -0.27782927460E+03 -0.55135361134E+03  0.73690691845E+03  0.96136014579E+03  0.12699999809E+01 0. -1.
       -4    1    3    3    0  502  0.27782927460E+03  0.55135361134E+03  0.16345156652E+03  0.63866887983E+03  0.12699999809E+01 0.  1.
</event>
<event>
 5   0  0.4310889E-03  0.1321540E+04  0.7818609E-02  0.9012656E-01
        2   -1    0    0  501    0  0.00000000000E+00  0.00000000000E+00  0.89793574442E+03  0.89793574443E+03  0.25500000920E-02 0.  1.
       -2   -1    0    0    0  501  0.00000000000E+00  0.00000000000E+00 -0.48624514244E+03  0.48624514245E+03  0.25500000920E-02 0. -1.
    10030    2    1    2    0    0  0.00000000000E+00  0.00000000000E+00  0.41169060198E+03  0.13841808869E+04  0.13215398503E+04 0.  0.
        4    1    3    3  502    0 -0.28192593729E+03 -0.57790825667E+03  0.36522604762E+03  0.73949433129E+03  0.12699999809E+01 0.  1.
       -4    1    3    3    0  502  0.28192593729E+03  0.57790825667E+03  0.46464554354E+02  0.64468655559E+03  0.12699999809E+01 0. -1.
</event>
<event>
 5   0  0.2370801E-03  0.1290591E+04  0.7818609E-02  0.9037060E-01
        1   -1    0    0  501    0  0.00000000000E+00  0.00000000000E+00  0.46159929998E+03  0.46159930000E+03  0.50400001928E-02 0. -1.
       -1   -1    0    0    0  501  0.00000000000E+00  0.00000000000E+00 -0.90209448288E+03  0.90209448289E+03  0.50400001928E-02 0.  1.
    10030    2    1    2    0    0  0.00000000000E+00  0.00000000000E+00 -0.44049518290E+03  0.13636937829E+04  0.12905908443E+04 0.  0.
        3    1    3    3  502    0  0.18680544676E+03 -0.14973746291E+03  0.41293517049E+03  0.47731860216E+03  0.10100000352E+00 0. -1.
       -3    1    3    3    0  502 -0.18680544676E+03  0.14973746291E+03 -0.85343035339E+03  0.88637518074E+03  0.10100000352E+00 0.  1.
</event>
<event>
 5   0  0.4388937E-03  0.1380927E+04  0.7818609E-02  0.8967741E-01
        2   -1    0    0  501    0  0.00000000000E+00  0.00000000000E+00  0.56660531466E+03  0.56660531467E+03  0.25500000920E-02 0.  1.
       -2   -1    0    0    0  501  0.00000000000E+00  0.00000000000E+00 -0.84139718253E+03  0.84139718253E+03  0.25500000920E-02 0. -1.
    10030    2    1    2    0    0  0.00000000000E+00  0.00000000000E+00 -0.27479186786E+03  0.14080024972E+04  0.13809273918E+04 0.  0.
        5    1    3    3  502    0 -0.38197223022E+03 -0.34179649099E+03  0.33426480331E+03  0.61194989554E+03  0.46999998093E+01 0.  1.
       -5    1    3    3    0  502  0.38197223022E+03  0.34179649099E+03 -0.60905667117E+03  0.79605260166E+03  0.46999998093E+01 0. -1.
</event>
<event>
 5   0  0.2370801E-03  0.1269493E+04  0.7818609E-02  0.9054114E-01
        1   -1    0    0  501    0  0.00000000000E+00  0.00000000000E+00  0.85822490748E+03  0.85822490749E+03  0.50400001928E-02 0. -1.
       -1   -1    0    0    0  501  0.00000000000E+00  0.00000000000E+00 -0.46946074096E+03  0.46946074099E+03  0.50400001928E-02 0.  1.
    10030    2    1    2    0    0  0.00000000000E+00  0.00000000000E+00  0.38876416652E+03  0.13276856485E+04  0.12694926561E+04 0.  0.
        3    1    3    3  502    0 -0.17878820655E+03 -0.21314580617E+03 -0.40230264544E+03  0.48912553217E+03  0.10100000352E+00 0.  1.
       -3    1    3    3    0  502  0.17878820655E+03  0.21314580617E+03  0.79106681196E+03  0.83856011631E+03  0.10100000352E+00 0. -1.
</event>
<event>
 5   0  0.4453011E-03  0.9478946E+03  0.7818609E-02  0.9367615E-01
       -2   -1    0    0    0  501  0.00000000000E+00  0.00000000000E+00  0.16979217192E+03  0.16979217194E+03  0.25500000920E-02 0.  1.
        2   -1    0    0  501    0  0.00000000000E+00  0.00000000000E+00 -0.13229469185E+04  0.13229469185E+04  0.25500000920E-02 0. -1.
    10030    2    1    2    0    0  0.00000000000E+00  0.00000000000E+00 -0.11531547466E+04  0.14927390904E+04  0.94789457355E+03 0.  0.
        1    1    3    3  502    0 -0.14171535300E+03  0.19141787836E+03  0.68707945446E+02  0.24788067134E+03  0.50400001928E-02 0.  1.
       -1    1    3    3    0  502  0.14171535300E+03 -0.19141787836E+03 -0.12218626920E+04  0.12448584191E+04  0.50400001928E-02 0. -1.
</event>
<event>
 5   0  0.2370801E-03  0.1206196E+04  0.7818609E-02  0.9107450E-01
        1   -1    0    0  501    0  0.00000000000E+00  0.00000000000E+00  0.12023880892E+04  0.12023880892E+04  0.50400001928E-02 0. -1.
       -1   -1    0    0    0  501  0.00000000000E+00  0.00000000000E+00 -0.30250395055E+03  0.30250395059E+03  0.50400001928E-02 0.  1.
    10030    2    1    2    0    0  0.00000000000E+00  0.00000000000E+00  0.89988413862E+03  0.15048920398E+04  0.12061959163E+04 0.  0.
        3    1    3    3  502    0  0.46256377213E+03 -0.37223969062E+03  0.31790771944E+03  0.67349310230E+03  0.10100000352E+00 0.  1.
       -3    1    3    3    0  502 -0.46256377213E+03  0.37223969062E+03  0.58197641918E+03  0.83139893748E+03  0.10100000352E+00 0. -1.
</event>
<event>
 5   0  0.4388937E-03  0.1298441E+04  0.7818609E-02  0.9030802E-01
        2   -1    0    0  501    0  0.00000000000E+00  0.00000000000E+00  0.24771846989E+04  0.24771846989E+04  0.25500000920E-02 0.  1.
       -2   -1    0    0    0  501  0.00000000000E+00  0.00000000000E+00 -0.17014779333E+03  0.17014779335E+03  0.25500000920E-02 0. -1.
    10030    2    1    2    0    0  0.00000000000E+00  0.00000000000E+00  0.23070369056E+04  0.26473324923E+04  0.12984413891E+04 0.  0.
        5    1    3    3  502    0  0.46571467514E+03 -0.81227627848E+02  0.24633759996E+03  0.53309697928E+03  0.46999998093E+01 0. -1.
       -5    1    3    3    0  502 -0.46571467514E+03  0.81227627848E+02  0.20606993057E+04  0.21142355130E+04  0.46999998093E+01 0.  1.
</event>
<event>
 5   0  0.4306214E-03  0.1268053E+04  0.7818609E-02  0.9055290E-01
        2   -1    0    0  501    0  0.00000000000E+00  0.00000000000E+00  0.85454800589E+03  0.85454800589E+03  0.25500000920E-02 0.  1.
       -2   -1    0    0    0  501  0.00000000000E+00  0.00000000000E+00 -0.47041230540E+03  0.47041230540E+03  0.25500000920E-02 0. -1.
    10030    2    1    2    0    0  0.00000000000E+00  0.00000000000E+00  0.38413570049E+03  0.13249603113E+04  0.12680534650E+04 0.  0.
        3    1    3    3  502    0 -0.24910475624E+03 -0.22026875862E+03 -0.37199016551E+03  0.49894709043E+03  0.10100000352E+00 0. -1.
       -3    1    3    3    0  502  0.24910475624E+03  0.22026875862E+03  0.75612586601E+03  0.82601322087E+03  0.10100000352E+00 0.  1.
</event>
<event>
 5   0  0.4306214E-03  0.1362016E+04  0.7818609E-02  0.8981781E-01
       -2   -1    0    0    0  501  0.00000000000E+00  0.00000000000E+00  0.62946032537E+03  0.62946032538E+03  0.25500000920E-02 0.  1.
        2   -1    0    0  501    0  0.00000000000E+00  0.00000000000E+00 -0.73677739588E+03  0.73677739588E+03  0.25500000920E-02 0. -1.
    10030    2    1    2    0    0  0.00000000000E+00  0.00000000000E+00 -0.10731707051E+03  0.13662377213E+04  0.13620163572E+04 0.  0.
        3    1    3    3  502    0 -0.67815765746E+03 -0.16835482022E+02 -0.11376827354E+03  0.68784044086E+03  0.10100000352E+00 0. -1.
       -3    1    3    3    0  502  0.67815765746E+03  0.16835482022E+02  0.64512030332E+01  0.67839728039E+03  0.10100000352E+00 0.  1.
</event>
<event>
 5   0  0.2356769E-03  0.1259274E+04  0.7818609E-02  0.9062499E-01
        1   -1    0    0  501    0  0.00000000000E+00  0.00000000000E+00  0.91092980999E+03  0.91092981001E+03  0.50400001928E-02 0. -1.
       -1   -1    0    0    0  501  0.00000000000E+00  0.00000000000E+00 -0.43520692425E+03  0.43520692428E+03  0.50400001928E-02 0.  1.
    10030    2    1    2    0    0  0.00000000000E+00  0.00000000000E+00  0.47572288575E+03  0.13461367343E+04  0.12592743321E+04 0.  0.
        1    1    3    3  502    0 -0.49644648030E+03 -0.68778888551E+02  0.64527160234E+03  0.81704656178E+03  0.50400001928E-02 0. -1.
       -1    1    3    3    0  502  0.49644648030E+03  0.68778888551E+02 -0.16954871659E+03  0.52909017250E+03  0.50400001928E-02 0.  1.
</event>
<event>
 5   0  0.2511542E-03  0.1176861E+04  0.7818609E-02  0.9133354E-01
       -1   -1    0    0    0  501  0.00000000000E+00  0.00000000000E+00  0.75157945546E+03  0.75157945548E+03  0.50400001928E-02 0.  1.
        1   -1    0    0  501    0  0.00000000000E+00  0.00000000000E+00 -0.46069722325E+03  0.46069722327E+03  0.50400001928E-02 0. -1.
    10030    2    1    2    0    0  0.00000000000E+00  0.00000000000E+00  0.29088223221E+03  0.12122766788E+04  0.11768611952E+04 0.  0.
        4    1    3    3  502    0  0.51314610219E+02 -0.28063381353E+03  0.67557436887E+03  0.73334225795E+03  0.12699999809E+01 0.  1.
       -4    1    3    3    0  502 -0.51314610219E+02  0.28063381353E+03 -0.38469213666E+03  0.47893442080E+03  0.12699999809E+01 0. -1.
</event>
<event>
 5   0  0.2356769E-03  0.1240041E+04  0.7818609E-02  0.9078513E-01
        1   -1    0    0  501    0  0.00000000000E+00  0.00000000000E+00  0.12517805268E+04  0.12517805268E+04  0.50400001928E-02 0.  1.
       -1   -1    0    0    0  501  0.00000000000E+00  0.00000000000E+00 -0.30710276178E+03  0.30710276182E+03  0.50400001928E-02 0. -1.
    10030    2    1    2    0    0  0.00000000000E+00  0.00000000000E+00  0.94467776500E+03  0.15588832886E+04  0.12400407364E+04 0.  0.
        1    1    3    3  502    0  0.31515772550E+03  0.38622985364E+03  0.93581898925E+03  0.10603089514E+04  0.50400001928E-02 0.  1.
       -1    1    3    3    0  502 -0.31515772550E+03 -0.38622985364E+03  0.88587757494E+01  0.49857433720E+03  0.50400001928E-02 0. -1.
</event>
<event>
 5   0  0.2458456E-03  0.1196391E+04  0.7818609E-02  0.9116022E-01
        1   -1    0    0  501    0  0.00000000000E+00  0.00000000000E+00  0.40586494818E+03  0.40586494821E+03  0.50400001928E-02 0. -1.
       -1   -1    0    0    0  501  0.00000000000E+00  0.00000000000E+00 -0.88166696570E+03  0.88166696572E+03  0.50400001928E-02 0.  1.
    10030    2    1    2    0    0  0.00000000000E+00  0.00000000000E+00 -0.47580201752E+03  0.12875319139E+04  0.11963907679E+04 0.  0.
        5    1    3    3  502    0  0.56352038744E+03  0.11313060741E+02 -0.45349298658E+03  0.72343706795E+03  0.46999998093E+01 0. -1.
       -5    1    3    3    0  502 -0.56352038744E+03 -0.11313060741E+02 -0.22309030939E+02  0.56409484598E+03  0.46999998093E+01 0.  1.
</event>
<event>
 5   0  0.2370801E-03  0.1295748E+04  0.7818609E-02  0.9032944E-01
        1   -1    0    0  501    0  0.00000000000E+00  0.00000000000E+00  0.10651690091E+04  0.10651690091E+04  0.50400001928E-02 0. -1.
       -1   -1    0    0    0  501  0.00000000000E+00  0.00000000000E+00 -0.39406001639E+03  0.39406001643E+03  0.50400001928E-02 0.  1.
    10030    2    1    2    0    0  0.00000000000E+00  0.00000000000E+00  0.67110899266E+03  0.14592290255E+04  0.12957476872E+04 0.  0.
        3    1    3    3  502    0  0.16201979473E+03  0.16862540138E+02 -0.37062149153E+03  0.40483954763E+03  0.10100000352E+00 0.  1.
       -3    1    3    3    0  502 -0.16201979473E+03 -0.16862540138E+02  0.10417304842E+04  0.10543894779E+04  0.10100000352E+00 0. -1.
</event>
<event>
 5   0  0.2511542E-03  0.9963424E+03  0.7818609E-02  0.9312565E-01
        1   -1    0    0  501    0  0.00000000000E+00  0.00000000000E+00  0.37680812029E+03  0.37680812032E+03  0.50400001928E-02 0.  1.
       -1   -1    0    0    0  501  0.00000000000E+00  0.00000000000E+00 -0.65862319615E+03  0.65862319617E+03  0.50400001928E-02 0. -1.
    10030    2    1    2    0    0  0.00000000000E+00  0.00000000000E+00 -0.28181507586E+03  0.10354313165E+04  0.99634244825E+03 0.  0.
        4    1    3    3  502    0  0.28892508939E+03  0.57406928969E+02 -0.55841478138E+03  0.63134930406E+03  0.12699999809E+01 0. -1.
       -4    1    3    3    0  502 -0.28892508939E+03 -0.57406928969E+02  0.27659970552E+03  0.40408201243E+03  0.12699999809E+01 0.  1.
</event>
<event>
 5   0  0.2462055E-03  0.1280552E+04  0.7818609E-02  0.9045131E-01
       -1   -1    0    0    0  501  0.00000000000E+00  0.00000000000E+00  0.48936779554E+03  0.48936779557E+03  0.50400001928E-02 0.  1.
        1   -1    0    0  501    0  0.00000000000E+00  0.00000000000E+00 -0.83772018464E+03  0.83772018466E+03  0.50400001928E-02 0. -1.
    10030    2    1    2    0    0  0.00000000000E+00  0.00000000000E+00 -0.34835238910E+03  0.13270879802E+04  0.12805518811E+04 0.  0.
        2    1    3    3  502    0  0.33174570087E+03 -0.21506585514E+03  0.34775766790E+03  0.52653957846E+03  0.25500000920E-02 0.  1.
       -2    1    3    3    0  502 -0.33174570087E+03  0.21506585514E+03 -0.69611005700E+03  0.80054840176E+03  0.25500000920E-02 0. -1.
</event>
<event>
 5   0  0.4263540E-03  0.1450938E+04  0.7818609E-02  0.8917750E-01
        2   -1    0    0  501    0  0.00000000000E+00  0.00000000000E+00  0.17449836258E+04  0.17449836258E+04  0.25500000920E-02 0. -1.
       -2   -1    0    0    0  501  0.00000000000E+00  0.00000000000E+00 -0.30161046511E+03  0.30161046512E+03  0.25500000920E-02 0.  1.
    10030    2    1    2    0    0  0.00000000000E+00  0.00000000000E+00  0.14433731607E+04  0.20465940910E+04  0.14509380731E+04 0.  0.
        2    1    3    3  502    0 -0.22679268037E+03 -0.53502504646E+03  0.13342839119E+04  0.14553351084E+04  0.25500000920E-02 0. -1.
       -2    1    3    3    0  502  0.22679268037E+03  0.53502504646E+03  0.10908924881E+03  0.59125898254E+03  0.25500000920E-02 0.  1.
</event>
<event>
 5   0  0.2370801E-03  0.1315622E+04  0.7818609E-02  0.9017268E-01
       -1   -1    0    0    0  501  0.00000000000E+00  0.00000000000E+00  0.95709821108E+03  0.95709821109E+03  0.50400001928E-02 0.  1.
        1   -1    0    0  501    0  0.00000000000E+00  0.00000000000E+00 -0.45211148934E+03  0.45211148937E+03  0.50400001928E-02 0. -1.
    10030    2    1    2    0    0  0.00000000000E+00  0.00000000000E+00  0.50498672174E+03  0.14092097005E+04  0.13156216746E+04 0.  0.
        3    1    3    3  502    0  0.33702692615E+03 -0.36003349881E+03 -0.21379393882E+03  0.53751197911E+03  0.10100000352E+00 0. -1.
       -3    1    3    3    0  502 -0.33702692615E+03  0.36003349881E+03  0.71878066056E+03  0.87169772135E+03  0.10100000352E+00 0.  1.
</event>
<event>
 5   0  0.2370801E-03  0.1267367E+04  0.7818609E-02  0.9055852E-01
       -1   -1    0    0    0  501  0.00000000000E+00  0.00000000000E+00  0.62471891700E+03  0.62471891702E+03  0.50400001928E-02 0. -1.
        1   -1    0    0  501    0  0.00000000000E+00  0.00000000000E+00 -0.64277626152E+03  0.64277626154E+03  0.50400001928E-02 0.  1.
    10030    2    1    2    0    0  0.00000000000E+00  0.00000000000E+00 -0.18057344513E+02  0.12674951786E+04  0.12673665452E+04 0.  0.
        3    1    3    3  502    0  0.54339853370E+03  0.31830477727E+03 -0.79424609117E+02  0.63475048357E+03  0.10100000352E+00 0.  1.
       -3    1    3    3    0  502 -0.54339853370E+03 -0.31830477727E+03  0.61367264605E+02  0.63274469498E+03  0.10100000352E+00 0. -1.
</event>
<event>
 5   0  0.4263540E-03  0.1381775E+04  0.7818609E-02  0.8967118E-01
        2   -1    0    0  501    0  0.00000000000E+00  0.00000000000E+00  0.65475641468E+03  0.65475641469E+03  0.25500000920E-02 0. -1.
       -2   -1    0    0    0  501  0.00000000000E+00  0.00000000000E+00 -0.72901204356E+03  0.72901204356E+03  0.25500000920E-02 0.  1.
    10030    2    1    2    0    0  0.00000000000E+00  0.00000000000E+00 -0.74255628874E+02  0.13837684582E+04  0.13817746732E+04 0.  0.
        2    1    3    3  502    0 -0.44813713276E+02 -0.50225672379E+03 -0.51009651403E+03  0.71726462280E+03  0.25500000920E-02 0.  1.
       -2    1    3    3    0  502  0.44813713276E+02  0.50225672379E+03  0.43584088516E+03  0.66650383545E+03  0.25500000920E-02 0. -1.
</event>
<event>
 5   0  0.2462055E-03  0.1759825E+04  0.7818609E-02  0.8727961E-01
        1   -1    0    0  501    0  0.00000000000E+00  0.00000000000E+00  0.97812205070E+03  0.97812205072E+03  0.50400001928E-02 0.  1.
       -1   -1    0    0    0  501  0.00000000000E+00  0.00000000000E+00 -0.79156353614E+03  0.79156353616E+03  0.50400001928E-02 0. -1.
    10030    2    1    2    0    0  0.00000000000E+00  0.00000000000E+00  0.18655851456E+03  0.17696855869E+04  0.17598247063E+04 0.  0.
        2    1    3    3  502    0 -0.68420319454E+03 -0.35543266003E+03  0.51965905652E+03  0.92979133264E+03  0.25500000920E-02 0.  1.
       -2    1    3    3    0  502  0.68420319454E+03  0.35543266003E+03 -0.33310054196E+03  0.83989425423E+03  0.25500000920E-02 0. -1.
</event>
<event>
 5   0  0.2370801E-03  0.1308431E+04  0.7818609E-02  0.9022906E-01
        1   -1    0    0  501    0  0.00000000000E+00  0.00000000000E+00  0.46759105926E+03  0.46759105929E+03  0.50400001928E-02 0. -1.
       -1   -1    0    0    0  501  0.00000000000E+00  0.00000000000E+00 -0.91532486798E+03  0.91532486799E+03  0.50400001928E-02 0.  1.
    10030    2    1    2    0    0  0.00000000000E+00  0.00000000000E+00 -0.44773380872E+03  0.13829159273E+04  0.13084307007E+04 0.  0.
        3    1    3    3  502    0 -0.61932516686E+03  0.64753382411E+02 -0.43588831190E+03  0.76010215991E+03  0.10100000352E+00 0. -1.
       -3    1    3    3    0  502  0.61932516686E+03 -0.64753382411E+02 -0.11845496814E+02  0.62281376738E+03  0.10100000352E+00 0.  1.
</event>
<event>
 5   0  0.4453011E-03  0.1287051E+04  0.7818609E-02  0.9039897E-01
        2   -1    0    0  501    0  0.00000000000E+00  0.00000000000E+00  0.25327424674E+04  0.25327424674E+04  0.25500000920E-02 0.  1.
       -2   -1    0    0    0  501  0.00000000000E+00  0.00000000000E+00 -0.16350859479E+03  0.16350859481E+03  0.25500000920E-02 0. -1.
    10030    2    1    2    0    0  0.00000000000E+00  0.00000000000E+00  0.23692338727E+04  0.26962510623E+04  0.12870511440E+04 0.  0.
        1    1    3    3  502    0  0.56532356238E+03 -0.10693851999E+03  0.17885118023E+04  0.18787764753E+04  0.50400001928E-02 0.  1.
       -1    1    3    3    0  502 -0.56532356238E+03  0.10693851999E+03  0.58072207036E+03  0.81747458692E+03  0.50400001928E-02 0. -1.
</event>
<event>
 5   0  0.4263540E-03  0.1212839E+04  0.7818609E-02  0.9101692E-01
        2   -1    0    0  501    0  0.00000000000E+00  0.00000000000E+00  0.92530855519E+03  0.92530855520E+03  0.25500000920E-02 0. -1.
       -2   -1    0    0    0  501  0.00000000000E+00  0.00000000000E+00 -0.39742912894E+03  0.39742912895E+03  0.25500000920E-02 0.  1.
    10030    2    1    2    0    0  0.00000000000E+00  0.00000000000E+00  0.52787942625E+03  0.13227376841E+04  0.12128389392E+04 0.  0.
        2    1    3    3  502    0 -0.12261352033E+03 -0.75485379884E+02  0.90639532369E+03  0.91776064459E+03  0.25500000920E-02 0. -1.
       -2    1    3    3    0  502  0.12261352033E+03  0.75485379884E+02 -0.37851589744E+03  0.40497703955E+03  0.25500000920E-02 0.  1.
</event>
<event>
 5   0  0.4310889E-03  0.1302989E+04  0.7818609E-02  0.9027198E-01
       -2   -1    0    0    0  501  0.00000000000E+00  0.00000000000E+00  0.64653051573E+03  0.64653051574E+03  0.25500000920E-02 0.  1.
        2   -1    0    0  501    0  0.00000000000E+00  0.00000000000E+00 -0.65649648267E+03  0.65649648267E+03  0.25500000920E-02 0. -1.
    10030    2    1    2    0    0  0.00000000000E+00  0.00000000000E+00 -0.99659669350E+01  0.13030269984E+04  0.13029888864E+04 0.  0.
        4    1    3    3  502    0  0.47532363424E+00 -0.63171406429E+03 -0.16430026575E+03  0.65273200870E+03  0.12699999809E+01 0.  1.
       -4    1    3    3    0  502 -0.47532363424E+00  0.63171406429E+03  0.15433429882E+03  0.65029498971E+03  0.12699999809E+01 0. -1.
</event>
<event>
 5   0  0.4388937E-03  0.1297091E+04  0.7818609E-02  0.9031875E-01
       -2   -1    0    0    0  501  0.00000000000E+00  0.00000000000E+00  0.24332333507E+03  0.24332333509E+03  0.25500000920E-02 0.  1.
        2   -1    0    0  501    0  0.00000000000E+00  0.00000000000E+00 -0.17286103457E+04  0.17286103457E+04  0.25500000920E-02 0. -1.
    10030    2    1    2    0    0  0.00000000000E+00  0.00000000000E+00 -0.14852870106E+04  0.19719336808E+04  0.12970909519E+04 0.  0.
        5    1    3    3  502    0  0.20761219079E+03  0.61438644940E+03 -0.74865068505E+03  0.99049152909E+03  0.46999998093E+01 0.  1.
       -5    1    3    3    0  502 -0.20761219079E+03 -0.61438644940E+03 -0.73663632560E+03  0.98144215172E+03  0.46999998093E+01 0. -1.
</event>
<event>
 5   0  0.4310889E-03  0.1301447E+04  0.7818609E-02  0.9028419E-01
        2   -1    0    0  501    0  0.00000000000E+00  0.00000000000E+00  0.60116950122E+03  0.60116950123E+03  0.25500000920E-02 0.  1.
       -2   -1    0    0    0  501  0.00000000000E+00  0.00000000000E+00 -0.70436211010E+03  0.70436211010E+03  0.25500000920E-02 0. -1.
    10030    2    1    2    0    0  0.00000000000E+00  0.00000000000E+00 -0.10319260888E+03  0.13055316113E+04  0.13014469154E+04 0.  0.
        4    1    3    3  502    0  0.32707488358E+03 -0.56189594400E+03 -0.24411912123E+02  0.65061708070E+03  0.12699999809E+01 0.  1.
       -4    1    3    3    0  502 -0.32707488358E+03  0.56189594400E+03 -0.78780696757E+02  0.65491453063E+03  0.12699999809E+01 0. -1.
</event>
<event>
 5   0  0.4453011E-03  0.1640948E+04  0.7818609E-02  0.8795779E-01
       -2   -1    0    0    0  501  0.00000000000E+00  0.00000000000E+00  0.61091835391E+03  0.61091835392E+03  0.25500000920E-02 0. -1.
        2   -1    0    0  501    0  0.00000000000E+00  0.00000000000E+00 -0.11019112743E+04  0.11019112744E+04  0.25500000920E-02 0.  1.
    10030    2    1    2    0    0  0.00000000000E+00  0.00000000000E+00 -0.49099292043E+03  0.17128296283E+04  0.16409482891E+04 0.  0.
        1    1    3    3  502    0 -0.23801529983E+03 -0.45940109399E+03 -0.91016094965E+03  0.10469448899E+04  0.50400001928E-02 0.  1.
       -1    1    3    3    0  502  0.23801529983E+03  0.45940109399E+03  0.41916802922E+03  0.66588473841E+03  0.50400001928E-02 0. -1.
</event>
<event>
 5   0  0.2462055E-03  0.1269850E+04  0.7818609E-02  0.9053822E-01
        1   -1    0    0  501    0  0.00000000000E+00  0.00000000000E+00  0.76941520122E+03  0.76941520123E+03  0.50400001928E-02 0.  1.
       -1   -1    0    0    0  501  0.00000000000E+00  0.00000000000E+00 -0.52394317984E+03  0.52394317986E+03  0.50400001928E-02 0. -1.
    10030    2    1    2    0    0  0.00000000000E+00  0.00000000000E+00  0.24547202138E+03  0.12933583811E+04  0.12698501442E+04 0.  0.
        2    1    3    3  502    0 -0.43009528711E+02  0.51442674968E+03  0.49923474008E+03  0.71813649542E+03  0.25500000920E-02 0.  1.
       -2    1    3    3    0  502  0.43009528711E+02 -0.51442674968E+03 -0.25376271870E+03  0.57522188567E+03  0.25500000920E-02 0. -1.
</event>
<event>
 5   0  0.4263540E-03  0.1295367E+04  0.7818609E-02  0.9033248E-01
       -2   -1    0    0    0  501  0.00000000000E+00  0.00000000000E+00  0.24520539323E+03  0.24520539324E+03  0.25500000920E-02 0. -1.
        2   -1    0    0  501    0  0.00000000000E+00  0.00000000000E+00 -0.17107848027E+04  0.17107848027E+04  0.25500000920E-02 0.  1.
    10030    2    1    2    0    0  0.00000000000E+00  0.00000000000E+00 -0.14655794094E+04  0.19559901959E+04  0.12953666049E+04 0.  0.
        2    1    3    3  502    0 -0.21190516600E+03  0.10049813403E+03 -0.16444158612E+04  0.16610560493E+04  0.25500000920E-02 0.  1.
       -2    1    3    3    0  502  0.21190516600E+03 -0.10049813403E+03  0.17883645180E+03  0.29493414658E+03  0.25500000920E-02 0. -1.
</event>
<event>
 5   0  0.4306214E-03  0.1290517E+04  0.7818609E-02  0.9037120E-01
       -2   -1    0    0    0  501  0.00000000000E+00  0.00000000000E+00  0.42303945331E+03  0.42303945332E+03  0.25500000920E-02 0.  1.
        2   -1    0    0  501    0  0.00000000000E+00  0.00000000000E+00 -0.98420662336E+03  0.98420662336E+03  0.25500000920E-02 0. -1.
    10030    2    1    2    0    0  0.00000000000E+00  0.00000000000E+00 -0.56116717005E+03  0.14072460767E+04  0.12905165352E+04 0.  0.
        3    1    3    3  502    0 -0.32676284645E+03  0.50441798972E+03 -0.53665815750E+03  0.80573783229E+03  0.10100000352E+00 0. -1.
       -3    1    3    3    0  502  0.32676284645E+03 -0.50441798972E+03 -0.24509012549E+02  0.60150824439E+03  0.10100000352E+00 0.  1.
</event>
<event>
 5   0  0.4388937E-03  0.1274184E+04  0.7818609E-02  0.9050292E-01
       -2   -1    0    0    0  501  0.00000000000E+00  0.00000000000E+00  0.49838318560E+03  0.49838318561E+03  0.25500000920E-02 0. -1.
        2   -1    0    0  501    0  0.00000000000E+00  0.00000000000E+00 -0.81440629634E+03  0.81440629634E+03  0.25500000920E-02 0.  1.
    10030    2    1    2    0    0  0.00000000000E+00  0.00000000000E+00 -0.31602311074E+03  0.13127894820E+04  0.12741842949E+04 0.  0.
        5    1    3    3  502    0  0.46582117390E+03 -0.95945752019E+02 -0.59472830828E+03  0.76152400097E+03  0.46999998093E+01 0.  1.
       -5    1    3    3    0  502 -0.46582117390E+03  0.95945752019E+02  0.27870519754E+03  0.55126548098E+03  0.46999998093E+01 0. -1.
</event>
<event>
 5   0  0.4453011E-03  0.1302202E+04  0.7818609E-02  0.9027821E-01
       -2   -1    0    0    0  501  0.00000000000E+00  0.00000000000E+00  0.27880403323E+03  0.27880403324E+03  0.25500000920E-02 0. -1.
        2   -1    0    0  501    0  0.00000000000E+00  0.00000000000E+00 -0.15205385444E+04  0.15205385444E+04  0.25500000920E-02 0.  1.
    10030    2    1    2    0    0  0.00000000000E+00  0.00000000000E+00 -0.12417345112E+04  0.17993425777E+04  0.13022016417E+04 0.  0.
        1    1    3    3  502    0  0.28726066377E+03 -0.30369979168E+03  0.68883574829E+02  0.42367109805E+03  0.50400001928E-02 0. -1.
       -1    1    3    3    0  502 -0.28726066377E+03  0.30369979168E+03 -0.13106180860E+04  0.13756714796E+04  0.50400001928E-02 0.  1.
</event>
<event>
 5   0  0.2356769E-03  0.1297569E+04  0.7818609E-02  0.9031495E-01
        1   -1    0    0  501    0  0.00000000000E+00  0.00000000000E+00  0.44792242797E+03  0.44792242800E+03  0.50400001928E-02 0.  1.
       -1   -1    0    0    0  501  0.00000000000E+00  0.00000000000E+00 -0.93971964726E+03  0.93971964728E+03  0.50400001928E-02 0. -1.
    10030    2    1    2    0    0  0.00000000000E+00  0.00000000000E+00 -0.49179721930E+03  0.13876420753E+04  0.12975692753E+04 0.  0.
        1    1    3    3  502    0 -0.24844055097E+03  0.18034378535E+03 -0.85712880622E+03  0.91044844926E+03  0.50400001928E-02 0. -1.
       -1    1    3    3    0  502  0.24844055097E+03 -0.18034378535E+03  0.36533158693E+03  0.47719362601E+03  0.50400001928E-02 0.  1.
</event>
<event>
 5   0  0.4263540E-03  0.1282341E+04  0.7818609E-02  0.9043687E-01
        2   -1    0    0  501    0  0.00000000000E+00  0.00000000000E+00  0.99143722029E+03  0.99143722029E+03  0.25500000920E-02 0. -1.
       -2   -1    0    0    0  501  0.00000000000E+00  0.00000000000E+00 -0.41465016020E+03  0.41465016021E+03  0.25500000920E-02 0.  1.
    10030    2    1    2    0    0  0.00000000000E+00  0.00000000000E+00  0.57678706009E+03  0.14060873805E+04  0.12823409878E+04 0.  0.
        2    1    3    3  502    0 -0.61681589874E+02 -0.54703383284E+03 -0.72034950521E+02  0.55519335992E+03  0.25500000920E-02 0.  1.
       -2    1    3    3    0  502  0.61681589874E+02  0.54703383284E+03  0.64882201061E+03  0.85089402058E+03  0.25500000920E-02 0. -1.
</event>
<event>
 5   0  0.2370801E-03  0.1285575E+04  0.7818609E-02  0.9041083E-01
       -1   -1    0    0    0  501  0.00000000000E+00  0.00000000000E+00  0.64064908975E+03  0.64064908977E+03  0.50400001928E-02 0. -1.
        1   -1    0    0  501    0  0.00000000000E+00  0.00000000000E+00 -0.64493346344E+03  0.64493346346E+03  0.50400001928E-02 0.  1.
    10030    2    1    2    0    0  0.00000000000E+00  0.00000000000E+00 -0.42843736847E+01  0.12855825532E+04  0.12855754141E+04 0.  0.
        3    1    3    3  502    0 -0.25382104195E+03  0.58918044830E+03  0.38073756419E+02  0.64265725167E+03  0.10100000352E+00 0. -1.
       -3    1    3    3    0  502  0.25382104195E+03 -0.58918044830E+03 -0.42358130104E+02  0.64292530156E+03  0.10100000352E+00 0.  1.
</event>
<event>
 5   0  0.4388937E-03  0.1214697E+04  0.7818609E-02  0.9100089E-01
       -2   -1    0    0    0  501  0.00000000000E+00  0.00000000000E+00  0.50930157226E+03  0.50930157226E+03  0.25500000920E-02 0. -1.
        2   -1    0    0  501    0  0.00000000000E+00  0.00000000000E+00 -0.72427022776E+03  0.72427022777E+03  0.25500000920E-02 0.  1.
    10030    2    1    2    0    0  0.00000000000E+00  0.00000000000E+00 -0.21496865550E+03  0.12335718000E+04  0.12146966136E+04 0.  0.
        5    1    3    3  502    0 -0.41876028591E+03 -0.15342580094E+03  0.31117182718E+03  0.54382869498E+03  0.46999998093E+01 0. -1.
       -5    1    3    3    0  502  0.41876028591E+03  0.15342580094E+03 -0.52614048269E+03  0.68974310505E+03  0.46999998093E+01 0.  1.
</event>
<event>
 5   0  0.2462055E-03  0.1235207E+04  0.7818609E-02  0.9082586E-01
       -1   -1    0    0    0  501  0.00000000000E+00  0.00000000000E+00  0.21452326999E+03  0.21452327005E+03  0.50400001928E-02 0. -1.
        1   -1    0    0  501    0  0.00000000000E+00  0.00000000000E+00 -0.17780534432E+04  0.17780534432E+04  0.50400001928E-02 0.  1.
    10030    2    1    2    0    0  0.00000000000E+00  0.00000000000E+00 -0.15635301732E+04  0.19925767132E+04  0.12352066044E+04 0.  0.
        2    1    3    3  502    0  0.56304449789E+03  0.22528263910E+03 -0.97032092040E+03  0.11442438825E+04  0.25500000920E-02 0.  1.
       -2    1    3    3    0  502 -0.56304449789E+03 -0.22528263910E+03 -0.59320925279E+03  0.84833283073E+03  0.25500000920E-02 0. -1.
</event>
<event>
 5   0  0.4310889E-03  0.1416751E+04  0.7818609E-02  0.8941782E-01
       -2   -1    0    0    0  501  0.00000000000E+00  0.00000000000E+00  0.31315412369E+03  0.31315412370E+03  0.25500000920E-02 0.  1.
        2   -1    0    0  501    0  0.00000000000E+00  0.00000000000E+00 -0.16023923863E+04  0.16023923863E+04  0.25500000920E-02 0. -1.
    10030    2    1    2    0    0  0.00000000000E+00  0.00000000000E+00 -0.12892382626E+04  0.19155465100E+04  0.14167509076E+04 0.  0.
        4    1    3    3  502    0 -0.50493243967E+03 -0.33993554296E+03 -0.15472693890E+03  0.62805651061E+03  0.12699999809E+01 0.  1.
       -4    1    3    3    0  502  0.50493243967E+03  0.33993554296E+03 -0.11345113237E+04  0.12874899994E+04  0.12699999809E+01 0. -1.
</event>
<event>
 5   0  0.2356769E-03  0.1298915E+04  0.7818609E-02  0.9030426E-01
       -1   -1    0    0    0  501  0.00000000000E+00  0.00000000000E+00  0.48089866395E+03  0.48089866398E+03  0.50400001928E-02 0.  1.
        1   -1    0    0  501    0  0.00000000000E+00  0.00000000000E+00 -0.87709735001E+03  0.87709735003E+03  0.50400001928E-02 0. -1.
    10030    2    1    2    0    0  0.00000000000E+00  0.00000000000E+00 -0.39619868606E+03  0.13579960140E+04  0.12989148453E+04 0.  0.
        1    1    3    3  502    0 -0.39578609454E+03  0.27417254306E+03 -0.65378898747E+03  0.81194658455E+03  0.50400001928E-02 0. -1.
       -1    1    3    3    0  502  0.39578609454E+03 -0.27417254306E+03  0.25759030141E+03  0.54604942945E+03  0.50400001928E-02 0.  1.
</event>
<event>
 5   0  0.4453011E-03  0.1280745E+04  0.7818609E-02  0.9044975E-01
        2   -1    0    0  501    0  0.00000000000E+00  0.00000000000E+00  0.86496517189E+03  0.86496517189E+03  0.25500000920E-02 0. -1.
       -2   -1    0    0    0  501  0.00000000000E+00  0.00000000000E+00 -0.47409663768E+03  0.47409663769E+03  0.25500000920E-02 0.  1.
    10030    2    1    2    0    0  0.00000000000E+00  0.00000000000E+00  0.39086853421E+03  0.13390618096E+04  0.12807452201E+04 0.  0.
        1    1    3    3  502    0  0.98782692492E+02  0.10142769336E+03 -0.45752743888E+03  0.47893314217E+03  0.50400001928E-02 0.  1.
       -1    1    3    3    0  502 -0.98782692492E+02 -0.10142769336E+03  0.84839597309E+03  0.86012866740E+03  0.50400001928E-02 0. -1.
</event>
<event>
 5   0  0.2511542E-03  0.1302536E+04  0.7818609E-02  0.9027556E-01
        1   -1    0    0  501    0  0.00000000000E+00  0.00000000000E+00  0.13997053865E+04  0.13997053865E+04  0.50400001928E-02 0. -1.
       -1   -1    0    0    0  501  0.00000000000E+00  0.00000000000E+00 -0.30302807013E+03  0.30302807017E+03  0.50400001928E-02 0.  1.
    10030    2    1    2    0    0  0.00000000000E+00  0.00000000000E+00  0.10966773163E+04  0.17027334567E+04  0.13025360219E+04 0.  0.
        4    1    3    3  502    0  0.99005294167E+02  0.59842982433E+03  0.85831864480E+03  0.10510151340E+04  0.12699999809E+01 0. -1.
       -4    1    3    3    0  502 -0.99005294167E+02 -0.59842982433E+03  0.23835867154E+03  0.65171832269E+03  0.12699999809E+01 0.  1.
</event>
<event>
 5   0  0.1661750E-03  0.1374528E+04  0.7818609E-02  0.8972466E-01
        3   -1    0    0  501    0  0.00000000000E+00  0.00000000000E+00  0.44656792190E+03  0.44656793332E+03  0.10100000352E+00 0. -1.
       -3   -1    0    0    0  501  0.00000000000E+00  0.00000000000E+00 -0.10576924856E+04  0.10576924904E+04  0.10100000352E+00 0.  1.
    10030    2    1    2    0    0  0.00000000000E+00  0.00000000000E+00 -0.61112456371E+03  0.15042604237E+04  0.13745276243E+04 0.  0.
        1    1    3    3  502    0  0.50539999833E+03  0.44450905088E+03 -0.45765440230E+03  0.81391953325E+03  0.50400001928E-02 0.  1.
       -1    1    3    3    0  502 -0.50539999833E+03 -0.44450905088E+03 -0.15347016141E+03  0.69034089050E+03  0.50400001928E-02 0. -1.
</event>
<event>
 5   0  0.4306214E-03  0.9974560E+03  0.7818609E-02  0.9311339E-01
        2   -1    0    0  501    0  0.00000000000E+00  0.00000000000E+00  0.12859513070E+04  0.12859513070E+04  0.25500000920E-02 0. -1.
       -2   -1    0    0    0  501  0.00000000000E+00  0.00000000000E+00 -0.19342072735E+03  0.19342072737E+03  0.25500000920E-02 0.  1.
    10030    2    1    2    0    0  0.00000000000E+00  0.00000000000E+00  0.10925305797E+04  0.14793720344E+04  0.99745603846E+03 0.  0.
        3    1    3    3  502    0 -0.23733683831E+03  0.30889280610E+03  0.84375503916E+02  0.39857593548E+03  0.10100000352E+00 0. -1.
       -3    1    3    3    0  502  0.23733683831E+03 -0.30889280610E+03  0.10081550758E+04  0.10807960989E+04  0.10100000352E+00 0.  1.
</event>
<event>
 5   0  0.2370801E-03  0.9150070E+03  0.7818609E-02  0.9407014E-01
       -1   -1    0    0    0  501  0.00000000000E+00  0.00000000000E+00  0.65661582556E+03  0.65661582558E+03  0.50400001928E-02 0.  1.
        1   -1    0    0  501    0  0.00000000000E+00  0.00000000000E+00 -0.31877000995E+03  0.31877000999E+03  0.50400001928E-02 0. -1.
    10030    2    1    2    0    0  0.00000000000E+00  0.00000000000E+00  0.33784581561E+03  0.97538583557E+03  0.91500695795E+03 0.  0.
        3    1    3    3  502    0 -0.32631276591E+03  0.17523270357E+03 -0.11735553282E+03  0.38853423643E+03  0.10100000352E+00 0. -1.
       -3    1    3    3    0  502  0.32631276591E+03 -0.17523270357E+03  0.45520134842E+03  0.58685159913E+03  0.10100000352E+00 0.  1.
</event>
<event>
 5   0  0.4453011E-03  0.1290019E+04  0.7818609E-02  0.9037518E-01
        2   -1    0    0  501    0  0.00000000000E+00  0.00000000000E+00  0.52056220189E+03  0.52056220189E+03  0.25500000920E-02 0. -1.
       -2   -1    0    0    0  501  0.00000000000E+00  0.00000000000E+00 -0.79920703714E+03  0.79920703714E+03  0.25500000920E-02 0.  1.
    10030    2    1    2    0    0  0.00000000000E+00  0.00000000000E+00 -0.27864483525E+03  0.13197692390E+04  0.12900185658E+04 0.  0.
        1    1    3    3  502    0  0.15665140334E+03  0.32731210025E+03  0.40623369495E+03  0.54470054899E+03  0.50400001928E-02 0. -1.
       -1    1    3    3    0  502 -0.15665140334E+03 -0.32731210025E+03 -0.68487853020E+03  0.77506869005E+03  0.50400001928E-02 0.  1.
</event>
<event>
 5   0  0.2511542E-03  0.1356814E+04  0.7818609E-02  0.8985686E-01
        1   -1    0    0  501    0  0.00000000000E+00  0.00000000000E+00  0.53312108369E+03  0.53312108371E+03  0.50400001928E-02 0.  1.
       -1   -1    0    0    0  501  0.00000000000E+00  0.00000000000E+00 -0.86328625607E+03  0.86328625608E+03  0.50400001928E-02 0. -1.
    10030    2    1    2    0    0  0.00000000000E+00  0.00000000000E+00 -0.33016517238E+03  0.13964073398E+04  0.13568140689E+04 0.  0.
        4    1    3    3  502    0  0.49479024853E+03 -0.50642572529E+02 -0.63990486976E+03  0.81047018171E+03  0.12699999809E+01 0. -1.
       -4    1    3    3    0  502 -0.49479024853E+03  0.50642572529E+02  0.30973969738E+03  0.58593715809E+03  0.12699999809E+01 0.  1.
</event>
<event>
 5   0  0.4306214E-03  0.1492702E+04  0.7818609E-02  0.8889321E-01
       -2   -1    0    0    0  501  0.00000000000E+00  0.00000000000E+00  0.24953445913E+03  0.24953445914E+03  0.25500000920E-02 0. -1.
        2   -1    0    0  501    0  0.00000000000E+00  0.00000000000E+00 -0.22323151131E+04  0.22323151131E+04  0.25500000920E-02 0.  1.
    10030    2    1    2    0    0  0.00000000000E+00  0.00000000000E+00 -0.19827806540E+04  0.24818495722E+04  0.14927016371E+04 0.  0.
        3    1    3    3  502    0  0.24553136093E+03  0.31397257736E+03  0.57764293756E+02  0.40274204197E+03  0.10100000352E+00 0. -1.
       -3    1    3    3    0  502 -0.24553136093E+03 -0.31397257736E+03 -0.20405449477E+04  0.20791075303E+04  0.10100000352E+00 0.  1.
</event>
<event>
 5   0  0.2511542E-03  0.1369624E+04  0.7818609E-02  0.8976104E-01
        1   -1    0    0  501    0  0.00000000000E+00  0.00000000000E+00  0.88480789048E+03  0.88480789050E+03  0.50400001928E-02 0. -1.
       -1   -1    0    0    0  501  0.00000000000E+00  0.00000000000E+00 -0.53002211543E+03  0.53002211545E+03  0.50400001928E-02 0.  1.
    10030    2    1    2    0    0  0.00000000000E+00  0.00000000000E+00  0.35478577506E+03  0.14148300059E+04  0.13696244009E+04 0.  0.
        4    1    3    3  502    0  0.12252141906E+03  0.52776449841E+03 -0.25526181720E+03  0.59892159097E+03  0.12699999809E+01 0.  1.
       -4    1    3    3    0  502 -0.12252141906E+03 -0.52776449841E+03  0.61004759226E+03  0.81590841498E+03  0.12699999809E+01 0. -1.
</event>
<event>
 5   0  0.2458456E-03  0.1270813E+04  0.7818609E-02  0.9053036E-01
       -1   -1    0    0    0  501  0.00000000000E+00  0.00000000000E+00  0.42567729242E+03  0.42567729245E+03  0.50400001928E-02 0. -1.
        1   -1    0    0  501    0  0.00000000000E+00  0.00000000000E+00 -0.94846890153E+03  0.94846890155E+03  0.50400001928E-02 0.  1.
    10030    2    1    2    0    0  0.00000000000E+00  0.00000000000E+00 -0.52279160911E+03  0.13741461940E+04  0.12708133993E+04 0.  0.
        5    1    3    3  502    0 -0.27264759886E+03 -0.27892173192E+03  0.28097211126E+03  0.48073013532E+03  0.46999998093E+01 0. -1.
       -5    1    3    3    0  502  0.27264759886E+03  0.27892173192E+03 -0.80376372038E+03  0.89341605867E+03  0.46999998093E+01 0.  1.
</event>
<event>
 5   0  0.2511542E-03  0.1274733E+04  0.7818609E-02  0.9049845E-01
       -1   -1    0    0    0  501  0.00000000000E+00  0.00000000000E+00  0.37806855074E+03  0.37806855077E+03  0.50400001928E-02 0. -1.
        1   -1    0    0  501    0  0.00000000000E+00  0.00000000000E+00 -0.10745044058E+04  0.10745044058E+04  0.50400001928E-02 0.  1.
    10030    2    1    2    0    0  0.00000000000E+00  0.00000000000E+00 -0.69643585503E+03  0.14525729566E+04  0.12747334207E+04 0.  0.
        4    1    3    3  502    0  0.35366234000E+03 -0.37041437592E+03  0.84122351921E+02  0.51900100541E+03  0.12699999809E+01 0. -1.
       -4    1    3    3    0  502 -0.35366234000E+03  0.37041437592E+03 -0.78055820695E+03  0.93357195114E+03  0.12699999809E+01 0.  1.
</event>
<event>
 5   0  0.2370801E-03  0.1793382E+04  0.7818609E-02  0.8709827E-01
        1   -1    0    0  501    0  0.00000000000E+00  0.00000000000E+00  0.98015941252E+03  0.98015941253E+03  0.50400001928E-02 0.  1.
       -1   -1    0    0    0  501  0.00000000000E+00  0.00000000000E+00 -0.82033068955E+03  0.82033068957E+03  0.50400001928E-02 0. -1.
    10030    2    1    2    0    0  0.00000000000E+00  0.00000000000E+00  0.15982872297E+03  0.18004901021E+04  0.17933821085E+04 0.  0.
        3    1    3    3  502    0 -0.87736557059E+03  0.18171565117E+03  0.44221882859E+02  0.89707664525E+03  0.10100000352E+00 0. -1.
       -3    1    3    3    0  502  0.87736557059E+03 -0.18171565117E+03  0.11560684011E+03  0.90341345685E+03  0.10100000352E+00 0.  1.
</event>
<event>
 5   0  0.4263540E-03  0.1296662E+04  0.7818609E-02  0.9032217E-01
        2   -1    0    0  501    0  0.00000000000E+00  0.00000000000E+00  0.55721790146E+03  0.55721790146E+03  0.25500000920E-02 0. -1.
       -2   -1    0    0    0  501  0.00000000000E+00  0.00000000000E+00 -0.75434208975E+03  0.75434208975E+03  0.25500000920E-02 0.  1.
    10030    2    1    2    0    0  0.00000000000E+00  0.00000000000E+00 -0.19712418829E+03  0.13115599912E+04  0.12966617388E+04 0.  0.
        2    1    3    3  502    0  0.29553138148E+03 -0.21791694934E+03 -0.63902927694E+03  0.73701086222E+03  0.25500000920E-02 0.  1.
       -2    1    3    3    0  502 -0.29553138148E+03  0.21791694934E+03  0.44190508865E+03  0.57454912899E+03  0.25500000920E-02 0. -1.
</event>
<event>
 5   0  0.4310889E-03  0.1241489E+04  0.7818609E-02  0.9077297E-01
       -2   -1    0    0    0  501  0.00000000000E+00  0.00000000000E+00  0.44541952144E+03  0.44541952144E+03  0.25500000920E-02 0. -1.
        2   -1    0    0  501    0  0.00000000000E+00  0.00000000000E+00 -0.86507979695E+03  0.86507979695E+03  0.25500000920E-02 0.  1.
    10030    2    1    2    0    0  0.00000000000E+00  0.00000000000E+00 -0.41966027551E+03  0.13104993184E+04  0.12414885085E+04 0.  0.
        4    1    3    3  502    0 -0.22852305338E+03  0.54742956733E+03 -0.16857086899E+02  0.59345403477E+03  0.12699999809E+01 0. -1.
       -4    1    3    3    0  502  0.22852305338E+03 -0.54742956733E+03 -0.40280318861E+03  0.71704528362E+03  0.12699999809E+01 0.  1.
</event>
<event>
 5   0  0.4388937E-03  0.1255841E+04  0.7818609E-02  0.9065336E-01
        2   -1    0    0  501    0  0.00000000000E+00  0.00000000000E+00  0.32806228236E+03  0.32806228237E+03  0.25500000920E-02 0.  1.
       -2   -1    0    0    0  501  0.00000000000E+00  0.00000000000E+00 -0.12018569686E+04  0.12018569686E+04  0.25500000920E-02 0. -1.
    10030    2    1    2    0    0  0.00000000000E+00  0.00000000000E+00 -0.87379468629E+03  0.15299192510E+04  0.12558406590E+04 0.  0.
        5    1    3    3  502    0  0.69510841638E+01  0.10129211153E+03 -0.11917692302E+04  0.11960954801E+04  0.46999998093E+01 0. -1.
       -5    1    3    3    0  502 -0.69510841638E+01 -0.10129211153E+03  0.31797454394E+03  0.33382377090E+03  0.46999998093E+01 0.  1.
</event>
<event>
 5   0  0.4388937E-03  0.1368176E+04  0.7818609E-02  0.8977182E-01
       -2   -1    0    0    0  501  0.00000000000E+00  0.00000000000E+00  0.62460271497E+03  0.62460271497E+03  0.25500000920E-02 0. -1.
        2   -1    0    0  501    0  0.00000000000E+00  0.00000000000E+00 -0.74923821015E+03  0.74923821015E+03  0.25500000920E-02 0.  1.
    10030    2    1    2    0    0  0.00000000000E+00  0.00000000000E+00 -0.12463549518E+03  0.13738409251E+04  0.13681757493E+04 0.  0.
        5    1    3    3  502    0 -0.67684458108E+03  0.99173786643E+02 -0.62640535225E+02  0.68694974601E+03  0.46999998093E+01 0.  1.
       -5    1    3    3    0  502  0.67684458108E+03 -0.99173786643E+02 -0.61994959955E+02  0.68689117912E+03  0.46999998093E+01 0. -1.
</event>
<event>
 5   0  0.2511542E-03  0.1292604E+04  0.7818609E-02  0.9035451E-01
        1   -1    0    0  501    0  0.00000000000E+00  0.00000000000E+00  0.27439322598E+04  0.27439322598E+04  0.50400001928E-02 0.  1.
       -1   -1    0    0    0  501  0.00000000000E+00  0.00000000000E+00 -0.15222911012E+03  0.15222911021E+03  0.50400001928E-02 0. -1.
    10030    2    1    2    0    0  0.00000000000E+00  0.00000000000E+00  0.25917031497E+04  0.28961613700E+04  0.12926041409E+04 0.  0.
        4    1    3    3  502    0 -0.46204222059E+03  0.42271551005E+03  0.16538746389E+04  0.17684666664E+04  0.12699999809E+01 0. -1.
       -4    1    3    3    0  502  0.46204222059E+03 -0.42271551005E+03  0.93782851073E+03  0.11276947036E+04  0.12699999809E+01 0.  1.
</event>
<event>
 5   0  0.2356769E-03  0.1274053E+04  0.7818609E-02  0.9050398E-01
       -1   -1    0    0    0  501  0.00000000000E+00  0.00000000000E+00  0.68016993213E+03  0.68016993215E+03  0.50400001928E-02 0.  1.
        1   -1    0    0  501    0  0.00000000000E+00  0.00000000000E+00 -0.59661952271E+03  0.59661952273E+03  0.50400001928E-02 0. -1.
    10030    2    1    2    0    0  0.00000000000E+00  0.00000000000E+00  0.83550409426E+02  0.12767894549E+04  0.12740528408E+04 0.  0.
        1    1    3    3  502    0 -0.56706081322E+03 -0.14813623225E+03  0.29191171901E+03  0.65476313344E+03  0.50400001928E-02 0.  1.
       -1    1    3    3    0  502  0.56706081322E+03  0.14813623225E+03 -0.20836130959E+03  0.62202632143E+03  0.50400001928E-02 0. -1.
</event>
<event>
 5   0  0.4306214E-03  0.1358069E+04  0.7818609E-02  0.8984742E-01
       -2   -1    0    0    0  501  0.00000000000E+00  0.00000000000E+00  0.29306559265E+03  0.29306559266E+03  0.25500000920E-02 0.  1.
        2   -1    0    0  501    0  0.00000000000E+00  0.00000000000E+00 -0.15733268557E+04  0.15733268557E+04  0.25500000920E-02 0. -1.
    10030    2    1    2    0    0  0.00000000000E+00  0.00000000000E+00 -0.12802612631E+04  0.18663924484E+04  0.13580691697E+04 0.  0.
        3    1    3    3  502    0  0.31619035131E+03 -0.34355026485E+03  0.37448482930E+02  0.46840743143E+03  0.10100000352E+00 0.  1.
       -3    1    3    3    0  502 -0.31619035131E+03  0.34355026485E+03 -0.13177097460E+04  0.13979850170E+04  0.10100000352E+00 0. -1.
</event>
<event>
 5   0  0.4453011E-03  0.1299696E+04  0.7818609E-02  0.9029806E-01
        2   -1    0    0  501    0  0.00000000000E+00  0.00000000000E+00  0.10760053158E+04  0.10760053158E+04  0.25500000920E-02 0.  1.
       -2   -1    0    0    0  501  0.00000000000E+00  0.00000000000E+00 -0.39247242179E+03  0.39247242180E+03  0.25500000920E-02 0. -1.
    10030    2    1    2    0    0  0.00000000000E+00  0.00000000000E+00  0.68353289403E+03  0.14684777376E+04  0.12996959832E+04 0.  0.
        1    1    3    3  502    0 -0.51441076041E+03 -0.34371818879E+02 -0.10521172276E+03  0.52618376922E+03  0.50400001928E-02 0. -1.
       -1    1    3    3    0  502  0.51441076041E+03  0.34371818879E+02  0.78874461679E+03  0.94229396841E+03  0.50400001928E-02 0.  1.
</event>
<event>
 5   0  0.1661750E-03  0.1304737E+04  0.7818609E-02  0.9025817E-01
        3   -1    0    0  501    0  0.00000000000E+00  0.00000000000E+00  0.36040864708E+03  0.36040866124E+03  0.10100000352E+00 0. -1.
       -3   -1    0    0    0  501  0.00000000000E+00  0.00000000000E+00 -0.11808385030E+04  0.11808385073E+04  0.10100000352E+00 0.  1.
    10030    2    1    2    0    0  0.00000000000E+00  0.00000000000E+00 -0.82042985589E+03  0.15412471685E+04  0.13047366348E+04 0.  0.
        4    1    3    3  502    0  0.47256020702E+03 -0.20576035960E+03  0.62193429602E+02  0.51915326294E+03  0.12699999809E+01 0. -1.
       -4    1    3    3    0  502 -0.47256020702E+03  0.20576035960E+03 -0.88262328549E+03  0.10220939056E+04  0.12699999809E+01 0.  1.
</event>
<event>
 5   0  0.4388937E-03  0.1344378E+04  0.7818609E-02  0.8995095E-01
       -2   -1    0    0    0  501  0.00000000000E+00  0.00000000000E+00  0.55686602659E+03  0.55686602660E+03  0.25500000920E-02 0. -1.
        2   -1    0    0  501    0  0.00000000000E+00  0.00000000000E+00 -0.81139421460E+03  0.81139421460E+03  0.25500000920E-02 0.  1.
    10030    2    1    2    0    0  0.00000000000E+00  0.00000000000E+00 -0.25452818801E+03  0.13682602412E+04  0.13443777331E+04 0.  0.
        5    1    3    3  502    0 -0.14579339088E+03  0.42343296045E+03 -0.63743189845E+03  0.77903318285E+03  0.46999998093E+01 0.  1.
       -5    1    3    3    0  502  0.14579339088E+03 -0.42343296045E+03  0.38290371044E+03  0.58922705835E+03  0.46999998093E+01 0. -1.
</event>
<event>
 5   0  0.2370801E-03  0.1292183E+04  0.7818609E-02  0.9035787E-01
       -1   -1    0    0    0  501  0.00000000000E+00  0.00000000000E+00  0.26802355752E+03  0.26802355757E+03  0.50400001928E-02 0.  1.
        1   -1    0    0  501    0  0.00000000000E+00  0.00000000000E+00 -0.15574541724E+04  0.15574541724E+04  0.50400001928E-02 0. -1.
    10030    2    1    2    0    0  0.00000000000E+00  0.00000000000E+00 -0.12894306149E+04  0.18254777300E+04  0.12921832811E+04 0.  0.
        3    1    3    3  502    0 -0.65980384019E+02  0.15131010382E+03  0.23773121499E+03  0.28942062707E+03  0.10100000352E+00 0.  1.
       -3    1    3    3    0  502  0.65980384019E+02 -0.15131010382E+03 -0.15271618298E+04  0.15360571029E+04  0.10100000352E+00 0. -1.
</event>
<event>
 5   0  0.1661750E-03  0.1299110E+04  0.7818609E-02  0.9030271E-01
        3   -1    0    0  501    0  0.00000000000E+00  0.00000000000E+00  0.50764989443E+03  0.50764990448E+03  0.10100000352E+00 0.  1.
       -3   -1    0    0    0  501  0.00000000000E+00  0.00000000000E+00 -0.83112726089E+03  0.83112726703E+03  0.10100000352E+00 0. -1.
    10030    2    1    2    0    0  0.00000000000E+00  0.00000000000E+00 -0.32347736646E+03  0.13387771715E+04  0.12991099678E+04 0.  0.
        3    1    3    3  502    0  0.73369327851E+02 -0.47187341826E+02  0.50158594177E+03  0.50911508589E+03  0.10100000352E+00 0.  1.
       -3    1    3    3    0  502 -0.73369327851E+02  0.47187341826E+02 -0.82506330824E+03  0.82966208561E+03  0.10100000352E+00 0. -1.
</event>
<event>
 5   0  0.4263540E-03  0.1190469E+04  0.7818609E-02  0.9121240E-01
        2   -1    0    0  501    0  0.00000000000E+00  0.00000000000E+00  0.16182861855E+04  0.16182861855E+04  0.25500000920E-02 0. -1.
       -2   -1    0    0    0  501  0.00000000000E+00  0.00000000000E+00 -0.21893801978E+03  0.21893801979E+03  0.25500000920E-02 0.  1.
    10030    2    1    2    0    0  0.00000000000E+00  0.00000000000E+00  0.13993481657E+04  0.18372242053E+04  0.11904694417E+04 0.  0.
        2    1    3    3  502    0 -0.29916890298E+03 -0.17036629757E+03  0.14490422455E+04  0.14893791113E+04  0.25500000920E-02 0. -1.
       -2    1    3    3    0  502  0.29916890298E+03  0.17036629757E+03 -0.49694079786E+02  0.34784509401E+03  0.25500000920E-02 0.  1.
</event>
<event>
 5   0  0.2356769E-03  0.1266242E+04  0.7818609E-02  0.9056773E-01
        1   -1    0    0  501    0  0.00000000000E+00  0.00000000000E+00  0.71904941845E+03  0.71904941847E+03  0.50400001928E-02 0.  1.
       -1   -1    0    0    0  501  0.00000000000E+00  0.00000000000E+00 -0.55746112781E+03  0.55746112783E+03  0.50400001928E-02 0. -1.
    10030    2    1    2    0    0  0.00000000000E+00  0.00000000000E+00  0.16158829064E+03  0.12765105463E+04  0.12662418407E+04 0.  0.
        1    1    3    3  502    0 -0.32771642351E+03 -0.54163585892E+03  0.89503760274E+02  0.63935778796E+03  0.50400001928E-02 0.  1.
       -1    1    3    3    0  502  0.32771642351E+03  0.54163585892E+03  0.72084530368E+02  0.63715275833E+03  0.50400001928E-02 0. -1.
</event>
<event>
 5   0  0.4306214E-03  0.1312125E+04  0.7818609E-02  0.9020005E-01
       -2   -1    0    0    0  501  0.00000000000E+00  0.00000000000E+00  0.20083950512E+03  0.20083950514E+03  0.25500000920E-02 0. -1.
        2   -1    0    0  501    0  0.00000000000E+00  0.00000000000E+00 -0.21430944841E+04  0.21430944841E+04  0.25500000920E-02 0.  1.
    10030    2    1    2    0    0  0.00000000000E+00  0.00000000000E+00 -0.19422549790E+04  0.23439339893E+04  0.13121250484E+04 0.  0.
        3    1    3    3  502    0 -0.82309811564E+02  0.45996851356E+03 -0.17937714347E+04  0.18536347830E+04  0.10100000352E+00 0.  1.
       -3    1    3    3    0  502  0.82309811564E+02 -0.45996851356E+03 -0.14848354429E+03  0.49029920627E+03  0.10100000352E+00 0. -1.
</event>
<event>
 5   0  0.4263540E-03  0.1012815E+04  0.7818609E-02  0.9294600E-01
       -2   -1    0    0    0  501  0.00000000000E+00  0.00000000000E+00  0.29349611913E+03  0.29349611914E+03  0.25500000920E-02 0. -1.
        2   -1    0    0  501    0  0.00000000000E+00  0.00000000000E+00 -0.87377139544E+03  0.87377139545E+03  0.25500000920E-02 0.  1.
    10030    2    1    2    0    0  0.00000000000E+00  0.00000000000E+00 -0.58027527631E+03  0.11672675146E+04  0.10128149161E+04 0.  0.
        2    1    3    3  502    0  0.26147348387E+03  0.15183115417E+03 -0.75832359230E+03  0.81637966216E+03  0.25500000920E-02 0.  1.
       -2    1    3    3    0  502 -0.26147348387E+03 -0.15183115417E+03  0.17804831599E+03  0.35088785242E+03  0.25500000920E-02 0. -1.
</event>
<event>
 5   0  0.2356769E-03  0.1069898E+04  0.7818609E-02  0.9235038E-01
       -1   -1    0    0    0  501  0.00000000000E+00  0.00000000000E+00  0.25513464566E+03  0.25513464571E+03  0.50400001928E-02 0. -1.
        1   -1    0    0  501    0  0.00000000000E+00  0.00000000000E+00 -0.11216445774E+04  0.11216445774E+04  0.50400001928E-02 0.  1.
    10030    2    1    2    0    0  0.00000000000E+00  0.00000000000E+00 -0.86650993176E+03  0.13767792231E+04  0.10698979238E+04 0.  0.
        1    1    3    3  502    0 -0.10852725813E+03  0.95186177438E+02 -0.10961070480E+04  0.11055719040E+04  0.50400001928E-02 0.  1.
       -1    1    3    3    0  502  0.10852725813E+03 -0.95186177438E+02  0.22959711627E+03  0.27120731915E+03  0.50400001928E-02 0. -1.
</event>
<event>
 5   0  0.4388937E-03  0.1382296E+04  0.7818609E-02  0.8966734E-01
       -2   -1    0    0    0  501  0.00000000000E+00  0.00000000000E+00  0.83878085233E+03  0.83878085233E+03  0.25500000920E-02 0.  1.
        2   -1    0    0  501    0  0.00000000000E+00  0.00000000000E+00 -0.56949979603E+03  0.56949979603E+03  0.25500000920E-02 0. -1.
    10030    2    1    2    0    0  0.00000000000E+00  0.00000000000E+00  0.26928105630E+03  0.14082806484E+04  0.13822959514E+04 0.  0.
        5    1    3    3  502    0 -0.33252156675E+03  0.58233633170E+03  0.30504877167E+03  0.73672453378E+03  0.46999998093E+01 0.  1.
       -5    1    3    3    0  502  0.33252156675E+03 -0.58233633170E+03 -0.35767715362E+02  0.67155611459E+03  0.46999998093E+01 0. -1.
</event>
<event>
 5   0  0.4263540E-03  0.1285283E+04  0.7818609E-02  0.9041318E-01
        2   -1    0    0  501    0  0.00000000000E+00  0.00000000000E+00  0.23858661070E+04  0.23858661070E+04  0.25500000920E-02 0.  1.
       -2   -1    0    0    0  501  0.00000000000E+00  0.00000000000E+00 -0.17309788546E+03  0.17309788547E+03  0.25500000920E-02 0. -1.
    10030    2    1    2    0    0  0.00000000000E+00  0.00000000000E+00  0.22127682215E+04  0.25589639925E+04  0.12852834366E+04 0.  0.
        2    1    3    3  502    0 -0.49494351163E+03  0.15727391909E+03  0.18600249683E+04  0.19311646869E+04  0.25500000920E-02 0.  1.
       -2    1    3    3    0  502  0.49494351163E+03 -0.15727391909E+03  0.35274325323E+03  0.62779930554E+03  0.25500000920E-02 0. -1.
</event>
<event>
 5   0  0.4388937E-03  0.1510626E+04  0.7818609E-02  0.8877417E-01
       -2   -1    0    0    0  501  0.00000000000E+00  0.00000000000E+00  0.62214846355E+03  0.62214846355E+03  0.25500000920E-02 0.  1.
        2   -1    0    0  501    0  0.00000000000E+00  0.00000000000E+00 -0.91698052492E+03  0.91698052493E+03  0.25500000920E-02 0. -1.
    10030    2    1    2    0    0  0.00000000000E+00  0.00000000000E+00 -0.29483206137E+03  0.15391289885E+04  0.15106263928E+04 0.  0.
        5    1    3    3  502    0 -0.66348897420E+03  0.24559410029E+03 -0.41687119957E+03  0.82118071581E+03  0.46999998093E+01 0. -1.
       -5    1    3    3    0  502  0.66348897420E+03 -0.24559410029E+03  0.12203913820E+03  0.71794827267E+03  0.46999998093E+01 0.  1.
</event>
<event>
 5   0  0.2356769E-03  0.7249921E+03  0.7818609E-02  0.9675422E-01
        1   -1    0    0  501    0  0.00000000000E+00  0.00000000000E+00  0.41987809546E+03  0.41987809549E+03  0.50400001928E-02 0.  1.
       -1   -1    0    0    0  501  0.00000000000E+00  0.00000000000E+00 -0.31295607502E+03  0.31295607506E+03  0.50400001928E-02 0. -1.
    10030    2    1    2    0    0  0.00000000000E+00  0.00000000000E+00  0.10692202044E+03  0.73283417055E+03  0.72499214000E+03 0.  0.
        1    1    3    3  502    0 -0.86602339279E+02 -0.33708714416E+02  0.40763243175E+03  0.41809142784E+03  0.50400001928E-02 0.  1.
       -1    1    3    3    0  502  0.86602339279E+02  0.33708714416E+02 -0.30071041130E+03  0.31474274271E+03  0.50400001928E-02 0. -1.
</event>
<event>
 5   0  0.4310889E-03  0.1258236E+04  0.7818609E-02  0.9063356E-01
       -2   -1    0    0    0  501  0.00000000000E+00  0.00000000000E+00  0.20099711933E+03  0.20099711935E+03  0.25500000920E-02 0. -1.
        2   -1    0    0  501    0  0.00000000000E+00  0.00000000000E+00 -0.19691291721E+04  0.19691291721E+04  0.25500000920E-02 0.  1.
    10030    2    1    2    0    0  0.00000000000E+00  0.00000000000E+00 -0.17681320528E+04  0.21701262914E+04  0.12582357350E+04 0.  0.
        4    1    3    3  502    0  0.34433715476E+03  0.37327080599E+03 -0.15245186789E+04  0.16068783358E+04  0.12699999809E+01 0.  1.
       -4    1    3    3    0  502 -0.34433715476E+03 -0.37327080599E+03 -0.24361337387E+03  0.56324795568E+03  0.12699999809E+01 0. -1.
</event>
<event>
 5   0  0.4306214E-03  0.1252993E+04  0.7818609E-02  0.9067696E-01
        2   -1    0    0  501    0  0.00000000000E+00  0.00000000000E+00  0.88210461048E+03  0.88210461049E+03  0.25500000920E-02 0. -1.
       -2   -1    0    0    0  501  0.00000000000E+00  0.00000000000E+00 -0.44495592616E+03  0.44495592617E+03  0.25500000920E-02 0.  1.
    10030    2    1    2    0    0  0.00000000000E+00  0.00000000000E+00  0.43714868432E+03  0.13270605367E+04  0.12529926958E+04 0.  0.
        3    1    3    3  502    0 -0.36946715369E+03  0.63808191223E+02 -0.31301185055E+03  0.48841979045E+03  0.10100000352E+00 0.  1.
       -3    1    3    3    0  502  0.36946715369E+03 -0.63808191223E+02  0.75016053487E+03  0.83864074620E+03  0.10100000352E+00 0. -1.
</event>
<event>
 5   0  0.4388937E-03  0.1308852E+04  0.7818609E-02  0.9022575E-01
       -2   -1    0    0    0  501  0.00000000000E+00  0.00000000000E+00  0.45005137025E+03  0.45005137025E+03  0.25500000920E-02 0. -1.
        2   -1    0    0  501    0  0.00000000000E+00  0.00000000000E+00 -0.95161040125E+03  0.95161040125E+03  0.25500000920E-02 0.  1.
    10030    2    1    2    0    0  0.00000000000E+00  0.00000000000E+00 -0.50155903100E+03  0.14016617715E+04  0.13088522683E+04 0.  0.
        5    1    3    3  502    0 -0.34076176515E+03  0.74414016495E+02  0.34219421017E+03  0.48864608247E+03  0.46999998093E+01 0. -1.
       -5    1    3    3    0  502  0.34076176515E+03 -0.74414016495E+02 -0.84375324117E+03  0.91301568903E+03  0.46999998093E+01 0.  1.
</event>
<event>
 5   0  0.4306214E-03  0.1296918E+04  0.7818609E-02  0.9032013E-01
        2   -1    0    0  501    0  0.00000000000E+00  0.00000000000E+00  0.12435742865E+04  0.12435742865E+04  0.25500000920E-02 0. -1.
       -2   -1    0    0    0  501  0.00000000000E+00  0.00000000000E+00 -0.33813731696E+03  0.33813731697E+03  0.25500000920E-02 0.  1.
    10030    2    1    2    0    0  0.00000000000E+00  0.00000000000E+00  0.90543696957E+03  0.15817116035E+04  0.12969176885E+04 0.  0.
        3    1    3    3  502    0  0.46274591429E+03  0.12910761527E+02 -0.10108734834E+03  0.47383449764E+03  0.10100000352E+00 0.  1.
       -3    1    3    3    0  502 -0.46274591429E+03 -0.12910761527E+02  0.10065243179E+04  0.11078771059E+04  0.10100000352E+00 0. -1.
</event>
<event>
 5   0  0.2370801E-03  0.1278612E+04  0.7818609E-02  0.9046700E-01
       -1   -1    0    0    0  501  0.00000000000E+00  0.00000000000E+00  0.35715761547E+03  0.35715761550E+03  0.50400001928E-02 0.  1.
        1   -1    0    0  501    0  0.00000000000E+00  0.00000000000E+00 -0.11443475452E+04  0.11443475453E+04  0.50400001928E-02 0. -1.
    10030    2    1    2    0    0  0.00000000000E+00  0.00000000000E+00 -0.78718992977E+03  0.15015051608E+04  0.12786124363E+04 0.  0.
        3    1    3    3  502    0  0.41052789845E+03 -0.45676485109E+03 -0.60216608535E+03  0.86009958095E+03  0.10100000352E+00 0. -1.
       -3    1    3    3    0  502 -0.41052789845E+03  0.45676485109E+03 -0.18502384442E+03  0.64140557980E+03  0.10100000352E+00 0.  1.
</event>
<event>
 5   0  0.2370801E-03  0.1087971E+04  0.7818609E-02  0.9216996E-01
        1   -1    0    0  501    0  0.00000000000E+00  0.00000000000E+00  0.57150886599E+03  0.57150886601E+03  0.50400001928E-02 0.  1.
       -1   -1    0    0    0  501  0.00000000000E+00  0.00000000000E+00 -0.51778744969E+03  0.51778744971E+03  0.50400001928E-02 0. -1.
    10030    2    1    2    0    0  0.00000000000E+00  0.00000000000E+00  0.53721416306E+02  0.10892963157E+04  0.10879708052E+04 0.  0.
        3    1    3    3  502    0 -0.18151094239E+03  0.20812259173E+03 -0.44238808930E+03  0.52150596080E+03  0.10100000352E+00 0. -1.
       -3    1    3    3    0  502  0.18151094239E+03 -0.20812259173E+03  0.49610950560E+03  0.56779035493E+03  0.10100000352E+00 0.  1.
</event>
<event>
 5   0  0.4310889E-03  0.1317931E+04  0.7818609E-02  0.9015466E-01
       -2   -1    0    0    0  501  0.00000000000E+00  0.00000000000E+00  0.15626184497E+03  0.15626184499E+03  0.25500000920E-02 0. -1.
        2   -1    0    0  501    0  0.00000000000E+00  0.00000000000E+00 -0.27788947536E+04  0.27788947536E+04  0.25500000920E-02 0.  1.
    10030    2    1    2    0    0  0.00000000000E+00  0.00000000000E+00 -0.26226329086E+04  0.29351565986E+04  0.13179305311E+04 0.  0.
        4    1    3    3  502    0  0.55098814697E+03 -0.36142226439E+03 -0.13211805026E+04  0.14763920633E+04  0.12699999809E+01 0. -1.
       -4    1    3    3    0  502 -0.55098814697E+03  0.36142226439E+03 -0.13014524060E+04  0.14587645352E+04  0.12699999809E+01 0.  1.
</event>
<event>
 5   0  0.2458456E-03  0.1295627E+04  0.7818609E-02  0.9033040E-01
       -1   -1    0    0    0  501  0.00000000000E+00  0.00000000000E+00  0.13679991091E+04  0.13679991091E+04  0.50400001928E-02 0. -1.
        1   -1    0    0  501    0  0.00000000000E+00  0.00000000000E+00 -0.30677114523E+03  0.30677114527E+03  0.50400001928E-02 0.  1.
    10030    2    1    2    0    0  0.00000000000E+00  0.00000000000E+00  0.10612279639E+04  0.16747702544E+04  0.12956274980E+04 0.  0.
        5    1    3    3  502    0 -0.29534402034E+03 -0.45399309413E+03  0.71224048629E+02  0.54629000995E+03  0.46999998093E+01 0.  1.
       -5    1    3    3    0  502  0.29534402034E+03  0.45399309413E+03  0.99000391524E+03  0.11284802444E+04  0.46999998093E+01 0. -1.
</event>
<event>
 5   0  0.1661750E-03  0.1320901E+04  0.7818609E-02  0.9013153E-01
        3   -1    0    0  501    0  0.00000000000E+00  0.00000000000E+00  0.82252388019E+03  0.82252388639E+03  0.10100000352E+00 0. -1.
       -3   -1    0    0    0  501  0.00000000000E+00  0.00000000000E+00 -0.53031247648E+03  0.53031248610E+03  0.10100000352E+00 0.  1.
    10030    2    1    2    0    0  0.00000000000E+00  0.00000000000E+00  0.29221140371E+03  0.13528363725E+04  0.13209007329E+04 0.  0.
        4    1    3    3  502    0  0.40709561117E+03 -0.12078463160E+03  0.66417872453E+03  0.78832147940E+03  0.12699999809E+01 0. -1.
       -4    1    3    3    0  502 -0.40709561117E+03  0.12078463160E+03 -0.37196732082E+03  0.56451489309E+03  0.12699999809E+01 0.  1.
</event>
<event>
 5   0  0.2370801E-03  0.1307153E+04  0.7818609E-02  0.9023912E-01
       -1   -1    0    0    0  501  0.00000000000E+00  0.00000000000E+00  0.56147531947E+03  0.56147531949E+03  0.50400001928E-02 0.  1.
        1   -1    0    0  501    0  0.00000000000E+00  0.00000000000E+00 -0.76078510380E+03  0.76078510382E+03  0.50400001928E-02 0. -1.
    10030    2    1    2    0    0  0.00000000000E+00  0.00000000000E+00 -0.19930978434E+03  0.13222604233E+04  0.13071527213E+04 0.  0.
        3    1    3    3  502    0 -0.13923114209E+03 -0.24237247180E+03  0.49796286281E+03  0.57104881486E+03  0.10100000352E+00 0.  1.
       -3    1    3    3    0  502  0.13923114209E+03  0.24237247180E+03 -0.69727264715E+03  0.75121160845E+03  0.10100000352E+00 0. -1.
</event>
<event>
 5   0  0.2458456E-03  0.1291412E+04  0.7818609E-02  0.9036403E-01
        1   -1    0    0  501    0  0.00000000000E+00  0.00000000000E+00  0.62399832199E+03  0.62399832201E+03  0.50400001928E-02 0.  1.
       -1   -1    0    0    0  501  0.00000000000E+00  0.00000000000E+00 -0.66816888180E+03  0.66816888182E+03  0.50400001928E-02 0. -1.
    10030    2    1    2    0    0  0.00000000000E+00  0.00000000000E+00 -0.44170559812E+02  0.12921672038E+04  0.12914120351E+04 0.  0.
        5    1    3    3  502    0  0.24007143781E+03  0.58566206431E+03 -0.14975229783E+03  0.65044768393E+03  0.46999998093E+01 0.  1.
       -5    1    3    3    0  502 -0.24007143781E+03 -0.58566206431E+03  0.10558173801E+03  0.64171951990E+03  0.46999998093E+01 0. -1.
</event>
<event>
 5   0  0.2370801E-03  0.1226508E+04  0.7818609E-02  0.9089965E-01
        1   -1    0    0  501    0  0.00000000000E+00  0.00000000000E+00  0.43197791132E+03  0.43197791135E+03  0.50400001928E-02 0. -1.
       -1   -1    0    0    0  501  0.00000000000E+00  0.00000000000E+00 -0.87060134599E+03  0.87060134600E+03  0.50400001928E-02 0.  1.
    10030    2    1    2    0    0  0.00000000000E+00  0.00000000000E+00 -0.43862343467E+03  0.13025792574E+04  0.12265081346E+04 0.  0.
        3    1    3    3  502    0 -0.70574804043E+02 -0.14748459214E+03  0.40840381674E+03  0.43991612338E+03  0.10100000352E+00 0. -1.
       -3    1    3    3    0  502  0.70574804043E+02  0.14748459214E+03 -0.84702725141E+03  0.86266313397E+03  0.10100000352E+00 0.  1.
</event>
<event>
 5   0  0.4453011E-03  0.1158679E+04  0.7818609E-02  0.9149814E-01
       -2   -1    0    0    0  501  0.00000000000E+00  0.00000000000E+00  0.26822062469E+03  0.26822062470E+03  0.25500000920E-02 0.  1.
        2   -1    0    0  501    0  0.00000000000E+00  0.00000000000E+00 -0.12513365043E+04  0.12513365043E+04  0.25500000920E-02 0. -1.
    10030    2    1    2    0    0  0.00000000000E+00  0.00000000000E+00 -0.98311587958E+03  0.15195571290E+04  0.11586790045E+04 0.  0.
        1    1    3    3  502    0  0.26806318677E+03  0.38196059714E+03 -0.94183367431E+03  0.10510958282E+04  0.50400001928E-02 0. -1.
       -1    1    3    3    0  502 -0.26806318677E+03 -0.38196059714E+03 -0.41282205271E+02  0.46846130082E+03  0.50400001928E-02 0.  1.
</event>
<event>
 5   0  0.2462055E-03  0.1305683E+04  0.7818609E-02  0.9025071E-01
       -1   -1    0    0    0  501  0.00000000000E+00  0.00000000000E+00  0.35118324791E+03  0.35118324795E+03  0.50400001928E-02 0.  1.
        1   -1    0    0  501    0  0.00000000000E+00  0.00000000000E+00 -0.12136168821E+04  0.12136168821E+04  0.50400001928E-02 0. -1.
    10030    2    1    2    0    0  0.00000000000E+00  0.00000000000E+00 -0.86243363421E+03  0.15648001301E+04  0.13056828381E+04 0.  0.
        2    1    3    3  502    0 -0.56978460633E+03 -0.94989605648E+02 -0.66673361366E+02  0.58148332729E+03  0.25500000920E-02 0. -1.
       -2    1    3    3    0  502  0.56978460633E+03  0.94989605648E+02 -0.79576027284E+03  0.98331680278E+03  0.25500000920E-02 0.  1.
</event>
<event>
 5   0  0.2370801E-03  0.1328086E+04  0.7818609E-02  0.9007585E-01
       -1   -1    0    0    0  501  0.00000000000E+00  0.00000000000E+00  0.49213002501E+03  0.49213002504E+03  0.50400001928E-02 0.  1.
        1   -1    0    0  501    0  0.00000000000E+00  0.00000000000E+00 -0.89600892999E+03  0.89600893000E+03  0.50400001928E-02 0. -1.
    10030    2    1    2    0    0  0.00000000000E+00  0.00000000000E+00 -0.40387890498E+03  0.13881389550E+04  0.13280856857E+04 0.  0.
        3    1    3    3  502    0  0.35695179804E+03 -0.52786104170E+03 -0.66737738766E+01  0.63725694577E+03  0.10100000352E+00 0.  1.
       -3    1    3    3    0  502 -0.35695179804E+03  0.52786104170E+03 -0.39720513110E+03  0.75088200927E+03  0.10100000352E+00 0. -1.
</event>
<event>
 5   0  0.2462055E-03  0.1302972E+04  0.7818609E-02  0.9027212E-01
       -1   -1    0    0    0  501  0.00000000000E+00  0.00000000000E+00  0.51410983527E+03  0.51410983529E+03  0.50400001928E-02 0. -1.
        1   -1    0    0  501    0  0.00000000000E+00  0.00000000000E+00 -0.82557013550E+03  0.82557013551E+03  0.50400001928E-02 0.  1.
    10030    2    1    2    0    0  0.00000000000E+00  0.00000000000E+00 -0.31146030023E+03  0.13396799708E+04  0.13029715674E+04 0.  0.
        2    1    3    3  502    0  0.42770426592E+03 -0.17805873104E+02  0.34921236299E+03  0.55244661523E+03  0.25500000920E-02 0. -1.
       -2    1    3    3    0  502 -0.42770426592E+03  0.17805873104E+02 -0.66067266322E+03  0.78723335558E+03  0.25500000920E-02 0.  1.
</event>
<event>
 5   0  0.2370801E-03  0.1293443E+04  0.7818609E-02  0.9034781E-01
        1   -1    0    0  501    0  0.00000000000E+00  0.00000000000E+00  0.10395432618E+04  0.10395432618E+04  0.50400001928E-02 0. -1.
       -1   -1    0    0    0  501  0.00000000000E+00  0.00000000000E+00 -0.40233869907E+03  0.40233869910E+03  0.50400001928E-02 0.  1.
    10030    2    1    2    0    0  0.00000000000E+00  0.00000000000E+00  0.63720456270E+03  0.14418819609E+04  0.12934426676E+04 0.  0.
        3    1    3    3  502    0  0.67193362750E+02 -0.47015959835E+01 -0.39841773583E+03  0.40407147317E+03  0.10100000352E+00 0.  1.
       -3    1    3    3    0  502 -0.67193362750E+02  0.47015959835E+01  0.10356222985E+04  0.10378104877E+04  0.10100000352E+00 0. -1.
</event>
<event>
 5   0  0.4388937E-03  0.1289754E+04  0.7818609E-02  0.9037730E-01
        2   -1    0    0  501    0  0.00000000000E+00  0.00000000000E+00  0.15799547513E+04  0.15799547513E+04  0.25500000920E-02 0. -1.
       -2   -1    0    0    0  501  0.00000000000E+00  0.00000000000E+00 -0.26321392131E+03  0.26321392132E+03  0.25500000920E-02 0.  1.
    10030    2    1    2    0    0  0.00000000000E+00  0.00000000000E+00  0.13167408300E+04  0.18431686726E+04  0.12897535975E+04 0.  0.
        5    1    3    3  502    0  0.20240289822E+03  0.48055994873E+02  0.15306604744E+04  0.15447394245E+04  0.46999998093E+01 0. -1.
       -5    1    3    3    0  502 -0.20240289822E+03 -0.48055994873E+02 -0.21391964441E+03  0.29842924809E+03  0.46999998093E+01 0.  1.
</event>
<event>
 5   0  0.4453011E-03  0.1236042E+04  0.7818609E-02  0.9081881E-01
       -2   -1    0    0    0  501  0.00000000000E+00  0.00000000000E+00  0.42243215953E+03  0.42243215954E+03  0.25500000920E-02 0.  1.
        2   -1    0    0  501    0  0.00000000000E+00  0.00000000000E+00 -0.90416941173E+03  0.90416941174E+03  0.25500000920E-02 0. -1.
    10030    2    1    2    0    0  0.00000000000E+00  0.00000000000E+00 -0.48173725221E+03  0.13266015713E+04  0.12360424543E+04 0.  0.
        1    1    3    3  502    0 -0.57911711090E+03  0.12898666350E+03 -0.55171849577E+02  0.59586753604E+03  0.50400001928E-02 0.  1.
       -1    1    3    3    0  502  0.57911711090E+03 -0.12898666350E+03 -0.42656540263E+03  0.73073403523E+03  0.50400001928E-02 0. -1.
</event>
<event>
 5   0  0.2356769E-03  0.1304912E+04  0.7818609E-02  0.9025679E-01
        1   -1    0    0  501    0  0.00000000000E+00  0.00000000000E+00  0.54425150754E+03  0.54425150756E+03  0.50400001928E-02 0. -1.
       -1   -1    0    0    0  501  0.00000000000E+00  0.00000000000E+00 -0.78217295694E+03  0.78217295696E+03  0.50400001928E-02 0.  1.
    10030    2    1    2    0    0  0.00000000000E+00  0.00000000000E+00 -0.23792144940E+03  0.13264244645E+04  0.13049119679E+04 0.  0.
        1    1    3    3  502    0 -0.19040854910E+03 -0.58760947054E+03 -0.33256428770E+03  0.70152641499E+03  0.50400001928E-02 0.  1.
       -1    1    3    3    0  502  0.19040854910E+03  0.58760947054E+03  0.94642838303E+02  0.62489804953E+03  0.50400001928E-02 0. -1.
</event>
<event>
 5   0  0.4263540E-03  0.1322210E+04  0.7818609E-02  0.9012135E-01
        2   -1    0    0  501    0  0.00000000000E+00  0.00000000000E+00  0.14302689337E+04  0.14302689337E+04  0.25500000920E-02 0. -1.
       -2   -1    0    0    0  501  0.00000000000E+00  0.00000000000E+00 -0.30557879285E+03  0.30557879286E+03  0.25500000920E-02 0.  1.
    10030    2    1    2    0    0  0.00000000000E+00  0.00000000000E+00  0.11246901408E+04  0.17358477266E+04  0.13222100502E+04 0.  0.
        2    1    3    3  502    0  0.25426563525E+02  0.36690606800E+02 -0.30359794619E+03  0.30686222266E+03  0.25500000920E-02 0.  1.
       -2    1    3    3    0  502 -0.25426563525E+02 -0.36690606800E+02  0.14282880870E+04  0.14289855039E+04  0.25500000920E-02 0. -1.
</event>
<event>
 5   0  0.4388937E-03  0.1313622E+04  0.7818609E-02  0.9018832E-01
       -2   -1    0    0    0  501  0.00000000000E+00  0.00000000000E+00  0.30310642347E+03  0.30310642349E+03  0.25500000920E-02 0.  1.
        2   -1    0    0  501    0  0.00000000000E+00  0.00000000000E+00 -0.14232644610E+04  0.14232644610E+04  0.25500000920E-02 0. -1.
    10030    2    1    2    0    0  0.00000000000E+00  0.00000000000E+00 -0.11201580375E+04  0.17263708845E+04  0.13136218641E+04 0.  0.
        5    1    3    3  502    0 -0.37719619311E+03  0.47555245395E+03 -0.23034295328E+03  0.64923575893E+03  0.46999998093E+01 0.  1.
       -5    1    3    3    0  502  0.37719619311E+03 -0.47555245395E+03 -0.88981508426E+03  0.10771351256E+04  0.46999998093E+01 0. -1.
</event>
<event>
 5   0  0.2462055E-03  0.1237123E+04  0.7818609E-02  0.9080969E-01
        1   -1    0    0  501    0  0.00000000000E+00  0.00000000000E+00  0.14397028828E+04  0.14397028828E+04  0.50400001928E-02 0. -1.
       -1   -1    0    0    0  501  0.00000000000E+00  0.00000000000E+00 -0.26576195458E+03  0.26576195463E+03  0.50400001928E-02 0.  1.
    10030    2    1    2    0    0  0.00000000000E+00  0.00000000000E+00  0.11739409282E+04  0.17054648374E+04  0.12371228754E+04 0.  0.
        2    1    3    3  502    0 -0.14366467755E+03  0.99320907451E+02  0.14050049675E+04  0.14158188941E+04  0.25500000920E-02 0. -1.
       -2    1    3    3    0  502  0.14366467755E+03 -0.99320907451E+02 -0.23106403928E+03  0.28964594333E+03  0.25500000920E-02 0.  1.
</event>
<event>
 5   0  0.4263540E-03  0.1288154E+04  0.7818609E-02  0.9039012E-01
        2   -1    0    0  501    0  0.00000000000E+00  0.00000000000E+00  0.93589135768E+03  0.93589135769E+03  0.25500000920E-02 0.  1.
       -2   -1    0    0    0  501  0.00000000000E+00  0.00000000000E+00 -0.44325129095E+03  0.44325129095E+03  0.25500000920E-02 0. -1.
    10030    2    1    2    0    0  0.00000000000E+00  0.00000000000E+00  0.49264006674E+03  0.13791426486E+04  0.12881537990E+04 0.  0.
        2    1    3    3  502    0 -0.12205149084E+03 -0.50507616466E+03  0.65377588735E+03  0.83511760214E+03  0.25500000920E-02 0.  1.
       -2    1    3    3    0  502  0.12205149084E+03  0.50507616466E+03 -0.16113582062E+03  0.54402504649E+03  0.25500000920E-02 0. -1.
</event>
<event>
 5   0  0.4306214E-03  0.1396015E+04  0.7818609E-02  0.8956708E-01
       -2   -1    0    0    0  501  0.00000000000E+00  0.00000000000E+00  0.49270535198E+03  0.49270535199E+03  0.25500000920E-02 0. -1.
        2   -1    0    0  501    0  0.00000000000E+00  0.00000000000E+00 -0.98885549350E+03  0.98885549351E+03  0.25500000920E-02 0.  1.
    10030    2    1    2    0    0  0.00000000000E+00  0.00000000000E+00 -0.49615014152E+03  0.14815608455E+04  0.13960148910E+04 0.  0.
        3    1    3    3  502    0  0.33437994489E+03 -0.43874357249E+03  0.20581052629E+03  0.58878166826E+03  0.10100000352E+00 0. -1.
       -3    1    3    3    0  502 -0.33437994489E+03  0.43874357249E+03 -0.70196066782E+03  0.89277917723E+03  0.10100000352E+00 0.  1.
</event>
<event>
 5   0  0.2458456E-03  0.1318819E+04  0.7818609E-02  0.9014773E-01
       -1   -1    0    0    0  501  0.00000000000E+00  0.00000000000E+00  0.44314469760E+03  0.44314469763E+03  0.50400001928E-02 0.  1.
        1   -1    0    0  501    0  0.00000000000E+00  0.00000000000E+00 -0.98121679728E+03  0.98121679729E+03  0.50400001928E-02 0. -1.
    10030    2    1    2    0    0  0.00000000000E+00  0.00000000000E+00 -0.53807209968E+03  0.14243614949E+04  0.13188192006E+04 0.  0.
        5    1    3    3  502    0 -0.17494338739E+03  0.62427098567E+03 -0.13907553442E+03  0.66308637945E+03  0.46999998093E+01 0.  1.
       -5    1    3    3    0  502  0.17494338739E+03 -0.62427098567E+03 -0.39899656526E+03  0.76127511547E+03  0.46999998093E+01 0. -1.
</event>
<event>
 5   0  0.2458456E-03  0.7573419E+03  0.7818609E-02  0.9623902E-01
       -1   -1    0    0    0  501  0.00000000000E+00  0.00000000000E+00  0.11949542271E+03  0.11949542281E+03  0.50400001928E-02 0.  1.
        1   -1    0    0  501    0  0.00000000000E+00  0.00000000000E+00 -0.11999763827E+04  0.11999763827E+04  0.50400001928E-02 0. -1.
    10030    2    1    2    0    0  0.00000000000E+00  0.00000000000E+00 -0.10804809600E+04  0.13194718055E+04  0.75734189153E+03 0.  0.
        5    1    3    3  502    0  0.10347080522E+03 -0.45451764799E+01 -0.11747671180E+04  0.11793331750E+04  0.46999998093E+01 0. -1.
       -5    1    3    3    0  502 -0.10347080522E+03  0.45451764799E+01  0.94286158025E+02  0.14013863049E+03  0.46999998093E+01 0.  1.
</event>
<event>
 5   0  0.4453011E-03  0.1307765E+04  0.7818609E-02  0.9023430E-01
       -2   -1    0    0    0  501  0.00000000000E+00  0.00000000000E+00  0.15578766501E+03  0.15578766503E+03  0.25500000920E-02 0. -1.
        2   -1    0    0  501    0  0.00000000000E+00  0.00000000000E+00 -0.27445216266E+04  0.27445216266E+04  0.25500000920E-02 0.  1.
    10030    2    1    2    0    0  0.00000000000E+00  0.00000000000E+00 -0.25887339616E+04  0.29003092916E+04  0.13077654466E+04 0.  0.
        1    1    3    3  502    0 -0.35400609382E+03  0.53977180712E+03 -0.10629461634E+04  0.12435949761E+04  0.50400001928E-02 0. -1.
       -1    1    3    3    0  502  0.35400609382E+03 -0.53977180712E+03 -0.15257877981E+04  0.16567143155E+04  0.50400001928E-02 0.  1.
</event>
<event>
 5   0  0.2511542E-03  0.1176173E+04  0.7818609E-02  0.9133972E-01
       -1   -1    0    0    0  501  0.00000000000E+00  0.00000000000E+00  0.42198687533E+03  0.42198687536E+03  0.50400001928E-02 0. -1.
        1   -1    0    0  501    0  0.00000000000E+00  0.00000000000E+00 -0.81956476370E+03  0.81956476372E+03  0.50400001928E-02 0.  1.
    10030    2    1    2    0    0  0.00000000000E+00  0.00000000000E+00 -0.39757788838E+03  0.12415516391E+04  0.11761727319E+04 0.  0.
        4    1    3    3  502    0 -0.13298829104E+03  0.29232438438E+03 -0.71882400150E+03  0.78730488966E+03  0.12699999809E+01 0.  1.
       -4    1    3    3    0  502  0.13298829104E+03 -0.29232438438E+03  0.32124611312E+03  0.45424674941E+03  0.12699999809E+01 0. -1.
</event>
<event>
 5   0  0.2462055E-03  0.1224957E+04  0.7818609E-02  0.9091288E-01
       -1   -1    0    0    0  501  0.00000000000E+00  0.00000000000E+00  0.38459156133E+03  0.38459156136E+03  0.50400001928E-02 0.  1.
        1   -1    0    0  501    0  0.00000000000E+00  0.00000000000E+00 -0.97539789527E+03  0.97539789528E+03  0.50400001928E-02 0. -1.
    10030    2    1    2    0    0  0.00000000000E+00  0.00000000000E+00 -0.59080633393E+03  0.13599894566E+04  0.12249568147E+04 0.  0.
        2    1    3    3  502    0  0.41101579333E+03 -0.13088388541E+03  0.18734495405E+03  0.47027939104E+03  0.25500000920E-02 0.  1.
       -2    1    3    3    0  502 -0.41101579333E+03  0.13088388541E+03 -0.77815128799E+03  0.88971006560E+03  0.25500000920E-02 0. -1.
</event>
<event>
 5   0  0.4310889E-03  0.1070051E+04  0.7818609E-02  0.9234884E-01
        2   -1    0    0  501    0  0.00000000000E+00  0.00000000000E+00  0.17086641629E+04  0.17086641629E+04  0.25500000920E-02 0.  1.
       -2   -1    0    0    0  501  0.00000000000E+00  0.00000000000E+00 -0.16752974669E+03  0.16752974671E+03  0.25500000920E-02 0. -1.
    10030    2    1    2    0    0  0.00000000000E+00  0.00000000000E+00  0.15411344162E+04  0.18761939096E+04  0.10700506052E+04 0.  0.
        4    1    3    3  502    0  0.29874959910E+03 -0.14252308184E+03  0.33554706067E+02  0.33270359634E+03  0.12699999809E+01 0. -1.
       -4    1    3    3    0  502 -0.29874959910E+03  0.14252308184E+03  0.15075797101E+04  0.15434903132E+04  0.12699999809E+01 0.  1.
</event>
<event>
 5   0  0.4263540E-03  0.1277071E+04  0.7818609E-02  0.9047948E-01
       -2   -1    0    0    0  501  0.00000000000E+00  0.00000000000E+00  0.64888339092E+03  0.64888339092E+03  0.25500000920E-02 0. -1.
        2   -1    0    0  501    0  0.00000000000E+00  0.00000000000E+00 -0.62835250492E+03  0.62835250492E+03  0.25500000920E-02 0.  1.
    10030    2    1    2    0    0  0.00000000000E+00  0.00000000000E+00  0.20530886001E+02  0.12772358958E+04  0.12770708737E+04 0.  0.
        2    1    3    3  502    0 -0.52576389935E+03 -0.13715522840E+02 -0.35187485739E+03  0.63279673569E+03  0.25500000920E-02 0. -1.
       -2    1    3    3    0  502  0.52576389935E+03  0.13715522840E+02  0.37240574339E+03  0.64443916016E+03  0.25500000920E-02 0.  1.
</event>
<event>
 5   0  0.4306214E-03  0.1308264E+04  0.7818609E-02  0.9023037E-01
       -2   -1    0    0    0  501  0.00000000000E+00  0.00000000000E+00  0.30202698486E+03  0.30202698487E+03  0.25500000920E-02 0.  1.
        2   -1    0    0  501    0  0.00000000000E+00  0.00000000000E+00 -0.14167232103E+04  0.14167232103E+04  0.25500000920E-02 0. -1.
    10030    2    1    2    0    0  0.00000000000E+00  0.00000000000E+00 -0.11146962254E+04  0.17187501952E+04  0.13082639483E+04 0.  0.
        3    1    3    3  502    0 -0.26728986188E+03 -0.11233686332E+03 -0.13276948216E+04  0.13589838081E+04  0.10100000352E+00 0. -1.
       -3    1    3    3    0  502  0.26728986188E+03  0.11233686332E+03  0.21299859615E+03  0.35976638710E+03  0.10100000352E+00 0.  1.
</event>
<event>
 5   0  0.1661750E-03  0.1303548E+04  0.7818609E-02  0.9026757E-01
        4   -1    0    0  501    0  0.00000000000E+00  0.00000000000E+00  0.38829391033E+03  0.38829598723E+03  0.12699999809E+01 0.  1.
       -4   -1    0    0    0  501  0.00000000000E+00  0.00000000000E+00 -0.10940348228E+04  0.10940355599E+04  0.12699999809E+01 0. -1.
    10030    2    1    2    0    0  0.00000000000E+00  0.00000000000E+00 -0.70574091246E+03  0.14823315472E+04  0.13035476900E+04 0.  0.
        4    1    3    3  502    0 -0.56477909789E+03  0.44606457503E+00 -0.72280657116E+03  0.91729307236E+03  0.12699999809E+01 0.  1.
       -4    1    3    3    0  502  0.56477909789E+03 -0.44606457503E+00  0.17065658698E+02  0.56503847479E+03  0.12699999809E+01 0. -1.
</event>
<event>
 5   0  0.4310889E-03  0.1306314E+04  0.7818609E-02  0.9024573E-01
        2   -1    0    0  501    0  0.00000000000E+00  0.00000000000E+00  0.47755390108E+03  0.47755390108E+03  0.25500000920E-02 0.  1.
       -2   -1    0    0    0  501  0.00000000000E+00  0.00000000000E+00 -0.89333193700E+03  0.89333193700E+03  0.25500000920E-02 0. -1.
    10030    2    1    2    0    0  0.00000000000E+00  0.00000000000E+00 -0.41577803592E+03  0.13708858381E+04  0.13063141299E+04 0.  0.
        4    1    3    3  502    0 -0.41566021948E+03  0.41721806387E+03  0.88504418793E+02  0.59554930604E+03  0.12699999809E+01 0.  1.
       -4    1    3    3    0  502  0.41566021948E+03 -0.41721806387E+03 -0.50428245471E+03  0.77533653204E+03  0.12699999809E+01 0. -1.
</event>
<event>
 5   0  0.4306214E-03  0.1315885E+04  0.7818609E-02  0.9017062E-01
       -2   -1    0    0    0  501  0.00000000000E+00  0.00000000000E+00  0.43982057427E+03  0.43982057428E+03  0.25500000920E-02 0. -1.
        2   -1    0    0  501    0  0.00000000000E+00  0.00000000000E+00 -0.98423894031E+03  0.98423894031E+03  0.25500000920E-02 0.  1.
    10030    2    1    2    0    0  0.00000000000E+00  0.00000000000E+00 -0.54441836604E+03  0.14240595146E+04  0.13158853080E+04 0.  0.
        3    1    3    3  502    0  0.27091748776E+03  0.59396111588E+03 -0.18361068578E+03  0.67815852607E+03  0.10100000352E+00 0. -1.
       -3    1    3    3    0  502 -0.27091748776E+03 -0.59396111588E+03 -0.36080768025E+03  0.74590098852E+03  0.10100000352E+00 0.  1.
</event>
<event>
 5   0  0.2370801E-03  0.7481263E+03  0.7818609E-02  0.9638295E-01
       -1   -1    0    0    0  501  0.00000000000E+00  0.00000000000E+00  0.26172084545E+03  0.26172084550E+03  0.50400001928E-02 0. -1.
        1   -1    0    0  501    0  0.00000000000E+00  0.00000000000E+00 -0.53462773275E+03  0.53462773277E+03  0.50400001928E-02 0.  1.
    10030    2    1    2    0    0  0.00000000000E+00  0.00000000000E+00 -0.27290688730E+03  0.79634857827E+03  0.74812625203E+03 0.  0.
        3    1    3    3  502    0  0.30356959296E+02  0.26231011227E+03 -0.41847455951E+03  0.49482229854E+03  0.10100000352E+00 0.  1.
       -3    1    3    3    0  502 -0.30356959296E+02 -0.26231011227E+03  0.14556767221E+03  0.30152627973E+03  0.10100000352E+00 0. -1.
</event>
<event>
 5   0  0.4306214E-03  0.1270536E+04  0.7818609E-02  0.9053263E-01
        2   -1    0    0  501    0  0.00000000000E+00  0.00000000000E+00  0.62679676847E+03  0.62679676847E+03  0.25500000920E-02 0. -1.
       -2   -1    0    0    0  501  0.00000000000E+00  0.00000000000E+00 -0.64385337644E+03  0.64385337645E+03  0.25500000920E-02 0.  1.
    10030    2    1    2    0    0  0.00000000000E+00  0.00000000000E+00 -0.17056607978E+02  0.12706501449E+04  0.12705356598E+04 0.  0.
        3    1    3    3  502    0 -0.60850100227E+03  0.17132534390E+03 -0.71298298899E+02  0.63616766725E+03  0.10100000352E+00 0. -1.
       -3    1    3    3    0  502  0.60850100227E+03 -0.17132534390E+03  0.54241690922E+02  0.63448247767E+03  0.10100000352E+00 0.  1.
</event>
<event>
 5   0  0.2462055E-03  0.1222006E+04  0.7818609E-02  0.9093810E-01
       -1   -1    0    0    0  501  0.00000000000E+00  0.00000000000E+00  0.42628914500E+03  0.42628914503E+03  0.50400001928E-02 0. -1.
        1   -1    0    0  501    0  0.00000000000E+00  0.00000000000E+00 -0.87575396671E+03  0.87575396673E+03  0.50400001928E-02 0.  1.
    10030    2    1    2    0    0  0.00000000000E+00  0.00000000000E+00 -0.44946482171E+03  0.13020431118E+04  0.12220055806E+04 0.  0.
        2    1    3    3  502    0 -0.36299603137E+03 -0.33029294545E+01  0.29893234080E+03  0.47025266880E+03  0.25500000920E-02 0. -1.
       -2    1    3    3    0  502  0.36299603137E+03  0.33029294545E+01 -0.74839716251E+03  0.83179044296E+03  0.25500000920E-02 0.  1.
</event>
<event>
 5   0  0.2356769E-03  0.1315258E+04  0.7818609E-02  0.9017552E-01
        1   -1    0    0  501    0  0.00000000000E+00  0.00000000000E+00  0.44776729610E+03  0.44776729612E+03  0.50400001928E-02 0.  1.
       -1   -1    0    0    0  501  0.00000000000E+00  0.00000000000E+00 -0.96585007308E+03  0.96585007309E+03  0.50400001928E-02 0. -1.
    10030    2    1    2    0    0  0.00000000000E+00  0.00000000000E+00 -0.51808277698E+03  0.14136173692E+04  0.13152582647E+04 0.  0.
        1    1    3    3  502    0 -0.11586847724E+03  0.58434344703E+03  0.40345630299E+02  0.59708503416E+03  0.50400001928E-02 0.  1.
       -1    1    3    3    0  502  0.11586847724E+03 -0.58434344703E+03 -0.55842840728E+03  0.81653233505E+03  0.50400001928E-02 0. -1.
</event>
<event>
 5   0  0.4310889E-03  0.1276488E+04  0.7818609E-02  0.9048421E-01
       -2   -1    0    0    0  501  0.00000000000E+00  0.00000000000E+00  0.29131453964E+03  0.29131453965E+03  0.25500000920E-02 0. -1.
        2   -1    0    0  501    0  0.00000000000E+00  0.00000000000E+00 -0.13983349662E+04  0.13983349662E+04  0.25500000920E-02 0.  1.
    10030    2    1    2    0    0  0.00000000000E+00  0.00000000000E+00 -0.11070204265E+04  0.16896495058E+04  0.12764878487E+04 0.  0.
        4    1    3    3  502    0 -0.38868540753E+03 -0.42420868879E+03 -0.91919884464E+03  0.10844157351E+04  0.12699999809E+01 0.  1.
       -4    1    3    3    0  502  0.38868540753E+03  0.42420868879E+03 -0.18782158188E+03  0.60523377070E+03  0.12699999809E+01 0. -1.
</event>
<event>
 5   0  0.4310889E-03  0.1267595E+04  0.7818609E-02  0.9055665E-01
        2   -1    0    0  501    0  0.00000000000E+00  0.00000000000E+00  0.12761992534E+04  0.12761992534E+04  0.25500000920E-02 0. -1.
       -2   -1    0    0    0  501  0.00000000000E+00  0.00000000000E+00 -0.31476237072E+03  0.31476237073E+03  0.25500000920E-02 0.  1.
    10030    2    1    2    0    0  0.00000000000E+00  0.00000000000E+00  0.96143688264E+03  0.15909616241E+04  0.12675953653E+04 0.  0.
        4    1    3    3  502    0 -0.15405957048E+03  0.42384137429E+03 -0.78220719609E+02  0.45770728167E+03  0.12699999809E+01 0.  1.
       -4    1    3    3    0  502  0.15405957048E+03 -0.42384137429E+03  0.10396576022E+04  0.11332543424E+04  0.12699999809E+01 0. -1.
</event>
<event>
 5   0  0.4310889E-03  0.1078250E+04  0.7818609E-02  0.9226655E-01
        2   -1    0    0  501    0  0.00000000000E+00  0.00000000000E+00  0.15402745284E+04  0.15402745284E+04  0.25500000920E-02 0.  1.
       -2   -1    0    0    0  501  0.00000000000E+00  0.00000000000E+00 -0.18870370072E+03  0.18870370074E+03  0.25500000920E-02 0. -1.
    10030    2    1    2    0    0  0.00000000000E+00  0.00000000000E+00  0.13515708277E+04  0.17289782292E+04  0.10782495141E+04 0.  0.
        4    1    3    3  502    0  0.39676399449E+03 -0.28672319202E+03  0.10379859927E+04  0.11476272871E+04  0.12699999809E+01 0.  1.
       -4    1    3    3    0  502 -0.39676399449E+03  0.28672319202E+03  0.31358483494E+03  0.58135094200E+03  0.12699999809E+01 0. -1.
</event>
<event>
 5   0  0.1661750E-03  0.1302464E+04  0.7818609E-02  0.9027613E-01
       -3   -1    0    0    0  501  0.00000000000E+00  0.00000000000E+00  0.11489509367E+04  0.11489509411E+04  0.10100000352E+00 0.  1.
        3   -1    0    0  501    0  0.00000000000E+00  0.00000000000E+00 -0.36912206110E+03  0.36912207492E+03  0.10100000352E+00 0. -1.
    10030    2    1    2    0    0  0.00000000000E+00  0.00000000000E+00  0.77982887557E+03  0.15180730160E+04  0.13024640520E+04 0.  0.
        4    1    3    3  502    0  0.46789991291E+03  0.38688144511E+03  0.66448233938E+03  0.90008109263E+03  0.12699999809E+01 0.  1.
       -4    1    3    3    0  502 -0.46789991291E+03 -0.38688144511E+03  0.11534653619E+03  0.61799192339E+03  0.12699999809E+01 0. -1.
</event>
<event>
 5   0  0.2356769E-03  0.1313953E+04  0.7818609E-02  0.9018573E-01
        1   -1    0    0  501    0  0.00000000000E+00  0.00000000000E+00  0.52926397317E+03  0.52926397319E+03  0.50400001928E-02 0.  1.
       -1   -1    0    0    0  501  0.00000000000E+00  0.00000000000E+00 -0.81550682497E+03  0.81550682499E+03  0.50400001928E-02 0. -1.
    10030    2    1    2    0    0  0.00000000000E+00  0.00000000000E+00 -0.28624285180E+03  0.13447707982E+04  0.13139533970E+04 0.  0.
        1    1    3    3  502    0  0.28743150999E+03  0.48678605161E+03  0.19945423479E+03  0.59946603305E+03  0.50400001928E-02 0.  1.
       -1    1    3    3    0  502 -0.28743150999E+03 -0.48678605161E+03 -0.48569708660E+03  0.74530476513E+03  0.50400001928E-02 0. -1.
</event>
<event>
 5   0  0.1661750E-03  0.1369728E+04  0.7818609E-02  0.8976027E-01
        3   -1    0    0  501    0  0.00000000000E+00  0.00000000000E+00  0.16025956086E+04  0.16025956117E+04  0.10100000352E+00 0. -1.
       -3   -1    0    0    0  501  0.00000000000E+00  0.00000000000E+00 -0.29267444337E+03  0.29267446080E+03  0.10100000352E+00 0.  1.
    10030    2    1    2    0    0  0.00000000000E+00  0.00000000000E+00  0.13099211652E+04  0.18952700725E+04  0.13697281441E+04 0.  0.
        1    1    3    3  502    0  0.43952603099E+03  0.34711860601E+03  0.10956402081E+03  0.57068269050E+03  0.50400001928E-02 0. -1.
       -1    1    3    3    0  502 -0.43952603099E+03 -0.34711860601E+03  0.12003571444E+04  0.13245873820E+04  0.50400001928E-02 0.  1.
</event>
<event>
 5   0  0.4306214E-03  0.1268469E+04  0.7818609E-02  0.9054950E-01
       -2   -1    0    0    0  501  0.00000000000E+00  0.00000000000E+00  0.71509215166E+03  0.71509215166E+03  0.25500000920E-02 0.  1.
        2   -1    0    0  501    0  0.00000000000E+00  0.00000000000E+00 -0.56251927116E+03  0.56251927117E+03  0.25500000920E-02 0. -1.
    10030    2    1    2    0    0  0.00000000000E+00  0.00000000000E+00  0.15257288050E+03  0.12776114228E+04  0.12684685506E+04 0.  0.
        3    1    3    3  502    0 -0.17816796172E+03  0.27452355814E+03  0.62347575212E+03  0.70415128363E+03  0.10100000352E+00 0.  1.
       -3    1    3    3    0  502  0.17816796172E+03 -0.27452355814E+03 -0.47090287162E+03  0.57346013920E+03  0.10100000352E+00 0. -1.
</event>
<event>
 5   0  0.4453011E-03  0.1231292E+04  0.7818609E-02  0.9085899E-01
       -2   -1    0    0    0  501  0.00000000000E+00  0.00000000000E+00  0.25454911793E+03  0.25454911794E+03  0.25500000920E-02 0. -1.
        2   -1    0    0  501    0  0.00000000000E+00  0.00000000000E+00 -0.14889850731E+04  0.14889850731E+04  0.25500000920E-02 0.  1.
    10030    2    1    2    0    0  0.00000000000E+00  0.00000000000E+00 -0.12344359552E+04  0.17435341911E+04  0.12312917396E+04 0.  0.
        1    1    3    3  502    0 -0.83818240294E+02 -0.38535563459E+01  0.24641456693E+03  0.26030844420E+03  0.50400001928E-02 0. -1.
       -1    1    3    3    0  502  0.83818240294E+02  0.38535563459E+01 -0.14808505221E+04  0.14832257469E+04  0.50400001928E-02 0.  1.
</event>
<event>
 5   0  0.1661750E-03  0.1296042E+04  0.7818609E-02  0.9032710E-01
        4   -1    0    0  501    0  0.00000000000E+00  0.00000000000E+00  0.95600422356E+03  0.95600506712E+03  0.12699999809E+01 0. -1.
       -4   -1    0    0    0  501  0.00000000000E+00  0.00000000000E+00 -0.43925469746E+03  0.43925653341E+03  0.12699999809E+01 0.  1.
    10030    2    1    2    0    0  0.00000000000E+00  0.00000000000E+00  0.51674952610E+03  0.13952616005E+04  0.12960419982E+04 0.  0.
        1    1    3    3  502    0 -0.59238718161E+03  0.24867950546E+03  0.16723462339E+03  0.66387610942E+03  0.50400001928E-02 0.  1.
       -1    1    3    3    0  502  0.59238718161E+03 -0.24867950546E+03  0.34951490270E+03  0.73138549111E+03  0.50400001928E-02 0. -1.
</event>
<event>
 5   0  0.2356769E-03  0.1293121E+04  0.7818609E-02  0.9035038E-01
       -1   -1    0    0    0  501  0.00000000000E+00  0.00000000000E+00  0.28835282760E+03  0.28835282765E+03  0.50400001928E-02 0.  1.
        1   -1    0    0  501    0  0.00000000000E+00  0.00000000000E+00 -0.14497529183E+04  0.14497529183E+04  0.50400001928E-02 0. -1.
    10030    2    1    2    0    0  0.00000000000E+00  0.00000000000E+00 -0.11614000906E+04  0.17381057459E+04  0.12931208039E+04 0.  0.
        1    1    3    3  502    0 -0.60107654974E+03  0.22011668091E+03 -0.45827479995E+03  0.78724847675E+03  0.50400001928E-02 0.  1.
       -1    1    3    3    0  502  0.60107654974E+03 -0.22011668091E+03 -0.70312529070E+03  0.95085726915E+03  0.50400001928E-02 0. -1.
</event>
<event>
 5   0  0.2462055E-03  0.1384654E+04  0.7818609E-02  0.8965002E-01
        1   -1    0    0  501    0  0.00000000000E+00  0.00000000000E+00  0.70411397557E+03  0.70411397558E+03  0.50400001928E-02 0. -1.
       -1   -1    0    0    0  501  0.00000000000E+00  0.00000000000E+00 -0.68073773715E+03  0.68073773717E+03  0.50400001928E-02 0.  1.
    10030    2    1    2    0    0  0.00000000000E+00  0.00000000000E+00  0.23376238415E+02  0.13848517128E+04  0.13846544037E+04 0.  0.
        2    1    3    3  502    0  0.11398260148E+03  0.28205598057E+03 -0.61030832739E+03  0.68192658263E+03  0.25500000920E-02 0.  1.
       -2    1    3    3    0  502 -0.11398260148E+03 -0.28205598057E+03  0.63368456580E+03  0.70292513012E+03  0.25500000920E-02 0. -1.
</event>
<event>
 5   0  0.4306214E-03  0.8124115E+03  0.7818609E-02  0.9542224E-01
       -2   -1    0    0    0  501  0.00000000000E+00  0.00000000000E+00  0.23201456546E+03  0.23201456547E+03  0.25500000920E-02 0.  1.
        2   -1    0    0  501    0  0.00000000000E+00  0.00000000000E+00 -0.71117560525E+03  0.71117560525E+03  0.25500000920E-02 0. -1.
    10030    2    1    2    0    0  0.00000000000E+00  0.00000000000E+00 -0.47916103979E+03  0.94319017073E+03  0.81241146970E+03 0.  0.
        3    1    3    3  502    0 -0.11705673030E+03 -0.26196563643E+03 -0.57339858740E+03  0.64118189541E+03  0.10100000352E+00 0. -1.
       -3    1    3    3    0  502  0.11705673030E+03  0.26196563643E+03  0.94237547608E+02  0.30200827531E+03  0.10100000352E+00 0.  1.
</event>
<event>
 5   0  0.2462055E-03  0.1203400E+04  0.7818609E-02  0.9109886E-01
        1   -1    0    0  501    0  0.00000000000E+00  0.00000000000E+00  0.12991574352E+04  0.12991574352E+04  0.50400001928E-02 0. -1.
       -1   -1    0    0    0  501  0.00000000000E+00  0.00000000000E+00 -0.27867515964E+03  0.27867515969E+03  0.50400001928E-02 0.  1.
    10030    2    1    2    0    0  0.00000000000E+00  0.00000000000E+00  0.10204822756E+04  0.15778325949E+04  0.12034000261E+04 0.  0.
        2    1    3    3  502    0 -0.11438095538E+03 -0.13357540778E+03  0.12647111502E+04  0.12768788846E+04  0.25500000920E-02 0. -1.
       -2    1    3    3    0  502  0.11438095538E+03  0.13357540778E+03 -0.24422887465E+03  0.30095371029E+03  0.25500000920E-02 0.  1.
</event>
<event>
 5   0  0.4263540E-03  0.1292135E+04  0.7818609E-02  0.9035825E-01
        2   -1    0    0  501    0  0.00000000000E+00  0.00000000000E+00  0.83896120039E+03  0.83896120040E+03  0.25500000920E-02 0.  1.
       -2   -1    0    0    0  501  0.00000000000E+00  0.00000000000E+00 -0.49752393380E+03  0.49752393380E+03  0.25500000920E-02 0. -1.
    10030    2    1    2    0    0  0.00000000000E+00  0.00000000000E+00  0.34143726659E+03  0.13364851342E+04  0.12921350962E+04 0.  0.
        2    1    3    3  502    0  0.30162068071E+03  0.18864388524E+03  0.72852641240E+03  0.81074797813E+03  0.25500000920E-02 0.  1.
       -2    1    3    3    0  502 -0.30162068071E+03 -0.18864388524E+03 -0.38708914580E+03  0.52573715607E+03  0.25500000920E-02 0. -1.
</event>
<event>
 5   0  0.2370801E-03  0.1472907E+04  0.7818609E-02  0.8902672E-01
        1   -1    0    0  501    0  0.00000000000E+00  0.00000000000E+00  0.16790156287E+04  0.16790156287E+04  0.50400001928E-02 0.  1.
       -1   -1    0    0    0  501  0.00000000000E+00  0.00000000000E+00 -0.32302472973E+03  0.32302472977E+03  0.50400001928E-02 0. -1.
    10030    2    1    2    0    0  0.00000000000E+00  0.00000000000E+00  0.13559908990E+04  0.20020403585E+04  0.14729067448E+04 0.  0.
        3    1    3    3  502    0 -0.64621732827E+03  0.29829719322E+03  0.93512451687E+03  0.11751748479E+04  0.10100000352E+00 0.  1.
       -3    1    3    3    0  502  0.64621732827E+03 -0.29829719322E+03  0.42086638210E+03  0.82686551060E+03  0.10100000352E+00 0. -1.
</event>
<event>
 5   0  0.2356769E-03  0.1255518E+04  0.7818609E-02  0.9065603E-01
        1   -1    0    0  501    0  0.00000000000E+00  0.00000000000E+00  0.11708760595E+04  0.11708760595E+04  0.50400001928E-02 0.  1.
       -1   -1    0    0    0  501  0.00000000000E+00  0.00000000000E+00 -0.33656990390E+03  0.33656990394E+03  0.50400001928E-02 0. -1.
    10030    2    1    2    0    0  0.00000000000E+00  0.00000000000E+00  0.83430615557E+03  0.15074459634E+04  0.12555184473E+04 0.  0.
        1    1    3    3  502    0 -0.61898505791E+03 -0.10323832509E+03  0.39702680193E+03  0.74258395832E+03  0.50400001928E-02 0.  1.
       -1    1    3    3    0  502  0.61898505791E+03  0.10323832509E+03  0.43727935364E+03  0.76486200509E+03  0.50400001928E-02 0. -1.
</event>
<event>
 5   0  0.4310889E-03  0.1355412E+04  0.7818609E-02  0.8986742E-01
       -2   -1    0    0    0  501  0.00000000000E+00  0.00000000000E+00  0.32508476703E+03  0.32508476704E+03  0.25500000920E-02 0.  1.
        2   -1    0    0  501    0  0.00000000000E+00  0.00000000000E+00 -0.14128165537E+04  0.14128165537E+04  0.25500000920E-02 0. -1.
    10030    2    1    2    0    0  0.00000000000E+00  0.00000000000E+00 -0.10877317866E+04  0.17379013207E+04  0.13554115836E+04 0.  0.
        4    1    3    3  502    0  0.22776025541E+03  0.49941802410E+03 -0.10535127051E+04  0.11879325442E+04  0.12699999809E+01 0. -1.
       -4    1    3    3    0  502 -0.22776025541E+03 -0.49941802410E+03 -0.34219081532E+02  0.54996877655E+03  0.12699999809E+01 0.  1.
</event>
<event>
 5   0  0.4388937E-03  0.1085600E+04  0.7818609E-02  0.9219341E-01
       -2   -1    0    0    0  501  0.00000000000E+00  0.00000000000E+00  0.23551842081E+03  0.23551842082E+03  0.25500000920E-02 0.  1.
        2   -1    0    0  501    0  0.00000000000E+00  0.00000000000E+00 -0.12509936547E+04  0.12509936547E+04  0.25500000920E-02 0. -1.
    10030    2    1    2    0    0  0.00000000000E+00  0.00000000000E+00 -0.10154752339E+04  0.14865120755E+04  0.10856003869E+04 0.  0.
        5    1    3    3  502    0 -0.36492760400E+03 -0.23348431282E+03 -0.59989492698E+02  0.43738759668E+03  0.46999998093E+01 0.  1.
       -5    1    3    3    0  502  0.36492760400E+03  0.23348431282E+03 -0.95548574119E+03  0.10491244788E+04  0.46999998093E+01 0. -1.
</event>
<event>
 5   0  0.2462055E-03  0.1300313E+04  0.7818609E-02  0.9029317E-01
       -1   -1    0    0    0  501  0.00000000000E+00  0.00000000000E+00  0.70263539998E+03  0.70263540000E+03  0.50400001928E-02 0. -1.
        1   -1    0    0  501    0  0.00000000000E+00  0.00000000000E+00 -0.60159683762E+03  0.60159683764E+03  0.50400001928E-02 0.  1.
    10030    2    1    2    0    0  0.00000000000E+00  0.00000000000E+00  0.10103856236E+03  0.13042322376E+04  0.13003126311E+04 0.  0.
        2    1    3    3  502    0 -0.15675738338E+02 -0.19077582870E+03  0.67373116723E+03  0.70039619594E+03  0.25500000920E-02 0. -1.
       -2    1    3    3    0  502  0.15675738338E+02  0.19077582870E+03 -0.57269260486E+03  0.60383604170E+03  0.25500000920E-02 0.  1.
</event>
<event>
 5   0  0.2462055E-03  0.1280970E+04  0.7818609E-02  0.9044794E-01
       -1   -1    0    0    0  501  0.00000000000E+00  0.00000000000E+00  0.49935055122E+03  0.49935055124E+03  0.50400001928E-02 0.  1.
        1   -1    0    0  501    0  0.00000000000E+00  0.00000000000E+00 -0.82150946373E+03  0.82150946375E+03  0.50400001928E-02 0. -1.
    10030    2    1    2    0    0  0.00000000000E+00  0.00000000000E+00 -0.32215891252E+03  0.13208600150E+04  0.12809702628E+04 0.  0.
        2    1    3    3  502    0 -0.10834842451E+03 -0.46733585938E+03  0.27649231932E+03  0.55370586885E+03  0.25500000920E-02 0.  1.
       -2    1    3    3    0  502  0.10834842451E+03  0.46733585938E+03 -0.59865123183E+03  0.76715414614E+03  0.25500000920E-02 0. -1.
</event>
<event>
 5   0  0.2356769E-03  0.1270320E+04  0.7818609E-02  0.9053438E-01
        1   -1    0    0  501    0  0.00000000000E+00  0.00000000000E+00  0.29540604487E+03  0.29540604492E+03  0.50400001928E-02 0. -1.
       -1   -1    0    0    0  501  0.00000000000E+00  0.00000000000E+00 -0.13656743589E+04  0.13656743589E+04  0.50400001928E-02 0.  1.
    10030    2    1    2    0    0  0.00000000000E+00  0.00000000000E+00 -0.10702683140E+04  0.16610804038E+04  0.12703203706E+04 0.  0.
        1    1    3    3  502    0  0.45507113036E+03  0.29744614006E+03 -0.10568010769E+03  0.55383411335E+03  0.50400001928E-02 0. -1.
       -1    1    3    3    0  502 -0.45507113036E+03 -0.29744614006E+03 -0.96458820632E+03  0.11072462905E+04  0.50400001928E-02 0.  1.
</event>
<event>
 5   0  0.2458456E-03  0.1304234E+04  0.7818609E-02  0.9026214E-01
       -1   -1    0    0    0  501  0.00000000000E+00  0.00000000000E+00  0.78400120518E+03  0.78400120520E+03  0.50400001928E-02 0. -1.
        1   -1    0    0  501    0  0.00000000000E+00  0.00000000000E+00 -0.54241822036E+03  0.54241822038E+03  0.50400001928E-02 0.  1.
    10030    2    1    2    0    0  0.00000000000E+00  0.00000000000E+00  0.24158298482E+03  0.13264194256E+04  0.13042339338E+04 0.  0.
        5    1    3    3  502    0  0.37105889722E+03 -0.18496285869E+03  0.63268068661E+03  0.75644094648E+03  0.46999998093E+01 0. -1.
       -5    1    3    3    0  502 -0.37105889722E+03  0.18496285869E+03 -0.39109770179E+03  0.56997847910E+03  0.46999998093E+01 0.  1.
</event>
<event>
 5   0  0.2370801E-03  0.1334158E+04  0.7818609E-02  0.9002908E-01
        1   -1    0    0  501    0  0.00000000000E+00  0.00000000000E+00  0.62993734756E+03  0.62993734758E+03  0.50400001928E-02 0. -1.
       -1   -1    0    0    0  501  0.00000000000E+00  0.00000000000E+00 -0.70641054126E+03  0.70641054128E+03  0.50400001928E-02 0.  1.
    10030    2    1    2    0    0  0.00000000000E+00  0.00000000000E+00 -0.76473193696E+02  0.13363478889E+04  0.13341579857E+04 0.  0.
        3    1    3    3  502    0 -0.24325738896E+03  0.27562616144E+03  0.51931918843E+03  0.63626752850E+03  0.10100000352E+00 0. -1.
       -3    1    3    3    0  502  0.24325738896E+03 -0.27562616144E+03 -0.59579238212E+03  0.70008036035E+03  0.10100000352E+00 0.  1.
</event>
<event>
 5   0  0.4453011E-03  0.1314787E+04  0.7818609E-02  0.9017920E-01
        2   -1    0    0  501    0  0.00000000000E+00  0.00000000000E+00  0.89429089845E+03  0.89429089845E+03  0.25500000920E-02 0. -1.
       -2   -1    0    0    0  501  0.00000000000E+00  0.00000000000E+00 -0.48325039638E+03  0.48325039638E+03  0.25500000920E-02 0.  1.
    10030    2    1    2    0    0  0.00000000000E+00  0.00000000000E+00  0.41104050207E+03  0.13775412948E+04  0.13147873306E+04 0.  0.
        1    1    3    3  502    0  0.42444386550E+03 -0.33928878126E+03  0.59317581053E+03  0.80444205154E+03  0.50400001928E-02 0. -1.
       -1    1    3    3    0  502 -0.42444386550E+03  0.33928878126E+03 -0.18213530846E+03  0.57309924330E+03  0.50400001928E-02 0.  1.
</event>
<event>
 5   0  0.2370801E-03  0.1350841E+04  0.7818609E-02  0.8990192E-01
        1   -1    0    0  501    0  0.00000000000E+00  0.00000000000E+00  0.24098145632E+04  0.24098145632E+04  0.50400001928E-02 0. -1.
       -1   -1    0    0    0  501  0.00000000000E+00  0.00000000000E+00 -0.18930609040E+03  0.18930609047E+03  0.50400001928E-02 0.  1.
    10030    2    1    2    0    0  0.00000000000E+00  0.00000000000E+00  0.22205084728E+04  0.25991206537E+04  0.13508405882E+04 0.  0.
        3    1    3    3  502    0  0.44381217215E+02  0.59965467264E+03  0.51834767640E+03  0.79387640266E+03  0.10100000352E+00 0.  1.
       -3    1    3    3    0  502 -0.44381217215E+02 -0.59965467264E+03  0.17021607964E+04  0.18052442510E+04  0.10100000352E+00 0. -1.
</event>
<event>
 5   0  0.2356769E-03  0.1304531E+04  0.7818609E-02  0.9025979E-01
       -1   -1    0    0    0  501  0.00000000000E+00  0.00000000000E+00  0.91306111900E+03  0.91306111902E+03  0.50400001928E-02 0. -1.
        1   -1    0    0  501    0  0.00000000000E+00  0.00000000000E+00 -0.46596063640E+03  0.46596063643E+03  0.50400001928E-02 0.  1.
    10030    2    1    2    0    0  0.00000000000E+00  0.00000000000E+00  0.44710048261E+03  0.13790217554E+04  0.13045313950E+04 0.  0.
        1    1    3    3  502    0  0.24005323480E+03  0.21784892842E+03 -0.37477917298E+03  0.49552309702E+03  0.50400001928E-02 0.  1.
       -1    1    3    3    0  502 -0.24005323480E+03 -0.21784892842E+03  0.82187965559E+03  0.88349865843E+03  0.50400001928E-02 0. -1.
</event>
<event>
 5   0  0.2356769E-03  0.1291730E+04  0.7818609E-02  0.9036149E-01
        1   -1    0    0  501    0  0.00000000000E+00  0.00000000000E+00  0.65589938379E+03  0.65589938380E+03  0.50400001928E-02 0. -1.
       -1   -1    0    0    0  501  0.00000000000E+00  0.00000000000E+00 -0.63598417653E+03  0.63598417655E+03  0.50400001928E-02 0.  1.
    10030    2    1    2    0    0  0.00000000000E+00  0.00000000000E+00  0.19915207256E+02  0.12918835604E+04  0.12917300484E+04 0.  0.
        1    1    3    3  502    0  0.29620441172E+03  0.54553324663E+03  0.18829888074E+03  0.64869102446E+03  0.50400001928E-02 0. -1.
       -1    1    3    3    0  502 -0.29620441172E+03 -0.54553324663E+03 -0.16838367348E+03  0.64319253589E+03  0.50400001928E-02 0.  1.
</event>
<event>
 5   0  0.2462055E-03  0.1266379E+04  0.7818609E-02  0.9056660E-01
       -1   -1    0    0    0  501  0.00000000000E+00  0.00000000000E+00  0.22835496600E+03  0.22835496605E+03  0.50400001928E-02 0. -1.
        1   -1    0    0  501    0  0.00000000000E+00  0.00000000000E+00 -0.17557267844E+04  0.17557267844E+04  0.50400001928E-02 0.  1.
    10030    2    1    2    0    0  0.00000000000E+00  0.00000000000E+00 -0.15273718184E+04  0.19840817504E+04  0.12663789799E+04 0.  0.
        2    1    3    3  502    0  0.46268345743E+03 -0.43201547282E+03 -0.74068209941E+03  0.97433224463E+03  0.25500000920E-02 0. -1.
       -2    1    3    3    0  502 -0.46268345743E+03  0.43201547282E+03 -0.78668971898E+03  0.10097495058E+04  0.25500000920E-02 0.  1.
</event>
<event>
 5   0  0.2370801E-03  0.1425510E+04  0.7818609E-02  0.8935557E-01
       -1   -1    0    0    0  501  0.00000000000E+00  0.00000000000E+00  0.75318262256E+03  0.75318262257E+03  0.50400001928E-02 0. -1.
        1   -1    0    0  501    0  0.00000000000E+00  0.00000000000E+00 -0.67449759000E+03  0.67449759001E+03  0.50400001928E-02 0.  1.
    10030    2    1    2    0    0  0.00000000000E+00  0.00000000000E+00  0.78685032562E+02  0.14276802126E+04  0.14255102438E+04 0.  0.
        3    1    3    3  502    0 -0.25753149748E+03 -0.52682892163E+03 -0.36642687196E+03  0.69147657051E+03  0.10100000352E+00 0.  1.
       -3    1    3    3    0  502  0.25753149748E+03  0.52682892163E+03  0.44511190452E+03  0.73620364208E+03  0.10100000352E+00 0. -1.
</event>
<event>
 5   0  0.4453011E-03  0.1309678E+04  0.7818609E-02  0.9021926E-01
       -2   -1    0    0    0  501  0.00000000000E+00  0.00000000000E+00  0.45560801364E+03  0.45560801364E+03  0.25500000920E-02 0. -1.
        2   -1    0    0  501    0  0.00000000000E+00  0.00000000000E+00 -0.94119072540E+03  0.94119072540E+03  0.25500000920E-02 0.  1.
    10030    2    1    2    0    0  0.00000000000E+00  0.00000000000E+00 -0.48558271176E+03  0.13967987390E+04  0.13096778793E+04 0.  0.
        1    1    3    3  502    0 -0.10724217067E+03  0.35699028467E+03 -0.81700273427E+03  0.89801804790E+03  0.50400001928E-02 0.  1.
       -1    1    3    3    0  502  0.10724217067E+03 -0.35699028467E+03  0.33142002251E+03  0.49878069115E+03  0.50400001928E-02 0. -1.
</event>
<event>
 5   0  0.4306214E-03  0.1304293E+04  0.7818609E-02  0.9026167E-01
       -2   -1    0    0    0  501  0.00000000000E+00  0.00000000000E+00  0.93790008342E+03  0.93790008342E+03  0.25500000920E-02 0. -1.
        2   -1    0    0  501    0  0.00000000000E+00  0.00000000000E+00 -0.45345487051E+03  0.45345487051E+03  0.25500000920E-02 0.  1.
    10030    2    1    2    0    0  0.00000000000E+00  0.00000000000E+00  0.48444521291E+03  0.13913549539E+04  0.13042934653E+04 0.  0.
        3    1    3    3  502    0  0.36939236051E+03 -0.53723399255E+03  0.22624726791E+03  0.69011514633E+03  0.10100000352E+00 0.  1.
       -3    1    3    3    0  502 -0.36939236051E+03  0.53723399255E+03  0.25819794500E+03  0.70123980760E+03  0.10100000352E+00 0. -1.
</event>
<event>
 5   0  0.2370801E-03  0.1308468E+04  0.7818609E-02  0.9022877E-01
        1   -1    0    0  501    0  0.00000000000E+00  0.00000000000E+00  0.10268535804E+04  0.10268535804E+04  0.50400001928E-02 0. -1.
       -1   -1    0    0    0  501  0.00000000000E+00  0.00000000000E+00 -0.41682866200E+03  0.41682866203E+03  0.50400001928E-02 0.  1.
    10030    2    1    2    0    0  0.00000000000E+00  0.00000000000E+00  0.61002491844E+03  0.14436822425E+04  0.13084678124E+04 0.  0.
        3    1    3    3  502    0 -0.15254347184E-01 -0.48114679361E+03  0.79412824519E+03  0.92851597576E+03  0.10100000352E+00 0. -1.
       -3    1    3    3    0  502  0.15254347184E-01  0.48114679361E+03 -0.18410332676E+03  0.51516626671E+03  0.10100000352E+00 0.  1.
</event>
<event>
 5   0  0.4388937E-03  0.1303878E+04  0.7818609E-02  0.9026495E-01
       -2   -1    0    0    0  501  0.00000000000E+00  0.00000000000E+00  0.36668541696E+03  0.36668541697E+03  0.25500000920E-02 0.  1.
        2   -1    0    0  501    0  0.00000000000E+00  0.00000000000E+00 -0.11590987920E+04  0.11590987920E+04  0.25500000920E-02 0. -1.
    10030    2    1    2    0    0  0.00000000000E+00  0.00000000000E+00 -0.79241337508E+03  0.15257842090E+04  0.13038782518E+04 0.  0.
        5    1    3    3  502    0 -0.39956103076E+03 -0.15213717073E+03  0.17969736542E+03  0.46379733630E+03  0.46999998093E+01 0.  1.
       -5    1    3    3    0  502  0.39956103076E+03  0.15213717073E+03 -0.97211074051E+03  0.10619868727E+04  0.46999998093E+01 0. -1.
</event>
<event>
 5   0  0.2511542E-03  0.1267061E+04  0.7818609E-02  0.9056102E-01
       -1   -1    0    0    0  501  0.00000000000E+00  0.00000000000E+00  0.26802092734E+03  0.26802092739E+03  0.50400001928E-02 0. -1.
        1   -1    0    0  501    0  0.00000000000E+00  0.00000000000E+00 -0.14974977902E+04  0.14974977902E+04  0.50400001928E-02 0.  1.
    10030    2    1    2    0    0  0.00000000000E+00  0.00000000000E+00 -0.12294768629E+04  0.17655187176E+04  0.12670607665E+04 0.  0.
        4    1    3    3  502    0  0.31079364881E+03  0.26535579273E+03 -0.12892818430E+04  0.13524997865E+04  0.12699999809E+01 0.  1.
       -4    1    3    3    0  502 -0.31079364881E+03 -0.26535579273E+03  0.59804980171E+02  0.41301893108E+03  0.12699999809E+01 0. -1.
</event>
<event>
 5   0  0.2462055E-03  0.1261349E+04  0.7818609E-02  0.9060790E-01
        1   -1    0    0  501    0  0.00000000000E+00  0.00000000000E+00  0.12351882802E+04  0.12351882802E+04  0.50400001928E-02 0. -1.
       -1   -1    0    0    0  501  0.00000000000E+00  0.00000000000E+00 -0.32201597458E+03  0.32201597462E+03  0.50400001928E-02 0.  1.
    10030    2    1    2    0    0  0.00000000000E+00  0.00000000000E+00  0.91317230562E+03  0.15572042548E+04  0.12613490522E+04 0.  0.
        2    1    3    3  502    0  0.51098277878E+03  0.15981330104E+02  0.91252231209E+03  0.10459712105E+04  0.25500000920E-02 0. -1.
       -2    1    3    3    0  502 -0.51098277878E+03 -0.15981330104E+02  0.64999353185E+00  0.51123304433E+03  0.25500000920E-02 0.  1.
</event>
<event>
 5   0  0.2356769E-03  0.1136747E+04  0.7818609E-02  0.9170098E-01
       -1   -1    0    0    0  501  0.00000000000E+00  0.00000000000E+00  0.57835286641E+03  0.57835286643E+03  0.50400001928E-02 0. -1.
        1   -1    0    0  501    0  0.00000000000E+00  0.00000000000E+00 -0.55856607196E+03  0.55856607198E+03  0.50400001928E-02 0.  1.
    10030    2    1    2    0    0  0.00000000000E+00  0.00000000000E+00  0.19786794453E+02  0.11369189384E+04  0.11367467419E+04 0.  0.
        1    1    3    3  502    0  0.37954418010E+03 -0.76933098981E+02 -0.40619342314E+03  0.56121794643E+03  0.50400001928E-02 0.  1.
       -1    1    3    3    0  502 -0.37954418010E+03  0.76933098981E+02  0.42598021759E+03  0.57570099198E+03  0.50400001928E-02 0. -1.
</event>
<event>
 5   0  0.2458456E-03  0.1262056E+04  0.7818609E-02  0.9060209E-01
        1   -1    0    0  501    0  0.00000000000E+00  0.00000000000E+00  0.59075401724E+03  0.59075401726E+03  0.50400001928E-02 0.  1.
       -1   -1    0    0    0  501  0.00000000000E+00  0.00000000000E+00 -0.67404729426E+03  0.67404729428E+03  0.50400001928E-02 0. -1.
    10030    2    1    2    0    0  0.00000000000E+00  0.00000000000E+00 -0.83293277027E+02  0.12648013115E+04  0.12620556991E+04 0.  0.
        5    1    3    3  502    0 -0.35406812165E+03  0.20145908818E+03  0.44129804534E+03  0.60059641508E+03  0.46999998093E+01 0.  1.
       -5    1    3    3    0  502  0.35406812165E+03 -0.20145908818E+03 -0.52459132237E+03  0.66420489646E+03  0.46999998093E+01 0. -1.
</event>
<event>
 5   0  0.4388937E-03  0.1279299E+04  0.7818609E-02  0.9046144E-01
       -2   -1    0    0    0  501  0.00000000000E+00  0.00000000000E+00  0.55305527308E+03  0.55305527308E+03  0.25500000920E-02 0.  1.
        2   -1    0    0  501    0  0.00000000000E+00  0.00000000000E+00 -0.73980227371E+03  0.73980227372E+03  0.25500000920E-02 0. -1.
    10030    2    1    2    0    0  0.00000000000E+00  0.00000000000E+00 -0.18674700063E+03  0.12928575468E+04  0.12792991027E+04 0.  0.
        5    1    3    3  502    0  0.62226936496E+03 -0.13639611970E+03 -0.35262826164E+02  0.63803496843E+03  0.46999998093E+01 0. -1.
       -5    1    3    3    0  502 -0.62226936496E+03  0.13639611970E+03 -0.15148417447E+03  0.65482257837E+03  0.46999998093E+01 0.  1.
</event>
<event>
 5   0  0.4310889E-03  0.1298296E+04  0.7818609E-02  0.9030918E-01
       -2   -1    0    0    0  501  0.00000000000E+00  0.00000000000E+00  0.36608919527E+03  0.36608919528E+03  0.25500000920E-02 0. -1.
        2   -1    0    0  501    0  0.00000000000E+00  0.00000000000E+00 -0.11510661100E+04  0.11510661100E+04  0.25500000920E-02 0.  1.
    10030    2    1    2    0    0  0.00000000000E+00  0.00000000000E+00 -0.78497691472E+03  0.15171553053E+04  0.12982955995E+04 0.  0.
        4    1    3    3  502    0  0.34112714969E+03  0.43795138268E+03  0.71929497956E+00  0.55513176466E+03  0.12699999809E+01 0. -1.
       -4    1    3    3    0  502 -0.34112714969E+03 -0.43795138268E+03 -0.78569620970E+03  0.96202354061E+03  0.12699999809E+01 0.  1.
</event>
<event>
 5   0  0.2458456E-03  0.1239182E+04  0.7818609E-02  0.9079235E-01
       -1   -1    0    0    0  501  0.00000000000E+00  0.00000000000E+00  0.64864063209E+03  0.64864063211E+03  0.50400001928E-02 0. -1.
        1   -1    0    0  501    0  0.00000000000E+00  0.00000000000E+00 -0.59184271435E+03  0.59184271437E+03  0.50400001928E-02 0.  1.
    10030    2    1    2    0    0  0.00000000000E+00  0.00000000000E+00  0.56797917745E+02  0.12404833465E+04  0.12391823633E+04 0.  0.
        5    1    3    3  502    0 -0.24383194312E+03  0.90160816333E+02 -0.53458649922E+03  0.59446430039E+03  0.46999998093E+01 0.  1.
       -5    1    3    3    0  502  0.24383194312E+03 -0.90160816333E+02  0.59138441697E+03  0.64601904609E+03  0.46999998093E+01 0. -1.
</event>
<event>
 5   0  0.2458456E-03  0.1436458E+04  0.7818609E-02  0.8927843E-01
       -1   -1    0    0    0  501  0.00000000000E+00  0.00000000000E+00  0.49516304788E+03  0.49516304791E+03  0.50400001928E-02 0.  1.
        1   -1    0    0  501    0  0.00000000000E+00  0.00000000000E+00 -0.10417842127E+04  0.10417842128E+04  0.50400001928E-02 0. -1.
    10030    2    1    2    0    0  0.00000000000E+00  0.00000000000E+00 -0.54662116486E+03  0.15369472607E+04  0.14364582083E+04 0.  0.
        5    1    3    3  502    0 -0.54859998758E+03  0.11229187616E+03 -0.75450489103E+03  0.93961222450E+03  0.46999998093E+01 0. -1.
       -5    1    3    3    0  502  0.54859998758E+03 -0.11229187616E+03  0.20788372617E+03  0.59733503617E+03  0.46999998093E+01 0.  1.
</event>
<event>
 5   0  0.4453011E-03  0.1217354E+04  0.7818609E-02  0.9097801E-01
       -2   -1    0    0    0  501  0.00000000000E+00  0.00000000000E+00  0.82032643237E+03  0.82032643237E+03  0.25500000920E-02 0. -1.
        2   -1    0    0  501    0  0.00000000000E+00  0.00000000000E+00 -0.45163469057E+03  0.45163469058E+03  0.25500000920E-02 0.  1.
    10030    2    1    2    0    0  0.00000000000E+00  0.00000000000E+00  0.36869174180E+03  0.12719611230E+04  0.12173543025E+04 0.  0.
        1    1    3    3  502    0 -0.25553445370E+03  0.36240351938E+03 -0.25131526508E+03  0.50969945102E+03  0.50400001928E-02 0.  1.
       -1    1    3    3    0  502  0.25553445370E+03 -0.36240351938E+03  0.62000700688E+03  0.76226167193E+03  0.50400001928E-02 0. -1.
</event>
<event>
 5   0  0.4310889E-03  0.1315422E+04  0.7818609E-02  0.9017424E-01
        2   -1    0    0  501    0  0.00000000000E+00  0.00000000000E+00  0.68541757739E+03  0.68541757740E+03  0.25500000920E-02 0. -1.
       -2   -1    0    0    0  501  0.00000000000E+00  0.00000000000E+00 -0.63112426623E+03  0.63112426624E+03  0.25500000920E-02 0.  1.
    10030    2    1    2    0    0  0.00000000000E+00  0.00000000000E+00  0.54293311161E+02  0.13165418436E+04  0.13154218572E+04 0.  0.
        4    1    3    3  502    0  0.59879714389E+03 -0.27007588159E+03  0.60084421366E+02  0.65962925340E+03  0.12699999809E+01 0.  1.
       -4    1    3    3    0  502 -0.59879714389E+03  0.27007588159E+03 -0.57911102058E+01  0.65691259023E+03  0.12699999809E+01 0. -1.
</event>
<event>
 5   0  0.4310889E-03  0.1153556E+04  0.7818609E-02  0.9154509E-01
        2   -1    0    0  501    0  0.00000000000E+00  0.00000000000E+00  0.12758185550E+04  0.12758185550E+04  0.25500000920E-02 0.  1.
       -2   -1    0    0    0  501  0.00000000000E+00  0.00000000000E+00 -0.26075239969E+03  0.26075239970E+03  0.25500000920E-02 0. -1.
    10030    2    1    2    0    0  0.00000000000E+00  0.00000000000E+00  0.10150661553E+04  0.15365709547E+04  0.11535558067E+04 0.  0.
        4    1    3    3  502    0 -0.77586553795E+02 -0.32590660810E+03  0.11329298162E+04  0.11814255676E+04  0.12699999809E+01 0.  1.
       -4    1    3    3    0  502  0.77586553795E+02  0.32590660810E+03 -0.11786366085E+03  0.35514538710E+03  0.12699999809E+01 0. -1.
</event>
<event>
 5   0  0.2511542E-03  0.1292229E+04  0.7818609E-02  0.9035750E-01
       -1   -1    0    0    0  501  0.00000000000E+00  0.00000000000E+00  0.23771231279E+03  0.23771231285E+03  0.50400001928E-02 0.  1.
        1   -1    0    0  501    0  0.00000000000E+00  0.00000000000E+00 -0.17561743375E+04  0.17561743375E+04  0.50400001928E-02 0. -1.
    10030    2    1    2    0    0  0.00000000000E+00  0.00000000000E+00 -0.15184620247E+04  0.19938866504E+04  0.12922294897E+04 0.  0.
        4    1    3    3  502    0  0.36223258802E+03  0.36915359285E+03 -0.13567771610E+04  0.14520098830E+04  0.12699999809E+01 0. -1.
       -4    1    3    3    0  502 -0.36223258802E+03 -0.36915359285E+03 -0.16168486377E+03  0.54187676737E+03  0.12699999809E+01 0.  1.
</event>
<event>
 5   0  0.2370801E-03  0.1286641E+04  0.7818609E-02  0.9040227E-01
       -1   -1    0    0    0  501  0.00000000000E+00  0.00000000000E+00  0.36706502599E+03  0.36706502603E+03  0.50400001928E-02 0.  1.
        1   -1    0    0  501    0  0.00000000000E+00  0.00000000000E+00 -0.11274873373E+04  0.11274873373E+04  0.50400001928E-02 0. -1.
    10030    2    1    2    0    0  0.00000000000E+00  0.00000000000E+00 -0.76042231130E+03  0.14945523633E+04  0.12866408494E+04 0.  0.
        3    1    3    3  502    0  0.42521064783E+03  0.34689830809E+03 -0.77019951660E+03  0.94570071204E+03  0.10100000352E+00 0. -1.
       -3    1    3    3    0  502 -0.42521064783E+03 -0.34689830809E+03  0.97772052999E+01  0.54885165129E+03  0.10100000352E+00 0.  1.
</event>
<event>
 5   0  0.2370801E-03  0.6941676E+03  0.7818609E-02  0.9727259E-01
        1   -1    0    0  501    0  0.00000000000E+00  0.00000000000E+00  0.32031622109E+03  0.32031622113E+03  0.50400001928E-02 0.  1.
       -1   -1    0    0    0  501  0.00000000000E+00  0.00000000000E+00 -0.37608828630E+03  0.37608828633E+03  0.50400001928E-02 0. -1.
    10030    2    1    2    0    0  0.00000000000E+00  0.00000000000E+00 -0.55772065201E+02  0.69640450746E+03  0.69416764168E+03 0.  0.
        3    1    3    3  502    0 -0.83575865435E+02 -0.33305962665E+02 -0.36418699550E+03  0.37513516274E+03  0.10100000352E+00 0. -1.
       -3    1    3    3    0  502  0.83575865435E+02  0.33305962665E+02  0.30841493029E+03  0.32126934473E+03  0.10100000352E+00 0.  1.
</event>
<event>
 5   0  0.4310889E-03  0.1310440E+04  0.7818609E-02  0.9021327E-01
       -2   -1    0    0    0  501  0.00000000000E+00  0.00000000000E+00  0.12844268902E+04  0.12844268902E+04  0.25500000920E-02 0. -1.
        2   -1    0    0  501    0  0.00000000000E+00  0.00000000000E+00 -0.33424507320E+03  0.33424507321E+03  0.25500000920E-02 0.  1.
    10030    2    1    2    0    0  0.00000000000E+00  0.00000000000E+00  0.95018181697E+03  0.16186719634E+04  0.13104401702E+04 0.  0.
        4    1    3    3  502    0  0.19751369282E+03  0.50380454125E+03  0.18762128286E+02  0.54146496192E+03  0.12699999809E+01 0.  1.
       -4    1    3    3    0  502 -0.19751369282E+03 -0.50380454125E+03  0.93141968868E+03  0.10772070015E+04  0.12699999809E+01 0. -1.
</event>
<event>
 5   0  0.2511542E-03  0.1291951E+04  0.7818609E-02  0.9035972E-01
        1   -1    0    0  501    0  0.00000000000E+00  0.00000000000E+00  0.13440009984E+04  0.13440009984E+04  0.50400001928E-02 0.  1.
       -1   -1    0    0    0  501  0.00000000000E+00  0.00000000000E+00 -0.31047923853E+03  0.31047923857E+03  0.50400001928E-02 0. -1.
    10030    2    1    2    0    0  0.00000000000E+00  0.00000000000E+00  0.10335217599E+04  0.16544802370E+04  0.12919510929E+04 0.  0.
        4    1    3    3  502    0 -0.55296987571E+03 -0.10698514052E+03  0.11167364414E+03  0.57418996807E+03  0.12699999809E+01 0. -1.
       -4    1    3    3    0  502  0.55296987571E+03  0.10698514052E+03  0.92184811577E+03  0.10802902689E+04  0.12699999809E+01 0.  1.
</event>
<event>
 5   0  0.4453011E-03  0.1265885E+04  0.7818609E-02  0.9057065E-01
        2   -1    0    0  501    0  0.00000000000E+00  0.00000000000E+00  0.93290512639E+03  0.93290512640E+03  0.25500000920E-02 0.  1.
       -2   -1    0    0    0  501  0.00000000000E+00  0.00000000000E+00 -0.42942886147E+03  0.42942886147E+03  0.25500000920E-02 0. -1.
    10030    2    1    2    0    0  0.00000000000E+00  0.00000000000E+00  0.50347626493E+03  0.13623339879E+04  0.12658852812E+04 0.  0.
        1    1    3    3  502    0  0.47107735271E+03 -0.40560470100E+03  0.37992387937E+03  0.72854045862E+03  0.50400001928E-02 0.  1.
       -1    1    3    3    0  502 -0.47107735271E+03  0.40560470100E+03  0.12355238556E+03  0.63379352925E+03  0.50400001928E-02 0. -1.
</event>
<event>
 5   0  0.2458456E-03  0.1330493E+04  0.7818609E-02  0.9005727E-01
       -1   -1    0    0    0  501  0.00000000000E+00  0.00000000000E+00  0.47663093813E+03  0.47663093816E+03  0.50400001928E-02 0. -1.
        1   -1    0    0  501    0  0.00000000000E+00  0.00000000000E+00 -0.92850238777E+03  0.92850238778E+03  0.50400001928E-02 0.  1.
    10030    2    1    2    0    0  0.00000000000E+00  0.00000000000E+00 -0.45187144964E+03  0.14051333259E+04  0.13304930878E+04 0.  0.
        5    1    3    3  502    0 -0.54624573095E+03 -0.21170097230E+03 -0.55878171042E+03  0.80960532987E+03  0.46999998093E+01 0.  1.
       -5    1    3    3    0  502  0.54624573095E+03  0.21170097230E+03  0.10691026078E+03  0.59552799607E+03  0.46999998093E+01 0. -1.
</event>
<event>
 5   0  0.4306214E-03  0.1295699E+04  0.7818609E-02  0.9032983E-01
       -2   -1    0    0    0  501  0.00000000000E+00  0.00000000000E+00  0.79676272121E+03  0.79676272122E+03  0.25500000920E-02 0.  1.
        2   -1    0    0  501    0  0.00000000000E+00  0.00000000000E+00 -0.52676764562E+03  0.52676764562E+03  0.25500000920E-02 0. -1.
    10030    2    1    2    0    0  0.00000000000E+00  0.00000000000E+00  0.26999507559E+03  0.13235303668E+04  0.12956987656E+04 0.  0.
        3    1    3    3  502    0  0.60409831232E+03  0.22344974754E+03  0.20609322010E+03  0.67626842762E+03  0.10100000352E+00 0. -1.
       -3    1    3    3    0  502 -0.60409831232E+03 -0.22344974754E+03  0.63901855497E+02  0.64726193922E+03  0.10100000352E+00 0.  1.
</event>
<event>
 5   0  0.4453011E-03  0.1300448E+04  0.7818609E-02  0.9029210E-01
        2   -1    0    0  501    0  0.00000000000E+00  0.00000000000E+00  0.19320132359E+04  0.19320132359E+04  0.25500000920E-02 0.  1.
       -2   -1    0    0    0  501  0.00000000000E+00  0.00000000000E+00 -0.21883439330E+03  0.21883439332E+03  0.25500000920E-02 0. -1.
    10030    2    1    2    0    0  0.00000000000E+00  0.00000000000E+00  0.17131788426E+04  0.21508476292E+04  0.13004475296E+04 0.  0.
        1    1    3    3  502    0  0.22193440915E+03  0.56205213116E+03  0.12536476249E+04  0.13916859730E+04  0.50400001928E-02 0.  1.
       -1    1    3    3    0  502 -0.22193440915E+03 -0.56205213116E+03  0.45953121765E+03  0.75916165613E+03  0.50400001928E-02 0. -1.
</event>
<event>
 5   0  0.2458456E-03  0.1340298E+04  0.7818609E-02  0.8998205E-01
        1   -1    0    0  501    0  0.00000000000E+00  0.00000000000E+00  0.90117537612E+03  0.90117537613E+03  0.50400001928E-02 0. -1.
       -1   -1    0    0    0  501  0.00000000000E+00  0.00000000000E+00 -0.49834867181E+03  0.49834867183E+03  0.50400001928E-02 0.  1.
    10030    2    1    2    0    0  0.00000000000E+00  0.00000000000E+00  0.40282670431E+03  0.13995240480E+04  0.13402978054E+04 0.  0.
        5    1    3    3  502    0  0.22696460094E+03 -0.61929831308E+03  0.32511395716E+03  0.73536691917E+03  0.46999998093E+01 0. -1.
       -5    1    3    3    0  502 -0.22696460094E+03  0.61929831308E+03  0.77712747154E+02  0.66415712880E+03  0.46999998093E+01 0.  1.
</event>
<event>
 5   0  0.2462055E-03  0.1325647E+04  0.7818609E-02  0.9009470E-01
        1   -1    0    0  501    0  0.00000000000E+00  0.00000000000E+00  0.58395341642E+03  0.58395341644E+03  0.50400001928E-02 0.  1.
       -1   -1    0    0    0  501  0.00000000000E+00  0.00000000000E+00 -0.75234607742E+03  0.75234607744E+03  0.50400001928E-02 0. -1.
    10030    2    1    2    0    0  0.00000000000E+00  0.00000000000E+00 -0.16839266100E+03  0.13362994939E+04  0.13256471058E+04 0.  0.
        2    1    3    3  502    0 -0.47910459619E+03 -0.44693673258E+03 -0.18520836609E+03  0.68087869397E+03  0.25500000920E-02 0. -1.
       -2    1    3    3    0  502  0.47910459619E+03  0.44693673258E+03  0.16815705092E+02  0.65542079992E+03  0.25500000920E-02 0.  1.
</event>
<event>
 5   0  0.4263540E-03  0.1292300E+04  0.7818609E-02  0.9035694E-01
       -2   -1    0    0    0  501  0.00000000000E+00  0.00000000000E+00  0.19012244072E+03  0.19012244073E+03  0.25500000920E-02 0.  1.
        2   -1    0    0  501    0  0.00000000000E+00  0.00000000000E+00 -0.21960039874E+04  0.21960039874E+04  0.25500000920E-02 0. -1.
    10030    2    1    2    0    0  0.00000000000E+00  0.00000000000E+00 -0.20058815467E+04  0.23861264282E+04  0.12922997144E+04 0.  0.
        2    1    3    3  502    0 -0.33756230663E+02 -0.56599910925E+03 -0.43080366763E+03  0.71209990509E+03  0.25500000920E-02 0.  1.
       -2    1    3    3    0  502  0.33756230663E+02  0.56599910925E+03 -0.15750778791E+04  0.16740265231E+04  0.25500000920E-02 0. -1.
</event>
<event>
 5   0  0.4263540E-03  0.1304448E+04  0.7818609E-02  0.9026045E-01
       -2   -1    0    0    0  501  0.00000000000E+00  0.00000000000E+00  0.43649364462E+03  0.43649364463E+03  0.25500000920E-02 0. -1.
        2   -1    0    0  501    0  0.00000000000E+00  0.00000000000E+00 -0.97457568932E+03  0.97457568932E+03  0.25500000920E-02 0.  1.
    10030    2    1    2    0    0  0.00000000000E+00  0.00000000000E+00 -0.53808204469E+03  0.14110693340E+04  0.13044479209E+04 0.  0.
        2    1    3    3  502    0 -0.10378837757E+03  0.22324506204E+03  0.38430088645E+03  0.45639627121E+03  0.25500000920E-02 0. -1.
       -2    1    3    3    0  502  0.10378837757E+03 -0.22324506204E+03 -0.92238293114E+03  0.95467306274E+03  0.25500000920E-02 0.  1.
</event>
<event>
 5   0  0.2370801E-03  0.1280960E+04  0.7818609E-02  0.9044802E-01
       -1   -1    0    0    0  501  0.00000000000E+00  0.00000000000E+00  0.16101465211E+03  0.16101465219E+03  0.50400001928E-02 0.  1.
        1   -1    0    0  501    0  0.00000000000E+00  0.00000000000E+00 -0.25476852103E+04  0.25476852103E+04  0.50400001928E-02 0. -1.
    10030    2    1    2    0    0  0.00000000000E+00  0.00000000000E+00 -0.23866705582E+04  0.27086998625E+04  0.12809600274E+04 0.  0.
        3    1    3    3  502    0 -0.82646065681E+02  0.38264593892E+03 -0.22652579018E+04  0.22988348480E+04  0.10100000352E+00 0. -1.
       -3    1    3    3    0  502  0.82646065681E+02 -0.38264593892E+03 -0.12141265641E+03  0.40986501446E+03  0.10100000352E+00 0.  1.
</event>
<event>
 5   0  0.2462055E-03  0.1282798E+04  0.7818609E-02  0.9043319E-01
        1   -1    0    0  501    0  0.00000000000E+00  0.00000000000E+00  0.48817504298E+03  0.48817504301E+03  0.50400001928E-02 0.  1.
       -1   -1    0    0    0  501  0.00000000000E+00  0.00000000000E+00 -0.84271574987E+03  0.84271574988E+03  0.50400001928E-02 0. -1.
    10030    2    1    2    0    0  0.00000000000E+00  0.00000000000E+00 -0.35454070689E+03  0.13308907929E+04  0.12827981875E+04 0.  0.
        2    1    3    3  502    0  0.14758455669E+03  0.35077280669E+03 -0.71293100694E+03  0.80814193305E+03  0.25500000920E-02 0. -1.
       -2    1    3    3    0  502 -0.14758455669E+03 -0.35077280669E+03  0.35839030005E+03  0.52274885984E+03  0.25500000920E-02 0.  1.
</event>
<event>
 5   0  0.4453011E-03  0.1291283E+04  0.7818609E-02  0.9036507E-01
        2   -1    0    0  501    0  0.00000000000E+00  0.00000000000E+00  0.31659119694E+03  0.31659119695E+03  0.25500000920E-02 0. -1.
       -2   -1    0    0    0  501  0.00000000000E+00  0.00000000000E+00 -0.13166908143E+04  0.13166908143E+04  0.25500000920E-02 0.  1.
    10030    2    1    2    0    0  0.00000000000E+00  0.00000000000E+00 -0.10000996174E+04  0.16332820113E+04  0.12912826506E+04 0.  0.
        1    1    3    3  502    0 -0.29300186609E+03  0.18303973124E+03 -0.11899443035E+04  0.12390807408E+04  0.50400001928E-02 0.  1.
       -1    1    3    3    0  502  0.29300186609E+03 -0.18303973124E+03  0.18984468615E+03  0.39420127046E+03  0.50400001928E-02 0. -1.
</event>
<event>
 5   0  0.2511542E-03  0.1275240E+04  0.7818609E-02  0.9049433E-01
       -1   -1    0    0    0  501  0.00000000000E+00  0.00000000000E+00  0.12858689866E+04  0.12858689867E+04  0.50400001928E-02 0.  1.
        1   -1    0    0  501    0  0.00000000000E+00  0.00000000000E+00 -0.31617490748E+03  0.31617490752E+03  0.50400001928E-02 0. -1.
    10030    2    1    2    0    0  0.00000000000E+00  0.00000000000E+00  0.96969407917E+03  0.16020438942E+04  0.12752403819E+04 0.  0.
        4    1    3    3  502    0  0.42390100417E+03 -0.23590796195E+03  0.10046647377E+04  0.11156601077E+04  0.12699999809E+01 0.  1.
       -4    1    3    3    0  502 -0.42390100417E+03  0.23590796195E+03 -0.34970658581E+02  0.48638378644E+03  0.12699999809E+01 0. -1.
</event>
<event>
 5   0  0.4453011E-03  0.1323628E+04  0.7818609E-02  0.9011035E-01
       -2   -1    0    0    0  501  0.00000000000E+00  0.00000000000E+00  0.47789454233E+03  0.47789454234E+03  0.25500000920E-02 0. -1.
        2   -1    0    0  501    0  0.00000000000E+00  0.00000000000E+00 -0.91651498995E+03  0.91651498995E+03  0.25500000920E-02 0.  1.
    10030    2    1    2    0    0  0.00000000000E+00  0.00000000000E+00 -0.43862044762E+03  0.13944095323E+04  0.13236276088E+04 0.  0.
        1    1    3    3  502    0  0.58609368744E+03 -0.30506618804E+03 -0.17952394402E+03  0.68468973706E+03  0.50400001928E-02 0. -1.
       -1    1    3    3    0  502 -0.58609368744E+03  0.30506618804E+03 -0.25909650360E+03  0.70971979523E+03  0.50400001928E-02 0.  1.
</event>
<event>
 5   0  0.2356769E-03  0.1223953E+04  0.7818609E-02  0.9092145E-01
        1   -1    0    0  501    0  0.00000000000E+00  0.00000000000E+00  0.62174215789E+03  0.62174215791E+03  0.50400001928E-02 0. -1.
       -1   -1    0    0    0  501  0.00000000000E+00  0.00000000000E+00 -0.60236419601E+03  0.60236419603E+03  0.50400001928E-02 0.  1.
    10030    2    1    2    0    0  0.00000000000E+00  0.00000000000E+00  0.19377961881E+02  0.12241063539E+04  0.12239529649E+04 0.  0.
        1    1    3    3  502    0  0.22003413988E+03 -0.78270488712E+02 -0.55604428477E+03  0.60309745378E+03  0.50400001928E-02 0.  1.
       -1    1    3    3    0  502 -0.22003413988E+03  0.78270488712E+02  0.57542224665E+03  0.62100890016E+03  0.50400001928E-02 0. -1.
</event>
<event>
 5   0  0.4310889E-03  0.1257499E+04  0.7818609E-02  0.9063965E-01
        2   -1    0    0  501    0  0.00000000000E+00  0.00000000000E+00  0.76088613684E+03  0.76088613685E+03  0.25500000920E-02 0. -1.
       -2   -1    0    0    0  501  0.00000000000E+00  0.00000000000E+00 -0.51956002864E+03  0.51956002864E+03  0.25500000920E-02 0.  1.
    10030    2    1    2    0    0  0.00000000000E+00  0.00000000000E+00  0.24132610821E+03  0.12804461655E+04  0.12574991420E+04 0.  0.
        4    1    3    3  502    0  0.14594386632E+03  0.15991227602E+03 -0.48040776526E+03  0.52693906855E+03  0.12699999809E+01 0.  1.
       -4    1    3    3    0  502 -0.14594386632E+03 -0.15991227602E+03  0.72173387347E+03  0.75350709694E+03  0.12699999809E+01 0. -1.
</event>
<event>
 5   0  0.2458456E-03  0.1210399E+04  0.7818609E-02  0.9103803E-01
        1   -1    0    0  501    0  0.00000000000E+00  0.00000000000E+00  0.16099506174E+04  0.16099506174E+04  0.50400001928E-02 0.  1.
       -1   -1    0    0    0  501  0.00000000000E+00  0.00000000000E+00 -0.22750155203E+03  0.22750155209E+03  0.50400001928E-02 0. -1.
    10030    2    1    2    0    0  0.00000000000E+00  0.00000000000E+00  0.13824490654E+04  0.18374521695E+04  0.12103987181E+04 0.  0.
        5    1    3    3  502    0 -0.24596246449E+03  0.53944141545E+03  0.50685986161E+03  0.78001511777E+03  0.46999998093E+01 0.  1.
       -5    1    3    3    0  502  0.24596246449E+03 -0.53944141545E+03  0.87558920378E+03  0.10574370517E+04  0.46999998093E+01 0. -1.
</event>
<event>
 5   0  0.4306214E-03  0.1282885E+04  0.7818609E-02  0.9043249E-01
       -2   -1    0    0    0  501  0.00000000000E+00  0.00000000000E+00  0.52162450687E+03  0.52162450688E+03  0.25500000920E-02 0.  1.
        2   -1    0    0  501    0  0.00000000000E+00  0.00000000000E+00 -0.78878253876E+03  0.78878253876E+03  0.25500000920E-02 0. -1.
    10030    2    1    2    0    0  0.00000000000E+00  0.00000000000E+00 -0.26715803189E+03  0.13104070456E+04  0.12828847225E+04 0.  0.
        3    1    3    3  502    0  0.52923710382E+03  0.32056181971E+03 -0.30631190204E+03  0.69041928119E+03  0.10100000352E+00 0. -1.
       -3    1    3    3    0  502 -0.52923710382E+03 -0.32056181971E+03  0.39153870153E+02  0.61998776445E+03  0.10100000352E+00 0.  1.
</event>
<event>
 5   0  0.4263540E-03  0.1339506E+04  0.7818609E-02  0.8998810E-01
        2   -1    0    0  501    0  0.00000000000E+00  0.00000000000E+00  0.17189251392E+04  0.17189251392E+04  0.25500000920E-02 0. -1.
       -2   -1    0    0    0  501  0.00000000000E+00  0.00000000000E+00 -0.26095899250E+03  0.26095899252E+03  0.25500000920E-02 0.  1.
    10030    2    1    2    0    0  0.00000000000E+00  0.00000000000E+00  0.14579661467E+04  0.19798841317E+04  0.13395058380E+04 0.  0.
        2    1    3    3  502    0  0.57114639134E+03 -0.18901818652E+03  0.29393566711E+03  0.66957766658E+03  0.25500000920E-02 0.  1.
       -2    1    3    3    0  502 -0.57114639134E+03  0.18901818652E+03  0.11640304796E+04  0.13103064651E+04  0.25500000920E-02 0. -1.
</event>
<event>
 5   0  0.4453011E-03  0.1300721E+04  0.7818609E-02  0.9028993E-01
        2   -1    0    0  501    0  0.00000000000E+00  0.00000000000E+00  0.62505896058E+03  0.62505896058E+03  0.25500000920E-02 0.  1.
       -2   -1    0    0    0  501  0.00000000000E+00  0.00000000000E+00 -0.67668639183E+03  0.67668639183E+03  0.25500000920E-02 0. -1.
    10030    2    1    2    0    0  0.00000000000E+00  0.00000000000E+00 -0.51627431252E+02  0.13017453524E+04  0.13007211734E+04 0.  0.
        1    1    3    3  502    0  0.14754151753E+03 -0.52767274817E+02 -0.65751275405E+03  0.67592596226E+03  0.50400001928E-02 0. -1.
       -1    1    3    3    0  502 -0.14754151753E+03  0.52767274817E+02  0.60588532280E+03  0.62581939016E+03  0.50400001928E-02 0.  1.
</event>
<event>
 5   0  0.2462055E-03  0.1171172E+04  0.7818609E-02  0.9138471E-01
        1   -1    0    0  501    0  0.00000000000E+00  0.00000000000E+00  0.45446385500E+03  0.45446385503E+03  0.50400001928E-02 0.  1.
       -1   -1    0    0    0  501  0.00000000000E+00  0.00000000000E+00 -0.75453904732E+03  0.75453904733E+03  0.50400001928E-02 0. -1.
    10030    2    1    2    0    0  0.00000000000E+00  0.00000000000E+00 -0.30007519232E+03  0.12090029024E+04  0.11711715916E+04 0.  0.
        2    1    3    3  502    0  0.12120730885E+03  0.37247868657E+02  0.44012159072E+03  0.45802361299E+03  0.25500000920E-02 0.  1.
       -2    1    3    3    0  502 -0.12120730885E+03 -0.37247868657E+02 -0.74019678303E+03  0.75097928937E+03  0.25500000920E-02 0. -1.
</event>
<event>
 5   0  0.4263540E-03  0.1294352E+04  0.7818609E-02  0.9034056E-01
       -2   -1    0    0    0  501  0.00000000000E+00  0.00000000000E+00  0.58197097892E+03  0.58197097893E+03  0.25500000920E-02 0.  1.
        2   -1    0    0  501    0  0.00000000000E+00  0.00000000000E+00 -0.71968677098E+03  0.71968677098E+03  0.25500000920E-02 0. -1.
    10030    2    1    2    0    0  0.00000000000E+00  0.00000000000E+00 -0.13771579205E+03  0.13016577499E+04  0.12943520613E+04 0.  0.
        2    1    3    3  502    0 -0.17911101992E+03  0.16760140594E+03  0.53340954847E+03  0.58710879327E+03  0.25500000920E-02 0.  1.
       -2    1    3    3    0  502  0.17911101992E+03 -0.16760140594E+03 -0.67112534053E+03  0.71454895664E+03  0.25500000920E-02 0. -1.
</event>
<event>
 5   0  0.2370801E-03  0.1237793E+04  0.7818609E-02  0.9080405E-01
        1   -1    0    0  501    0  0.00000000000E+00  0.00000000000E+00  0.65199588193E+03  0.65199588195E+03  0.50400001928E-02 0. -1.
       -1   -1    0    0    0  501  0.00000000000E+00  0.00000000000E+00 -0.58747723609E+03  0.58747723611E+03  0.50400001928E-02 0.  1.
    10030    2    1    2    0    0  0.00000000000E+00  0.00000000000E+00  0.64518645842E+02  0.12394731181E+04  0.12377927754E+04 0.  0.
        3    1    3    3  502    0 -0.43598499090E+03  0.93004299954E+02 -0.39762524553E+03  0.59735965564E+03  0.10100000352E+00 0.  1.
       -3    1    3    3    0  502  0.43598499090E+03 -0.93004299954E+02  0.46214389138E+03  0.64211346243E+03  0.10100000352E+00 0. -1.
</event>
<event>
 5   0  0.2511542E-03  0.6950536E+03  0.7818609E-02  0.9725729E-01
        1   -1    0    0  501    0  0.00000000000E+00  0.00000000000E+00  0.95879288141E+03  0.95879288142E+03  0.50400001928E-02 0. -1.
       -1   -1    0    0    0  501  0.00000000000E+00  0.00000000000E+00 -0.12596554794E+03  0.12596554804E+03  0.50400001928E-02 0.  1.
    10030    2    1    2    0    0  0.00000000000E+00  0.00000000000E+00  0.83282733347E+03  0.10847584295E+04  0.69505358278E+03 0.  0.
        4    1    3    3  502    0 -0.75240379984E+02 -0.13525546104E+03 -0.69202383779E+02  0.16954567922E+03  0.12699999809E+01 0.  1.
       -4    1    3    3    0  502  0.75240379984E+02  0.13525546104E+03  0.90202971725E+03  0.91521275025E+03  0.12699999809E+01 0. -1.
</event>
<event>
 5   0  0.2462055E-03  0.1296853E+04  0.7818609E-02  0.9032064E-01
       -1   -1    0    0    0  501  0.00000000000E+00  0.00000000000E+00  0.72218729779E+03  0.72218729781E+03  0.50400001928E-02 0. -1.
        1   -1    0    0  501    0  0.00000000000E+00  0.00000000000E+00 -0.58219952969E+03  0.58219952972E+03  0.50400001928E-02 0.  1.
    10030    2    1    2    0    0  0.00000000000E+00  0.00000000000E+00  0.13998776810E+03  0.13043868275E+04  0.12968532764E+04 0.  0.
        2    1    3    3  502    0  0.14481928989E+03 -0.16017850222E+03 -0.54497208407E+03  0.58619480697E+03  0.25500000920E-02 0.  1.
       -2    1    3    3    0  502 -0.14481928989E+03  0.16017850222E+03  0.68495985217E+03  0.71819202056E+03  0.25500000920E-02 0. -1.
</event>
<event>
 5   0  0.2458456E-03  0.1320226E+04  0.7818609E-02  0.9013678E-01
       -1   -1    0    0    0  501  0.00000000000E+00  0.00000000000E+00  0.25818968593E+03  0.25818968598E+03  0.50400001928E-02 0. -1.
        1   -1    0    0  501    0  0.00000000000E+00  0.00000000000E+00 -0.16877090684E+04  0.16877090684E+04  0.50400001928E-02 0.  1.
    10030    2    1    2    0    0  0.00000000000E+00  0.00000000000E+00 -0.14295193824E+04  0.19458987543E+04  0.13202258509E+04 0.  0.
        5    1    3    3  502    0  0.23052118668E+03 -0.33171605704E+03  0.54718358858E+02  0.40766622230E+03  0.46999998093E+01 0. -1.
       -5    1    3    3    0  502 -0.23052118668E+03  0.33171605704E+03 -0.14842377413E+04  0.15382325321E+04  0.46999998093E+01 0.  1.
</event>
<event>
 5   0  0.4453011E-03  0.1303130E+04  0.7818609E-02  0.9027087E-01
       -2   -1    0    0    0  501  0.00000000000E+00  0.00000000000E+00  0.55084954379E+03  0.55084954379E+03  0.25500000920E-02 0.  1.
        2   -1    0    0  501    0  0.00000000000E+00  0.00000000000E+00 -0.77069519932E+03  0.77069519933E+03  0.25500000920E-02 0. -1.
    10030    2    1    2    0    0  0.00000000000E+00  0.00000000000E+00 -0.21984565554E+03  0.13215447431E+04  0.13031302298E+04 0.  0.
        1    1    3    3  502    0  0.29722425119E+02 -0.20007794738E+03 -0.73804783285E+03  0.76526414471E+03  0.50400001928E-02 0. -1.
       -1    1    3    3    0  502 -0.29722425119E+02  0.20007794738E+03  0.51820217731E+03  0.55628059841E+03  0.50400001928E-02 0.  1.
</event>
<event>
 5   0  0.4310889E-03  0.1288865E+04  0.7818609E-02  0.9038443E-01
       -2   -1    0    0    0  501  0.00000000000E+00  0.00000000000E+00  0.70570021273E+03  0.70570021273E+03  0.25500000920E-02 0.  1.
        2   -1    0    0  501    0  0.00000000000E+00  0.00000000000E+00 -0.58848351072E+03  0.58848351073E+03  0.25500000920E-02 0. -1.
    10030    2    1    2    0    0  0.00000000000E+00  0.00000000000E+00  0.11721670200E+03  0.12941837235E+04  0.12888645215E+04 0.  0.
        4    1    3    3  502    0 -0.56873105384E+03 -0.25330101283E+03 -0.10843599548E+03  0.63196233489E+03  0.12699999809E+01 0. -1.
       -4    1    3    3    0  502  0.56873105384E+03  0.25330101283E+03  0.22565269748E+03  0.66222138857E+03  0.12699999809E+01 0.  1.
</event>
<event>
 5   0  0.4306214E-03  0.1187280E+04  0.7818609E-02  0.9124064E-01
       -2   -1    0    0    0  501  0.00000000000E+00  0.00000000000E+00  0.61603132659E+03  0.61603132660E+03  0.25500000920E-02 0.  1.
        2   -1    0    0  501    0  0.00000000000E+00  0.00000000000E+00 -0.57206278235E+03  0.57206278235E+03  0.25500000920E-02 0. -1.
    10030    2    1    2    0    0  0.00000000000E+00  0.00000000000E+00  0.43968544246E+02  0.11880941090E+04  0.11872802444E+04 0.  0.
        3    1    3    3  502    0 -0.12562922637E+03  0.57692958989E+03 -0.39524359675E+02  0.59177076594E+03  0.10100000352E+00 0. -1.
       -3    1    3    3    0  502  0.12562922637E+03 -0.57692958989E+03  0.83492903922E+02  0.59632334301E+03  0.10100000352E+00 0.  1.
</event>
<event>
 5   0  0.2462055E-03  0.1299787E+04  0.7818609E-02  0.9029734E-01
       -1   -1    0    0    0  501  0.00000000000E+00  0.00000000000E+00  0.38066601807E+03  0.38066601811E+03  0.50400001928E-02 0. -1.
        1   -1    0    0  501    0  0.00000000000E+00  0.00000000000E+00 -0.11095337661E+04  0.11095337661E+04  0.50400001928E-02 0.  1.
    10030    2    1    2    0    0  0.00000000000E+00  0.00000000000E+00 -0.72886774800E+03  0.14901997842E+04  0.12997873683E+04 0.  0.
        2    1    3    3  502    0  0.46365332963E+03  0.42267029321E+03 -0.17007941278E+03  0.65003968610E+03  0.25500000920E-02 0. -1.
       -2    1    3    3    0  502 -0.46365332963E+03 -0.42267029321E+03 -0.55878833523E+03  0.84016009810E+03  0.25500000920E-02 0.  1.
</event>
<event>
 5   0  0.1661750E-03  0.1205917E+04  0.7818609E-02  0.9107693E-01
       -4   -1    0    0    0  501  0.00000000000E+00  0.00000000000E+00  0.29985188532E+03  0.29985457480E+03  0.12699999809E+01 0.  1.
        4   -1    0    0  501    0  0.00000000000E+00  0.00000000000E+00 -0.12124539551E+04  0.12124546202E+04  0.12699999809E+01 0. -1.
    10030    2    1    2    0    0  0.00000000000E+00  0.00000000000E+00 -0.91260206975E+03  0.15123091950E+04  0.12059173121E+04 0.  0.
        1    1    3    3  502    0 -0.51196770538E+03 -0.17354786388E+03 -0.79123345794E+03  0.95826936578E+03  0.50400001928E-02 0. -1.
       -1    1    3    3    0  502  0.51196770538E+03  0.17354786388E+03 -0.12136861180E+03  0.55403982922E+03  0.50400001928E-02 0.  1.
</event>
<event>
 5   0  0.1661750E-03  0.1267307E+04  0.7818609E-02  0.9055900E-01
       -3   -1    0    0    0  501  0.00000000000E+00  0.00000000000E+00  0.11040233619E+04  0.11040233665E+04  0.10100000352E+00 0. -1.
        3   -1    0    0  501    0  0.00000000000E+00  0.00000000000E+00 -0.36368499464E+03  0.36368500866E+03  0.10100000352E+00 0.  1.
    10030    2    1    2    0    0  0.00000000000E+00  0.00000000000E+00  0.74033836725E+03  0.14677083752E+04  0.12673069780E+04 0.  0.
        2    1    3    3  502    0  0.32132226054E+03  0.22319991302E+03 -0.20709940380E+03  0.44266958259E+03  0.25500000920E-02 0.  1.
       -2    1    3    3    0  502 -0.32132226054E+03 -0.22319991302E+03  0.94743777105E+03  0.10250387926E+04  0.25500000920E-02 0. -1.
</event>
<event>
 5   0  0.2458456E-03  0.9374890E+03  0.7818609E-02  0.9379895E-01
       -1   -1    0    0    0  501  0.00000000000E+00  0.00000000000E+00  0.53619602648E+03  0.53619602650E+03  0.50400001928E-02 0.  1.
        1   -1    0    0  501    0  0.00000000000E+00  0.00000000000E+00 -0.40977815641E+03  0.40977815644E+03  0.50400001928E-02 0. -1.
    10030    2    1    2    0    0  0.00000000000E+00  0.00000000000E+00  0.12641787007E+03  0.94597418294E+03  0.93748902762E+03 0.  0.
        5    1    3    3  502    0  0.13920442501E+03 -0.44462691597E+03  0.11477353782E+02  0.46607379887E+03  0.46999998093E+01 0. -1.
       -5    1    3    3    0  502 -0.13920442501E+03  0.44462691597E+03  0.11494051628E+03  0.47990038407E+03  0.46999998093E+01 0.  1.
</event>
<event>
 5   0  0.2511542E-03  0.1315656E+04  0.7818609E-02  0.9017241E-01
       -1   -1    0    0    0  501  0.00000000000E+00  0.00000000000E+00  0.51680518244E+03  0.51680518246E+03  0.50400001928E-02 0. -1.
        1   -1    0    0  501    0  0.00000000000E+00  0.00000000000E+00 -0.83733174323E+03  0.83733174324E+03  0.50400001928E-02 0.  1.
    10030    2    1    2    0    0  0.00000000000E+00  0.00000000000E+00 -0.32052656079E+03  0.13541369257E+04  0.13156555542E+04 0.  0.
        4    1    3    3  502    0 -0.45494276171E+03 -0.25005176266E+03  0.25557995505E+03  0.57863764721E+03  0.12699999809E+01 0. -1.
       -4    1    3    3    0  502  0.45494276171E+03  0.25005176266E+03 -0.57610651584E+03  0.77549927849E+03  0.12699999809E+01 0.  1.
</event>
<event>
 5   0  0.2356769E-03  0.1291888E+04  0.7818609E-02  0.9036023E-01
        1   -1    0    0  501    0  0.00000000000E+00  0.00000000000E+00  0.12230719965E+04  0.12230719965E+04  0.50400001928E-02 0.  1.
       -1   -1    0    0    0  501  0.00000000000E+00  0.00000000000E+00 -0.34114383397E+03  0.34114383401E+03  0.50400001928E-02 0. -1.
    10030    2    1    2    0    0  0.00000000000E+00  0.00000000000E+00  0.88192816252E+03  0.15642158305E+04  0.12918877198E+04 0.  0.
        1    1    3    3  502    0 -0.48876631069E+03 -0.36734578699E+03  0.18869909412E+03  0.63987716152E+03  0.50400001928E-02 0. -1.
       -1    1    3    3    0  502  0.48876631069E+03  0.36734578699E+03  0.69322906840E+03  0.92433866899E+03  0.50400001928E-02 0.  1.
</event>
<event>
 5   0  0.4310889E-03  0.1306755E+04  0.7818609E-02  0.9024225E-01
        2   -1    0    0  501    0  0.00000000000E+00  0.00000000000E+00  0.17192765987E+04  0.17192765987E+04  0.25500000920E-02 0. -1.
       -2   -1    0    0    0  501  0.00000000000E+00  0.00000000000E+00 -0.24830351085E+03  0.24830351086E+03  0.25500000920E-02 0.  1.
    10030    2    1    2    0    0  0.00000000000E+00  0.00000000000E+00  0.14709730878E+04  0.19675801095E+04  0.13067553950E+04 0.  0.
        4    1    3    3  502    0 -0.99713381402E+02 -0.47310414229E+03  0.73782832001E+02  0.48909693015E+03  0.12699999809E+01 0.  1.
       -4    1    3    3    0  502  0.99713381402E+02  0.47310414229E+03  0.13971902558E+04  0.14784831794E+04  0.12699999809E+01 0. -1.
</event>
<event>
 5   0  0.4388937E-03  0.1301233E+04  0.7818609E-02  0.9028588E-01
        2   -1    0    0  501    0  0.00000000000E+00  0.00000000000E+00  0.18603078984E+04  0.18603078984E+04  0.25500000920E-02 0. -1.
       -2   -1    0    0    0  501  0.00000000000E+00  0.00000000000E+00 -0.22754392295E+03  0.22754392296E+03  0.25500000920E-02 0.  1.
    10030    2    1    2    0    0  0.00000000000E+00  0.00000000000E+00  0.16327639754E+04  0.20878518214E+04  0.13012328879E+04 0.  0.
        5    1    3    3  502    0 -0.43249178799E+03 -0.16291399722E+03  0.15511208903E+04  0.16185142025E+04  0.46999998093E+01 0. -1.
       -5    1    3    3    0  502  0.43249178799E+03  0.16291399722E+03  0.81643085120E+02  0.46933761890E+03  0.46999998093E+01 0.  1.
</event>
<event>
 5   0  0.2458456E-03  0.1290686E+04  0.7818609E-02  0.9036984E-01
       -1   -1    0    0    0  501  0.00000000000E+00  0.00000000000E+00  0.35245268096E+03  0.35245268100E+03  0.50400001928E-02 0. -1.
        1   -1    0    0  501    0  0.00000000000E+00  0.00000000000E+00 -0.11816268718E+04  0.11816268718E+04  0.50400001928E-02 0.  1.
    10030    2    1    2    0    0  0.00000000000E+00  0.00000000000E+00 -0.82917419087E+03  0.15340795528E+04  0.12906859555E+04 0.  0.
        5    1    3    3  502    0 -0.47026806797E+03  0.15678470964E+02  0.11033832055E+03  0.48331615449E+03  0.46999998093E+01 0. -1.
       -5    1    3    3    0  502  0.47026806797E+03 -0.15678470964E+02 -0.93951251143E+03  0.10507633984E+04  0.46999998093E+01 0.  1.
</event>
<event>
 5   0  0.4453011E-03  0.1295543E+04  0.7818609E-02  0.9033107E-01
        2   -1    0    0  501    0  0.00000000000E+00  0.00000000000E+00  0.19072558198E+04  0.19072558198E+04  0.25500000920E-02 0.  1.
       -2   -1    0    0    0  501  0.00000000000E+00  0.00000000000E+00 -0.22000616354E+03  0.22000616356E+03  0.25500000920E-02 0. -1.
    10030    2    1    2    0    0  0.00000000000E+00  0.00000000000E+00  0.16872496562E+04  0.21272619834E+04  0.12955431847E+04 0.  0.
        1    1    3    3  502    0 -0.45929933700E+03 -0.34904070784E+03  0.35980258985E+03  0.67988469639E+03  0.50400001928E-02 0. -1.
       -1    1    3    3    0  502  0.45929933700E+03  0.34904070784E+03  0.13274470664E+04  0.14473772870E+04  0.50400001928E-02 0.  1.
</event>
<event>
 5   0  0.4263540E-03  0.1301690E+04  0.7818609E-02  0.9028226E-01
        2   -1    0    0  501    0  0.00000000000E+00  0.00000000000E+00  0.97310586535E+03  0.97310586535E+03  0.25500000920E-02 0. -1.
       -2   -1    0    0    0  501  0.00000000000E+00  0.00000000000E+00 -0.43530658252E+03  0.43530658253E+03  0.25500000920E-02 0.  1.
    10030    2    1    2    0    0  0.00000000000E+00  0.00000000000E+00  0.53779928283E+03  0.14084124479E+04  0.13016902684E+04 0.  0.
        2    1    3    3  502    0 -0.50653419374E+03  0.32247001783E+03 -0.27537285636E+01  0.60047596526E+03  0.25500000920E-02 0. -1.
       -2    1    3    3    0  502  0.50653419374E+03 -0.32247001783E+03  0.54055301139E+03  0.80793648263E+03  0.25500000920E-02 0.  1.
</event>
<event>
 5   0  0.4263540E-03  0.1295839E+04  0.7818609E-02  0.9032871E-01
        2   -1    0    0  501    0  0.00000000000E+00  0.00000000000E+00  0.11794223375E+04  0.11794223375E+04  0.25500000920E-02 0.  1.
       -2   -1    0    0    0  501  0.00000000000E+00  0.00000000000E+00 -0.35593682765E+03  0.35593682766E+03  0.25500000920E-02 0. -1.
    10030    2    1    2    0    0  0.00000000000E+00  0.00000000000E+00  0.82348550982E+03  0.15353591651E+04  0.12958392574E+04 0.  0.
        2    1    3    3  502    0  0.22299482931E+03 -0.33864683652E+02  0.11314049374E+04  0.11536683419E+04  0.25500000920E-02 0.  1.
       -2    1    3    3    0  502 -0.22299482931E+03  0.33864683652E+02 -0.30791942755E+03  0.38169082327E+03  0.25500000920E-02 0. -1.
</event>
<event>
 5   0  0.2511542E-03  0.1288604E+04  0.7818609E-02  0.9038651E-01
        1   -1    0    0  501    0  0.00000000000E+00  0.00000000000E+00  0.78171120629E+03  0.78171120631E+03  0.50400001928E-02 0. -1.
       -1   -1    0    0    0  501  0.00000000000E+00  0.00000000000E+00 -0.53104660610E+03  0.53104660612E+03  0.50400001928E-02 0.  1.
    10030    2    1    2    0    0  0.00000000000E+00  0.00000000000E+00  0.25066460020E+03  0.13127578124E+04  0.12886040246E+04 0.  0.
        4    1    3    3  502    0 -0.30989251403E+03  0.40469534705E+03 -0.27615084817E+03  0.57971768821E+03  0.12699999809E+01 0.  1.
       -4    1    3    3    0  502  0.30989251403E+03 -0.40469534705E+03  0.52681544837E+03  0.73304012422E+03  0.12699999809E+01 0. -1.
</event>
<event>
 5   0  0.2356769E-03  0.1309331E+04  0.7818609E-02  0.9022198E-01
        1   -1    0    0  501    0  0.00000000000E+00  0.00000000000E+00  0.13331601011E+04  0.13331601011E+04  0.50400001928E-02 0.  1.
       -1   -1    0    0    0  501  0.00000000000E+00  0.00000000000E+00 -0.32148195424E+03  0.32148195428E+03  0.50400001928E-02 0. -1.
    10030    2    1    2    0    0  0.00000000000E+00  0.00000000000E+00  0.10116781468E+04  0.16546420553E+04  0.13093309966E+04 0.  0.
        1    1    3    3  502    0 -0.99848208732E+02  0.16337718742E+03 -0.28530608133E+03  0.34360053875E+03  0.50400001928E-02 0. -1.
       -1    1    3    3    0  502  0.99848208732E+02 -0.16337718742E+03  0.12969842281E+04  0.13110415166E+04  0.50400001928E-02 0.  1.
</event>
<event>
 5   0  0.4388937E-03  0.9962679E+03  0.7818609E-02  0.9312648E-01
        2   -1    0    0  501    0  0.00000000000E+00  0.00000000000E+00  0.12562418723E+04  0.12562418723E+04  0.25500000920E-02 0.  1.
       -2   -1    0    0    0  501  0.00000000000E+00  0.00000000000E+00 -0.19752362044E+03  0.19752362045E+03  0.25500000920E-02 0. -1.
    10030    2    1    2    0    0  0.00000000000E+00  0.00000000000E+00  0.10587182519E+04  0.14537654928E+04  0.99626792134E+03 0.  0.
        5    1    3    3  502    0  0.62481210966E+02 -0.11581026126E+03 -0.17166922076E+03  0.21635232768E+03  0.46999998093E+01 0. -1.
       -5    1    3    3    0  502 -0.62481210966E+02  0.11581026126E+03  0.12303874726E+04  0.12374131651E+04  0.46999998093E+01 0.  1.
</event>
<event>
 5   0  0.2458456E-03  0.1323437E+04  0.7818609E-02  0.9011183E-01
        1   -1    0    0  501    0  0.00000000000E+00  0.00000000000E+00  0.11490264420E+04  0.11490264420E+04  0.50400001928E-02 0. -1.
       -1   -1    0    0    0  501  0.00000000000E+00  0.00000000000E+00 -0.38108026231E+03  0.38108026234E+03  0.50400001928E-02 0.  1.
    10030    2    1    2    0    0  0.00000000000E+00  0.00000000000E+00  0.76794617968E+03  0.15301067043E+04  0.13234368862E+04 0.  0.
        5    1    3    3  502    0 -0.40229351874E+03  0.39218100744E+03 -0.20192890290E+02  0.56220624385E+03  0.46999998093E+01 0.  1.
       -5    1    3    3    0  502  0.40229351874E+03 -0.39218100744E+03  0.78813906997E+03  0.96790046049E+03  0.46999998093E+01 0. -1.
</event>
<event>
 5   0  0.4263540E-03  0.1277639E+04  0.7818609E-02  0.9047488E-01
       -2   -1    0    0    0  501  0.00000000000E+00  0.00000000000E+00  0.23660788604E+03  0.23660788605E+03  0.25500000920E-02 0. -1.
        2   -1    0    0  501    0  0.00000000000E+00  0.00000000000E+00 -0.17247533288E+04  0.17247533288E+04  0.25500000920E-02 0.  1.
    10030    2    1    2    0    0  0.00000000000E+00  0.00000000000E+00 -0.14881454428E+04  0.19613612149E+04  0.12776388208E+04 0.  0.
        2    1    3    3  502    0  0.56687478317E+03 -0.15337832535E+03 -0.35808728391E+03  0.68782151274E+03  0.25500000920E-02 0. -1.
       -2    1    3    3    0  502 -0.56687478317E+03  0.15337832535E+03 -0.11300581589E+04  0.12735397021E+04  0.25500000920E-02 0.  1.
</event>
<event>
 5   0  0.4310889E-03  0.1266854E+04  0.7818609E-02  0.9056272E-01
        2   -1    0    0  501    0  0.00000000000E+00  0.00000000000E+00  0.21014570444E+04  0.21014570444E+04  0.25500000920E-02 0.  1.
       -2   -1    0    0    0  501  0.00000000000E+00  0.00000000000E+00 -0.19092917628E+03  0.19092917629E+03  0.25500000920E-02 0. -1.
    10030    2    1    2    0    0  0.00000000000E+00  0.00000000000E+00  0.19105278681E+04  0.22923862207E+04  0.12668535235E+04 0.  0.
        4    1    3    3  502    0  0.38285112828E+02 -0.40306250248E+03  0.73783366444E+02  0.41154675170E+03  0.12699999809E+01 0. -1.
       -4    1    3    3    0  502 -0.38285112828E+02  0.40306250248E+03  0.18367445017E+04  0.18808394690E+04  0.12699999809E+01 0.  1.
</event>
<event>
 5   0  0.2511542E-03  0.1214636E+04  0.7818609E-02  0.9100141E-01
        1   -1    0    0  501    0  0.00000000000E+00  0.00000000000E+00  0.13172318159E+04  0.13172318159E+04  0.50400001928E-02 0.  1.
       -1   -1    0    0    0  501  0.00000000000E+00  0.00000000000E+00 -0.28000789213E+03  0.28000789217E+03  0.50400001928E-02 0. -1.
    10030    2    1    2    0    0  0.00000000000E+00  0.00000000000E+00  0.10372239237E+04  0.15972397080E+04  0.12146362488E+04 0.  0.
        4    1    3    3  502    0  0.34052404519E+03 -0.45695931500E+03  0.79465193847E+03  0.97787614611E+03  0.12699999809E+01 0.  1.
       -4    1    3    3    0  502 -0.34052404519E+03  0.45695931500E+03  0.24257198527E+03  0.61936356194E+03  0.12699999809E+01 0. -1.
</event>
<event>
 5   0  0.4388937E-03  0.1277266E+04  0.7818609E-02  0.9047790E-01
       -2   -1    0    0    0  501  0.00000000000E+00  0.00000000000E+00  0.23031347551E+03  0.23031347553E+03  0.25500000920E-02 0. -1.
        2   -1    0    0  501    0  0.00000000000E+00  0.00000000000E+00 -0.17708561349E+04  0.17708561349E+04  0.25500000920E-02 0.  1.
    10030    2    1    2    0    0  0.00000000000E+00  0.00000000000E+00 -0.15405426594E+04  0.20011696104E+04  0.12772658785E+04 0.  0.
        5    1    3    3  502    0 -0.65255073179E+02  0.32751786780E+02 -0.17642681875E+04  0.17657845938E+04  0.46999998093E+01 0.  1.
       -5    1    3    3    0  502  0.65255073179E+02 -0.32751786780E+02  0.22372552815E+03  0.23538501664E+03  0.46999998093E+01 0. -1.
</event>
<event>
 5   0  0.4306214E-03  0.1298337E+04  0.7818609E-02  0.9030885E-01
        2   -1    0    0  501    0  0.00000000000E+00  0.00000000000E+00  0.26219199315E+04  0.26219199315E+04  0.25500000920E-02 0.  1.
       -2   -1    0    0    0  501  0.00000000000E+00  0.00000000000E+00 -0.16072934866E+03  0.16072934868E+03  0.25500000920E-02 0. -1.
    10030    2    1    2    0    0  0.00000000000E+00  0.00000000000E+00  0.24611905829E+04  0.27826492802E+04  0.12983366017E+04 0.  0.
        3    1    3    3  502    0  0.36490268957E+03 -0.36518894761E+03  0.38706549036E+03  0.64524153953E+03  0.10100000352E+00 0. -1.
       -3    1    3    3    0  502 -0.36490268957E+03  0.36518894761E+03  0.20741250925E+04  0.21374077407E+04  0.10100000352E+00 0.  1.
</event>
<event>
 5   0  0.4310889E-03  0.1289756E+04  0.7818609E-02  0.9037728E-01
       -2   -1    0    0    0  501  0.00000000000E+00  0.00000000000E+00  0.30372110745E+03  0.30372110746E+03  0.25500000920E-02 0. -1.
        2   -1    0    0  501    0  0.00000000000E+00  0.00000000000E+00 -0.13692427894E+04  0.13692427894E+04  0.25500000920E-02 0.  1.
    10030    2    1    2    0    0  0.00000000000E+00  0.00000000000E+00 -0.10655216819E+04  0.16729638968E+04  0.12897564675E+04 0.  0.
        4    1    3    3  502    0 -0.31940765339E+03 -0.55948115762E+03 -0.57003817740E+03  0.86022412856E+03  0.12699999809E+01 0. -1.
       -4    1    3    3    0  502  0.31940765339E+03  0.55948115762E+03 -0.49548350453E+03  0.81273976828E+03  0.12699999809E+01 0.  1.
</event>
<event>
 5   0  0.2462055E-03  0.1296130E+04  0.7818609E-02  0.9032640E-01
       -1   -1    0    0    0  501  0.00000000000E+00  0.00000000000E+00  0.33660951640E+03  0.33660951644E+03  0.50400001928E-02 0. -1.
        1   -1    0    0  501    0  0.00000000000E+00  0.00000000000E+00 -0.12477017412E+04  0.12477017412E+04  0.50400001928E-02 0.  1.
    10030    2    1    2    0    0  0.00000000000E+00  0.00000000000E+00 -0.91109222481E+03  0.15843112577E+04  0.12961300548E+04 0.  0.
        2    1    3    3  502    0 -0.15343002508E+03 -0.18461946991E+03  0.28026093859E+03  0.36901397666E+03  0.25500000920E-02 0. -1.
       -2    1    3    3    0  502  0.15343002508E+03  0.18461946991E+03 -0.11913531634E+04  0.12152972810E+04  0.25500000920E-02 0.  1.
</event>
<event>
 5   0  0.4306214E-03  0.1303340E+04  0.7818609E-02  0.9026921E-01
       -2   -1    0    0    0  501  0.00000000000E+00  0.00000000000E+00  0.43431755785E+03  0.43431755786E+03  0.25500000920E-02 0. -1.
        2   -1    0    0  501    0  0.00000000000E+00  0.00000000000E+00 -0.97779595510E+03  0.97779595511E+03  0.25500000920E-02 0.  1.
    10030    2    1    2    0    0  0.00000000000E+00  0.00000000000E+00 -0.54347839725E+03  0.14121135130E+04  0.13033402492E+04 0.  0.
        3    1    3    3  502    0  0.99613963256E+02 -0.41334030190E+03 -0.80681881751E+03  0.91199219369E+03  0.10100000352E+00 0.  1.
       -3    1    3    3    0  502 -0.99613963256E+02  0.41334030190E+03  0.26334042026E+03  0.50012131928E+03  0.10100000352E+00 0. -1.
</event>
<event>
 5   0  0.2370801E-03  0.1015346E+04  0.7818609E-02  0.9291871E-01
       -1   -1    0    0    0  501  0.00000000000E+00  0.00000000000E+00  0.58053812462E+03  0.58053812465E+03  0.50400001928E-02 0.  1.
        1   -1    0    0  501    0  0.00000000000E+00  0.00000000000E+00 -0.44395382378E+03  0.44395382381E+03  0.50400001928E-02 0. -1.
    10030    2    1    2    0    0  0.00000000000E+00  0.00000000000E+00  0.13658430084E+03  0.10244919485E+04  0.10153464833E+04 0.  0.
        3    1    3    3  502    0 -0.27566343454E+03 -0.25956482361E+03  0.40952145598E+03  0.55773834359E+03  0.10100000352E+00 0.  1.
       -3    1    3    3    0  502  0.27566343454E+03  0.25956482361E+03 -0.27293715514E+03  0.46675360487E+03  0.10100000352E+00 0. -1.
</event>
<event>
 5   0  0.4310889E-03  0.1244503E+04  0.7818609E-02  0.9074771E-01
        2   -1    0    0  501    0  0.00000000000E+00  0.00000000000E+00  0.98548133542E+03  0.98548133542E+03  0.25500000920E-02 0.  1.
       -2   -1    0    0    0  501  0.00000000000E+00  0.00000000000E+00 -0.39290133991E+03  0.39290133992E+03  0.25500000920E-02 0. -1.
    10030    2    1    2    0    0  0.00000000000E+00  0.00000000000E+00  0.59257999550E+03  0.13783826753E+04  0.12445030127E+04 0.  0.
        4    1    3    3  502    0  0.80658721929E+02  0.10135189156E+03 -0.37780247561E+03  0.39939248719E+03  0.12699999809E+01 0. -1.
       -4    1    3    3    0  502 -0.80658721929E+02 -0.10135189156E+03  0.97038247112E+03  0.97899018815E+03  0.12699999809E+01 0.  1.
</event>
<event>
 5   0  0.2356769E-03  0.1091056E+04  0.7818609E-02  0.9213954E-01
       -1   -1    0    0    0  501  0.00000000000E+00  0.00000000000E+00  0.26787317592E+03  0.26787317597E+03  0.50400001928E-02 0. -1.
        1   -1    0    0  501    0  0.00000000000E+00  0.00000000000E+00 -0.11109757772E+04  0.11109757773E+04  0.50400001928E-02 0.  1.
    10030    2    1    2    0    0  0.00000000000E+00  0.00000000000E+00 -0.84310260131E+03  0.13788489532E+04  0.10910556537E+04 0.  0.
        1    1    3    3  502    0 -0.31625507105E+03  0.35842893417E+03 -0.89315336310E+02  0.48627749294E+03  0.50400001928E-02 0. -1.
       -1    1    3    3    0  502  0.31625507105E+03 -0.35842893417E+03 -0.75378726500E+03  0.89257146029E+03  0.50400001928E-02 0.  1.
</event>
<event>
 5   0  0.4388937E-03  0.1307271E+04  0.7818609E-02  0.9023819E-01
       -2   -1    0    0    0  501  0.00000000000E+00  0.00000000000E+00  0.73524751999E+03  0.73524751999E+03  0.25500000920E-02 0. -1.
        2   -1    0    0  501    0  0.00000000000E+00  0.00000000000E+00 -0.58108257534E+03  0.58108257534E+03  0.25500000920E-02 0.  1.
    10030    2    1    2    0    0  0.00000000000E+00  0.00000000000E+00  0.15416494465E+03  0.13163300953E+04  0.13072712380E+04 0.  0.
        5    1    3    3  502    0  0.16900171561E+03 -0.78339991765E+02  0.70793708012E+03  0.73204899672E+03  0.46999998093E+01 0. -1.
       -5    1    3    3    0  502 -0.16900171561E+03  0.78339991765E+02 -0.55377213546E+03  0.58428109862E+03  0.46999998093E+01 0.  1.
</event>
<event>
 5   0  0.2458456E-03  0.7108352E+03  0.7818609E-02  0.9698880E-01
       -1   -1    0    0    0  501  0.00000000000E+00  0.00000000000E+00  0.13102238281E+03  0.13102238291E+03  0.50400001928E-02 0. -1.
        1   -1    0    0  501    0  0.00000000000E+00  0.00000000000E+00 -0.96412284711E+03  0.96412284712E+03  0.50400001928E-02 0.  1.
    10030    2    1    2    0    0  0.00000000000E+00  0.00000000000E+00 -0.83310046430E+03  0.10951452300E+04  0.71083520680E+03 0.  0.
        5    1    3    3  502    0  0.78706311179E+02 -0.30283757992E+03 -0.15694205593E+03  0.35008310749E+03  0.46999998093E+01 0. -1.
       -5    1    3    3    0  502 -0.78706311179E+02  0.30283757992E+03 -0.67615840837E+03  0.74506212254E+03  0.46999998093E+01 0.  1.
</event>
<event>
 5   0  0.2458456E-03  0.1318800E+04  0.7818609E-02  0.9014788E-01
        1   -1    0    0  501    0  0.00000000000E+00  0.00000000000E+00  0.11631135668E+04  0.11631135668E+04  0.50400001928E-02 0.  1.
       -1   -1    0    0    0  501  0.00000000000E+00  0.00000000000E+00 -0.37383146614E+03  0.37383146617E+03  0.50400001928E-02 0. -1.
    10030    2    1    2    0    0  0.00000000000E+00  0.00000000000E+00  0.78928210069E+03  0.15369450330E+04  0.13188001365E+04 0.  0.
        5    1    3    3  502    0 -0.25814033753E+03 -0.10347265707E+03 -0.30211853867E+03  0.41065889254E+03  0.46999998093E+01 0. -1.
       -5    1    3    3    0  502  0.25814033753E+03  0.10347265707E+03  0.10914006394E+04  0.11262861405E+04  0.46999998093E+01 0.  1.
</event>
<event>
 5   0  0.4388937E-03  0.1277429E+04  0.7818609E-02  0.9047659E-01
       -2   -1    0    0    0  501  0.00000000000E+00  0.00000000000E+00  0.25683800879E+03  0.25683800881E+03  0.25500000920E-02 0. -1.
        2   -1    0    0  501    0  0.00000000000E+00  0.00000000000E+00 -0.15883783148E+04  0.15883783148E+04  0.25500000920E-02 0.  1.
    10030    2    1    2    0    0  0.00000000000E+00  0.00000000000E+00 -0.13315403060E+04  0.18452163236E+04  0.12774285477E+04 0.  0.
        5    1    3    3  502    0  0.50650096755E+03 -0.18925513578E+03 -0.11568352262E+04  0.12769692898E+04  0.46999998093E+01 0.  1.
       -5    1    3    3    0  502 -0.50650096755E+03  0.18925513578E+03 -0.17470507985E+03  0.56824703384E+03  0.46999998093E+01 0. -1.
</event>
<event>
 5   0  0.2511542E-03  0.1280373E+04  0.7818609E-02  0.9045276E-01
       -1   -1    0    0    0  501  0.00000000000E+00  0.00000000000E+00  0.53172347047E+03  0.53172347049E+03  0.50400001928E-02 0.  1.
        1   -1    0    0  501    0  0.00000000000E+00  0.00000000000E+00 -0.77077411464E+03  0.77077411465E+03  0.50400001928E-02 0. -1.
    10030    2    1    2    0    0  0.00000000000E+00  0.00000000000E+00 -0.23905064416E+03  0.13024975851E+04  0.12803728944E+04 0.  0.
        4    1    3    3  502    0  0.26621819289E+03  0.56862318491E+03 -0.24671631682E+03  0.67459247441E+03  0.12699999809E+01 0. -1.
       -4    1    3    3    0  502 -0.26621819289E+03 -0.56862318491E+03  0.76656726541E+01  0.62790511073E+03  0.12699999809E+01 0.  1.
</event>
<event>
 5   0  0.2511542E-03  0.1331276E+04  0.7818609E-02  0.9005124E-01
       -1   -1    0    0    0  501  0.00000000000E+00  0.00000000000E+00  0.65634817216E+03  0.65634817218E+03  0.50400001928E-02 0.  1.
        1   -1    0    0  501    0  0.00000000000E+00  0.00000000000E+00 -0.67505911618E+03  0.67505911620E+03  0.50400001928E-02 0. -1.
    10030    2    1    2    0    0  0.00000000000E+00  0.00000000000E+00 -0.18710944019E+02  0.13314072884E+04  0.13312758047E+04 0.  0.
        4    1    3    3  502    0 -0.13453136857E+03 -0.57432029048E+03  0.29910605052E+03  0.66136867747E+03  0.12699999809E+01 0.  1.
       -4    1    3    3    0  502  0.13453136857E+03  0.57432029048E+03 -0.31781699454E+03  0.67003861090E+03  0.12699999809E+01 0. -1.
</event>
<event>
 5   0  0.2458456E-03  0.1328915E+04  0.7818609E-02  0.9006945E-01
       -1   -1    0    0    0  501  0.00000000000E+00  0.00000000000E+00  0.68937568035E+03  0.68937568037E+03  0.50400001928E-02 0. -1.
        1   -1    0    0  501    0  0.00000000000E+00  0.00000000000E+00 -0.64043990235E+03  0.64043990237E+03  0.50400001928E-02 0.  1.
    10030    2    1    2    0    0  0.00000000000E+00  0.00000000000E+00  0.48935778003E+02  0.13298155827E+04  0.13289148858E+04 0.  0.
        5    1    3    3  502    0 -0.58953725282E+03 -0.13667657664E+03  0.29896557384E+03  0.67500900987E+03  0.46999998093E+01 0. -1.
       -5    1    3    3    0  502  0.58953725282E+03  0.13667657664E+03 -0.25002979584E+03  0.65480657287E+03  0.46999998093E+01 0.  1.
</event>
<event>
 5   0  0.2462055E-03  0.1156747E+04  0.7818609E-02  0.9151582E-01
        1   -1    0    0  501    0  0.00000000000E+00  0.00000000000E+00  0.79152841614E+03  0.79152841616E+03  0.50400001928E-02 0.  1.
       -1   -1    0    0    0  501  0.00000000000E+00  0.00000000000E+00 -0.42262010692E+03  0.42262010695E+03  0.50400001928E-02 0. -1.
    10030    2    1    2    0    0  0.00000000000E+00  0.00000000000E+00  0.36890830923E+03  0.12141485231E+04  0.11567468589E+04 0.  0.
        2    1    3    3  502    0 -0.31968985700E+03 -0.48085303805E+03  0.21918027388E+03  0.61762548630E+03  0.25500000920E-02 0. -1.
       -2    1    3    3    0  502  0.31968985700E+03  0.48085303805E+03  0.14972803535E+03  0.59652303681E+03  0.25500000920E-02 0.  1.
</event>
<event>
 5   0  0.2511542E-03  0.1300959E+04  0.7818609E-02  0.9028805E-01
        1   -1    0    0  501    0  0.00000000000E+00  0.00000000000E+00  0.52449275022E+03  0.52449275024E+03  0.50400001928E-02 0.  1.
       -1   -1    0    0    0  501  0.00000000000E+00  0.00000000000E+00 -0.80672943393E+03  0.80672943394E+03  0.50400001928E-02 0. -1.
    10030    2    1    2    0    0  0.00000000000E+00  0.00000000000E+00 -0.28223668371E+03  0.13312221842E+04  0.13009592453E+04 0.  0.
        4    1    3    3  502    0  0.10023631491E+02 -0.24038975959E+03  0.47728624504E+03  0.53450115277E+03  0.12699999809E+01 0.  1.
       -4    1    3    3    0  502 -0.10023631491E+02  0.24038975959E+03 -0.75952292875E+03  0.79672103142E+03  0.12699999809E+01 0. -1.
</event>
<event>
 5   0  0.2511542E-03  0.1335005E+04  0.7818609E-02  0.9002257E-01
       -1   -1    0    0    0  501  0.00000000000E+00  0.00000000000E+00  0.61216419751E+03  0.61216419753E+03  0.50400001928E-02 0.  1.
        1   -1    0    0  501    0  0.00000000000E+00  0.00000000000E+00 -0.72784341848E+03  0.72784341850E+03  0.50400001928E-02 0. -1.
    10030    2    1    2    0    0  0.00000000000E+00  0.00000000000E+00 -0.11567922098E+03  0.13400076160E+04  0.13350051419E+04 0.  0.
        4    1    3    3  502    0  0.26585662209E+03 -0.40610590565E+03 -0.51776650240E+03  0.70970804844E+03  0.12699999809E+01 0. -1.
       -4    1    3    3    0  502 -0.26585662209E+03  0.40610590565E+03  0.40208728142E+03  0.63029956758E+03  0.12699999809E+01 0.  1.
</event>
<event>
 5   0  0.2356769E-03  0.1263591E+04  0.7818609E-02  0.9058947E-01
        1   -1    0    0  501    0  0.00000000000E+00  0.00000000000E+00  0.91694678424E+03  0.91694678425E+03  0.50400001928E-02 0.  1.
       -1   -1    0    0    0  501  0.00000000000E+00  0.00000000000E+00 -0.43532048674E+03  0.43532048677E+03  0.50400001928E-02 0. -1.
    10030    2    1    2    0    0  0.00000000000E+00  0.00000000000E+00  0.48162629750E+03  0.13522672710E+04  0.12635912637E+04 0.  0.
        1    1    3    3  502    0 -0.46073973764E+03  0.11103296324E+03  0.68793272066E+03  0.83538066350E+03  0.50400001928E-02 0.  1.
       -1    1    3    3    0  502  0.46073973764E+03 -0.11103296324E+03 -0.20630642317E+03  0.51688660752E+03  0.50400001928E-02 0. -1.
</event>
<event>
 5   0  0.4263540E-03  0.1293203E+04  0.7818609E-02  0.9034973E-01
        2   -1    0    0  501    0  0.00000000000E+00  0.00000000000E+00  0.68837096040E+03  0.68837096040E+03  0.25500000920E-02 0.  1.
       -2   -1    0    0    0  501  0.00000000000E+00  0.00000000000E+00 -0.60736623918E+03  0.60736623918E+03  0.25500000920E-02 0. -1.
    10030    2    1    2    0    0  0.00000000000E+00  0.00000000000E+00  0.81004721220E+02  0.12957371996E+04  0.12932026622E+04 0.  0.
        2    1    3    3  502    0 -0.57975142300E+03 -0.26292946171E+03  0.15408089882E+03  0.65496911202E+03  0.25500000920E-02 0.  1.
       -2    1    3    3    0  502  0.57975142300E+03  0.26292946171E+03 -0.73076177604E+02  0.64076808757E+03  0.25500000920E-02 0. -1.
</event>
<event>
 5   0  0.2356769E-03  0.1287689E+04  0.7818609E-02  0.9039385E-01
        1   -1    0    0  501    0  0.00000000000E+00  0.00000000000E+00  0.12363086353E+04  0.12363086353E+04  0.50400001928E-02 0.  1.
       -1   -1    0    0    0  501  0.00000000000E+00  0.00000000000E+00 -0.33530112376E+03  0.33530112380E+03  0.50400001928E-02 0. -1.
    10030    2    1    2    0    0  0.00000000000E+00  0.00000000000E+00  0.90100751151E+03  0.15716097591E+04  0.12876888984E+04 0.  0.
        1    1    3    3  502    0 -0.49169214600E+03  0.51234777941E+02 -0.52937858732E+02  0.49718063702E+03  0.50400001928E-02 0. -1.
       -1    1    3    3    0  502  0.49169214600E+03 -0.51234777941E+02  0.95394537024E+03  0.10744291221E+04  0.50400001928E-02 0.  1.
</event>
<event>
 5   0  0.2511542E-03  0.1339198E+04  0.7818609E-02  0.8999045E-01
        1   -1    0    0  501    0  0.00000000000E+00  0.00000000000E+00  0.78880233207E+03  0.78880233209E+03  0.50400001928E-02 0. -1.
       -1   -1    0    0    0  501  0.00000000000E+00  0.00000000000E+00 -0.56840976837E+03  0.56840976840E+03  0.50400001928E-02 0.  1.
    10030    2    1    2    0    0  0.00000000000E+00  0.00000000000E+00  0.22039256370E+03  0.13572121005E+04  0.13391981943E+04 0.  0.
        4    1    3    3  502    0  0.29174676707E+03 -0.52213846359E+03  0.41527135054E+03  0.72814604217E+03  0.12699999809E+01 0. -1.
       -4    1    3    3    0  502 -0.29174676707E+03  0.52213846359E+03 -0.19487878684E+03  0.62906605831E+03  0.12699999809E+01 0.  1.
</event>
<event>
 5   0  0.4388937E-03  0.1250353E+04  0.7818609E-02  0.9069889E-01
        2   -1    0    0  501    0  0.00000000000E+00  0.00000000000E+00  0.33690378132E+03  0.33690378133E+03  0.25500000920E-02 0.  1.
       -2   -1    0    0    0  501  0.00000000000E+00  0.00000000000E+00 -0.11601109046E+04  0.11601109046E+04  0.25500000920E-02 0. -1.
    10030    2    1    2    0    0  0.00000000000E+00  0.00000000000E+00 -0.82320712324E+03  0.14970146859E+04  0.12503531509E+04 0.  0.
        5    1    3    3  502    0  0.47788699185E+02 -0.30334869372E+03  0.24035497477E+03  0.38999588927E+03  0.46999998093E+01 0.  1.
       -5    1    3    3    0  502 -0.47788699185E+02  0.30334869372E+03 -0.10635620980E+04  0.11070187966E+04  0.46999998093E+01 0. -1.
</event>
<event>
 5   0  0.1661750E-03  0.1209834E+04  0.7818609E-02  0.9104292E-01
        4   -1    0    0  501    0  0.00000000000E+00  0.00000000000E+00  0.44435085336E+03  0.44435266825E+03  0.12699999809E+01 0.  1.
       -4   -1    0    0    0  501  0.00000000000E+00  0.00000000000E+00 -0.82349995936E+03  0.82350093865E+03  0.12699999809E+01 0. -1.
    10030    2    1    2    0    0  0.00000000000E+00  0.00000000000E+00 -0.37914910600E+03  0.12678536069E+04  0.12098341721E+04 0.  0.
        2    1    3    3  502    0  0.24644224937E+03 -0.30697234514E+03 -0.67090370623E+03  0.77786733187E+03  0.25500000920E-02 0. -1.
       -2    1    3    3    0  502 -0.24644224937E+03  0.30697234514E+03  0.29175460023E+03  0.48998627503E+03  0.25500000920E-02 0.  1.
</event>
<event>
 5   0  0.2370801E-03  0.1320411E+04  0.7818609E-02  0.9013534E-01
       -1   -1    0    0    0  501  0.00000000000E+00  0.00000000000E+00  0.48810485049E+03  0.48810485051E+03  0.50400001928E-02 0. -1.
        1   -1    0    0  501    0  0.00000000000E+00  0.00000000000E+00 -0.89298637061E+03  0.89298637063E+03  0.50400001928E-02 0.  1.
    10030    2    1    2    0    0  0.00000000000E+00  0.00000000000E+00 -0.40488152013E+03  0.13810912211E+04  0.13204105103E+04 0.  0.
        3    1    3    3  502    0  0.14826396579E+03 -0.41210509642E+03  0.31428492978E+03  0.53906200139E+03  0.10100000352E+00 0. -1.
       -3    1    3    3    0  502 -0.14826396579E+03  0.41210509642E+03 -0.71916644990E+03  0.84202921975E+03  0.10100000352E+00 0.  1.
</event>
<event>
 5   0  0.2511542E-03  0.1080661E+04  0.7818609E-02  0.9224248E-01
        1   -1    0    0  501    0  0.00000000000E+00  0.00000000000E+00  0.11893755561E+04  0.11893755561E+04  0.50400001928E-02 0.  1.
       -1   -1    0    0    0  501  0.00000000000E+00  0.00000000000E+00 -0.24547095171E+03  0.24547095176E+03  0.50400001928E-02 0. -1.
    10030    2    1    2    0    0  0.00000000000E+00  0.00000000000E+00  0.94390460442E+03  0.14348465079E+04  0.10806611860E+04 0.  0.
        4    1    3    3  502    0  0.32762845861E+02 -0.50361961481E+03  0.72820923758E+03  0.88600024102E+03  0.12699999809E+01 0.  1.
       -4    1    3    3    0  502 -0.32762845861E+02  0.50361961481E+03  0.21569536684E+03  0.54884626688E+03  0.12699999809E+01 0. -1.
</event>
<event>
 5   0  0.2511542E-03  0.1301327E+04  0.7818609E-02  0.9028514E-01
        1   -1    0    0  501    0  0.00000000000E+00  0.00000000000E+00  0.23806001796E+04  0.23806001796E+04  0.50400001928E-02 0. -1.
       -1   -1    0    0    0  501  0.00000000000E+00  0.00000000000E+00 -0.17783869481E+03  0.17783869488E+03  0.50400001928E-02 0.  1.
    10030    2    1    2    0    0  0.00000000000E+00  0.00000000000E+00  0.22027614848E+04  0.25584388745E+04  0.13013267520E+04 0.  0.
        4    1    3    3  502    0 -0.90957164907E+02 -0.43600255404E+03  0.20339263609E+04  0.20821213911E+04  0.12699999809E+01 0. -1.
       -4    1    3    3    0  502  0.90957164907E+02  0.43600255404E+03  0.16883512388E+03  0.47631748333E+03  0.12699999809E+01 0.  1.
</event>
<event>
 5   0  0.4310889E-03  0.1317966E+04  0.7818609E-02  0.9015438E-01
        2   -1    0    0  501    0  0.00000000000E+00  0.00000000000E+00  0.73598098029E+03  0.73598098029E+03  0.25500000920E-02 0. -1.
       -2   -1    0    0    0  501  0.00000000000E+00  0.00000000000E+00 -0.59004019116E+03  0.59004019117E+03  0.25500000920E-02 0.  1.
    10030    2    1    2    0    0  0.00000000000E+00  0.00000000000E+00  0.14594078913E+03  0.13260211715E+04  0.13179656419E+04 0.  0.
        4    1    3    3  502    0  0.73880089046E+02  0.46948120212E+03 -0.38631275510E+03  0.61246226362E+03  0.12699999809E+01 0.  1.
       -4    1    3    3    0  502 -0.73880089046E+02 -0.46948120212E+03  0.53225354423E+03  0.71355890783E+03  0.12699999809E+01 0. -1.
</event>
<event>
 5   0  0.1661750E-03  0.1334791E+04  0.7818609E-02  0.9002422E-01
       -3   -1    0    0    0  501  0.00000000000E+00  0.00000000000E+00  0.48860084794E+03  0.48860085838E+03  0.10100000352E+00 0. -1.
        3   -1    0    0  501    0  0.00000000000E+00  0.00000000000E+00 -0.91161633869E+03  0.91161634428E+03  0.10100000352E+00 0.  1.
    10030    2    1    2    0    0  0.00000000000E+00  0.00000000000E+00 -0.42301549075E+03  0.14002172027E+04  0.13347906612E+04 0.  0.
        2    1    3    3  502    0  0.55743544978E+03  0.36520516055E+03 -0.17357688530E+03  0.68864942103E+03  0.25500000920E-02 0. -1.
       -2    1    3    3    0  502 -0.55743544978E+03 -0.36520516055E+03 -0.24943860545E+03  0.71156778163E+03  0.25500000920E-02 0.  1.
</event>
<event>
 5   0  0.2370801E-03  0.1310443E+04  0.7818609E-02  0.9021324E-01
       -1   -1    0    0    0  501  0.00000000000E+00  0.00000000000E+00  0.73847725092E+03  0.73847725093E+03  0.50400001928E-02 0. -1.
        1   -1    0    0  501    0  0.00000000000E+00  0.00000000000E+00 -0.58135227086E+03  0.58135227089E+03  0.50400001928E-02 0.  1.
    10030    2    1    2    0    0  0.00000000000E+00  0.00000000000E+00  0.15712498005E+03  0.13198295218E+04  0.13104433247E+04 0.  0.
        3    1    3    3  502    0 -0.60654062270E+03  0.24748045329E+03  0.91973830415E+02  0.66151137362E+03  0.10100000352E+00 0.  1.
       -3    1    3    3    0  502  0.60654062270E+03 -0.24748045329E+03  0.65151149638E+02  0.65831814820E+03  0.10100000352E+00 0. -1.
</event>
<event>
 5   0  0.4263540E-03  0.1298968E+04  0.7818609E-02  0.9030384E-01
       -2   -1    0    0    0  501  0.00000000000E+00  0.00000000000E+00  0.41944399135E+03  0.41944399136E+03  0.25500000920E-02 0. -1.
        2   -1    0    0  501    0  0.00000000000E+00  0.00000000000E+00 -0.10056877463E+04  0.10056877463E+04  0.25500000920E-02 0.  1.
    10030    2    1    2    0    0  0.00000000000E+00  0.00000000000E+00 -0.58624375498E+03  0.14251317377E+04  0.12989683328E+04 0.  0.
        2    1    3    3  502    0 -0.28578366811E+03 -0.18075414025E+03  0.31524931365E+03  0.46230562828E+03  0.25500000920E-02 0. -1.
       -2    1    3    3    0  502  0.28578366811E+03  0.18075414025E+03 -0.90149306863E+03  0.96282610941E+03  0.25500000920E-02 0.  1.
</event>
<event>
 5   0  0.4388937E-03  0.1352040E+04  0.7818609E-02  0.8989286E-01
        2   -1    0    0  501    0  0.00000000000E+00  0.00000000000E+00  0.22013281524E+04  0.22013281524E+04  0.25500000920E-02 0.  1.
       -2   -1    0    0    0  501  0.00000000000E+00  0.00000000000E+00 -0.20760321312E+03  0.20760321313E+03  0.25500000920E-02 0. -1.
    10030    2    1    2    0    0  0.00000000000E+00  0.00000000000E+00  0.19937249393E+04  0.24089313656E+04  0.13520396408E+04 0.  0.
        5    1    3    3  502    0  0.52620990537E+03 -0.42087577653E+03  0.10935913800E+04  0.12845222771E+04  0.46999998093E+01 0.  1.
       -5    1    3    3    0  502 -0.52620990537E+03  0.42087577653E+03  0.90013355928E+03  0.11244090885E+04  0.46999998093E+01 0. -1.
</event>
<event>
 5   0  0.4306214E-03  0.1388727E+04  0.7818609E-02  0.8962019E-01
       -2   -1    0    0    0  501  0.00000000000E+00  0.00000000000E+00  0.27425832444E+03  0.27425832445E+03  0.25500000920E-02 0. -1.
        2   -1    0    0  501    0  0.00000000000E+00  0.00000000000E+00 -0.17579793389E+04  0.17579793389E+04  0.25500000920E-02 0.  1.
    10030    2    1    2    0    0  0.00000000000E+00  0.00000000000E+00 -0.14837210145E+04  0.20322376634E+04  0.13887267088E+04 0.  0.
        3    1    3    3  502    0  0.28628469979E+03 -0.21745611093E+03  0.12746029370E+03  0.38143443235E+03  0.10100000352E+00 0. -1.
       -3    1    3    3    0  502 -0.28628469979E+03  0.21745611093E+03 -0.16111813082E+04  0.16508032310E+04  0.10100000352E+00 0.  1.
</event>
<event>
 5   0  0.2462055E-03  0.1134223E+04  0.7818609E-02  0.9172463E-01
       -1   -1    0    0    0  501  0.00000000000E+00  0.00000000000E+00  0.22951427581E+03  0.22951427587E+03  0.50400001928E-02 0. -1.
        1   -1    0    0  501    0  0.00000000000E+00  0.00000000000E+00 -0.14012866863E+04  0.14012866863E+04  0.50400001928E-02 0.  1.
    10030    2    1    2    0    0  0.00000000000E+00  0.00000000000E+00 -0.11717724105E+04  0.16308009622E+04  0.11342227278E+04 0.  0.
        2    1    3    3  502    0 -0.30886980194E+03  0.37157396653E+03 -0.10127680571E+04  0.11221260645E+04  0.25500000920E-02 0.  1.
       -2    1    3    3    0  502  0.30886980194E+03 -0.37157396653E+03 -0.15900435343E+03  0.50867489772E+03  0.25500000920E-02 0. -1.
</event>
<event>
 5   0  0.4306214E-03  0.1238204E+04  0.7818609E-02  0.9080058E-01
        2   -1    0    0  501    0  0.00000000000E+00  0.00000000000E+00  0.14438552566E+04  0.14438552566E+04  0.25500000920E-02 0. -1.
       -2   -1    0    0    0  501  0.00000000000E+00  0.00000000000E+00 -0.26546105463E+03  0.26546105464E+03  0.25500000920E-02 0.  1.
    10030    2    1    2    0    0  0.00000000000E+00  0.00000000000E+00  0.11783942020E+04  0.17093163112E+04  0.12382040852E+04 0.  0.
        3    1    3    3  502    0 -0.25483293228E+02  0.47353711547E+03  0.11386222326E+04  0.12334291211E+04  0.10100000352E+00 0. -1.
       -3    1    3    3    0  502  0.25483293228E+02 -0.47353711547E+03  0.39771969320E+02  0.47588719011E+03  0.10100000352E+00 0.  1.
</event>
<event>
 5   0  0.2458456E-03  0.1306465E+04  0.7818609E-02  0.9024454E-01
        1   -1    0    0  501    0  0.00000000000E+00  0.00000000000E+00  0.55095242741E+03  0.55095242744E+03  0.50400001928E-02 0.  1.
       -1   -1    0    0    0  501  0.00000000000E+00  0.00000000000E+00 -0.77450062433E+03  0.77450062435E+03  0.50400001928E-02 0. -1.
    10030    2    1    2    0    0  0.00000000000E+00  0.00000000000E+00 -0.22354819692E+03  0.13254530518E+04  0.13064654592E+04 0.  0.
        5    1    3    3  502    0  0.43309419389E+03 -0.11391875452E+03  0.37068204792E+03  0.58135646041E+03  0.46999998093E+01 0.  1.
       -5    1    3    3    0  502 -0.43309419389E+03  0.11391875452E+03 -0.59423024485E+03  0.74409659138E+03  0.46999998093E+01 0. -1.
</event>
<event>
 5   0  0.2370801E-03  0.1306954E+04  0.7818609E-02  0.9024069E-01
        1   -1    0    0  501    0  0.00000000000E+00  0.00000000000E+00  0.57413863482E+03  0.57413863484E+03  0.50400001928E-02 0.  1.
       -1   -1    0    0    0  501  0.00000000000E+00  0.00000000000E+00 -0.74377889052E+03  0.74377889053E+03  0.50400001928E-02 0. -1.
    10030    2    1    2    0    0  0.00000000000E+00  0.00000000000E+00 -0.16964025570E+03  0.13179175254E+04  0.13069540112E+04 0.  0.
        3    1    3    3  502    0  0.44324329765E+01 -0.11597209390E+03  0.56366313694E+03  0.57548702433E+03  0.10100000352E+00 0.  1.
       -3    1    3    3    0  502 -0.44324329765E+01  0.11597209390E+03 -0.73330339264E+03  0.74243050104E+03  0.10100000352E+00 0. -1.
</event>
<event>
 5   0  0.1661750E-03  0.1298581E+04  0.7818609E-02  0.9030691E-01
       -3   -1    0    0    0  501  0.00000000000E+00  0.00000000000E+00  0.11482108207E+04  0.11482108252E+04  0.10100000352E+00 0. -1.
        3   -1    0    0  501    0  0.00000000000E+00  0.00000000000E+00 -0.36716078692E+03  0.36716080081E+03  0.10100000352E+00 0.  1.
    10030    2    1    2    0    0  0.00000000000E+00  0.00000000000E+00  0.78105003380E+03  0.15153716260E+04  0.12985807674E+04 0.  0.
        5    1    3    3  502    0 -0.47547732222E+03  0.32372216960E+03  0.39119335341E+02  0.57656494814E+03  0.46999998093E+01 0. -1.
       -5    1    3    3    0  502  0.47547732222E+03 -0.32372216960E+03  0.74193069846E+03  0.93880667783E+03  0.46999998093E+01 0.  1.
</event>
<event>
 5   0  0.2511542E-03  0.1277690E+04  0.7818609E-02  0.9047447E-01
       -1   -1    0    0    0  501  0.00000000000E+00  0.00000000000E+00  0.25764337817E+03  0.25764337822E+03  0.50400001928E-02 0. -1.
        1   -1    0    0  501    0  0.00000000000E+00  0.00000000000E+00 -0.15840608655E+04  0.15840608655E+04  0.50400001928E-02 0.  1.
    10030    2    1    2    0    0  0.00000000000E+00  0.00000000000E+00 -0.13264174873E+04  0.18417042437E+04  0.12776897787E+04 0.  0.
        4    1    3    3  502    0  0.36501780748E+03 -0.10004886044E+03 -0.14050545500E+04  0.14551383699E+04  0.12699999809E+01 0.  1.
       -4    1    3    3    0  502 -0.36501780748E+03  0.10004886044E+03  0.78637062678E+02  0.38656587379E+03  0.12699999809E+01 0. -1.
</event>
<event>
 5   0  0.4310889E-03  0.1285881E+04  0.7818609E-02  0.9040837E-01
        2   -1    0    0  501    0  0.00000000000E+00  0.00000000000E+00  0.63934795559E+03  0.63934795559E+03  0.25500000920E-02 0.  1.
       -2   -1    0    0    0  501  0.00000000000E+00  0.00000000000E+00 -0.64655290648E+03  0.64655290649E+03  0.25500000920E-02 0. -1.
    10030    2    1    2    0    0  0.00000000000E+00  0.00000000000E+00 -0.72049508945E+01  0.12859008621E+04  0.12858806771E+04 0.  0.
        4    1    3    3  502    0 -0.35706233588E+03  0.98722071713E+02  0.52188755875E+03  0.64000609061E+03  0.12699999809E+01 0.  1.
       -4    1    3    3    0  502  0.35706233588E+03 -0.98722071713E+02 -0.52909250964E+03  0.64589477147E+03  0.12699999809E+01 0. -1.
</event>
<event>
 5   0  0.2511542E-03  0.1293900E+04  0.7818609E-02  0.9034417E-01
       -1   -1    0    0    0  501  0.00000000000E+00  0.00000000000E+00  0.52356893001E+03  0.52356893003E+03  0.50400001928E-02 0. -1.
        1   -1    0    0  501    0  0.00000000000E+00  0.00000000000E+00 -0.79940617933E+03  0.79940617934E+03  0.50400001928E-02 0.  1.
    10030    2    1    2    0    0  0.00000000000E+00  0.00000000000E+00 -0.27583724932E+03  0.13229751094E+04  0.12938999003E+04 0.  0.
        4    1    3    3  502    0  0.79360714113E+02  0.26369937723E+03 -0.73648535028E+03  0.78628733207E+03  0.12699999809E+01 0.  1.
       -4    1    3    3    0  502 -0.79360714113E+02 -0.26369937723E+03  0.46064810096E+03  0.53668777731E+03  0.12699999809E+01 0. -1.
</event>
<event>
 5   0  0.4388937E-03  0.1266927E+04  0.7818609E-02  0.9056211E-01
       -2   -1    0    0    0  501  0.00000000000E+00  0.00000000000E+00  0.84686507125E+03  0.84686507125E+03  0.25500000920E-02 0.  1.
        2   -1    0    0  501    0  0.00000000000E+00  0.00000000000E+00 -0.47383721119E+03  0.47383721120E+03  0.25500000920E-02 0. -1.
    10030    2    1    2    0    0  0.00000000000E+00  0.00000000000E+00  0.37302786006E+03  0.13207022825E+04  0.12669272807E+04 0.  0.
        5    1    3    3  502    0  0.16939893206E+02  0.50033768098E+03  0.59109729778E+03  0.77462433503E+03  0.46999998093E+01 0.  1.
       -5    1    3    3    0  502 -0.16939893206E+02 -0.50033768098E+03 -0.21806943772E+03  0.54607794742E+03  0.46999998093E+01 0. -1.
</event>
<event>
 5   0  0.2370801E-03  0.1272607E+04  0.7818609E-02  0.9051575E-01
        1   -1    0    0  501    0  0.00000000000E+00  0.00000000000E+00  0.44177976242E+03  0.44177976245E+03  0.50400001928E-02 0.  1.
       -1   -1    0    0    0  501  0.00000000000E+00  0.00000000000E+00 -0.91647930284E+03  0.91647930285E+03  0.50400001928E-02 0. -1.
    10030    2    1    2    0    0  0.00000000000E+00  0.00000000000E+00 -0.47469954041E+03  0.13582590653E+04  0.12726067872E+04 0.  0.
        3    1    3    3  502    0  0.28723547351E+03 -0.52352482189E+03 -0.27865668689E+01  0.59715176591E+03  0.10100000352E+00 0.  1.
       -3    1    3    3    0  502 -0.28723547351E+03  0.52352482189E+03 -0.47191297355E+03  0.76110729939E+03  0.10100000352E+00 0. -1.
</event>
<event>
 5   0  0.4263540E-03  0.1305195E+04  0.7818609E-02  0.9025455E-01
       -2   -1    0    0    0  501  0.00000000000E+00  0.00000000000E+00  0.68018694294E+03  0.68018694294E+03  0.25500000920E-02 0. -1.
        2   -1    0    0  501    0  0.00000000000E+00  0.00000000000E+00 -0.62612741517E+03  0.62612741517E+03  0.25500000920E-02 0.  1.
    10030    2    1    2    0    0  0.00000000000E+00  0.00000000000E+00  0.54059527766E+02  0.13063143581E+04  0.13051952994E+04 0.  0.
        2    1    3    3  502    0 -0.36583887512E+03 -0.49747121914E+03  0.23832210372E+03  0.66190114183E+03  0.25500000920E-02 0. -1.
       -2    1    3    3    0  502  0.36583887512E+03  0.49747121914E+03 -0.18426257595E+03  0.64441321629E+03  0.25500000920E-02 0.  1.
</event>
<event>
 5   0  0.4310889E-03  0.1292643E+04  0.7818609E-02  0.9035420E-01
       -2   -1    0    0    0  501  0.00000000000E+00  0.00000000000E+00  0.87572644748E+03  0.87572644748E+03  0.25500000920E-02 0. -1.
        2   -1    0    0  501    0  0.00000000000E+00  0.00000000000E+00 -0.47701160708E+03  0.47701160709E+03  0.25500000920E-02 0.  1.
    10030    2    1    2    0    0  0.00000000000E+00  0.00000000000E+00  0.39871484040E+03  0.13527380546E+04  0.12926433075E+04 0.  0.
        4    1    3    3  502    0 -0.22129364486E+03  0.54191262911E+03 -0.87407317198E+02  0.59184611753E+03  0.12699999809E+01 0.  1.
       -4    1    3    3    0  502  0.22129364486E+03 -0.54191262911E+03  0.48612215760E+03  0.76089193704E+03  0.12699999809E+01 0. -1.
</event>
<event>
 5   0  0.4263540E-03  0.1315055E+04  0.7818609E-02  0.9017711E-01
        2   -1    0    0  501    0  0.00000000000E+00  0.00000000000E+00  0.10664819249E+04  0.10664819249E+04  0.25500000920E-02 0. -1.
       -2   -1    0    0    0  501  0.00000000000E+00  0.00000000000E+00 -0.40539127600E+03  0.40539127601E+03  0.25500000920E-02 0.  1.
    10030    2    1    2    0    0  0.00000000000E+00  0.00000000000E+00  0.66109064892E+03  0.14718732009E+04  0.13150550838E+04 0.  0.
        2    1    3    3  502    0  0.16128680961E+03  0.39245351859E+03 -0.23165754286E+03  0.48342364069E+03  0.25500000920E-02 0.  1.
       -2    1    3    3    0  502 -0.16128680961E+03 -0.39245351859E+03  0.89274819177E+03  0.98844956023E+03  0.25500000920E-02 0. -1.
</event>
<event>
 5   0  0.2511542E-03  0.1286609E+04  0.7818609E-02  0.9040252E-01
        1   -1    0    0  501    0  0.00000000000E+00  0.00000000000E+00  0.21491345117E+03  0.21491345123E+03  0.50400001928E-02 0.  1.
       -1   -1    0    0    0  501  0.00000000000E+00  0.00000000000E+00 -0.19256147997E+04  0.19256147997E+04  0.50400001928E-02 0. -1.
    10030    2    1    2    0    0  0.00000000000E+00  0.00000000000E+00 -0.17107013485E+04  0.21405282509E+04  0.12866087553E+04 0.  0.
        4    1    3    3  502    0 -0.43359203636E+03  0.38712083973E+03 -0.39677834404E+03  0.70377501074E+03  0.12699999809E+01 0.  1.
       -4    1    3    3    0  502  0.43359203636E+03 -0.38712083973E+03 -0.13139230045E+04  0.14367532402E+04  0.12699999809E+01 0. -1.
</event>
<event>
 5   0  0.4388937E-03  0.1317422E+04  0.7818609E-02  0.9015862E-01
       -2   -1    0    0    0  501  0.00000000000E+00  0.00000000000E+00  0.16044551402E+03  0.16044551404E+03  0.25500000920E-02 0.  1.
        2   -1    0    0  501    0  0.00000000000E+00  0.00000000000E+00 -0.27043454255E+04  0.27043454255E+04  0.25500000920E-02 0. -1.
    10030    2    1    2    0    0  0.00000000000E+00  0.00000000000E+00 -0.25438999115E+04  0.28647909396E+04  0.13174218640E+04 0.  0.
        5    1    3    3  502    0  0.71435358130E+02 -0.35050030263E+03 -0.24746995472E+04  0.25004226465E+04  0.46999998093E+01 0. -1.
       -5    1    3    3    0  502 -0.71435358130E+02  0.35050030263E+03 -0.69200364310E+02  0.36436829302E+03  0.46999998093E+01 0.  1.
</event>
<event>
 5   0  0.2462055E-03  0.1289922E+04  0.7818609E-02  0.9037595E-01
       -1   -1    0    0    0  501  0.00000000000E+00  0.00000000000E+00  0.36145619904E+03  0.36145619907E+03  0.50400001928E-02 0. -1.
        1   -1    0    0  501    0  0.00000000000E+00  0.00000000000E+00 -0.11508308822E+04  0.11508308822E+04  0.50400001928E-02 0.  1.
    10030    2    1    2    0    0  0.00000000000E+00  0.00000000000E+00 -0.78937468313E+03  0.15122870813E+04  0.12899224108E+04 0.  0.
        2    1    3    3  502    0  0.88856811633E+02  0.58220557685E+03 -0.86467754678E+02  0.59526090019E+03  0.25500000920E-02 0.  1.
       -2    1    3    3    0  502 -0.88856811633E+02 -0.58220557685E+03 -0.70290692845E+03  0.91702618107E+03  0.25500000920E-02 0. -1.
</event>
<event>
 5   0  0.2356769E-03  0.1252079E+04  0.7818609E-02  0.9068455E-01
       -1   -1    0    0    0  501  0.00000000000E+00  0.00000000000E+00  0.13778936287E+04  0.13778936287E+04  0.50400001928E-02 0.  1.
        1   -1    0    0  501    0  0.00000000000E+00  0.00000000000E+00 -0.28443818870E+03  0.28443818874E+03  0.50400001928E-02 0. -1.
    10030    2    1    2    0    0  0.00000000000E+00  0.00000000000E+00  0.10934554400E+04  0.16623318174E+04  0.12520791796E+04 0.  0.
        1    1    3    3  502    0 -0.29657673036E+03  0.34337242641E+03 -0.25957733901E+02  0.45446252231E+03  0.50400001928E-02 0. -1.
       -1    1    3    3    0  502  0.29657673036E+03 -0.34337242641E+03  0.11194131739E+04  0.12078692951E+04  0.50400001928E-02 0.  1.
</event>
<event>
 5   0  0.2458456E-03  0.1152551E+04  0.7818609E-02  0.9155434E-01
       -1   -1    0    0    0  501  0.00000000000E+00  0.00000000000E+00  0.54879773480E+03  0.54879773483E+03  0.50400001928E-02 0.  1.
        1   -1    0    0  501    0  0.00000000000E+00  0.00000000000E+00 -0.60512864902E+03  0.60512864904E+03  0.50400001928E-02 0. -1.
    10030    2    1    2    0    0  0.00000000000E+00  0.00000000000E+00 -0.56330914216E+02  0.11539263839E+04  0.11525506182E+04 0.  0.
        5    1    3    3  502    0 -0.51270885976E+03 -0.18437003417E+03 -0.21602860480E+03  0.58613405673E+03  0.46999998093E+01 0. -1.
       -5    1    3    3    0  502  0.51270885976E+03  0.18437003417E+03  0.15969769058E+03  0.56779232713E+03  0.46999998093E+01 0.  1.
</event>
<event>
 5   0  0.2511542E-03  0.1248220E+04  0.7818609E-02  0.9071666E-01
        1   -1    0    0  501    0  0.00000000000E+00  0.00000000000E+00  0.13497596524E+04  0.13497596525E+04  0.50400001928E-02 0. -1.
       -1   -1    0    0    0  501  0.00000000000E+00  0.00000000000E+00 -0.28857965537E+03  0.28857965542E+03  0.50400001928E-02 0.  1.
    10030    2    1    2    0    0  0.00000000000E+00  0.00000000000E+00  0.10611799971E+04  0.16383393079E+04  0.12482198130E+04 0.  0.
        4    1    3    3  502    0  0.56012945377E+03  0.18472866317E+03  0.26274845708E+03  0.64568417091E+03  0.12699999809E+01 0.  1.
       -4    1    3    3    0  502 -0.56012945377E+03 -0.18472866317E+03  0.79843153999E+03  0.99265513696E+03  0.12699999809E+01 0. -1.
</event>
<event>
 5   0  0.4453011E-03  0.1524186E+04  0.7818609E-02  0.8868527E-01
       -2   -1    0    0    0  501  0.00000000000E+00  0.00000000000E+00  0.67104977031E+03  0.67104977031E+03  0.25500000920E-02 0. -1.
        2   -1    0    0  501    0  0.00000000000E+00  0.00000000000E+00 -0.86548792753E+03  0.86548792754E+03  0.25500000920E-02 0.  1.
    10030    2    1    2    0    0  0.00000000000E+00  0.00000000000E+00 -0.19443815723E+03  0.15365376978E+04  0.15241856514E+04 0.  0.
        1    1    3    3  502    0  0.55639155071E+02  0.18979338100E+03  0.64472647025E+03  0.67438080082E+03  0.50400001928E-02 0. -1.
       -1    1    3    3    0  502 -0.55639155071E+02 -0.18979338100E+03 -0.83916462748E+03  0.86215689703E+03  0.50400001928E-02 0.  1.
</event>
<event>
 5   0  0.2356769E-03  0.1139843E+04  0.7818609E-02  0.9167205E-01
        1   -1    0    0  501    0  0.00000000000E+00  0.00000000000E+00  0.15134168172E+04  0.15134168172E+04  0.50400001928E-02 0.  1.
       -1   -1    0    0    0  501  0.00000000000E+00  0.00000000000E+00 -0.21462059047E+03  0.21462059053E+03  0.50400001928E-02 0. -1.
    10030    2    1    2    0    0  0.00000000000E+00  0.00000000000E+00  0.12987962267E+04  0.17280374078E+04  0.11398428155E+04 0.  0.
        1    1    3    3  502    0 -0.34312974448E+00 -0.47795013422E+03  0.17875898485E+03  0.51028543309E+03  0.50400001928E-02 0. -1.
       -1    1    3    3    0  502  0.34312974448E+00  0.47795013422E+03  0.11200372419E+04  0.12177519747E+04  0.50400001928E-02 0.  1.
</event>
<event>
 5   0  0.4306214E-03  0.1297924E+04  0.7818609E-02  0.9031213E-01
       -2   -1    0    0    0  501  0.00000000000E+00  0.00000000000E+00  0.52769733132E+03  0.52769733132E+03  0.25500000920E-02 0. -1.
        2   -1    0    0  501    0  0.00000000000E+00  0.00000000000E+00 -0.79809306845E+03  0.79809306846E+03  0.25500000920E-02 0.  1.
    10030    2    1    2    0    0  0.00000000000E+00  0.00000000000E+00 -0.27039573714E+03  0.13257903998E+04  0.12979238535E+04 0.  0.
        3    1    3    3  502    0  0.96794238394E+02 -0.30997077750E+02 -0.78991289096E+03  0.79642471641E+03  0.10100000352E+00 0.  1.
       -3    1    3    3    0  502 -0.96794238394E+02  0.30997077750E+02  0.51951715382E+03  0.52936568337E+03  0.10100000352E+00 0. -1.
</event>
<event>
 5   0  0.4453011E-03  0.1307791E+04  0.7818609E-02  0.9023410E-01
       -2   -1    0    0    0  501  0.00000000000E+00  0.00000000000E+00  0.20564648825E+03  0.20564648827E+03  0.25500000920E-02 0.  1.
        2   -1    0    0  501    0  0.00000000000E+00  0.00000000000E+00 -0.20791956233E+04  0.20791956233E+04  0.25500000920E-02 0. -1.
    10030    2    1    2    0    0  0.00000000000E+00  0.00000000000E+00 -0.18735491351E+04  0.22848421116E+04  0.13077909288E+04 0.  0.
        1    1    3    3  502    0  0.22262645669E+03  0.32584961976E+03 -0.25868557068E+02  0.39548665741E+03  0.50400001928E-02 0.  1.
       -1    1    3    3    0  502 -0.22262645669E+03 -0.32584961976E+03 -0.18476805780E+04  0.18893554542E+04  0.50400001928E-02 0. -1.
</event>
<event>
 5   0  0.4453011E-03  0.1308739E+04  0.7818609E-02  0.9022664E-01
        2   -1    0    0  501    0  0.00000000000E+00  0.00000000000E+00  0.61405096678E+03  0.61405096678E+03  0.25500000920E-02 0. -1.
       -2   -1    0    0    0  501  0.00000000000E+00  0.00000000000E+00 -0.69733539834E+03  0.69733539834E+03  0.25500000920E-02 0.  1.
    10030    2    1    2    0    0  0.00000000000E+00  0.00000000000E+00 -0.83284431560E+02  0.13113863651E+04  0.13087390504E+04 0.  0.
        1    1    3    3  502    0  0.14300022255E+03  0.62996381036E+03  0.62952884108E+02  0.64905048467E+03  0.50400001928E-02 0. -1.
       -1    1    3    3    0  502 -0.14300022255E+03 -0.62996381036E+03 -0.14623731567E+03  0.66233588045E+03  0.50400001928E-02 0.  1.
</event>
<event>
 5   0  0.4388937E-03  0.1325435E+04  0.7818609E-02  0.9009634E-01
       -2   -1    0    0    0  501  0.00000000000E+00  0.00000000000E+00  0.85471641764E+03  0.85471641765E+03  0.25500000920E-02 0.  1.
        2   -1    0    0  501    0  0.00000000000E+00  0.00000000000E+00 -0.51384845002E+03  0.51384845002E+03  0.25500000920E-02 0. -1.
    10030    2    1    2    0    0  0.00000000000E+00  0.00000000000E+00  0.34086796762E+03  0.13685648677E+04  0.13254353344E+04 0.  0.
        5    1    3    3  502    0  0.12193074303E+03  0.27220072965E+03  0.78147803980E+03  0.83647496078E+03  0.46999998093E+01 0.  1.
       -5    1    3    3    0  502 -0.12193074303E+03 -0.27220072965E+03 -0.44061007217E+03  0.53208990690E+03  0.46999998093E+01 0. -1.
</event>
<event>
 5   0  0.2458456E-03  0.1309548E+04  0.7818609E-02  0.9022028E-01
        1   -1    0    0  501    0  0.00000000000E+00  0.00000000000E+00  0.58246397613E+03  0.58246397615E+03  0.50400001928E-02 0.  1.
       -1   -1    0    0    0  501  0.00000000000E+00  0.00000000000E+00 -0.73606066006E+03  0.73606066007E+03  0.50400001928E-02 0. -1.
    10030    2    1    2    0    0  0.00000000000E+00  0.00000000000E+00 -0.15359668393E+03  0.13185246362E+04  0.13095477368E+04 0.  0.
        5    1    3    3  502    0  0.60378984241E+03 -0.22879056238E+03  0.32571477065E+02  0.64652168281E+03  0.46999998093E+01 0.  1.
       -5    1    3    3    0  502 -0.60378984241E+03  0.22879056238E+03 -0.18616816099E+03  0.67200295341E+03  0.46999998093E+01 0. -1.
</event>
<event>
 5   0  0.4306214E-03  0.1290604E+04  0.7818609E-02  0.9037050E-01
       -2   -1    0    0    0  501  0.00000000000E+00  0.00000000000E+00  0.51638743204E+03  0.51638743205E+03  0.25500000920E-02 0. -1.
        2   -1    0    0  501    0  0.00000000000E+00  0.00000000000E+00 -0.80639959839E+03  0.80639959839E+03  0.25500000920E-02 0.  1.
    10030    2    1    2    0    0  0.00000000000E+00  0.00000000000E+00 -0.29001216635E+03  0.13227870304E+04  0.12906039173E+04 0.  0.
        3    1    3    3  502    0 -0.22969352353E+03 -0.10315808086E+03  0.46395964845E+03  0.52788187125E+03  0.10100000352E+00 0. -1.
       -3    1    3    3    0  502  0.22969352353E+03  0.10315808086E+03 -0.75397181480E+03  0.79490515919E+03  0.10100000352E+00 0.  1.
</event>
<event>
 5   0  0.2462055E-03  0.7767472E+03  0.7818609E-02  0.9594298E-01
       -1   -1    0    0    0  501  0.00000000000E+00  0.00000000000E+00  0.19334004698E+03  0.19334004705E+03  0.50400001928E-02 0.  1.
        1   -1    0    0  501    0  0.00000000000E+00  0.00000000000E+00 -0.78014913881E+03  0.78014913882E+03  0.50400001928E-02 0. -1.
    10030    2    1    2    0    0  0.00000000000E+00  0.00000000000E+00 -0.58680909183E+03  0.97348918587E+03  0.77674724638E+03 0.  0.
        2    1    3    3  502    0  0.80010436576E+02 -0.37662202783E+03 -0.35716545021E+03  0.52517899867E+03  0.25500000920E-02 0. -1.
       -2    1    3    3    0  502 -0.80010436576E+02  0.37662202783E+03 -0.22964364162E+03  0.44831018721E+03  0.25500000920E-02 0.  1.
</event>
<event>
 5   0  0.2356769E-03  0.1295228E+04  0.7818609E-02  0.9033358E-01
       -1   -1    0    0    0  501  0.00000000000E+00  0.00000000000E+00  0.71945784607E+03  0.71945784609E+03  0.50400001928E-02 0. -1.
        1   -1    0    0  501    0  0.00000000000E+00  0.00000000000E+00 -0.58294452725E+03  0.58294452727E+03  0.50400001928E-02 0.  1.
    10030    2    1    2    0    0  0.00000000000E+00  0.00000000000E+00  0.13651331883E+03  0.13024023734E+04  0.12952281868E+04 0.  0.
        1    1    3    3  502    0  0.31299035891E+03  0.76345589146E+02 -0.49664899390E+03  0.59198972705E+03  0.50400001928E-02 0.  1.
       -1    1    3    3    0  502 -0.31299035891E+03 -0.76345589146E+02  0.63316231273E+03  0.71041264632E+03  0.50400001928E-02 0. -1.
</event>
<event>
 5   0  0.2370801E-03  0.1287811E+04  0.7818609E-02  0.9039288E-01
       -1   -1    0    0    0  501  0.00000000000E+00  0.00000000000E+00  0.50982629808E+03  0.50982629811E+03  0.50400001928E-02 0.  1.
        1   -1    0    0  501    0  0.00000000000E+00  0.00000000000E+00 -0.81324582083E+03  0.81324582085E+03  0.50400001928E-02 0. -1.
    10030    2    1    2    0    0  0.00000000000E+00  0.00000000000E+00 -0.30341952275E+03  0.13230721190E+04  0.12878107101E+04 0.  0.
        3    1    3    3  502    0 -0.61190374207E+03  0.19799977307E+03 -0.18393738175E+03  0.66892680489E+03  0.10100000352E+00 0. -1.
       -3    1    3    3    0  502  0.61190374207E+03 -0.19799977307E+03 -0.11948214099E+03  0.65414531406E+03  0.10100000352E+00 0.  1.
</event>
<event>
 5   0  0.2370801E-03  0.1249441E+04  0.7818609E-02  0.9070649E-01
       -1   -1    0    0    0  501  0.00000000000E+00  0.00000000000E+00  0.27583776721E+03  0.27583776726E+03  0.50400001928E-02 0. -1.
        1   -1    0    0  501    0  0.00000000000E+00  0.00000000000E+00 -0.14148743510E+04  0.14148743510E+04  0.50400001928E-02 0.  1.
    10030    2    1    2    0    0  0.00000000000E+00  0.00000000000E+00 -0.11390365837E+04  0.16907121182E+04  0.12494411261E+04 0.  0.
        3    1    3    3  502    0  0.36751826459E+03  0.40092792116E+03 -0.15362252190E+03  0.56516613682E+03  0.10100000352E+00 0.  1.
       -3    1    3    3    0  502 -0.36751826459E+03 -0.40092792116E+03 -0.98541406184E+03  0.11255459814E+04  0.10100000352E+00 0. -1.
</event>
<event>
 5   0  0.4263540E-03  0.1285667E+04  0.7818609E-02  0.9041009E-01
        2   -1    0    0  501    0  0.00000000000E+00  0.00000000000E+00  0.75149553397E+03  0.75149553398E+03  0.25500000920E-02 0. -1.
       -2   -1    0    0    0  501  0.00000000000E+00  0.00000000000E+00 -0.54988324061E+03  0.54988324062E+03  0.25500000920E-02 0.  1.
    10030    2    1    2    0    0  0.00000000000E+00  0.00000000000E+00  0.20161229336E+03  0.13013787746E+04  0.12856668301E+04 0.  0.
        2    1    3    3  502    0  0.59797573256E+02 -0.37517825746E+02  0.74756019283E+03  0.75088586278E+03  0.25500000920E-02 0. -1.
       -2    1    3    3    0  502 -0.59797573256E+02  0.37517825746E+02 -0.54594789947E+03  0.55049291181E+03  0.25500000920E-02 0.  1.
</event>
<event>
 5   0  0.2458456E-03  0.1341704E+04  0.7818609E-02  0.8997132E-01
       -1   -1    0    0    0  501  0.00000000000E+00  0.00000000000E+00  0.89143010754E+03  0.89143010755E+03  0.50400001928E-02 0.  1.
        1   -1    0    0  501    0  0.00000000000E+00  0.00000000000E+00 -0.50485411524E+03  0.50485411527E+03  0.50400001928E-02 0. -1.
    10030    2    1    2    0    0  0.00000000000E+00  0.00000000000E+00  0.38657599229E+03  0.13962842228E+04  0.13417036309E+04 0.  0.
        5    1    3    3  502    0 -0.21130565070E+03  0.41092735590E+03 -0.31281719832E+03  0.55802155819E+03  0.46999998093E+01 0. -1.
       -5    1    3    3    0  502  0.21130565070E+03 -0.41092735590E+03  0.69939319061E+03  0.83826266463E+03  0.46999998093E+01 0.  1.
</event>
<event>
 5   0  0.4388937E-03  0.1279703E+04  0.7818609E-02  0.9045817E-01
       -2   -1    0    0    0  501  0.00000000000E+00  0.00000000000E+00  0.75433383565E+03  0.75433383565E+03  0.25500000920E-02 0.  1.
        2   -1    0    0  501    0  0.00000000000E+00  0.00000000000E+00 -0.54274390369E+03  0.54274390369E+03  0.25500000920E-02 0. -1.
    10030    2    1    2    0    0  0.00000000000E+00  0.00000000000E+00  0.21158993196E+03  0.12970777393E+04  0.12797032322E+04 0.  0.
        5    1    3    3  502    0 -0.56715250643E+03 -0.11296438056E+03 -0.17171990133E+03  0.60326837422E+03  0.46999998093E+01 0. -1.
       -5    1    3    3    0  502  0.56715250643E+03  0.11296438056E+03  0.38330983329E+03  0.69380936512E+03  0.46999998093E+01 0.  1.
</event>
<event>
 5   0  0.2462055E-03  0.1225055E+04  0.7818609E-02  0.9091204E-01
        1   -1    0    0  501    0  0.00000000000E+00  0.00000000000E+00  0.11665483489E+04  0.11665483489E+04  0.50400001928E-02 0.  1.
       -1   -1    0    0    0  501  0.00000000000E+00  0.00000000000E+00 -0.32162406422E+03  0.32162406426E+03  0.50400001928E-02 0. -1.
    10030    2    1    2    0    0  0.00000000000E+00  0.00000000000E+00  0.84492428470E+03  0.14881724132E+04  0.12250551353E+04 0.  0.
        2    1    3    3  502    0 -0.35088504982E+03 -0.14227160407E+03 -0.16243704916E+03  0.41200403209E+03  0.25500000920E-02 0. -1.
       -2    1    3    3    0  502  0.35088504982E+03  0.14227160407E+03  0.10073613339E+04  0.10761683811E+04  0.25500000920E-02 0.  1.
</event>
<event>
 5   0  0.1661750E-03  0.1287887E+04  0.7818609E-02  0.9039227E-01
       -4   -1    0    0    0  501  0.00000000000E+00  0.00000000000E+00  0.56917085562E+03  0.56917227251E+03  0.12699999809E+01 0. -1.
        4   -1    0    0  501    0  0.00000000000E+00  0.00000000000E+00 -0.72853584989E+03  0.72853695683E+03  0.12699999809E+01 0.  1.
    10030    2    1    2    0    0  0.00000000000E+00  0.00000000000E+00 -0.15936499426E+03  0.12977092293E+04  0.12878866575E+04 0.  0.
        4    1    3    3  502    0 -0.20462506266E+03  0.31516999927E+03 -0.60660282004E+03  0.71356298873E+03  0.12699999809E+01 0.  1.
       -4    1    3    3    0  502  0.20462506266E+03 -0.31516999927E+03  0.44723782578E+03  0.58414624061E+03  0.12699999809E+01 0. -1.
</event>
<event>
 5   0  0.2356769E-03  0.1308901E+04  0.7818609E-02  0.9022536E-01
       -1   -1    0    0    0  501  0.00000000000E+00  0.00000000000E+00  0.65573034703E+03  0.65573034705E+03  0.50400001928E-02 0. -1.
        1   -1    0    0  501    0  0.00000000000E+00  0.00000000000E+00 -0.65317356159E+03  0.65317356161E+03  0.50400001928E-02 0.  1.
    10030    2    1    2    0    0  0.00000000000E+00  0.00000000000E+00  0.25567854413E+01  0.13089039087E+04  0.13089014115E+04 0.  0.
        1    1    3    3  502    0  0.28882663053E+03 -0.58457478038E+03 -0.54910946969E+02  0.65434219525E+03  0.50400001928E-02 0. -1.
       -1    1    3    3    0  502 -0.28882663053E+03  0.58457478038E+03  0.57467732410E+02  0.65456171340E+03  0.50400001928E-02 0.  1.
</event>
<event>
 5   0  0.2462055E-03  0.1120820E+04  0.7818609E-02  0.9185134E-01
        1   -1    0    0  501    0  0.00000000000E+00  0.00000000000E+00  0.91284956858E+03  0.91284956860E+03  0.50400001928E-02 0. -1.
       -1   -1    0    0    0  501  0.00000000000E+00  0.00000000000E+00 -0.34404259774E+03  0.34404259777E+03  0.50400001928E-02 0.  1.
    10030    2    1    2    0    0  0.00000000000E+00  0.00000000000E+00  0.56880697084E+03  0.12568921664E+04  0.11208195875E+04 0.  0.
        2    1    3    3  502    0 -0.36255058491E+03 -0.27018485105E+03  0.65568214617E+03  0.79646836545E+03  0.25500000920E-02 0. -1.
       -2    1    3    3    0  502  0.36255058491E+03  0.27018485105E+03 -0.86875175323E+02  0.46042380092E+03  0.25500000920E-02 0.  1.
</event>
<event>
 5   0  0.4453011E-03  0.1280898E+04  0.7818609E-02  0.9044852E-01
        2   -1    0    0  501    0  0.00000000000E+00  0.00000000000E+00  0.38206011013E+03  0.38206011014E+03  0.25500000920E-02 0. -1.
       -2   -1    0    0    0  501  0.00000000000E+00  0.00000000000E+00 -0.10735870315E+04  0.10735870315E+04  0.25500000920E-02 0.  1.
    10030    2    1    2    0    0  0.00000000000E+00  0.00000000000E+00 -0.69152692133E+03  0.14556471416E+04  0.12808977781E+04 0.  0.
        1    1    3    3  502    0  0.26771474715E+03  0.78346939879E+02  0.30939976211E+03  0.41657849398E+03  0.50400001928E-02 0. -1.
       -1    1    3    3    0  502 -0.26771474715E+03 -0.78346939879E+02 -0.10009266834E+04  0.10390686476E+04  0.50400001928E-02 0.  1.
</event>
<event>
 5   0  0.4453011E-03  0.1301337E+04  0.7818609E-02  0.9028505E-01
        2   -1    0    0  501    0  0.00000000000E+00  0.00000000000E+00  0.16183158500E+04  0.16183158500E+04  0.25500000920E-02 0.  1.
       -2   -1    0    0    0  501  0.00000000000E+00  0.00000000000E+00 -0.26161129358E+03  0.26161129359E+03  0.25500000920E-02 0. -1.
    10030    2    1    2    0    0  0.00000000000E+00  0.00000000000E+00  0.13567045565E+04  0.18799271436E+04  0.13013373167E+04 0.  0.
        1    1    3    3  502    0 -0.40728904828E+02 -0.64928838167E+03  0.66153904101E+03  0.92782980609E+03  0.50400001928E-02 0. -1.
       -1    1    3    3    0  502  0.40728904828E+02  0.64928838167E+03  0.69516551545E+03  0.95209733754E+03  0.50400001928E-02 0.  1.
</event>
<event>
 5   0  0.1661750E-03  0.1304415E+04  0.7818609E-02  0.9026072E-01
        3   -1    0    0  501    0  0.00000000000E+00  0.00000000000E+00  0.22356517867E+03  0.22356520149E+03  0.10100000352E+00 0. -1.
       -3   -1    0    0    0  501  0.00000000000E+00  0.00000000000E+00 -0.19026864712E+04  0.19026864739E+04  0.10100000352E+00 0.  1.
    10030    2    1    2    0    0  0.00000000000E+00  0.00000000000E+00 -0.16791212926E+04  0.21262516754E+04  0.13044147623E+04 0.  0.
        2    1    3    3  502    0 -0.19362730386E+03 -0.88251039345E+02  0.16539030237E+03  0.26950645794E+03  0.25500000920E-02 0. -1.
       -2    1    3    3    0  502  0.19362730386E+03  0.88251039345E+02 -0.18445115949E+04  0.18567452175E+04  0.25500000920E-02 0.  1.
</event>
<event>
 5   0  0.2511542E-03  0.6626913E+03  0.7818609E-02  0.9783252E-01
       -1   -1    0    0    0  501  0.00000000000E+00  0.00000000000E+00  0.34286191532E+03  0.34286191535E+03  0.50400001928E-02 0. -1.
        1   -1    0    0  501    0  0.00000000000E+00  0.00000000000E+00 -0.32021616974E+03  0.32021616978E+03  0.50400001928E-02 0.  1.
    10030    2    1    2    0    0  0.00000000000E+00  0.00000000000E+00  0.22645745574E+02  0.66307808514E+03  0.66269126839E+03 0.  0.
        4    1    3    3  502    0  0.23956455866E+03  0.65746731947E+01 -0.21762045800E+03  0.32372006538E+03  0.12699999809E+01 0.  1.
       -4    1    3    3    0  502 -0.23956455866E+03 -0.65746731947E+01  0.24026620357E+03  0.33935801975E+03  0.12699999809E+01 0. -1.
</event>
<event>
 5   0  0.4388937E-03  0.1315832E+04  0.7818609E-02  0.9017103E-01
       -2   -1    0    0    0  501  0.00000000000E+00  0.00000000000E+00  0.15802236509E+04  0.15802236509E+04  0.25500000920E-02 0. -1.
        2   -1    0    0  501    0  0.00000000000E+00  0.00000000000E+00 -0.27391920532E+03  0.27391920533E+03  0.25500000920E-02 0.  1.
    10030    2    1    2    0    0  0.00000000000E+00  0.00000000000E+00  0.13063044456E+04  0.18541428563E+04  0.13158322183E+04 0.  0.
        5    1    3    3  502    0 -0.36935539825E+03  0.14572341470E+03  0.13923240778E+04  0.14478422398E+04  0.46999998093E+01 0. -1.
       -5    1    3    3    0  502  0.36935539825E+03 -0.14572341470E+03 -0.86019632172E+02  0.40630061645E+03  0.46999998093E+01 0.  1.
</event>
<event>
 5   0  0.2458456E-03  0.1007533E+04  0.7818609E-02  0.9300321E-01
        1   -1    0    0  501    0  0.00000000000E+00  0.00000000000E+00  0.79740304023E+03  0.79740304024E+03  0.50400001928E-02 0. -1.
       -1   -1    0    0    0  501  0.00000000000E+00  0.00000000000E+00 -0.31825917474E+03  0.31825917478E+03  0.50400001928E-02 0.  1.
    10030    2    1    2    0    0  0.00000000000E+00  0.00000000000E+00  0.47914386549E+03  0.11156622150E+04  0.10075332919E+04 0.  0.
        5    1    3    3  502    0 -0.30404686141E+03 -0.39168947137E+03  0.14119096576E+03  0.51557939711E+03  0.46999998093E+01 0. -1.
       -5    1    3    3    0  502  0.30404686141E+03  0.39168947137E+03  0.33795289972E+03  0.60008281791E+03  0.46999998093E+01 0.  1.
</event>
<event>
 5   0  0.2462055E-03  0.6784385E+03  0.7818609E-02  0.9754833E-01
        1   -1    0    0  501    0  0.00000000000E+00  0.00000000000E+00  0.56213290450E+03  0.56213290452E+03  0.50400001928E-02 0.  1.
       -1   -1    0    0    0  501  0.00000000000E+00  0.00000000000E+00 -0.20470194744E+03  0.20470194750E+03  0.50400001928E-02 0. -1.
    10030    2    1    2    0    0  0.00000000000E+00  0.00000000000E+00  0.35743095706E+03  0.76683485202E+03  0.67843850216E+03 0.  0.
        2    1    3    3  502    0  0.80955241148E+02 -0.31518165601E+03  0.28699074232E+03  0.43388583008E+03  0.25500000920E-02 0.  1.
       -2    1    3    3    0  502 -0.80955241148E+02  0.31518165601E+03  0.70440214739E+02  0.33294902195E+03  0.25500000920E-02 0. -1.
</event>
<event>
 5   0  0.4388937E-03  0.1302899E+04  0.7818609E-02  0.9027269E-01
        2   -1    0    0  501    0  0.00000000000E+00  0.00000000000E+00  0.28432237929E+04  0.28432237929E+04  0.25500000920E-02 0. -1.
       -2   -1    0    0    0  501  0.00000000000E+00  0.00000000000E+00 -0.14926238710E+03  0.14926238712E+03  0.25500000920E-02 0.  1.
    10030    2    1    2    0    0  0.00000000000E+00  0.00000000000E+00  0.26939614058E+04  0.29924861800E+04  0.13028988762E+04 0.  0.
        5    1    3    3  502    0 -0.46850168418E+03 -0.30303373013E+03  0.57476352197E+03  0.80106083780E+03  0.46999998093E+01 0.  1.
       -5    1    3    3    0  502  0.46850168418E+03  0.30303373013E+03  0.21191978838E+04  0.21914253422E+04  0.46999998093E+01 0. -1.
</event>
<event>
 5   0  0.4453011E-03  0.1344801E+04  0.7818609E-02  0.8994773E-01
        2   -1    0    0  501    0  0.00000000000E+00  0.00000000000E+00  0.78955837236E+03  0.78955837237E+03  0.25500000920E-02 0. -1.
       -2   -1    0    0    0  501  0.00000000000E+00  0.00000000000E+00 -0.57262680003E+03  0.57262680004E+03  0.25500000920E-02 0.  1.
    10030    2    1    2    0    0  0.00000000000E+00  0.00000000000E+00  0.21693157233E+03  0.13621851724E+04  0.13448007796E+04 0.  0.
        1    1    3    3  502    0  0.27646161475E+02  0.13132839000E+03  0.77585395845E+03  0.78737590840E+03  0.50400001928E-02 0. -1.
       -1    1    3    3    0  502 -0.27646161475E+02 -0.13132839000E+03 -0.55892238612E+03  0.57480926401E+03  0.50400001928E-02 0.  1.
</event>
<event>
 5   0  0.2462055E-03  0.1330337E+04  0.7818609E-02  0.9005848E-01
       -1   -1    0    0    0  501  0.00000000000E+00  0.00000000000E+00  0.37986675213E+03  0.37986675216E+03  0.50400001928E-02 0.  1.
        1   -1    0    0  501    0  0.00000000000E+00  0.00000000000E+00 -0.11647478656E+04  0.11647478656E+04  0.50400001928E-02 0. -1.
    10030    2    1    2    0    0  0.00000000000E+00  0.00000000000E+00 -0.78488111343E+03  0.15446146177E+04  0.13303367826E+04 0.  0.
        2    1    3    3  502    0 -0.24266251021E+03  0.15050756198E+03 -0.10899640228E+04  0.11267471726E+04  0.25500000920E-02 0. -1.
       -2    1    3    3    0  502  0.24266251021E+03 -0.15050756198E+03  0.30508290936E+03  0.41786744509E+03  0.25500000920E-02 0.  1.
</event>
<event>
 5   0  0.2458456E-03  0.1316591E+04  0.7818609E-02  0.9016511E-01
       -1   -1    0    0    0  501  0.00000000000E+00  0.00000000000E+00  0.28076027273E+03  0.28076027278E+03  0.50400001928E-02 0. -1.
        1   -1    0    0  501    0  0.00000000000E+00  0.00000000000E+00 -0.15434974473E+04  0.15434974473E+04  0.50400001928E-02 0.  1.
    10030    2    1    2    0    0  0.00000000000E+00  0.00000000000E+00 -0.12627371745E+04  0.18242577200E+04  0.13165906946E+04 0.  0.
        5    1    3    3  502    0 -0.38378566444E+03  0.53393409252E+03 -0.67415676115E+03  0.94174650517E+03  0.46999998093E+01 0. -1.
       -5    1    3    3    0  502  0.38378566444E+03 -0.53393409252E+03 -0.58858041338E+03  0.88251121488E+03  0.46999998093E+01 0.  1.
</event>
<event>
 5   0  0.2370801E-03  0.1304141E+04  0.7818609E-02  0.9026288E-01
        1   -1    0    0  501    0  0.00000000000E+00  0.00000000000E+00  0.63384339353E+03  0.63384339355E+03  0.50400001928E-02 0. -1.
       -1   -1    0    0    0  501  0.00000000000E+00  0.00000000000E+00 -0.67082173806E+03  0.67082173808E+03  0.50400001928E-02 0.  1.
    10030    2    1    2    0    0  0.00000000000E+00  0.00000000000E+00 -0.36978344527E+02  0.13046651316E+04  0.13041409846E+04 0.  0.
        3    1    3    3  502    0 -0.30913090610E+03 -0.15411382073E+03  0.53479995105E+03  0.63665059860E+03  0.10100000352E+00 0. -1.
       -3    1    3    3    0  502  0.30913090610E+03  0.15411382073E+03 -0.57177829558E+03  0.66801453303E+03  0.10100000352E+00 0.  1.
</event>
<event>
 5   0  0.2370801E-03  0.1282512E+04  0.7818609E-02  0.9043549E-01
       -1   -1    0    0    0  501  0.00000000000E+00  0.00000000000E+00  0.12183179736E+04  0.12183179737E+04  0.50400001928E-02 0.  1.
        1   -1    0    0  501    0  0.00000000000E+00  0.00000000000E+00 -0.33752211517E+03  0.33752211521E+03  0.50400001928E-02 0. -1.
    10030    2    1    2    0    0  0.00000000000E+00  0.00000000000E+00  0.88079585847E+03  0.15558400889E+04  0.12825120030E+04 0.  0.
        3    1    3    3  502    0  0.63257270058E+03  0.11713451302E+02  0.31360622415E+03  0.70614042548E+03  0.10100000352E+00 0. -1.
       -3    1    3    3    0  502 -0.63257270058E+03 -0.11713451302E+02  0.56718963432E+03  0.84969966338E+03  0.10100000352E+00 0.  1.
</event>
<event>
 5   0  0.2458456E-03  0.1243517E+04  0.7818609E-02  0.9075596E-01
       -1   -1    0    0    0  501  0.00000000000E+00  0.00000000000E+00  0.36833063145E+03  0.36833063149E+03  0.50400001928E-02 0.  1.
        1   -1    0    0  501    0  0.00000000000E+00  0.00000000000E+00 -0.10495561855E+04  0.10495561855E+04  0.50400001928E-02 0. -1.
    10030    2    1    2    0    0  0.00000000000E+00  0.00000000000E+00 -0.68122555402E+03  0.14178868170E+04  0.12435170969E+04 0.  0.
        5    1    3    3  502    0 -0.16944536730E+03 -0.16309078693E+03  0.31563610544E+03  0.39364778462E+03  0.46999998093E+01 0.  1.
       -5    1    3    3    0  502  0.16944536730E+03  0.16309078693E+03 -0.99686165947E+03  0.10242390324E+04  0.46999998093E+01 0. -1.
</event>
<event>
 5   0  0.2511542E-03  0.1305955E+04  0.7818609E-02  0.9024856E-01
        1   -1    0    0  501    0  0.00000000000E+00  0.00000000000E+00  0.76403712240E+03  0.76403712241E+03  0.50400001928E-02 0.  1.
       -1   -1    0    0    0  501  0.00000000000E+00  0.00000000000E+00 -0.55806174304E+03  0.55806174306E+03  0.50400001928E-02 0. -1.
    10030    2    1    2    0    0  0.00000000000E+00  0.00000000000E+00  0.20597537936E+03  0.13220988655E+04  0.13059554178E+04 0.  0.
        4    1    3    3  502    0 -0.40132324500E+03 -0.44484465149E+03 -0.15989737363E+03  0.62009345580E+03  0.12699999809E+01 0.  1.
       -4    1    3    3    0  502  0.40132324500E+03  0.44484465149E+03  0.36587275299E+03  0.70200540968E+03  0.12699999809E+01 0. -1.
</event>
<event>
 5   0  0.2370801E-03  0.1311202E+04  0.7818609E-02  0.9020729E-01
        1   -1    0    0  501    0  0.00000000000E+00  0.00000000000E+00  0.43897991749E+03  0.43897991752E+03  0.50400001928E-02 0. -1.
       -1   -1    0    0    0  501  0.00000000000E+00  0.00000000000E+00 -0.97911735105E+03  0.97911735107E+03  0.50400001928E-02 0.  1.
    10030    2    1    2    0    0  0.00000000000E+00  0.00000000000E+00 -0.54013743356E+03  0.14180972686E+04  0.13112022788E+04 0.  0.
        3    1    3    3  502    0  0.35033095003E+03 -0.33674356303E+03  0.20590628264E+03  0.52775506556E+03  0.10100000352E+00 0. -1.
       -3    1    3    3    0  502 -0.35033095003E+03  0.33674356303E+03 -0.74604371621E+03  0.89034220302E+03  0.10100000352E+00 0.  1.
</event>
<event>
 5   0  0.4310889E-03  0.1550145E+04  0.7818609E-02  0.8851775E-01
       -2   -1    0    0    0  501  0.00000000000E+00  0.00000000000E+00  0.59715659229E+03  0.59715659229E+03  0.25500000920E-02 0. -1.
        2   -1    0    0  501    0  0.00000000000E+00  0.00000000000E+00 -0.10059959831E+04  0.10059959831E+04  0.25500000920E-02 0.  1.
    10030    2    1    2    0    0  0.00000000000E+00  0.00000000000E+00 -0.40883939078E+03  0.16031525754E+04  0.15501446811E+04 0.  0.
        4    1    3    3  502    0 -0.11040413177E+03 -0.58813669708E+03  0.30501124550E+03  0.67166012205E+03  0.12699999809E+01 0. -1.
       -4    1    3    3    0  502  0.11040413177E+03  0.58813669708E+03 -0.71385063629E+03  0.93149245332E+03  0.12699999809E+01 0.  1.
</event>
<event>
 5   0  0.2370801E-03  0.1313607E+04  0.7818609E-02  0.9018844E-01
        1   -1    0    0  501    0  0.00000000000E+00  0.00000000000E+00  0.92158053016E+03  0.92158053017E+03  0.50400001928E-02 0.  1.
       -1   -1    0    0    0  501  0.00000000000E+00  0.00000000000E+00 -0.46809912778E+03  0.46809912781E+03  0.50400001928E-02 0. -1.
    10030    2    1    2    0    0  0.00000000000E+00  0.00000000000E+00  0.45348140238E+03  0.13896796580E+04  0.13136073118E+04 0.  0.
        3    1    3    3  502    0 -0.51341262669E+03 -0.39316443152E+03  0.34837855786E+03  0.73453279385E+03  0.10100000352E+00 0.  1.
       -3    1    3    3    0  502  0.51341262669E+03  0.39316443152E+03  0.10510284452E+03  0.65514686414E+03  0.10100000352E+00 0. -1.
</event>
<event>
 5   0  0.4306214E-03  0.1305823E+04  0.7818609E-02  0.9024960E-01
       -2   -1    0    0    0  501  0.00000000000E+00  0.00000000000E+00  0.34913354222E+03  0.34913354223E+03  0.25500000920E-02 0. -1.
        2   -1    0    0  501    0  0.00000000000E+00  0.00000000000E+00 -0.12210047964E+04  0.12210047964E+04  0.25500000920E-02 0.  1.
    10030    2    1    2    0    0  0.00000000000E+00  0.00000000000E+00 -0.87187125417E+03  0.15701383386E+04  0.13058234638E+04 0.  0.
        3    1    3    3  502    0 -0.19172451208E+03  0.12375293149E+02  0.31437577049E+03  0.36843394480E+03  0.10100000352E+00 0. -1.
       -3    1    3    3    0  502  0.19172451208E+03 -0.12375293149E+02 -0.11862470247E+04  0.12017043938E+04  0.10100000352E+00 0.  1.
</event>
<event>
 5   0  0.4306214E-03  0.1311452E+04  0.7818609E-02  0.9020532E-01
        2   -1    0    0  501    0  0.00000000000E+00  0.00000000000E+00  0.48044017610E+03  0.48044017610E+03  0.25500000920E-02 0.  1.
       -2   -1    0    0    0  501  0.00000000000E+00  0.00000000000E+00 -0.89496426531E+03  0.89496426532E+03  0.25500000920E-02 0. -1.
    10030    2    1    2    0    0  0.00000000000E+00  0.00000000000E+00 -0.41452408922E+03  0.13754044414E+04  0.13114523083E+04 0.  0.
        3    1    3    3  502    0 -0.20033605463E+03  0.54733684957E+03 -0.52235354867E+03  0.78266557462E+03  0.10100000352E+00 0. -1.
       -3    1    3    3    0  502  0.20033605463E+03 -0.54733684957E+03  0.10782945946E+03  0.59273886680E+03  0.10100000352E+00 0.  1.
</event>
<event>
 5   0  0.1661750E-03  0.8655058E+03  0.7818609E-02  0.9469759E-01
        4   -1    0    0  501    0  0.00000000000E+00  0.00000000000E+00  0.11653952455E+04  0.11653959375E+04  0.12699999809E+01 0.  1.
       -4   -1    0    0    0  501  0.00000000000E+00  0.00000000000E+00 -0.16069336272E+03  0.16069838120E+03  0.12699999809E+01 0. -1.
    10030    2    1    2    0    0  0.00000000000E+00  0.00000000000E+00  0.10047018828E+04  0.13260943187E+04  0.86550578786E+03 0.  0.
        4    1    3    3  502    0  0.58515732653E+02 -0.62486571016E+02  0.11522921573E+04  0.11554685159E+04  0.12699999809E+01 0.  1.
       -4    1    3    3    0  502 -0.58515732653E+02  0.62486571016E+02 -0.14759027456E+03  0.17062580277E+03  0.12699999809E+01 0. -1.
</event>
<event>
 5   0  0.4388937E-03  0.1307907E+04  0.7818609E-02  0.9023318E-01
       -2   -1    0    0    0  501  0.00000000000E+00  0.00000000000E+00  0.31373764881E+03  0.31373764882E+03  0.25500000920E-02 0. -1.
        2   -1    0    0  501    0  0.00000000000E+00  0.00000000000E+00 -0.13630989357E+04  0.13630989357E+04  0.25500000920E-02 0.  1.
    10030    2    1    2    0    0  0.00000000000E+00  0.00000000000E+00 -0.10493612869E+04  0.16768365845E+04  0.13079074206E+04 0.  0.
        5    1    3    3  502    0  0.29924323730E+03  0.57073862989E+03 -0.66712537170E+03  0.92755994430E+03  0.46999998093E+01 0.  1.
       -5    1    3    3    0  502 -0.29924323730E+03 -0.57073862989E+03 -0.38223591518E+03  0.74927664021E+03  0.46999998093E+01 0. -1.
</event>
<event>
 5   0  0.2458456E-03  0.1319432E+04  0.7818609E-02  0.9014295E-01
        1   -1    0    0  501    0  0.00000000000E+00  0.00000000000E+00  0.99049100979E+03  0.99049100980E+03  0.50400001928E-02 0.  1.
       -1   -1    0    0    0  501  0.00000000000E+00  0.00000000000E+00 -0.43940379635E+03  0.43940379638E+03  0.50400001928E-02 0. -1.
    10030    2    1    2    0    0  0.00000000000E+00  0.00000000000E+00  0.55108721344E+03  0.14298948062E+04  0.13194324689E+04 0.  0.
        5    1    3    3  502    0  0.31475313384E+03  0.32233469336E+03 -0.24670830461E+03  0.51366941447E+03  0.46999998093E+01 0. -1.
       -5    1    3    3    0  502 -0.31475313384E+03 -0.32233469336E+03  0.79779551805E+03  0.91622539171E+03  0.46999998093E+01 0.  1.
</event>
<event>
 5   0  0.2462055E-03  0.1317803E+04  0.7818609E-02  0.9015565E-01
        1   -1    0    0  501    0  0.00000000000E+00  0.00000000000E+00  0.13897698138E+04  0.13897698138E+04  0.50400001928E-02 0. -1.
       -1   -1    0    0    0  501  0.00000000000E+00  0.00000000000E+00 -0.31239070807E+03  0.31239070811E+03  0.50400001928E-02 0.  1.
    10030    2    1    2    0    0  0.00000000000E+00  0.00000000000E+00  0.10773791057E+04  0.17021605219E+04  0.13178029841E+04 0.  0.
        2    1    3    3  502    0  0.55408965740E+03 -0.33219983843E+03  0.70600432845E+03  0.95698181429E+03  0.25500000920E-02 0. -1.
       -2    1    3    3    0  502 -0.55408965740E+03  0.33219983843E+03  0.37137477728E+03  0.74517870762E+03  0.25500000920E-02 0.  1.
</event>
<event>
 5   0  0.4388937E-03  0.1294916E+04  0.7818609E-02  0.9033606E-01
        2   -1    0    0  501    0  0.00000000000E+00  0.00000000000E+00  0.11309644234E+04  0.11309644234E+04  0.25500000920E-02 0. -1.
       -2   -1    0    0    0  501  0.00000000000E+00  0.00000000000E+00 -0.37065880417E+03  0.37065880418E+03  0.25500000920E-02 0.  1.
    10030    2    1    2    0    0  0.00000000000E+00  0.00000000000E+00  0.76030561923E+03  0.15016232276E+04  0.12949160911E+04 0.  0.
        5    1    3    3  502    0 -0.13914756077E+03  0.42405937330E+03  0.92405678888E+03  0.10262024336E+04  0.46999998093E+01 0. -1.
       -5    1    3    3    0  502  0.13914756077E+03 -0.42405937330E+03 -0.16375116964E+03  0.47542079394E+03  0.46999998093E+01 0.  1.
</event>
<event>
 5   0  0.4453011E-03  0.1298571E+04  0.7818609E-02  0.9030699E-01
       -2   -1    0    0    0  501  0.00000000000E+00  0.00000000000E+00  0.38303266327E+03  0.38303266328E+03  0.25500000920E-02 0.  1.
        2   -1    0    0  501    0  0.00000000000E+00  0.00000000000E+00 -0.11006150235E+04  0.11006150235E+04  0.25500000920E-02 0. -1.
    10030    2    1    2    0    0  0.00000000000E+00  0.00000000000E+00 -0.71758236021E+03  0.14836476868E+04  0.12985707585E+04 0.  0.
        1    1    3    3  502    0 -0.15336610303E+02  0.54411838256E+03 -0.76317266724E+03  0.93740735324E+03  0.50400001928E-02 0.  1.
       -1    1    3    3    0  502  0.15336610303E+02 -0.54411838256E+03  0.45590307028E+02  0.54624033353E+03  0.50400001928E-02 0. -1.
</event>
<event>
 5   0  0.2462055E-03  0.1288621E+04  0.7818609E-02  0.9038638E-01
       -1   -1    0    0    0  501  0.00000000000E+00  0.00000000000E+00  0.31035301658E+03  0.31035301662E+03  0.50400001928E-02 0.  1.
        1   -1    0    0  501    0  0.00000000000E+00  0.00000000000E+00 -0.13376258442E+04  0.13376258442E+04  0.50400001928E-02 0. -1.
    10030    2    1    2    0    0  0.00000000000E+00  0.00000000000E+00 -0.10272728276E+04  0.16479788608E+04  0.12886213033E+04 0.  0.
        2    1    3    3  502    0 -0.17642642234E+02 -0.61361413728E+03 -0.76392480348E+03  0.98000748858E+03  0.25500000920E-02 0. -1.
       -2    1    3    3    0  502  0.17642642234E+02  0.61361413728E+03 -0.26334802410E+03  0.66797137222E+03  0.25500000920E-02 0.  1.
</event>
<event>
 5   0  0.4453011E-03  0.1263212E+04  0.7818609E-02  0.9059258E-01
        2   -1    0    0  501    0  0.00000000000E+00  0.00000000000E+00  0.54384576195E+03  0.54384576196E+03  0.25500000920E-02 0.  1.
       -2   -1    0    0    0  501  0.00000000000E+00  0.00000000000E+00 -0.73352804622E+03  0.73352804622E+03  0.25500000920E-02 0. -1.
    10030    2    1    2    0    0  0.00000000000E+00  0.00000000000E+00 -0.18968228427E+03  0.12773738082E+04  0.12632119683E+04 0.  0.
        1    1    3    3  502    0  0.49629270274E+02  0.84138913893E+02  0.53616074460E+03  0.54498694055E+03  0.50400001928E-02 0.  1.
       -1    1    3    3    0  502 -0.49629270274E+02 -0.84138913893E+02 -0.72584302887E+03  0.73238686763E+03  0.50400001928E-02 0. -1.
</event>
<event>
 5   0  0.2511542E-03  0.1301893E+04  0.7818609E-02  0.9028066E-01
       -1   -1    0    0    0  501  0.00000000000E+00  0.00000000000E+00  0.75455806316E+03  0.75455806317E+03  0.50400001928E-02 0.  1.
        1   -1    0    0  501    0  0.00000000000E+00  0.00000000000E+00 -0.56156193209E+03  0.56156193211E+03  0.50400001928E-02 0. -1.
    10030    2    1    2    0    0  0.00000000000E+00  0.00000000000E+00  0.19299613106E+03  0.13161199953E+04  0.13018925975E+04 0.  0.
        4    1    3    3  502    0  0.12979473191E+02  0.10837439827E+03 -0.55224381358E+03  0.56292834310E+03  0.12699999809E+01 0. -1.
       -4    1    3    3    0  502 -0.12979473191E+02 -0.10837439827E+03  0.74523994465E+03  0.75319165219E+03  0.12699999809E+01 0.  1.
</event>
<event>
 5   0  0.1661750E-03  0.7731946E+03  0.7818609E-02  0.9599648E-01
        3   -1    0    0  501    0  0.00000000000E+00  0.00000000000E+00  0.11820485673E+03  0.11820489988E+03  0.10100000352E+00 0. -1.
       -3   -1    0    0    0  501  0.00000000000E+00  0.00000000000E+00 -0.12643933213E+04  0.12643933253E+04  0.10100000352E+00 0.  1.
    10030    2    1    2    0    0  0.00000000000E+00  0.00000000000E+00 -0.11461884646E+04  0.13825982252E+04  0.77319457840E+03 0.  0.
        5    1    3    3  502    0  0.29011166522E+03  0.19753425846E+03 -0.28337417022E+03  0.45111813520E+03  0.46999998093E+01 0. -1.
       -5    1    3    3    0  502 -0.29011166522E+03 -0.19753425846E+03 -0.86281429436E+03  0.93148009002E+03  0.46999998093E+01 0.  1.
</event>
<event>
 5   0  0.4306214E-03  0.1224078E+04  0.7818609E-02  0.9092038E-01
       -2   -1    0    0    0  501  0.00000000000E+00  0.00000000000E+00  0.22798581058E+03  0.22798581059E+03  0.25500000920E-02 0.  1.
        2   -1    0    0  501    0  0.00000000000E+00  0.00000000000E+00 -0.16430491561E+04  0.16430491561E+04  0.25500000920E-02 0. -1.
    10030    2    1    2    0    0  0.00000000000E+00  0.00000000000E+00 -0.14150633455E+04  0.18710349667E+04  0.12240782551E+04 0.  0.
        3    1    3    3  502    0  0.27764693114E+03 -0.25897401139E+03  0.26218777785E+02  0.38058217438E+03  0.10100000352E+00 0.  1.
       -3    1    3    3    0  502 -0.27764693114E+03  0.25897401139E+03 -0.14412821233E+04  0.14904527923E+04  0.10100000352E+00 0. -1.
</event>
<event>
 5   0  0.2511542E-03  0.1064538E+04  0.7818609E-02  0.9240462E-01
        1   -1    0    0  501    0  0.00000000000E+00  0.00000000000E+00  0.96081965320E+03  0.96081965321E+03  0.50400001928E-02 0. -1.
       -1   -1    0    0    0  501  0.00000000000E+00  0.00000000000E+00 -0.29486315514E+03  0.29486315518E+03  0.50400001928E-02 0.  1.
    10030    2    1    2    0    0  0.00000000000E+00  0.00000000000E+00  0.66595649806E+03  0.12556828084E+04  0.10645380491E+04 0.  0.
        4    1    3    3  502    0  0.51835092225E+03 -0.11373860070E+03  0.38139115935E+03  0.65351738861E+03  0.12699999809E+01 0. -1.
       -4    1    3    3    0  502 -0.51835092225E+03  0.11373860070E+03  0.28456533871E+03  0.60216541978E+03  0.12699999809E+01 0.  1.
</event>
<event>
 5   0  0.4306214E-03  0.1283488E+04  0.7818609E-02  0.9042763E-01
        2   -1    0    0  501    0  0.00000000000E+00  0.00000000000E+00  0.16168282755E+04  0.16168282755E+04  0.25500000920E-02 0. -1.
       -2   -1    0    0    0  501  0.00000000000E+00  0.00000000000E+00 -0.25471812706E+03  0.25471812707E+03  0.25500000920E-02 0.  1.
    10030    2    1    2    0    0  0.00000000000E+00  0.00000000000E+00  0.13621101485E+04  0.18715464026E+04  0.12834881692E+04 0.  0.
        3    1    3    3  502    0 -0.42931773738E+03  0.47184667956E+03  0.57916598285E+03  0.86161839264E+03  0.10100000352E+00 0.  1.
       -3    1    3    3    0  502  0.42931773738E+03 -0.47184667956E+03  0.78294416561E+03  0.10099280100E+04  0.10100000352E+00 0. -1.
</event>
<event>
 5   0  0.4310889E-03  0.1295142E+04  0.7818609E-02  0.9033427E-01
        2   -1    0    0  501    0  0.00000000000E+00  0.00000000000E+00  0.10592373914E+04  0.10592373914E+04  0.25500000920E-02 0. -1.
       -2   -1    0    0    0  501  0.00000000000E+00  0.00000000000E+00 -0.39589612140E+03  0.39589612141E+03  0.25500000920E-02 0.  1.
    10030    2    1    2    0    0  0.00000000000E+00  0.00000000000E+00  0.66334126999E+03  0.14551335128E+04  0.12951416523E+04 0.  0.
        4    1    3    3  502    0 -0.42653544528E+03  0.33846787276E+03  0.72547372380E+03  0.90708694390E+03  0.12699999809E+01 0. -1.
       -4    1    3    3    0  502  0.42653544528E+03 -0.33846787276E+03 -0.62132453813E+02  0.54804656890E+03  0.12699999809E+01 0.  1.
</event>
<event>
 5   0  0.4263540E-03  0.1376131E+04  0.7818609E-02  0.8971280E-01
        2   -1    0    0  501    0  0.00000000000E+00  0.00000000000E+00  0.16681579226E+04  0.16681579226E+04  0.25500000920E-02 0. -1.
       -2   -1    0    0    0  501  0.00000000000E+00  0.00000000000E+00 -0.28380652182E+03  0.28380652183E+03  0.25500000920E-02 0.  1.
    10030    2    1    2    0    0  0.00000000000E+00  0.00000000000E+00  0.13843514008E+04  0.19519644445E+04  0.13761309500E+04 0.  0.
        2    1    3    3  502    0 -0.48412958217E+03  0.31019375326E+03  0.15610060684E+03  0.59579276293E+03  0.25500000920E-02 0.  1.
       -2    1    3    3    0  502  0.48412958217E+03 -0.31019375326E+03  0.12282507940E+04  0.13561716815E+04  0.25500000920E-02 0. -1.
</event>
<event>
 5   0  0.4263540E-03  0.1337585E+04  0.7818609E-02  0.9000280E-01
        2   -1    0    0  501    0  0.00000000000E+00  0.00000000000E+00  0.21795799613E+04  0.21795799613E+04  0.25500000920E-02 0. -1.
       -2   -1    0    0    0  501  0.00000000000E+00  0.00000000000E+00 -0.20521540122E+03  0.20521540123E+03  0.25500000920E-02 0.  1.
    10030    2    1    2    0    0  0.00000000000E+00  0.00000000000E+00  0.19743645601E+04  0.23847953625E+04  0.13375849525E+04 0.  0.
        2    1    3    3  502    0  0.49163587534E+03  0.12283704027E+03  0.17653339315E+04  0.18366269796E+04  0.25500000920E-02 0. -1.
       -2    1    3    3    0  502 -0.49163587534E+03 -0.12283704027E+03  0.20903062859E+03  0.54816838296E+03  0.25500000920E-02 0.  1.
</event>
<event>
 5   0  0.2462055E-03  0.7379963E+03  0.7818609E-02  0.9654373E-01
        1   -1    0    0  501    0  0.00000000000E+00  0.00000000000E+00  0.14204633554E+04  0.14204633554E+04  0.50400001928E-02 0. -1.
       -1   -1    0    0    0  501  0.00000000000E+00  0.00000000000E+00 -0.95855775951E+02  0.95855776084E+02  0.50400001928E-02 0.  1.
    10030    2    1    2    0    0  0.00000000000E+00  0.00000000000E+00  0.13246075794E+04  0.15163191315E+04  0.73799625270E+03 0.  0.
        2    1    3    3  502    0 -0.23779384682E+01  0.13200182347E+03 -0.45667657967E+02  0.13969850028E+03  0.25500000920E-02 0.  1.
       -2    1    3    3    0  502  0.23779384682E+01 -0.13200182347E+03  0.13702752374E+04  0.13766206312E+04  0.25500000920E-02 0. -1.
</event>
<event>
 5   0  0.4263540E-03  0.1256161E+04  0.7818609E-02  0.9065071E-01
       -2   -1    0    0    0  501  0.00000000000E+00  0.00000000000E+00  0.35010700546E+03  0.35010700547E+03  0.25500000920E-02 0.  1.
        2   -1    0    0  501    0  0.00000000000E+00  0.00000000000E+00 -0.11267551086E+04  0.11267551086E+04  0.25500000920E-02 0. -1.
    10030    2    1    2    0    0  0.00000000000E+00  0.00000000000E+00 -0.77664810318E+03  0.14768621141E+04  0.12561605900E+04 0.  0.
        2    1    3    3  502    0  0.41680569473E+02 -0.62533702437E+03 -0.43681621790E+03  0.76393198136E+03  0.25500000920E-02 0.  1.
       -2    1    3    3    0  502 -0.41680569473E+02  0.62533702437E+03 -0.33983188529E+03  0.71293013275E+03  0.25500000920E-02 0. -1.
</event>
<event>
 5   0  0.4388937E-03  0.1328489E+04  0.7818609E-02  0.9007274E-01
        2   -1    0    0  501    0  0.00000000000E+00  0.00000000000E+00  0.62025980803E+03  0.62025980804E+03  0.25500000920E-02 0. -1.
       -2   -1    0    0    0  501  0.00000000000E+00  0.00000000000E+00 -0.71134784151E+03  0.71134784152E+03  0.25500000920E-02 0.  1.
    10030    2    1    2    0    0  0.00000000000E+00  0.00000000000E+00 -0.91088033478E+02  0.13316076496E+04  0.13284885782E+04 0.  0.
        5    1    3    3  502    0  0.59045003523E+03 -0.19620376495E+03 -0.27862216409E+03  0.68174743256E+03  0.46999998093E+01 0.  1.
       -5    1    3    3    0  502 -0.59045003523E+03  0.19620376495E+03  0.18753413061E+03  0.64986021699E+03  0.46999998093E+01 0. -1.
</event>
<event>
 5   0  0.4388937E-03  0.1311335E+04  0.7818609E-02  0.9020625E-01
       -2   -1    0    0    0  501  0.00000000000E+00  0.00000000000E+00  0.26517267501E+03  0.26517267502E+03  0.25500000920E-02 0.  1.
        2   -1    0    0  501    0  0.00000000000E+00  0.00000000000E+00 -0.16212066630E+04  0.16212066630E+04  0.25500000920E-02 0. -1.
    10030    2    1    2    0    0  0.00000000000E+00  0.00000000000E+00 -0.13560339880E+04  0.18863793380E+04  0.13113347515E+04 0.  0.
        5    1    3    3  502    0  0.24528964088E+03 -0.13650829386E+03  0.17432932534E+03  0.33047590818E+03  0.46999998093E+01 0.  1.
       -5    1    3    3    0  502 -0.24528964088E+03  0.13650829386E+03 -0.15303633133E+04  0.15559034299E+04  0.46999998093E+01 0. -1.
</event>
<event>
 5   0  0.4306214E-03  0.1293063E+04  0.7818609E-02  0.9035084E-01
        2   -1    0    0  501    0  0.00000000000E+00  0.00000000000E+00  0.49061418355E+03  0.49061418356E+03  0.25500000920E-02 0. -1.
       -2   -1    0    0    0  501  0.00000000000E+00  0.00000000000E+00 -0.85199944470E+03  0.85199944470E+03  0.25500000920E-02 0.  1.
    10030    2    1    2    0    0  0.00000000000E+00  0.00000000000E+00 -0.36138526115E+03  0.13426136283E+04  0.12930630487E+04 0.  0.
        3    1    3    3  502    0  0.42171363526E+02  0.42250076614E+03 -0.68693919850E+03  0.80757092192E+03  0.10100000352E+00 0.  1.
       -3    1    3    3    0  502 -0.42171363526E+02 -0.42250076614E+03  0.32555393735E+03  0.53504270635E+03  0.10100000352E+00 0. -1.
</event>
<event>
 5   0  0.2458456E-03  0.1293734E+04  0.7818609E-02  0.9034549E-01
        1   -1    0    0  501    0  0.00000000000E+00  0.00000000000E+00  0.10369210494E+04  0.10369210494E+04  0.50400001928E-02 0. -1.
       -1   -1    0    0    0  501  0.00000000000E+00  0.00000000000E+00 -0.40353795456E+03  0.40353795459E+03  0.50400001928E-02 0.  1.
    10030    2    1    2    0    0  0.00000000000E+00  0.00000000000E+00  0.63338309487E+03  0.14404590040E+04  0.12937341293E+04 0.  0.
        5    1    3    3  502    0  0.29156983581E+03  0.16236323876E+03  0.93364646498E+03  0.99151026320E+03  0.46999998093E+01 0. -1.
       -5    1    3    3    0  502 -0.29156983581E+03 -0.16236323876E+03 -0.30026337011E+03  0.44894874082E+03  0.46999998093E+01 0.  1.
</event>
<event>
 5   0  0.2356769E-03  0.1308854E+04  0.7818609E-02  0.9022573E-01
       -1   -1    0    0    0  501  0.00000000000E+00  0.00000000000E+00  0.24299598781E+03  0.24299598786E+03  0.50400001928E-02 0. -1.
        1   -1    0    0  501    0  0.00000000000E+00  0.00000000000E+00 -0.17624761141E+04  0.17624761141E+04  0.50400001928E-02 0.  1.
    10030    2    1    2    0    0  0.00000000000E+00  0.00000000000E+00 -0.15194801263E+04  0.20054721019E+04  0.13088538870E+04 0.  0.
        1    1    3    3  502    0  0.17433553456E+03  0.59486385235E+03 -0.43826723141E+03  0.75916667972E+03  0.50400001928E-02 0. -1.
       -1    1    3    3    0  502 -0.17433553456E+03 -0.59486385235E+03 -0.10812128948E+04  0.12463054222E+04  0.50400001928E-02 0.  1.
</event>
<event>
 5   0  0.4306214E-03  0.1342115E+04  0.7818609E-02  0.8996818E-01
       -2   -1    0    0    0  501  0.00000000000E+00  0.00000000000E+00  0.59904577223E+03  0.59904577223E+03  0.25500000920E-02 0. -1.
        2   -1    0    0  501    0  0.00000000000E+00  0.00000000000E+00 -0.75172619999E+03  0.75172619999E+03  0.25500000920E-02 0.  1.
    10030    2    1    2    0    0  0.00000000000E+00  0.00000000000E+00 -0.15268042776E+03  0.13507719722E+04  0.13421153482E+04 0.  0.
        3    1    3    3  502    0 -0.28065182711E+03 -0.48679657674E+03 -0.44556066263E+03  0.71711970373E+03  0.10100000352E+00 0.  1.
       -3    1    3    3    0  502  0.28065182711E+03  0.48679657674E+03  0.29288023488E+03  0.63365226850E+03  0.10100000352E+00 0. -1.
</event>
<event>
 5   0  0.1661750E-03  0.1275768E+04  0.7818609E-02  0.9049005E-01
        4   -1    0    0  501    0  0.00000000000E+00  0.00000000000E+00  0.15715145406E+04  0.15715150538E+04  0.12699999809E+01 0.  1.
       -4   -1    0    0    0  501  0.00000000000E+00  0.00000000000E+00 -0.25891754980E+03  0.25892066448E+03  0.12699999809E+01 0. -1.
    10030    2    1    2    0    0  0.00000000000E+00  0.00000000000E+00  0.13125969908E+04  0.18304357183E+04  0.12757680269E+04 0.  0.
        5    1    3    3  502    0 -0.33415047765E+02  0.96008024944E+02 -0.24719737054E+03  0.26732515084E+03  0.46999998093E+01 0. -1.
       -5    1    3    3    0  502  0.33415047765E+02 -0.96008024944E+02  0.15597943614E+04  0.15631105674E+04  0.46999998093E+01 0.  1.
</event>
<event>
 5   0  0.4310889E-03  0.1242760E+04  0.7818609E-02  0.9076231E-01
       -2   -1    0    0    0  501  0.00000000000E+00  0.00000000000E+00  0.20987373716E+03  0.20987373717E+03  0.25500000920E-02 0.  1.
        2   -1    0    0  501    0  0.00000000000E+00  0.00000000000E+00 -0.18397401780E+04  0.18397401780E+04  0.25500000920E-02 0. -1.
    10030    2    1    2    0    0  0.00000000000E+00  0.00000000000E+00 -0.16298664408E+04  0.20496139151E+04  0.12427600679E+04 0.  0.
        4    1    3    3  502    0 -0.15896131111E+03  0.34429696592E+03 -0.16267605353E+04  0.16703773680E+04  0.12699999809E+01 0. -1.
       -4    1    3    3    0  502  0.15896131111E+03 -0.34429696592E+03 -0.31059054844E+01  0.37923654719E+03  0.12699999809E+01 0.  1.
</event>
<event>
 5   0  0.1661750E-03  0.1314920E+04  0.7818609E-02  0.9017817E-01
       -3   -1    0    0    0  501  0.00000000000E+00  0.00000000000E+00  0.22920893179E+03  0.22920895404E+03  0.10100000352E+00 0.  1.
        3   -1    0    0  501    0  0.00000000000E+00  0.00000000000E+00 -0.18858488701E+04  0.18858488728E+04  0.10100000352E+00 0. -1.
    10030    2    1    2    0    0  0.00000000000E+00  0.00000000000E+00 -0.16566399383E+04  0.21150578268E+04  0.13149196651E+04 0.  0.
        1    1    3    3  502    0 -0.21397849031E+03  0.10935407851E+03 -0.18126795257E+04  0.18285382609E+04  0.50400001928E-02 0. -1.
       -1    1    3    3    0  502  0.21397849031E+03 -0.10935407851E+03  0.15603958738E+03  0.28651956592E+03  0.50400001928E-02 0.  1.
</event>
<event>
 5   0  0.2511542E-03  0.1300240E+04  0.7818609E-02  0.9029375E-01
        1   -1    0    0  501    0  0.00000000000E+00  0.00000000000E+00  0.69050256442E+03  0.69050256443E+03  0.50400001928E-02 0.  1.
       -1   -1    0    0    0  501  0.00000000000E+00  0.00000000000E+00 -0.61209880840E+03  0.61209880842E+03  0.50400001928E-02 0. -1.
    10030    2    1    2    0    0  0.00000000000E+00  0.00000000000E+00  0.78403756012E+02  0.13026013729E+04  0.13002396655E+04 0.  0.
        4    1    3    3  502    0 -0.44757029164E+03 -0.22866846163E+03 -0.37391317060E+03  0.62643523476E+03  0.12699999809E+01 0. -1.
       -4    1    3    3    0  502  0.44757029164E+03  0.22866846163E+03  0.45231692661E+03  0.67616613809E+03  0.12699999809E+01 0.  1.
</event>
<event>
 5   0  0.4310889E-03  0.1332769E+04  0.7818609E-02  0.9003975E-01
        2   -1    0    0  501    0  0.00000000000E+00  0.00000000000E+00  0.12854416932E+04  0.12854416932E+04  0.25500000920E-02 0.  1.
       -2   -1    0    0    0  501  0.00000000000E+00  0.00000000000E+00 -0.34545967631E+03  0.34545967632E+03  0.25500000920E-02 0. -1.
    10030    2    1    2    0    0  0.00000000000E+00  0.00000000000E+00  0.93998201688E+03  0.16309013695E+04  0.13327689541E+04 0.  0.
        4    1    3    3  502    0  0.56142579187E+03  0.35848633725E+03  0.49305640955E+03  0.82874459858E+03  0.12699999809E+01 0. -1.
       -4    1    3    3    0  502 -0.56142579187E+03 -0.35848633725E+03  0.44692560733E+03  0.80215677094E+03  0.12699999809E+01 0.  1.
</event>
<event>
 5   0  0.4453011E-03  0.1369415E+04  0.7818609E-02  0.8976260E-01
       -2   -1    0    0    0  501  0.00000000000E+00  0.00000000000E+00  0.31781866467E+03  0.31781866468E+03  0.25500000920E-02 0. -1.
        2   -1    0    0  501    0  0.00000000000E+00  0.00000000000E+00 -0.14751317276E+04  0.14751317276E+04  0.25500000920E-02 0.  1.
    10030    2    1    2    0    0  0.00000000000E+00  0.00000000000E+00 -0.11573130629E+04  0.17929503923E+04  0.13694150516E+04 0.  0.
        1    1    3    3  502    0 -0.63583691977E+03  0.24852338242E+03 -0.50972391646E+03  0.85198059320E+03  0.50400001928E-02 0.  1.
       -1    1    3    3    0  502  0.63583691977E+03 -0.24852338242E+03 -0.64758914648E+03  0.94096979909E+03  0.50400001928E-02 0. -1.
</event>
<event>
 5   0  0.4263540E-03  0.1253293E+04  0.7818609E-02  0.9067447E-01
        2   -1    0    0  501    0  0.00000000000E+00  0.00000000000E+00  0.82977345682E+03  0.82977345682E+03  0.25500000920E-02 0. -1.
       -2   -1    0    0    0  501  0.00000000000E+00  0.00000000000E+00 -0.47324469224E+03  0.47324469225E+03  0.25500000920E-02 0.  1.
    10030    2    1    2    0    0  0.00000000000E+00  0.00000000000E+00  0.35652876457E+03  0.13030181491E+04  0.12532930770E+04 0.  0.
        2    1    3    3  502    0 -0.41735627869E+03  0.42464893609E+03  0.38139501083E+03  0.70708919987E+03  0.25500000920E-02 0. -1.
       -2    1    3    3    0  502  0.41735627869E+03 -0.42464893609E+03 -0.24866246260E+02  0.59592894920E+03  0.25500000920E-02 0.  1.
</event>
<event>
 5   0  0.2370801E-03  0.1319533E+04  0.7818609E-02  0.9014217E-01
        1   -1    0    0  501    0  0.00000000000E+00  0.00000000000E+00  0.90483063958E+03  0.90483063959E+03  0.50400001928E-02 0.  1.
       -1   -1    0    0    0  501  0.00000000000E+00  0.00000000000E+00 -0.48107536177E+03  0.48107536180E+03  0.50400001928E-02 0. -1.
    10030    2    1    2    0    0  0.00000000000E+00  0.00000000000E+00  0.42375527780E+03  0.13859060014E+04  0.13195328375E+04 0.  0.
        3    1    3    3  502    0  0.33214915065E+03  0.45620329863E+03  0.57090103023E+03  0.80272816350E+03  0.10100000352E+00 0.  1.
       -3    1    3    3    0  502 -0.33214915065E+03 -0.45620329863E+03 -0.14714575243E+03  0.58317783789E+03  0.10100000352E+00 0. -1.
</event>
<event>
 5   0  0.1661750E-03  0.1281081E+04  0.7818609E-02  0.9044704E-01
       -3   -1    0    0    0  501  0.00000000000E+00  0.00000000000E+00  0.61210197389E+03  0.61210198222E+03  0.10100000352E+00 0.  1.
        3   -1    0    0  501    0  0.00000000000E+00  0.00000000000E+00 -0.67030029576E+03  0.67030030337E+03  0.10100000352E+00 0. -1.
    10030    2    1    2    0    0  0.00000000000E+00  0.00000000000E+00 -0.58198321876E+02  0.12824022856E+04  0.12810810191E+04 0.  0.
        1    1    3    3  502    0  0.46239683683E+03 -0.10523987109E+03 -0.46013108541E+03  0.66076234833E+03  0.50400001928E-02 0. -1.
       -1    1    3    3    0  502 -0.46239683683E+03  0.10523987109E+03  0.40193276354E+03  0.62163993727E+03  0.50400001928E-02 0.  1.
</event>
<event>
 5   0  0.2356769E-03  0.1258996E+04  0.7818609E-02  0.9062729E-01
       -1   -1    0    0    0  501  0.00000000000E+00  0.00000000000E+00  0.40543345653E+03  0.40543345656E+03  0.50400001928E-02 0.  1.
        1   -1    0    0  501    0  0.00000000000E+00  0.00000000000E+00 -0.97739282319E+03  0.97739282321E+03  0.50400001928E-02 0. -1.
    10030    2    1    2    0    0  0.00000000000E+00  0.00000000000E+00 -0.57195936667E+03  0.13828262798E+04  0.12589960297E+04 0.  0.
        1    1    3    3  502    0 -0.20864994552E+03 -0.30873986755E+03  0.27128074261E+03  0.46092119382E+03  0.50400001928E-02 0.  1.
       -1    1    3    3    0  502  0.20864994552E+03  0.30873986755E+03 -0.84324010927E+03  0.92190508594E+03  0.50400001928E-02 0. -1.
</event>
<event>
 5   0  0.2462055E-03  0.1284503E+04  0.7818609E-02  0.9041945E-01
        1   -1    0    0  501    0  0.00000000000E+00  0.00000000000E+00  0.82848309748E+03  0.82848309749E+03  0.50400001928E-02 0.  1.
       -1   -1    0    0    0  501  0.00000000000E+00  0.00000000000E+00 -0.49788258394E+03  0.49788258397E+03  0.50400001928E-02 0. -1.
    10030    2    1    2    0    0  0.00000000000E+00  0.00000000000E+00  0.33060051353E+03  0.13263656815E+04  0.12845034922E+04 0.  0.
        2    1    3    3  502    0 -0.62348975382E+02 -0.59545344823E+03 -0.74729990927E+02  0.60335460161E+03  0.25500000920E-02 0. -1.
       -2    1    3    3    0  502  0.62348975382E+02  0.59545344823E+03  0.40533050446E+03  0.72301107985E+03  0.25500000920E-02 0.  1.
</event>
<event>
 5   0  0.4263540E-03  0.1300647E+04  0.7818609E-02  0.9029052E-01
        2   -1    0    0  501    0  0.00000000000E+00  0.00000000000E+00  0.42156792165E+03  0.42156792166E+03  0.25500000920E-02 0.  1.
       -2   -1    0    0    0  501  0.00000000000E+00  0.00000000000E+00 -0.10032092079E+04  0.10032092079E+04  0.25500000920E-02 0. -1.
    10030    2    1    2    0    0  0.00000000000E+00  0.00000000000E+00 -0.58164128621E+03  0.14247771295E+04  0.13006472554E+04 0.  0.
        2    1    3    3  502    0 -0.14913868182E+03 -0.29662816956E+03  0.32173358776E+03  0.46232360840E+03  0.25500000920E-02 0.  1.
       -2    1    3    3    0  502  0.14913868182E+03  0.29662816956E+03 -0.90337487397E+03  0.96245352112E+03  0.25500000920E-02 0. -1.
</event>
<event>
 5   0  0.4388937E-03  0.1279618E+04  0.7818609E-02  0.9045886E-01
       -2   -1    0    0    0  501  0.00000000000E+00  0.00000000000E+00  0.25086671987E+03  0.25086671989E+03  0.25500000920E-02 0.  1.
        2   -1    0    0  501    0  0.00000000000E+00  0.00000000000E+00 -0.16317657690E+04  0.16317657691E+04  0.25500000920E-02 0. -1.
    10030    2    1    2    0    0  0.00000000000E+00  0.00000000000E+00 -0.13808990492E+04  0.18826324889E+04  0.12796182651E+04 0.  0.
        5    1    3    3  502    0  0.22560237897E+03  0.59596786407E+03 -0.60645303734E+03  0.87970535118E+03  0.46999998093E+01 0. -1.
       -5    1    3    3    0  502 -0.22560237897E+03 -0.59596786407E+03 -0.77444601184E+03  0.10029271378E+04  0.46999998093E+01 0.  1.
</event>
<event>
 5   0  0.2356769E-03  0.1234560E+04  0.7818609E-02  0.9083132E-01
        1   -1    0    0  501    0  0.00000000000E+00  0.00000000000E+00  0.85709572024E+03  0.85709572026E+03  0.50400001928E-02 0.  1.
       -1   -1    0    0    0  501  0.00000000000E+00  0.00000000000E+00 -0.44456509928E+03  0.44456509931E+03  0.50400001928E-02 0. -1.
    10030    2    1    2    0    0  0.00000000000E+00  0.00000000000E+00  0.41253062096E+03  0.13016608196E+04  0.12345603979E+04 0.  0.
        1    1    3    3  502    0 -0.39302914953E+03 -0.47535556569E+03  0.18043869247E+03  0.64264527384E+03  0.50400001928E-02 0. -1.
       -1    1    3    3    0  502  0.39302914953E+03  0.47535556569E+03  0.23209192850E+03  0.65901554573E+03  0.50400001928E-02 0.  1.
</event>
<event>
 5   0  0.4453011E-03  0.1557495E+04  0.7818609E-02  0.8847094E-01
        2   -1    0    0  501    0  0.00000000000E+00  0.00000000000E+00  0.86623416559E+03  0.86623416560E+03  0.25500000920E-02 0.  1.
       -2   -1    0    0    0  501  0.00000000000E+00  0.00000000000E+00 -0.70009712635E+03  0.70009712636E+03  0.25500000920E-02 0. -1.
    10030    2    1    2    0    0  0.00000000000E+00  0.00000000000E+00  0.16613703924E+03  0.15663312920E+04  0.15574954897E+04 0.  0.
        1    1    3    3  502    0 -0.59873127959E+02 -0.29209181743E+03 -0.64041917535E+03  0.70642702485E+03  0.50400001928E-02 0. -1.
       -1    1    3    3    0  502  0.59873127959E+02  0.29209181743E+03  0.80655621459E+03  0.85990426710E+03  0.50400001928E-02 0.  1.
</event>
<event>
 5   0  0.2356769E-03  0.1221761E+04  0.7818609E-02  0.9094020E-01
        1   -1    0    0  501    0  0.00000000000E+00  0.00000000000E+00  0.25004151900E+04  0.25004151900E+04  0.50400001928E-02 0. -1.
       -1   -1    0    0    0  501  0.00000000000E+00  0.00000000000E+00 -0.14924508833E+03  0.14924508841E+03  0.50400001928E-02 0.  1.
    10030    2    1    2    0    0  0.00000000000E+00  0.00000000000E+00  0.23511701017E+04  0.26496602785E+04  0.12217605101E+04 0.  0.
        1    1    3    3  502    0  0.45031319326E+03  0.11857020530E+03  0.31809205369E+03  0.56393565258E+03  0.50400001928E-02 0.  1.
       -1    1    3    3    0  502 -0.45031319326E+03 -0.11857020530E+03  0.20330780480E+04  0.20857246259E+04  0.50400001928E-02 0. -1.
</event>
<event>
 5   0  0.4388937E-03  0.1282763E+04  0.7818609E-02  0.9043347E-01
        2   -1    0    0  501    0  0.00000000000E+00  0.00000000000E+00  0.18945142543E+04  0.18945142543E+04  0.25500000920E-02 0.  1.
       -2   -1    0    0    0  501  0.00000000000E+00  0.00000000000E+00 -0.21713760683E+03  0.21713760684E+03  0.25500000920E-02 0. -1.
    10030    2    1    2    0    0  0.00000000000E+00  0.00000000000E+00  0.16773766475E+04  0.21116518612E+04  0.12827630979E+04 0.  0.
        5    1    3    3  502    0  0.37586339257E+03  0.10432753706E+03  0.16767684638E+04  0.17215493301E+04  0.46999998093E+01 0.  1.
       -5    1    3    3    0  502 -0.37586339257E+03 -0.10432753706E+03  0.60818371704E+00  0.39010253107E+03  0.46999998093E+01 0. -1.
</event>
<event>
 5   0  0.4310889E-03  0.1294361E+04  0.7818609E-02  0.9034049E-01
        2   -1    0    0  501    0  0.00000000000E+00  0.00000000000E+00  0.14693864914E+04  0.14693864914E+04  0.25500000920E-02 0.  1.
       -2   -1    0    0    0  501  0.00000000000E+00  0.00000000000E+00 -0.28504595360E+03  0.28504595361E+03  0.25500000920E-02 0. -1.
    10030    2    1    2    0    0  0.00000000000E+00  0.00000000000E+00  0.11843405378E+04  0.17544324450E+04  0.12943611144E+04 0.  0.
        4    1    3    3  502    0  0.40779306138E+03  0.49765598947E+03  0.49744046780E+03  0.81326828087E+03  0.12699999809E+01 0. -1.
       -4    1    3    3    0  502 -0.40779306138E+03 -0.49765598947E+03  0.68690006996E+03  0.94116416410E+03  0.12699999809E+01 0.  1.
</event>
<event>
 5   0  0.4388937E-03  0.1301950E+04  0.7818609E-02  0.9028020E-01
       -2   -1    0    0    0  501  0.00000000000E+00  0.00000000000E+00  0.93766750437E+03  0.93766750437E+03  0.25500000920E-02 0. -1.
        2   -1    0    0  501    0  0.00000000000E+00  0.00000000000E+00 -0.45193869163E+03  0.45193869164E+03  0.25500000920E-02 0.  1.
    10030    2    1    2    0    0  0.00000000000E+00  0.00000000000E+00  0.48572881273E+03  0.13896061960E+04  0.13019496536E+04 0.  0.
        5    1    3    3  502    0 -0.49843977404E+03 -0.40707290137E+03  0.13831220991E+03  0.65825748214E+03  0.46999998093E+01 0.  1.
       -5    1    3    3    0  502  0.49843977404E+03  0.40707290137E+03  0.34741660282E+03  0.73134871388E+03  0.46999998093E+01 0. -1.
</event>
<event>
 5   0  0.4388937E-03  0.1293480E+04  0.7818609E-02  0.9034751E-01
        2   -1    0    0  501    0  0.00000000000E+00  0.00000000000E+00  0.32827547831E+03  0.32827547832E+03  0.25500000920E-02 0.  1.
       -2   -1    0    0    0  501  0.00000000000E+00  0.00000000000E+00 -0.12741517679E+04  0.12741517679E+04  0.25500000920E-02 0. -1.
    10030    2    1    2    0    0  0.00000000000E+00  0.00000000000E+00 -0.94587628956E+03  0.16024272462E+04  0.12934802373E+04 0.  0.
        5    1    3    3  502    0 -0.43194871085E+03 -0.18415702627E+02 -0.10687871955E+04  0.11529297404E+04  0.46999998093E+01 0. -1.
       -5    1    3    3    0  502  0.43194871085E+03  0.18415702627E+02  0.12291090599E+03  0.44949750580E+03  0.46999998093E+01 0.  1.
</event>
<event>
 5   0  0.1661750E-03  0.1213079E+04  0.7818609E-02  0.9101485E-01
       -4   -1    0    0    0  501  0.00000000000E+00  0.00000000000E+00  0.93779817007E+03  0.93779903001E+03  0.12699999809E+01 0.  1.
        4   -1    0    0  501    0  0.00000000000E+00  0.00000000000E+00 -0.39228919568E+03  0.39229125142E+03  0.12699999809E+01 0. -1.
    10030    2    1    2    0    0  0.00000000000E+00  0.00000000000E+00  0.54550897439E+03  0.13300902814E+04  0.12130787755E+04 0.  0.
        4    1    3    3  502    0 -0.35270860053E+03 -0.17078823467E+03  0.78035243464E+03  0.87322592332E+03  0.12699999809E+01 0.  1.
       -4    1    3    3    0  502  0.35270860053E+03  0.17078823467E+03 -0.23484346025E+03  0.45686435812E+03  0.12699999809E+01 0. -1.
</event>
<event>
 5   0  0.4453011E-03  0.1355412E+04  0.7818609E-02  0.8986741E-01
        2   -1    0    0  501    0  0.00000000000E+00  0.00000000000E+00  0.66862656317E+03  0.66862656318E+03  0.25500000920E-02 0. -1.
       -2   -1    0    0    0  501  0.00000000000E+00  0.00000000000E+00 -0.68690867141E+03  0.68690867142E+03  0.25500000920E-02 0.  1.
    10030    2    1    2    0    0  0.00000000000E+00  0.00000000000E+00 -0.18282108239E+02  0.13555352346E+04  0.13554119436E+04 0.  0.
        1    1    3    3  502    0  0.47970256492E+02 -0.50452672506E+03  0.44082989183E+03  0.67169885765E+03  0.50400001928E-02 0. -1.
       -1    1    3    3    0  502 -0.47970256492E+02  0.50452672506E+03 -0.45911200007E+03  0.68383637695E+03  0.50400001928E-02 0.  1.
</event>
<event>
 5   0  0.2462055E-03  0.1354298E+04  0.7818609E-02  0.8987581E-01
       -1   -1    0    0    0  501  0.00000000000E+00  0.00000000000E+00  0.13733959218E+04  0.13733959218E+04  0.50400001928E-02 0.  1.
        1   -1    0    0  501    0  0.00000000000E+00  0.00000000000E+00 -0.33386656257E+03  0.33386656260E+03  0.50400001928E-02 0. -1.
    10030    2    1    2    0    0  0.00000000000E+00  0.00000000000E+00  0.10395293592E+04  0.17072624844E+04  0.13542983061E+04 0.  0.
        2    1    3    3  502    0  0.28664392904E+03 -0.61216521843E+03  0.57050352992E+03  0.88452545151E+03  0.25500000920E-02 0.  1.
       -2    1    3    3    0  502 -0.28664392904E+03  0.61216521843E+03  0.46902582927E+03  0.82273703286E+03  0.25500000920E-02 0. -1.
</event>
<event>
 5   0  0.4310889E-03  0.1195219E+04  0.7818609E-02  0.9117052E-01
       -2   -1    0    0    0  501  0.00000000000E+00  0.00000000000E+00  0.11511749772E+04  0.11511749772E+04  0.25500000920E-02 0.  1.
        2   -1    0    0  501    0  0.00000000000E+00  0.00000000000E+00 -0.31023691607E+03  0.31023691608E+03  0.25500000920E-02 0. -1.
    10030    2    1    2    0    0  0.00000000000E+00  0.00000000000E+00  0.84093806111E+03  0.14614118933E+04  0.11952187662E+04 0.  0.
        4    1    3    3  502    0  0.31049183666E+03  0.44177411621E+03  0.10738280975E+03  0.55054721062E+03  0.12699999809E+01 0. -1.
       -4    1    3    3    0  502 -0.31049183666E+03 -0.44177411621E+03  0.73355525135E+03  0.91086468264E+03  0.12699999809E+01 0.  1.
</event>
<event>
 5   0  0.2370801E-03  0.1313591E+04  0.7818609E-02  0.9018856E-01
       -1   -1    0    0    0  501  0.00000000000E+00  0.00000000000E+00  0.47889664848E+03  0.47889664851E+03  0.50400001928E-02 0. -1.
        1   -1    0    0  501    0  0.00000000000E+00  0.00000000000E+00 -0.90078002937E+03  0.90078002938E+03  0.50400001928E-02 0.  1.
    10030    2    1    2    0    0  0.00000000000E+00  0.00000000000E+00 -0.42188338089E+03  0.13796766779E+04  0.13135913171E+04 0.  0.
        3    1    3    3  502    0 -0.31442736147E+03  0.53423173765E+03  0.17031996209E+02  0.62012757901E+03  0.10100000352E+00 0. -1.
       -3    1    3    3    0  502  0.31442736147E+03 -0.53423173765E+03 -0.43891537710E+03  0.75954909888E+03  0.10100000352E+00 0.  1.
</event>
<event>
 5   0  0.4306214E-03  0.1297629E+04  0.7818609E-02  0.9031447E-01
        2   -1    0    0  501    0  0.00000000000E+00  0.00000000000E+00  0.17690760104E+04  0.17690760104E+04  0.25500000920E-02 0.  1.
       -2   -1    0    0    0  501  0.00000000000E+00  0.00000000000E+00 -0.23795493810E+03  0.23795493812E+03  0.25500000920E-02 0. -1.
    10030    2    1    2    0    0  0.00000000000E+00  0.00000000000E+00  0.15311210723E+04  0.20070309485E+04  0.12976291806E+04 0.  0.
        3    1    3    3  502    0 -0.69006236025E+02  0.13441005570E+03 -0.21036627250E+03  0.25900174225E+03  0.10100000352E+00 0. -1.
       -3    1    3    3    0  502  0.69006236025E+02 -0.13441005570E+03  0.17414873448E+04  0.17480292063E+04  0.10100000352E+00 0.  1.
</event>
<event>
 5   0  0.2511542E-03  0.1310728E+04  0.7818609E-02  0.9021101E-01
        1   -1    0    0  501    0  0.00000000000E+00  0.00000000000E+00  0.18596905850E+04  0.18596905850E+04  0.50400001928E-02 0.  1.
       -1   -1    0    0    0  501  0.00000000000E+00  0.00000000000E+00 -0.23095345699E+03  0.23095345704E+03  0.50400001928E-02 0. -1.
    10030    2    1    2    0    0  0.00000000000E+00  0.00000000000E+00  0.16287371280E+04  0.20906440420E+04  0.13107279956E+04 0.  0.
        4    1    3    3  502    0 -0.64960844334E+03 -0.18683780331E+02  0.67940132018E+03  0.94017444130E+03  0.12699999809E+01 0. -1.
       -4    1    3    3    0  502  0.64960844334E+03  0.18683780331E+02  0.94933580780E+03  0.11504696007E+04  0.12699999809E+01 0.  1.
</event>
<event>
 5   0  0.4453011E-03  0.1307849E+04  0.7818609E-02  0.9023364E-01
        2   -1    0    0  501    0  0.00000000000E+00  0.00000000000E+00  0.71252417502E+03  0.71252417502E+03  0.25500000920E-02 0. -1.
       -2   -1    0    0    0  501  0.00000000000E+00  0.00000000000E+00 -0.60014382451E+03  0.60014382451E+03  0.25500000920E-02 0.  1.
    10030    2    1    2    0    0  0.00000000000E+00  0.00000000000E+00  0.11238035051E+03  0.13126679995E+04  0.13078485898E+04 0.  0.
        1    1    3    3  502    0 -0.42907338108E+03 -0.26533416761E+03  0.47378923008E+03  0.69208555932E+03  0.50400001928E-02 0.  1.
       -1    1    3    3    0  502  0.42907338108E+03  0.26533416761E+03 -0.36140887957E+03  0.62058244022E+03  0.50400001928E-02 0. -1.
</event>
<event>
 5   0  0.2458456E-03  0.1280797E+04  0.7818609E-02  0.9044934E-01
        1   -1    0    0  501    0  0.00000000000E+00  0.00000000000E+00  0.66033028922E+03  0.66033028924E+03  0.50400001928E-02 0. -1.
       -1   -1    0    0    0  501  0.00000000000E+00  0.00000000000E+00 -0.62106821603E+03  0.62106821605E+03  0.50400001928E-02 0.  1.
    10030    2    1    2    0    0  0.00000000000E+00  0.00000000000E+00  0.39262073184E+02  0.12813985053E+04  0.12807968687E+04 0.  0.
        5    1    3    3  502    0 -0.39848712831E+03  0.46882733317E+03  0.19718835833E+03  0.64613961217E+03  0.46999998093E+01 0. -1.
       -5    1    3    3    0  502  0.39848712831E+03 -0.46882733317E+03 -0.15792628514E+03  0.63525889312E+03  0.46999998093E+01 0.  1.
</event>
<event>
 5   0  0.2511542E-03  0.1298028E+04  0.7818609E-02  0.9031131E-01
       -1   -1    0    0    0  501  0.00000000000E+00  0.00000000000E+00  0.57916548988E+03  0.57916548990E+03  0.50400001928E-02 0.  1.
        1   -1    0    0  501    0  0.00000000000E+00  0.00000000000E+00 -0.72728617463E+03  0.72728617465E+03  0.50400001928E-02 0. -1.
    10030    2    1    2    0    0  0.00000000000E+00  0.00000000000E+00 -0.14812068475E+03  0.13064516645E+04  0.12980278173E+04 0.  0.
        4    1    3    3  502    0 -0.63890054689E+03  0.66249217213E+02 -0.16758578736E+03  0.66382940325E+03  0.12699999809E+01 0.  1.
       -4    1    3    3    0  502  0.63890054689E+03 -0.66249217213E+02  0.19465102606E+02  0.64262226130E+03  0.12699999809E+01 0. -1.
</event>
<event>
 5   0  0.4306214E-03  0.1298637E+04  0.7818609E-02  0.9030646E-01
       -2   -1    0    0    0  501  0.00000000000E+00  0.00000000000E+00  0.97038221418E+03  0.97038221418E+03  0.25500000920E-02 0. -1.
        2   -1    0    0  501    0  0.00000000000E+00  0.00000000000E+00 -0.43448321153E+03  0.43448321153E+03  0.25500000920E-02 0.  1.
    10030    2    1    2    0    0  0.00000000000E+00  0.00000000000E+00  0.53589900265E+03  0.14048654257E+04  0.12986374103E+04 0.  0.
        3    1    3    3  502    0 -0.23455847634E+03  0.14174174741E+03 -0.36884957622E+03  0.45951977308E+03  0.10100000352E+00 0.  1.
       -3    1    3    3    0  502  0.23455847634E+03 -0.14174174741E+03  0.90474857887E+03  0.94534565263E+03  0.10100000352E+00 0. -1.
</event>
<event>
 5   0  0.2458456E-03  0.1334482E+04  0.7818609E-02  0.9002659E-01
        1   -1    0    0  501    0  0.00000000000E+00  0.00000000000E+00  0.90847874823E+03  0.90847874825E+03  0.50400001928E-02 0. -1.
       -1   -1    0    0    0  501  0.00000000000E+00  0.00000000000E+00 -0.49006151318E+03  0.49006151321E+03  0.50400001928E-02 0.  1.
    10030    2    1    2    0    0  0.00000000000E+00  0.00000000000E+00  0.41841723505E+03  0.13985402615E+04  0.13344818771E+04 0.  0.
        5    1    3    3  502    0 -0.11444610357E+02  0.62926898784E+03 -0.22961041942E+02  0.62980928670E+03  0.46999998093E+01 0. -1.
       -5    1    3    3    0  502  0.11444610357E+02 -0.62926898784E+03  0.44137827699E+03  0.76873097476E+03  0.46999998093E+01 0.  1.
</event>
<event>
 5   0  0.2370801E-03  0.1281404E+04  0.7818609E-02  0.9044443E-01
        1   -1    0    0  501    0  0.00000000000E+00  0.00000000000E+00  0.12892834877E+04  0.12892834877E+04  0.50400001928E-02 0.  1.
       -1   -1    0    0    0  501  0.00000000000E+00  0.00000000000E+00 -0.31839309546E+03  0.31839309550E+03  0.50400001928E-02 0. -1.
    10030    2    1    2    0    0  0.00000000000E+00  0.00000000000E+00  0.97089039222E+03  0.16076765832E+04  0.12814038561E+04 0.  0.
        3    1    3    3  502    0 -0.44470566190E+03  0.16338878758E+03  0.10265928024E+04  0.11306422130E+04  0.10100000352E+00 0.  1.
       -3    1    3    3    0  502  0.44470566190E+03 -0.16338878758E+03 -0.55702410204E+02  0.47703437019E+03  0.10100000352E+00 0. -1.
</event>
<event>
 5   0  0.2462055E-03  0.1320473E+04  0.7818609E-02  0.9013485E-01
       -1   -1    0    0    0  501  0.00000000000E+00  0.00000000000E+00  0.47614919459E+03  0.47614919461E+03  0.50400001928E-02 0. -1.
        1   -1    0    0  501    0  0.00000000000E+00  0.00000000000E+00 -0.91549552251E+03  0.91549552252E+03  0.50400001928E-02 0.  1.
    10030    2    1    2    0    0  0.00000000000E+00  0.00000000000E+00 -0.43934632792E+03  0.13916447171E+04  0.13204733329E+04 0.  0.
        2    1    3    3  502    0  0.42135613691E+03 -0.30460363016E+02  0.31506331705E+03  0.52700447966E+03  0.25500000920E-02 0. -1.
       -2    1    3    3    0  502 -0.42135613691E+03  0.30460363016E+02 -0.75440964497E+03  0.86464023747E+03  0.25500000920E-02 0.  1.
</event>
<event>
 5   0  0.4263540E-03  0.1318808E+04  0.7818609E-02  0.9014782E-01
       -2   -1    0    0    0  501  0.00000000000E+00  0.00000000000E+00  0.46689216530E+03  0.46689216530E+03  0.25500000920E-02 0. -1.
        2   -1    0    0  501    0  0.00000000000E+00  0.00000000000E+00 -0.93129399621E+03  0.93129399621E+03  0.25500000920E-02 0.  1.
    10030    2    1    2    0    0  0.00000000000E+00  0.00000000000E+00 -0.46440183091E+03  0.13981861615E+04  0.13188083567E+04 0.  0.
        2    1    3    3  502    0  0.42582547023E+03 -0.33528874508E+03 -0.63039752561E+03  0.83135246074E+03  0.25500000920E-02 0.  1.
       -2    1    3    3    0  502 -0.42582547023E+03  0.33528874508E+03  0.16599569470E+03  0.56683370078E+03  0.25500000920E-02 0. -1.
</event>
<event>
 5   0  0.2462055E-03  0.1302595E+04  0.7818609E-02  0.9027510E-01
        1   -1    0    0  501    0  0.00000000000E+00  0.00000000000E+00  0.10911323991E+04  0.10911323991E+04  0.50400001928E-02 0.  1.
       -1   -1    0    0    0  501  0.00000000000E+00  0.00000000000E+00 -0.38875962404E+03  0.38875962407E+03  0.50400001928E-02 0. -1.
    10030    2    1    2    0    0  0.00000000000E+00  0.00000000000E+00  0.70237277502E+03  0.14798920231E+04  0.13025946741E+04 0.  0.
        2    1    3    3  502    0 -0.46651196491E+03 -0.44660761689E+03  0.25547995386E+03  0.69452270207E+03  0.25500000920E-02 0. -1.
       -2    1    3    3    0  502  0.46651196491E+03  0.44660761689E+03  0.44689282116E+03  0.78536932107E+03  0.25500000920E-02 0.  1.
</event>
<event>
 5   0  0.2462055E-03  0.1208410E+04  0.7818609E-02  0.9105527E-01
        1   -1    0    0  501    0  0.00000000000E+00  0.00000000000E+00  0.63002961467E+03  0.63002961469E+03  0.50400001928E-02 0.  1.
       -1   -1    0    0    0  501  0.00000000000E+00  0.00000000000E+00 -0.57943929175E+03  0.57943929177E+03  0.50400001928E-02 0. -1.
    10030    2    1    2    0    0  0.00000000000E+00  0.00000000000E+00  0.50590322919E+02  0.12094689065E+04  0.12084103835E+04 0.  0.
        2    1    3    3  502    0  0.12783536308E+03 -0.56887484166E+03  0.18387462688E+03  0.61136760132E+03  0.25500000920E-02 0.  1.
       -2    1    3    3    0  502 -0.12783536308E+03  0.56887484166E+03 -0.13328430396E+03  0.59810130514E+03  0.25500000920E-02 0. -1.
</event>
<event>
 5   0  0.2370801E-03  0.1373490E+04  0.7818609E-02  0.8973235E-01
       -1   -1    0    0    0  501  0.00000000000E+00  0.00000000000E+00  0.42640301899E+03  0.42640301902E+03  0.50400001928E-02 0.  1.
        1   -1    0    0  501    0  0.00000000000E+00  0.00000000000E+00 -0.11060393450E+04  0.11060393450E+04  0.50400001928E-02 0. -1.
    10030    2    1    2    0    0  0.00000000000E+00  0.00000000000E+00 -0.67963632598E+03  0.15324423640E+04  0.13734897391E+04 0.  0.
        3    1    3    3  502    0 -0.41865422172E+03  0.17304278218E+02 -0.94688929773E+03  0.10354564925E+04  0.10100000352E+00 0. -1.
       -3    1    3    3    0  502  0.41865422172E+03 -0.17304278218E+02  0.26725297175E+03  0.49698587155E+03  0.10100000352E+00 0.  1.
</event>
<event>
 5   0  0.4453011E-03  0.1268884E+04  0.7818609E-02  0.9054611E-01
       -2   -1    0    0    0  501  0.00000000000E+00  0.00000000000E+00  0.33328856565E+03  0.33328856566E+03  0.25500000920E-02 0. -1.
        2   -1    0    0  501    0  0.00000000000E+00  0.00000000000E+00 -0.12077113617E+04  0.12077113617E+04  0.25500000920E-02 0.  1.
    10030    2    1    2    0    0  0.00000000000E+00  0.00000000000E+00 -0.87442279609E+03  0.15409999274E+04  0.12688835841E+04 0.  0.
        1    1    3    3  502    0 -0.36691075438E+03 -0.65800338398E+02 -0.10606924025E+04  0.11242871336E+04  0.50400001928E-02 0.  1.
       -1    1    3    3    0  502  0.36691075438E+03  0.65800338398E+02  0.18626960636E+03  0.41671279377E+03  0.50400001928E-02 0. -1.
</event>
<event>
 5   0  0.4310889E-03  0.1321684E+04  0.7818609E-02  0.9012544E-01
       -2   -1    0    0    0  501  0.00000000000E+00  0.00000000000E+00  0.66653307792E+03  0.66653307793E+03  0.25500000920E-02 0. -1.
        2   -1    0    0  501    0  0.00000000000E+00  0.00000000000E+00 -0.65519967411E+03  0.65519967411E+03  0.25500000920E-02 0.  1.
    10030    2    1    2    0    0  0.00000000000E+00  0.00000000000E+00  0.11333403814E+02  0.13217327520E+04  0.13216841611E+04 0.  0.
        4    1    3    3  502    0 -0.26403813141E+03  0.34370822830E+03  0.50454289912E+03  0.66514406785E+03  0.12699999809E+01 0. -1.
       -4    1    3    3    0  502  0.26403813141E+03 -0.34370822830E+03 -0.49320949531E+03  0.65658868419E+03  0.12699999809E+01 0.  1.
</event>
<event>
 5   0  0.2356769E-03  0.1294217E+04  0.7818609E-02  0.9034164E-01
        1   -1    0    0  501    0  0.00000000000E+00  0.00000000000E+00  0.17330682131E+04  0.17330682131E+04  0.50400001928E-02 0.  1.
       -1   -1    0    0    0  501  0.00000000000E+00  0.00000000000E+00 -0.24162301903E+03  0.24162301908E+03  0.50400001928E-02 0. -1.
    10030    2    1    2    0    0  0.00000000000E+00  0.00000000000E+00  0.14914451941E+04  0.19746912322E+04  0.12942166339E+04 0.  0.
        1    1    3    3  502    0  0.16445734578E+03  0.33784510023E+03  0.15495698102E+04  0.15944755022E+04  0.50400001928E-02 0.  1.
       -1    1    3    3    0  502 -0.16445734578E+03 -0.33784510023E+03 -0.58124616122E+02  0.38021573002E+03  0.50400001928E-02 0. -1.
</event>
<event>
 5   0  0.4453011E-03  0.1262470E+04  0.7818609E-02  0.9059868E-01
        2   -1    0    0  501    0  0.00000000000E+00  0.00000000000E+00  0.30480995220E+03  0.30480995221E+03  0.25500000920E-02 0.  1.
       -2   -1    0    0    0  501  0.00000000000E+00  0.00000000000E+00 -0.13072334944E+04  0.13072334944E+04  0.25500000920E-02 0. -1.
    10030    2    1    2    0    0  0.00000000000E+00  0.00000000000E+00 -0.10024235422E+04  0.16120434466E+04  0.12624702435E+04 0.  0.
        1    1    3    3  502    0 -0.47788935727E+03 -0.34020237278E+03 -0.20355007771E+03  0.62092554014E+03  0.50400001928E-02 0.  1.
       -1    1    3    3    0  502  0.47788935727E+03  0.34020237278E+03 -0.79887346451E+03  0.99111790649E+03  0.50400001928E-02 0. -1.
</event>
<event>
 5   0  0.4310889E-03  0.1244956E+04  0.7818609E-02  0.9074392E-01
        2   -1    0    0  501    0  0.00000000000E+00  0.00000000000E+00  0.96303105491E+03  0.96303105492E+03  0.25500000920E-02 0. -1.
       -2   -1    0    0    0  501  0.00000000000E+00  0.00000000000E+00 -0.40235321636E+03  0.40235321637E+03  0.25500000920E-02 0.  1.
    10030    2    1    2    0    0  0.00000000000E+00  0.00000000000E+00  0.56067783856E+03  0.13653842713E+04  0.12449556497E+04 0.  0.
        4    1    3    3  502    0  0.53563311288E+02 -0.62016677967E+03  0.27915435266E+03  0.68220570829E+03  0.12699999809E+01 0.  1.
       -4    1    3    3    0  502 -0.53563311288E+02  0.62016677967E+03  0.28152348589E+03  0.68317856299E+03  0.12699999809E+01 0. -1.
</event>
<event>
 5   0  0.4388937E-03  0.1393549E+04  0.7818609E-02  0.8958501E-01
       -2   -1    0    0    0  501  0.00000000000E+00  0.00000000000E+00  0.56186131045E+03  0.56186131045E+03  0.25500000920E-02 0. -1.
        2   -1    0    0  501    0  0.00000000000E+00  0.00000000000E+00 -0.86408288614E+03  0.86408288614E+03  0.25500000920E-02 0.  1.
    10030    2    1    2    0    0  0.00000000000E+00  0.00000000000E+00 -0.30222157569E+03  0.14259441966E+04  0.13935490558E+04 0.  0.
        5    1    3    3  502    0  0.28227935342E+03  0.39300869808E+03  0.36187686474E+03  0.60424699037E+03  0.46999998093E+01 0. -1.
       -5    1    3    3    0  502 -0.28227935342E+03 -0.39300869808E+03 -0.66409844043E+03  0.82169720622E+03  0.46999998093E+01 0.  1.
</event>
<event>
 5   0  0.4453011E-03  0.1322642E+04  0.7818609E-02  0.9011800E-01
        2   -1    0    0  501    0  0.00000000000E+00  0.00000000000E+00  0.14291809965E+04  0.14291809965E+04  0.25500000920E-02 0.  1.
       -2   -1    0    0    0  501  0.00000000000E+00  0.00000000000E+00 -0.30601126089E+03  0.30601126090E+03  0.25500000920E-02 0. -1.
    10030    2    1    2    0    0  0.00000000000E+00  0.00000000000E+00  0.11231697356E+04  0.17351922574E+04  0.13226420208E+04 0.  0.
        1    1    3    3  502    0  0.55818525891E+03  0.24292422626E+03  0.22260677511E+03  0.64817955793E+03  0.50400001928E-02 0. -1.
       -1    1    3    3    0  502 -0.55818525891E+03 -0.24292422626E+03  0.90056296047E+03  0.10870126994E+04  0.50400001928E-02 0.  1.
</event>
<event>
 5   0  0.4388937E-03  0.1305972E+04  0.7818609E-02  0.9024842E-01
        2   -1    0    0  501    0  0.00000000000E+00  0.00000000000E+00  0.11481283375E+04  0.11481283375E+04  0.25500000920E-02 0. -1.
       -2   -1    0    0    0  501  0.00000000000E+00  0.00000000000E+00 -0.37137911173E+03  0.37137911174E+03  0.25500000920E-02 0.  1.
    10030    2    1    2    0    0  0.00000000000E+00  0.00000000000E+00  0.77674922577E+03  0.15195074493E+04  0.13059722541E+04 0.  0.
        5    1    3    3  502    0 -0.43333326656E+02 -0.45486286567E+03 -0.15436202014E+03  0.48231496662E+03  0.46999998093E+01 0.  1.
       -5    1    3    3    0  502  0.43333326656E+02  0.45486286567E+03  0.93111124592E+03  0.10371924826E+04  0.46999998093E+01 0. -1.
</event>
<event>
 5   0  0.4453011E-03  0.1496265E+04  0.7818609E-02  0.8886940E-01
       -2   -1    0    0    0  501  0.00000000000E+00  0.00000000000E+00  0.30233161325E+03  0.30233161326E+03  0.25500000920E-02 0. -1.
        2   -1    0    0  501    0  0.00000000000E+00  0.00000000000E+00 -0.18512869670E+04  0.18512869670E+04  0.25500000920E-02 0.  1.
    10030    2    1    2    0    0  0.00000000000E+00  0.00000000000E+00 -0.15489553537E+04  0.21536185802E+04  0.14962654515E+04 0.  0.
        1    1    3    3  502    0 -0.62936477213E+03 -0.40229753184E+03 -0.83484814028E+03  0.11202297701E+04  0.50400001928E-02 0. -1.
       -1    1    3    3    0  502  0.62936477213E+03  0.40229753184E+03 -0.71410721343E+03  0.10333888101E+04  0.50400001928E-02 0.  1.
</event>
<event>
 5   0  0.2511542E-03  0.1298582E+04  0.7818609E-02  0.9030690E-01
        1   -1    0    0  501    0  0.00000000000E+00  0.00000000000E+00  0.12135634312E+04  0.12135634312E+04  0.50400001928E-02 0. -1.
       -1   -1    0    0    0  501  0.00000000000E+00  0.00000000000E+00 -0.34738943272E+03  0.34738943276E+03  0.50400001928E-02 0.  1.
    10030    2    1    2    0    0  0.00000000000E+00  0.00000000000E+00  0.86617399847E+03  0.15609528640E+04  0.12985824763E+04 0.  0.
        4    1    3    3  502    0  0.36584135438E+03  0.24960804753E+03 -0.13764129775E+03  0.46377884138E+03  0.12699999809E+01 0.  1.
       -4    1    3    3    0  502 -0.36584135438E+03 -0.24960804753E+03  0.10038152962E+04  0.10971740226E+04  0.12699999809E+01 0. -1.
</event>
<event>
 5   0  0.2370801E-03  0.1333502E+04  0.7818609E-02  0.9003412E-01
        1   -1    0    0  501    0  0.00000000000E+00  0.00000000000E+00  0.69763523571E+03  0.69763523573E+03  0.50400001928E-02 0. -1.
       -1   -1    0    0    0  501  0.00000000000E+00  0.00000000000E+00 -0.63723399486E+03  0.63723399488E+03  0.50400001928E-02 0.  1.
    10030    2    1    2    0    0  0.00000000000E+00  0.00000000000E+00  0.60401240852E+02  0.13348692306E+04  0.13335019884E+04 0.  0.
        3    1    3    3  502    0  0.32064174990E+03 -0.35706315217E+03  0.49354846184E+03  0.68840055259E+03  0.10100000352E+00 0. -1.
       -3    1    3    3    0  502 -0.32064174990E+03  0.35706315217E+03 -0.43314722098E+03  0.64646867803E+03  0.10100000352E+00 0.  1.
</event>
<event>
 5   0  0.4453011E-03  0.1252818E+04  0.7818609E-02  0.9067841E-01
       -2   -1    0    0    0  501  0.00000000000E+00  0.00000000000E+00  0.34464425489E+03  0.34464425490E+03  0.25500000920E-02 0. -1.
        2   -1    0    0  501    0  0.00000000000E+00  0.00000000000E+00 -0.11385319381E+04  0.11385319381E+04  0.25500000920E-02 0.  1.
    10030    2    1    2    0    0  0.00000000000E+00  0.00000000000E+00 -0.79388768322E+03  0.14831761930E+04  0.12528184090E+04 0.  0.
        1    1    3    3  502    0 -0.32863632392E+03  0.51182359187E+02 -0.10253634130E+04  0.10779571402E+04  0.50400001928E-02 0.  1.
       -1    1    3    3    0  502  0.32863632392E+03 -0.51182359187E+02  0.23147572977E+03  0.40521905284E+03  0.50400001928E-02 0. -1.
</event>
<event>
 5   0  0.2462055E-03  0.1062941E+04  0.7818609E-02  0.9242084E-01
        1   -1    0    0  501    0  0.00000000000E+00  0.00000000000E+00  0.20468861029E+03  0.20468861035E+03  0.50400001928E-02 0. -1.
       -1   -1    0    0    0  501  0.00000000000E+00  0.00000000000E+00 -0.13799546868E+04  0.13799546868E+04  0.50400001928E-02 0.  1.
    10030    2    1    2    0    0  0.00000000000E+00  0.00000000000E+00 -0.11752660765E+04  0.15846432971E+04  0.10629412160E+04 0.  0.
        2    1    3    3  502    0  0.58424707650E+02 -0.52818514608E+03 -0.59992766995E+03  0.80144008147E+03  0.25500000920E-02 0. -1.
       -2    1    3    3    0  502 -0.58424707650E+02  0.52818514608E+03 -0.57533840654E+03  0.78320321568E+03  0.25500000920E-02 0.  1.
</event>
<event>
 5   0  0.4263540E-03  0.1291234E+04  0.7818609E-02  0.9036545E-01
       -2   -1    0    0    0  501  0.00000000000E+00  0.00000000000E+00  0.31699322002E+03  0.31699322003E+03  0.25500000920E-02 0. -1.
        2   -1    0    0  501    0  0.00000000000E+00  0.00000000000E+00 -0.13149226858E+04  0.13149226858E+04  0.25500000920E-02 0.  1.
    10030    2    1    2    0    0  0.00000000000E+00  0.00000000000E+00 -0.99792946575E+03  0.16319159058E+04  0.12912344113E+04 0.  0.
        2    1    3    3  502    0 -0.26202218953E+02  0.48850595748E+03  0.33496668303E+02  0.49035360054E+03  0.25500000920E-02 0. -1.
       -2    1    3    3    0  502  0.26202218953E+02 -0.48850595748E+03 -0.10314261341E+04  0.11415623053E+04  0.25500000920E-02 0.  1.
</event>
<event>
 5   0  0.2511542E-03  0.1286837E+04  0.7818609E-02  0.9040069E-01
        1   -1    0    0  501    0  0.00000000000E+00  0.00000000000E+00  0.77667534921E+03  0.77667534923E+03  0.50400001928E-02 0.  1.
       -1   -1    0    0    0  501  0.00000000000E+00  0.00000000000E+00 -0.53302469772E+03  0.53302469774E+03  0.50400001928E-02 0. -1.
    10030    2    1    2    0    0  0.00000000000E+00  0.00000000000E+00  0.24365065150E+03  0.13097000470E+04  0.12868366536E+04 0.  0.
        4    1    3    3  502    0  0.34917520056E+03  0.45971651366E+03 -0.16734045431E+03  0.60105493440E+03  0.12699999809E+01 0. -1.
       -4    1    3    3    0  502 -0.34917520056E+03 -0.45971651366E+03  0.41099110581E+03  0.70864511257E+03  0.12699999809E+01 0.  1.
</event>
<event>
 5   0  0.4388937E-03  0.1311625E+04  0.7818609E-02  0.9020397E-01
       -2   -1    0    0    0  501  0.00000000000E+00  0.00000000000E+00  0.33758020622E+03  0.33758020623E+03  0.25500000920E-02 0.  1.
        2   -1    0    0  501    0  0.00000000000E+00  0.00000000000E+00 -0.12740382561E+04  0.12740382561E+04  0.25500000920E-02 0. -1.
    10030    2    1    2    0    0  0.00000000000E+00  0.00000000000E+00 -0.93645804984E+03  0.16116184623E+04  0.13116250946E+04 0.  0.
        5    1    3    3  502    0 -0.29623975373E+03 -0.28682080048E+03 -0.10948079816E+04  0.11698934866E+04  0.46999998093E+01 0. -1.
       -5    1    3    3    0  502  0.29623975373E+03  0.28682080048E+03  0.15834993180E+03  0.44172497572E+03  0.46999998093E+01 0.  1.
</event>
<event>
 5   0  0.2511542E-03  0.1305581E+04  0.7818609E-02  0.9025151E-01
       -1   -1    0    0    0  501  0.00000000000E+00  0.00000000000E+00  0.59594809022E+03  0.59594809024E+03  0.50400001928E-02 0.  1.
        1   -1    0    0  501    0  0.00000000000E+00  0.00000000000E+00 -0.71505417742E+03  0.71505417744E+03  0.50400001928E-02 0. -1.
    10030    2    1    2    0    0  0.00000000000E+00  0.00000000000E+00 -0.11910608720E+03  0.13110022677E+04  0.13055805934E+04 0.  0.
        4    1    3    3  502    0  0.19405670733E+03 -0.45258709609E+03 -0.48986554041E+03  0.69459552676E+03  0.12699999809E+01 0. -1.
       -4    1    3    3    0  502 -0.19405670733E+03  0.45258709609E+03  0.37075945322E+03  0.61640674092E+03  0.12699999809E+01 0.  1.
</event>
<event>
 5   0  0.4453011E-03  0.1280449E+04  0.7818609E-02  0.9045215E-01
       -2   -1    0    0    0  501  0.00000000000E+00  0.00000000000E+00  0.86004254413E+03  0.86004254414E+03  0.25500000920E-02 0.  1.
        2   -1    0    0  501    0  0.00000000000E+00  0.00000000000E+00 -0.47658941225E+03  0.47658941225E+03  0.25500000920E-02 0. -1.
    10030    2    1    2    0    0  0.00000000000E+00  0.00000000000E+00  0.38345313189E+03  0.13366319564E+04  0.12804486255E+04 0.  0.
        1    1    3    3  502    0  0.10509939992E+03  0.37217924332E+03  0.72433335838E+03  0.82111027706E+03  0.50400001928E-02 0.  1.
       -1    1    3    3    0  502 -0.10509939992E+03 -0.37217924332E+03 -0.34088022649E+03  0.51552167933E+03  0.50400001928E-02 0. -1.
</event>
<event>
 5   0  0.2462055E-03  0.1457520E+04  0.7818609E-02  0.8913204E-01
        1   -1    0    0  501    0  0.00000000000E+00  0.00000000000E+00  0.52327599672E+03  0.52327599675E+03  0.50400001928E-02 0. -1.
       -1   -1    0    0    0  501  0.00000000000E+00  0.00000000000E+00 -0.10149343363E+04  0.10149343363E+04  0.50400001928E-02 0.  1.
    10030    2    1    2    0    0  0.00000000000E+00  0.00000000000E+00 -0.49165833954E+03  0.15382103330E+04  0.14575195044E+04 0.  0.
        2    1    3    3  502    0  0.92789028313E+02  0.10231057081E+03  0.50933619594E+03  0.52773157682E+03  0.25500000920E-02 0. -1.
       -2    1    3    3    0  502 -0.92789028313E+02 -0.10231057081E+03 -0.10009945355E+04  0.10104787562E+04  0.25500000920E-02 0.  1.
</event>
<event>
 5   0  0.2462055E-03  0.1275713E+04  0.7818609E-02  0.9049050E-01
       -1   -1    0    0    0  501  0.00000000000E+00  0.00000000000E+00  0.64209616306E+03  0.64209616308E+03  0.50400001928E-02 0. -1.
        1   -1    0    0  501    0  0.00000000000E+00  0.00000000000E+00 -0.63364514824E+03  0.63364514826E+03  0.50400001928E-02 0.  1.
    10030    2    1    2    0    0  0.00000000000E+00  0.00000000000E+00  0.84510148209E+01  0.12757413113E+04  0.12757133196E+04 0.  0.
        2    1    3    3  502    0 -0.62478790437E+02 -0.48740324803E+03  0.41092300102E+03  0.64056478066E+03  0.25500000920E-02 0. -1.
       -2    1    3    3    0  502  0.62478790437E+02  0.48740324803E+03 -0.40247198619E+03  0.63517653068E+03  0.25500000920E-02 0.  1.
</event>
<event>
 5   0  0.2370801E-03  0.1259172E+04  0.7818609E-02  0.9062584E-01
        1   -1    0    0  501    0  0.00000000000E+00  0.00000000000E+00  0.46963194776E+03  0.46963194779E+03  0.50400001928E-02 0.  1.
       -1   -1    0    0    0  501  0.00000000000E+00  0.00000000000E+00 -0.84401994781E+03  0.84401994783E+03  0.50400001928E-02 0. -1.
    10030    2    1    2    0    0  0.00000000000E+00  0.00000000000E+00 -0.37438800005E+03  0.13136518956E+04  0.12591723187E+04 0.  0.
        3    1    3    3  502    0  0.25261878158E+03 -0.25960009642E+03 -0.72442063814E+03  0.80993439860E+03  0.10100000352E+00 0. -1.
       -3    1    3    3    0  502 -0.25261878158E+03  0.25960009642E+03  0.35003263809E+03  0.50371749702E+03  0.10100000352E+00 0.  1.
</event>
<event>
 5   0  0.2458456E-03  0.1325671E+04  0.7818609E-02  0.9009452E-01
        1   -1    0    0  501    0  0.00000000000E+00  0.00000000000E+00  0.11401489901E+04  0.11401489902E+04  0.50400001928E-02 0.  1.
       -1   -1    0    0    0  501  0.00000000000E+00  0.00000000000E+00 -0.38534506705E+03  0.38534506708E+03  0.50400001928E-02 0. -1.
    10030    2    1    2    0    0  0.00000000000E+00  0.00000000000E+00  0.75480392310E+03  0.15254940572E+04  0.13256708326E+04 0.  0.
        5    1    3    3  502    0 -0.45373229508E+03  0.48146667640E+03  0.33072211303E+03  0.73965016199E+03  0.46999998093E+01 0. -1.
       -5    1    3    3    0  502  0.45373229508E+03 -0.48146667640E+03  0.42408181007E+03  0.78584389526E+03  0.46999998093E+01 0.  1.
</event>
<event>
 5   0  0.2511542E-03  0.1385029E+04  0.7818609E-02  0.8964727E-01
        1   -1    0    0  501    0  0.00000000000E+00  0.00000000000E+00  0.18649390215E+04  0.18649390215E+04  0.50400001928E-02 0.  1.
       -1   -1    0    0    0  501  0.00000000000E+00  0.00000000000E+00 -0.25715393661E+03  0.25715393666E+03  0.50400001928E-02 0. -1.
    10030    2    1    2    0    0  0.00000000000E+00  0.00000000000E+00  0.16077850849E+04  0.21220929581E+04  0.13850291130E+04 0.  0.
        4    1    3    3  502    0 -0.68499561546E+03 -0.10148580020E+03  0.79238219680E+03  0.10523257668E+04  0.12699999809E+01 0.  1.
       -4    1    3    3    0  502  0.68499561546E+03  0.10148580020E+03  0.81540288805E+03  0.10697671913E+04  0.12699999809E+01 0. -1.
</event>
<event>
 5   0  0.4310889E-03  0.1299361E+04  0.7818609E-02  0.9030072E-01
        2   -1    0    0  501    0  0.00000000000E+00  0.00000000000E+00  0.12036352337E+04  0.12036352337E+04  0.25500000920E-02 0.  1.
       -2   -1    0    0    0  501  0.00000000000E+00  0.00000000000E+00 -0.35067492297E+03  0.35067492298E+03  0.25500000920E-02 0. -1.
    10030    2    1    2    0    0  0.00000000000E+00  0.00000000000E+00  0.85296031073E+03  0.15543101567E+04  0.12993609089E+04 0.  0.
        4    1    3    3  502    0 -0.25375150592E+03  0.52001282798E+03  0.77987892871E+03  0.97109007016E+03  0.12699999809E+01 0.  1.
       -4    1    3    3    0  502  0.25375150592E+03 -0.52001282798E+03  0.73081382018E+02  0.58322008652E+03  0.12699999809E+01 0. -1.
</event>
<event>
 5   0  0.4453011E-03  0.1280089E+04  0.7818609E-02  0.9045506E-01
        2   -1    0    0  501    0  0.00000000000E+00  0.00000000000E+00  0.13408473870E+04  0.13408473870E+04  0.25500000920E-02 0.  1.
       -2   -1    0    0    0  501  0.00000000000E+00  0.00000000000E+00 -0.30552092407E+03  0.30552092408E+03  0.25500000920E-02 0. -1.
    10030    2    1    2    0    0  0.00000000000E+00  0.00000000000E+00  0.10353264629E+04  0.16463683111E+04  0.12800889543E+04 0.  0.
        1    1    3    3  502    0  0.35902571987E+03  0.33533276131E+03  0.10453072748E+04  0.11549955962E+04  0.50400001928E-02 0.  1.
       -1    1    3    3    0  502 -0.35902571987E+03 -0.33533276131E+03 -0.99808118934E+01  0.49137271492E+03  0.50400001928E-02 0. -1.
</event>
<event>
 5   0  0.4388937E-03  0.1294703E+04  0.7818609E-02  0.9033777E-01
       -2   -1    0    0    0  501  0.00000000000E+00  0.00000000000E+00  0.38752610706E+03  0.38752610707E+03  0.25500000920E-02 0.  1.
        2   -1    0    0  501    0  0.00000000000E+00  0.00000000000E+00 -0.10813820370E+04  0.10813820370E+04  0.25500000920E-02 0. -1.
    10030    2    1    2    0    0  0.00000000000E+00  0.00000000000E+00 -0.69385592990E+03  0.14689081440E+04  0.12947027011E+04 0.  0.
        5    1    3    3  502    0 -0.30898234701E+03  0.38119122755E+03  0.13209620768E+03  0.50818140541E+03  0.46999998093E+01 0.  1.
       -5    1    3    3    0  502  0.30898234701E+03 -0.38119122755E+03 -0.82595213758E+03  0.96072673862E+03  0.46999998093E+01 0. -1.
</event>
<event>
 5   0  0.4263540E-03  0.1150844E+04  0.7818609E-02  0.9157006E-01
       -2   -1    0    0    0  501  0.00000000000E+00  0.00000000000E+00  0.15360431871E+03  0.15360431873E+03  0.25500000920E-02 0.  1.
        2   -1    0    0  501    0  0.00000000000E+00  0.00000000000E+00 -0.21556048431E+04  0.21556048431E+04  0.25500000920E-02 0. -1.
    10030    2    1    2    0    0  0.00000000000E+00  0.00000000000E+00 -0.20020005244E+04  0.23092091618E+04  0.11508435399E+04 0.  0.
        2    1    3    3  502    0  0.55475778580E+03  0.88378201024E+02 -0.12511607336E+04  0.13714846294E+04  0.25500000920E-02 0. -1.
       -2    1    3    3    0  502 -0.55475778580E+03 -0.88378201024E+02 -0.75083979082E+03  0.93772453248E+03  0.25500000920E-02 0.  1.
</event>
<event>
 5   0  0.2462055E-03  0.1314525E+04  0.7818609E-02  0.9018125E-01
        1   -1    0    0  501    0  0.00000000000E+00  0.00000000000E+00  0.54507553368E+03  0.54507553371E+03  0.50400001928E-02 0. -1.
       -1   -1    0    0    0  501  0.00000000000E+00  0.00000000000E+00 -0.79254026538E+03  0.79254026539E+03  0.50400001928E-02 0.  1.
    10030    2    1    2    0    0  0.00000000000E+00  0.00000000000E+00 -0.24746473169E+03  0.13376157991E+04  0.13145254781E+04 0.  0.
        2    1    3    3  502    0 -0.33899573551E+03  0.30389548907E+03 -0.60610965242E+03  0.75804979239E+03  0.25500000920E-02 0.  1.
       -2    1    3    3    0  502  0.33899573551E+03 -0.30389548907E+03  0.35864492073E+03  0.57956600672E+03  0.25500000920E-02 0. -1.
</event>
<event>
 5   0  0.2356769E-03  0.1302768E+04  0.7818609E-02  0.9027373E-01
       -1   -1    0    0    0  501  0.00000000000E+00  0.00000000000E+00  0.85324342391E+03  0.85324342393E+03  0.50400001928E-02 0. -1.
        1   -1    0    0  501    0  0.00000000000E+00  0.00000000000E+00 -0.49728003736E+03  0.49728003739E+03  0.50400001928E-02 0.  1.
    10030    2    1    2    0    0  0.00000000000E+00  0.00000000000E+00  0.35596338655E+03  0.13505234613E+04  0.13027677026E+04 0.  0.
        1    1    3    3  502    0  0.24497941552E+03 -0.56727380963E+03 -0.35696539555E+02  0.61894162251E+03  0.50400001928E-02 0. -1.
       -1    1    3    3    0  502 -0.24497941552E+03  0.56727380963E+03  0.39165992610E+03  0.73158183880E+03  0.50400001928E-02 0.  1.
</event>
<event>
 5   0  0.4388937E-03  0.1316610E+04  0.7818609E-02  0.9016496E-01
       -2   -1    0    0    0  501  0.00000000000E+00  0.00000000000E+00  0.53415244413E+03  0.53415244413E+03  0.25500000920E-02 0.  1.
        2   -1    0    0  501    0  0.00000000000E+00  0.00000000000E+00 -0.81131428182E+03  0.81131428183E+03  0.25500000920E-02 0. -1.
    10030    2    1    2    0    0  0.00000000000E+00  0.00000000000E+00 -0.27716183770E+03  0.13454667260E+04  0.13166100510E+04 0.  0.
        5    1    3    3  502    0 -0.20127510027E+03 -0.59545529734E+03  0.61320177583E+02  0.63155437715E+03  0.46999998093E+01 0.  1.
       -5    1    3    3    0  502  0.20127510027E+03  0.59545529734E+03 -0.33848201528E+03  0.71391234881E+03  0.46999998093E+01 0. -1.
</event>
<event>
 5   0  0.4453011E-03  0.1272106E+04  0.7818609E-02  0.9051983E-01
       -2   -1    0    0    0  501  0.00000000000E+00  0.00000000000E+00  0.20355585334E+03  0.20355585336E+03  0.25500000920E-02 0.  1.
        2   -1    0    0  501    0  0.00000000000E+00  0.00000000000E+00 -0.19874805632E+04  0.19874805632E+04  0.25500000920E-02 0. -1.
    10030    2    1    2    0    0  0.00000000000E+00  0.00000000000E+00 -0.17839247098E+04  0.21910364165E+04  0.12721058165E+04 0.  0.
        1    1    3    3  502    0  0.31171001451E+03 -0.52630261426E+03 -0.11922960465E+04  0.13400475504E+04  0.50400001928E-02 0. -1.
       -1    1    3    3    0  502 -0.31171001451E+03  0.52630261426E+03 -0.59162866336E+03  0.85098886612E+03  0.50400001928E-02 0.  1.
</event>
<event>
 5   0  0.2458456E-03  0.1289559E+04  0.7818609E-02  0.9037886E-01
       -1   -1    0    0    0  501  0.00000000000E+00  0.00000000000E+00  0.25809769316E+03  0.25809769321E+03  0.50400001928E-02 0.  1.
        1   -1    0    0  501    0  0.00000000000E+00  0.00000000000E+00 -0.16107887749E+04  0.16107887749E+04  0.50400001928E-02 0. -1.
    10030    2    1    2    0    0  0.00000000000E+00  0.00000000000E+00 -0.13526910818E+04  0.18688864681E+04  0.12895594085E+04 0.  0.
        5    1    3    3  502    0 -0.15161408919E+03  0.62566260126E+03 -0.72815990927E+03  0.97194622594E+03  0.46999998093E+01 0. -1.
       -5    1    3    3    0  502  0.15161408919E+03 -0.62566260126E+03 -0.62453117248E+03  0.89694024219E+03  0.46999998093E+01 0.  1.
</event>
<event>
 5   0  0.2370801E-03  0.1224812E+04  0.7818609E-02  0.9091411E-01
        1   -1    0    0  501    0  0.00000000000E+00  0.00000000000E+00  0.40287942653E+03  0.40287942656E+03  0.50400001928E-02 0. -1.
       -1   -1    0    0    0  501  0.00000000000E+00  0.00000000000E+00 -0.93090202142E+03  0.93090202144E+03  0.50400001928E-02 0.  1.
    10030    2    1    2    0    0  0.00000000000E+00  0.00000000000E+00 -0.52802259489E+03  0.13337814480E+04  0.12248122674E+04 0.  0.
        3    1    3    3  502    0  0.20056037326E+03  0.54083215202E+03 -0.48802497866E+03  0.75557413268E+03  0.10100000352E+00 0.  1.
       -3    1    3    3    0  502 -0.20056037326E+03 -0.54083215202E+03 -0.39997616232E+02  0.57820731532E+03  0.10100000352E+00 0. -1.
</event>
<event>
 5   0  0.4388937E-03  0.1267334E+04  0.7818609E-02  0.9055878E-01
       -2   -1    0    0    0  501  0.00000000000E+00  0.00000000000E+00  0.11671085752E+04  0.11671085752E+04  0.25500000920E-02 0. -1.
        2   -1    0    0  501    0  0.00000000000E+00  0.00000000000E+00 -0.34404153566E+03  0.34404153567E+03  0.25500000920E-02 0.  1.
    10030    2    1    2    0    0  0.00000000000E+00  0.00000000000E+00  0.82306703953E+03  0.15111501109E+04  0.12673339363E+04 0.  0.
        5    1    3    3  502    0 -0.30108597155E+03 -0.26630892149E+03  0.99560572845E+03  0.10736973784E+04  0.46999998093E+01 0. -1.
       -5    1    3    3    0  502  0.30108597155E+03  0.26630892149E+03 -0.17253868893E+03  0.43745273242E+03  0.46999998093E+01 0.  1.
</event>
<event>
 5   0  0.2370801E-03  0.1479593E+04  0.7818609E-02  0.8898138E-01
       -1   -1    0    0    0  501  0.00000000000E+00  0.00000000000E+00  0.33860767052E+03  0.33860767056E+03  0.50400001928E-02 0.  1.
        1   -1    0    0  501    0  0.00000000000E+00  0.00000000000E+00 -0.16163212891E+04  0.16163212891E+04  0.50400001928E-02 0. -1.
    10030    2    1    2    0    0  0.00000000000E+00  0.00000000000E+00 -0.12777136186E+04  0.19549289597E+04  0.14795928988E+04 0.  0.
        3    1    3    3  502    0  0.66184220717E+02  0.51317259275E+03 -0.13374684590E+04  0.14340670661E+04  0.10100000352E+00 0. -1.
       -3    1    3    3    0  502 -0.66184220717E+02 -0.51317259275E+03  0.59754840422E+02  0.52086189358E+03  0.10100000352E+00 0.  1.
</event>
<event>
 5   0  0.4388937E-03  0.1239861E+04  0.7818609E-02  0.9078665E-01
        2   -1    0    0  501    0  0.00000000000E+00  0.00000000000E+00  0.54332287636E+03  0.54332287637E+03  0.25500000920E-02 0.  1.
       -2   -1    0    0    0  501  0.00000000000E+00  0.00000000000E+00 -0.70733939717E+03  0.70733939717E+03  0.25500000920E-02 0. -1.
    10030    2    1    2    0    0  0.00000000000E+00  0.00000000000E+00 -0.16401652081E+03  0.12506622735E+04  0.12398607597E+04 0.  0.
        5    1    3    3  502    0  0.14120466273E+03 -0.58321474989E+03  0.74953869818E+02  0.60474653688E+03  0.46999998093E+01 0.  1.
       -5    1    3    3    0  502 -0.14120466273E+03  0.58321474989E+03 -0.23897039062E+03  0.64591573666E+03  0.46999998093E+01 0. -1.
</event>
<event>
 5   0  0.2462055E-03  0.1293816E+04  0.7818609E-02  0.9034484E-01
        1   -1    0    0  501    0  0.00000000000E+00  0.00000000000E+00  0.13596183524E+04  0.13596183524E+04  0.50400001928E-02 0.  1.
       -1   -1    0    0    0  501  0.00000000000E+00  0.00000000000E+00 -0.30779955477E+03  0.30779955481E+03  0.50400001928E-02 0. -1.
    10030    2    1    2    0    0  0.00000000000E+00  0.00000000000E+00  0.10518187976E+04  0.16674179072E+04  0.12938159430E+04 0.  0.
        2    1    3    3  502    0 -0.57639886888E+03 -0.24630103299E+03  0.73207095726E+03  0.96375709667E+03  0.25500000920E-02 0. -1.
       -2    1    3    3    0  502  0.57639886888E+03  0.24630103299E+03  0.31974784038E+03  0.70366081057E+03  0.25500000920E-02 0.  1.
</event>
<event>
 5   0  0.4453011E-03  0.1270358E+04  0.7818609E-02  0.9053408E-01
       -2   -1    0    0    0  501  0.00000000000E+00  0.00000000000E+00  0.13533978360E+04  0.13533978360E+04  0.25500000920E-02 0. -1.
        2   -1    0    0  501    0  0.00000000000E+00  0.00000000000E+00 -0.29810313753E+03  0.29810313754E+03  0.25500000920E-02 0.  1.
    10030    2    1    2    0    0  0.00000000000E+00  0.00000000000E+00  0.10552946985E+04  0.16515009736E+04  0.12703576524E+04 0.  0.
        1    1    3    3  502    0  0.43390521319E+03 -0.44197943136E+03  0.34456666079E+03  0.70876352581E+03  0.50400001928E-02 0. -1.
       -1    1    3    3    0  502 -0.43390521319E+03  0.44197943136E+03  0.71072803772E+03  0.94273744775E+03  0.50400001928E-02 0.  1.
</event>
<event>
 5   0  0.2462055E-03  0.1333853E+04  0.7818609E-02  0.9003142E-01
       -1   -1    0    0    0  501  0.00000000000E+00  0.00000000000E+00  0.32083362735E+03  0.32083362739E+03  0.50400001928E-02 0. -1.
        1   -1    0    0  501    0  0.00000000000E+00  0.00000000000E+00 -0.13863598086E+04  0.13863598086E+04  0.50400001928E-02 0.  1.
    10030    2    1    2    0    0  0.00000000000E+00  0.00000000000E+00 -0.10655261813E+04  0.17071934360E+04  0.13338528349E+04 0.  0.
        2    1    3    3  502    0 -0.46788692067E+03  0.18897187949E+03 -0.10908952306E+04  0.12019488117E+04  0.25500000920E-02 0.  1.
       -2    1    3    3    0  502  0.46788692067E+03 -0.18897187949E+03  0.25369049305E+02  0.50524462436E+03  0.25500000920E-02 0. -1.
</event>
<event>
 5   0  0.4310889E-03  0.1249457E+04  0.7818609E-02  0.9070635E-01
        2   -1    0    0  501    0  0.00000000000E+00  0.00000000000E+00  0.15182966855E+04  0.15182966855E+04  0.25500000920E-02 0.  1.
       -2   -1    0    0    0  501  0.00000000000E+00  0.00000000000E+00 -0.25705507079E+03  0.25705507080E+03  0.25500000920E-02 0. -1.
    10030    2    1    2    0    0  0.00000000000E+00  0.00000000000E+00  0.12612416147E+04  0.17753517563E+04  0.12494572613E+04 0.  0.
        4    1    3    3  502    0  0.56394550902E+03 -0.26863910171E+03  0.61769571034E+03  0.87849365825E+03  0.12699999809E+01 0.  1.
       -4    1    3    3    0  502 -0.56394550902E+03  0.26863910171E+03  0.64354590434E+03  0.89685809803E+03  0.12699999809E+01 0. -1.
</event>
<event>
 5   0  0.2511542E-03  0.1306754E+04  0.7818609E-02  0.9024227E-01
        1   -1    0    0  501    0  0.00000000000E+00  0.00000000000E+00  0.40547115145E+03  0.40547115148E+03  0.50400001928E-02 0.  1.
       -1   -1    0    0    0  501  0.00000000000E+00  0.00000000000E+00 -0.10528524081E+04  0.10528524081E+04  0.50400001928E-02 0. -1.
    10030    2    1    2    0    0  0.00000000000E+00  0.00000000000E+00 -0.64738125665E+03  0.14583235596E+04  0.13067536543E+04 0.  0.
        4    1    3    3  502    0 -0.38737635612E+03 -0.20485414966E+03 -0.86454163461E+03  0.96925719744E+03  0.12699999809E+01 0. -1.
       -4    1    3    3    0  502  0.38737635612E+03  0.20485414966E+03  0.21716037797E+03  0.48906636214E+03  0.12699999809E+01 0.  1.
</event>
<event>
 5   0  0.1661750E-03  0.1301288E+04  0.7818609E-02  0.9028545E-01
        4   -1    0    0  501    0  0.00000000000E+00  0.00000000000E+00  0.66752973574E+03  0.66753094385E+03  0.12699999809E+01 0. -1.
       -4   -1    0    0    0  501  0.00000000000E+00  0.00000000000E+00 -0.63418272287E+03  0.63418399451E+03  0.12699999809E+01 0.  1.
    10030    2    1    2    0    0  0.00000000000E+00  0.00000000000E+00  0.33347012866E+02  0.13017149384E+04  0.13012877305E+04 0.  0.
        1    1    3    3  502    0 -0.13002766318E+03 -0.43270614260E+03  0.48501054975E+03  0.66285521227E+03  0.50400001928E-02 0. -1.
       -1    1    3    3    0  502  0.13002766318E+03  0.43270614260E+03 -0.45166353689E+03  0.63885972608E+03  0.50400001928E-02 0.  1.
</event>
<event>
 5   0  0.2370801E-03  0.9990328E+03  0.7818609E-02  0.9309606E-01
        1   -1    0    0  501    0  0.00000000000E+00  0.00000000000E+00  0.30035529061E+03  0.30035529066E+03  0.50400001928E-02 0.  1.
       -1   -1    0    0    0  501  0.00000000000E+00  0.00000000000E+00 -0.83073823361E+03  0.83073823362E+03  0.50400001928E-02 0. -1.
    10030    2    1    2    0    0  0.00000000000E+00  0.00000000000E+00 -0.53038294299E+03  0.11310935243E+04  0.99903277947E+03 0.  0.
        3    1    3    3  502    0  0.62315612414E+02  0.49557549316E+03 -0.27219901848E+03  0.56883268263E+03  0.10100000352E+00 0.  1.
       -3    1    3    3    0  502 -0.62315612414E+02 -0.49557549316E+03 -0.25818392451E+03  0.56226084165E+03  0.10100000352E+00 0. -1.
</event>
<event>
 5   0  0.2462055E-03  0.1312881E+04  0.7818609E-02  0.9019412E-01
        1   -1    0    0  501    0  0.00000000000E+00  0.00000000000E+00  0.13439980947E+04  0.13439980947E+04  0.50400001928E-02 0. -1.
       -1   -1    0    0    0  501  0.00000000000E+00  0.00000000000E+00 -0.32062125063E+03  0.32062125067E+03  0.50400001928E-02 0.  1.
    10030    2    1    2    0    0  0.00000000000E+00  0.00000000000E+00  0.10233768441E+04  0.16646193454E+04  0.13128813351E+04 0.  0.
        2    1    3    3  502    0  0.19749112530E+03 -0.26145678049E+03  0.12328979891E+04  0.12756958274E+04  0.25500000920E-02 0. -1.
       -2    1    3    3    0  502 -0.19749112530E+03  0.26145678049E+03 -0.20952114497E+03  0.38892351798E+03  0.25500000920E-02 0.  1.
</event>
<event>
 5   0  0.2370801E-03  0.1230758E+04  0.7818609E-02  0.9086352E-01
        1   -1    0    0  501    0  0.00000000000E+00  0.00000000000E+00  0.95141184483E+03  0.95141184484E+03  0.50400001928E-02 0.  1.
       -1   -1    0    0    0  501  0.00000000000E+00  0.00000000000E+00 -0.39803107511E+03  0.39803107514E+03  0.50400001928E-02 0. -1.
    10030    2    1    2    0    0  0.00000000000E+00  0.00000000000E+00  0.55338076972E+03  0.13494429200E+04  0.12307582695E+04 0.  0.
        3    1    3    3  502    0  0.42833159121E+03 -0.42489856932E+03  0.14382414733E+03  0.62023555347E+03  0.10100000352E+00 0. -1.
       -3    1    3    3    0  502 -0.42833159121E+03  0.42489856932E+03  0.40955662238E+03  0.72920736651E+03  0.10100000352E+00 0.  1.
</event>
<event>
 5   0  0.2458456E-03  0.1303637E+04  0.7818609E-02  0.9026686E-01
        1   -1    0    0  501    0  0.00000000000E+00  0.00000000000E+00  0.63595131001E+03  0.63595131003E+03  0.50400001928E-02 0. -1.
       -1   -1    0    0    0  501  0.00000000000E+00  0.00000000000E+00 -0.66808141416E+03  0.66808141418E+03  0.50400001928E-02 0.  1.
    10030    2    1    2    0    0  0.00000000000E+00  0.00000000000E+00 -0.32130104147E+02  0.13040327242E+04  0.13036368368E+04 0.  0.
        5    1    3    3  502    0 -0.42851248493E+03 -0.29655326949E+02 -0.50646159445E+03  0.66409925825E+03  0.46999998093E+01 0.  1.
       -5    1    3    3    0  502  0.42851248493E+03  0.29655326949E+02  0.47433149030E+03  0.63993346596E+03  0.46999998093E+01 0. -1.
</event>
<event>
 5   0  0.2458456E-03  0.1312181E+04  0.7818609E-02  0.9019961E-01
       -1   -1    0    0    0  501  0.00000000000E+00  0.00000000000E+00  0.61550965728E+03  0.61550965730E+03  0.50400001928E-02 0. -1.
        1   -1    0    0  501    0  0.00000000000E+00  0.00000000000E+00 -0.69934704517E+03  0.69934704519E+03  0.50400001928E-02 0.  1.
    10030    2    1    2    0    0  0.00000000000E+00  0.00000000000E+00 -0.83837387887E+02  0.13148567025E+04  0.13121811767E+04 0.  0.
        5    1    3    3  502    0  0.10080576764E+03  0.11914354533E+03  0.59662139175E+03  0.61671400363E+03  0.46999998093E+01 0. -1.
       -5    1    3    3    0  502 -0.10080576764E+03 -0.11914354533E+03 -0.68045877964E+03  0.69814269886E+03  0.46999998093E+01 0.  1.
</event>
<event>
 5   0  0.2458456E-03  0.1108159E+04  0.7818609E-02  0.9197276E-01
       -1   -1    0    0    0  501  0.00000000000E+00  0.00000000000E+00  0.23693190550E+03  0.23693190555E+03  0.50400001928E-02 0. -1.
        1   -1    0    0  501    0  0.00000000000E+00  0.00000000000E+00 -0.12957482742E+04  0.12957482742E+04  0.50400001928E-02 0.  1.
    10030    2    1    2    0    0  0.00000000000E+00  0.00000000000E+00 -0.10588163687E+04  0.15326801798E+04  0.11081590278E+04 0.  0.
        5    1    3    3  502    0 -0.30477595055E+03 -0.35362769254E+03 -0.11669846850E+03  0.48122920476E+03  0.46999998093E+01 0. -1.
       -5    1    3    3    0  502  0.30477595055E+03  0.35362769254E+03 -0.94211790023E+03  0.10514509750E+04  0.46999998093E+01 0.  1.
</event>
<event>
 5   0  0.4310889E-03  0.1279588E+04  0.7818609E-02  0.9045911E-01
       -2   -1    0    0    0  501  0.00000000000E+00  0.00000000000E+00  0.80242915732E+03  0.80242915732E+03  0.25500000920E-02 0. -1.
        2   -1    0    0  501    0  0.00000000000E+00  0.00000000000E+00 -0.51012147414E+03  0.51012147414E+03  0.25500000920E-02 0.  1.
    10030    2    1    2    0    0  0.00000000000E+00  0.00000000000E+00  0.29230768318E+03  0.13125506315E+04  0.12795879722E+04 0.  0.
        4    1    3    3  502    0  0.91993680271E+01  0.48590107980E+03 -0.28067864844E+03  0.56121885598E+03  0.12699999809E+01 0.  1.
       -4    1    3    3    0  502 -0.91993680271E+01 -0.48590107980E+03  0.57298633162E+03  0.75133177548E+03  0.12699999809E+01 0. -1.
</event>
<event>
 5   0  0.2511542E-03  0.1278402E+04  0.7818609E-02  0.9046870E-01
        1   -1    0    0  501    0  0.00000000000E+00  0.00000000000E+00  0.18631164234E+04  0.18631164234E+04  0.50400001928E-02 0.  1.
       -1   -1    0    0    0  501  0.00000000000E+00  0.00000000000E+00 -0.21929800598E+03  0.21929800604E+03  0.50400001928E-02 0. -1.
    10030    2    1    2    0    0  0.00000000000E+00  0.00000000000E+00  0.16438184174E+04  0.20824144295E+04  0.12784016843E+04 0.  0.
        4    1    3    3  502    0  0.31116931537E+03 -0.54468763168E+03  0.62197528677E+03  0.88338317235E+03  0.12699999809E+01 0.  1.
       -4    1    3    3    0  502 -0.31116931537E+03  0.54468763168E+03  0.10218431307E+04  0.11990312571E+04  0.12699999809E+01 0. -1.
</event>
<event>
 5   0  0.4306214E-03  0.1044910E+04  0.7818609E-02  0.9260615E-01
       -2   -1    0    0    0  501  0.00000000000E+00  0.00000000000E+00  0.69194878377E+03  0.69194878377E+03  0.25500000920E-02 0.  1.
        2   -1    0    0  501    0  0.00000000000E+00  0.00000000000E+00 -0.39447873274E+03  0.39447873275E+03  0.25500000920E-02 0. -1.
    10030    2    1    2    0    0  0.00000000000E+00  0.00000000000E+00  0.29747005103E+03  0.10864275165E+04  0.10449097173E+04 0.  0.
        3    1    3    3  502    0  0.38157037347E+03 -0.15993455805E+02  0.51942196471E+03  0.64470995662E+03  0.10100000352E+00 0.  1.
       -3    1    3    3    0  502 -0.38157037347E+03  0.15993455805E+02 -0.22195191368E+03  0.44171755990E+03  0.10100000352E+00 0. -1.
</event>
<event>
 5   0  0.4453011E-03  0.1307969E+04  0.7818609E-02  0.9023270E-01
        2   -1    0    0  501    0  0.00000000000E+00  0.00000000000E+00  0.10851951211E+04  0.10851951211E+04  0.25500000920E-02 0. -1.
       -2   -1    0    0    0  501  0.00000000000E+00  0.00000000000E+00 -0.39411852767E+03  0.39411852768E+03  0.25500000920E-02 0.  1.
    10030    2    1    2    0    0  0.00000000000E+00  0.00000000000E+00  0.69107659344E+03  0.14793136488E+04  0.13079686592E+04 0.  0.
        1    1    3    3  502    0 -0.15031759158E+03 -0.36278537521E+03  0.93700620800E+03  0.10159671455E+04  0.50400001928E-02 0. -1.
       -1    1    3    3    0  502  0.15031759158E+03  0.36278537521E+03 -0.24592961456E+03  0.46334650333E+03  0.50400001928E-02 0.  1.
</event>
<event>
 5   0  0.2511542E-03  0.1048717E+04  0.7818609E-02  0.9256670E-01
        1   -1    0    0  501    0  0.00000000000E+00  0.00000000000E+00  0.18365138582E+03  0.18365138589E+03  0.50400001928E-02 0.  1.
       -1   -1    0    0    0  501  0.00000000000E+00  0.00000000000E+00 -0.14971401224E+04  0.14971401224E+04  0.50400001928E-02 0. -1.
    10030    2    1    2    0    0  0.00000000000E+00  0.00000000000E+00 -0.13134887366E+04  0.16807915083E+04  0.10487170416E+04 0.  0.
        4    1    3    3  502    0  0.18830771017E+03 -0.12086301423E+03  0.10329034938E+03  0.24645115356E+03  0.12699999809E+01 0.  1.
       -4    1    3    3    0  502 -0.18830771017E+03  0.12086301423E+03 -0.14167790860E+04  0.14343403547E+04  0.12699999809E+01 0. -1.
</event>
<event>
 5   0  0.4453011E-03  0.1246696E+04  0.7818609E-02  0.9072938E-01
        2   -1    0    0  501    0  0.00000000000E+00  0.00000000000E+00  0.10398753332E+04  0.10398753332E+04  0.25500000920E-02 0.  1.
       -2   -1    0    0    0  501  0.00000000000E+00  0.00000000000E+00 -0.37366284729E+03  0.37366284730E+03  0.25500000920E-02 0. -1.
    10030    2    1    2    0    0  0.00000000000E+00  0.00000000000E+00  0.66621248595E+03  0.14135381805E+04  0.12466960782E+04 0.  0.
        1    1    3    3  502    0  0.51349318842E+03  0.11767917921E+03  0.71092627751E+03  0.88483886435E+03  0.50400001928E-02 0.  1.
       -1    1    3    3    0  502 -0.51349318842E+03 -0.11767917921E+03 -0.44713791564E+02  0.52869931620E+03  0.50400001928E-02 0. -1.
</event>
<event>
 5   0  0.4306214E-03  0.1285358E+04  0.7818609E-02  0.9041257E-01
       -2   -1    0    0    0  501  0.00000000000E+00  0.00000000000E+00  0.12116403948E+04  0.12116403948E+04  0.25500000920E-02 0. -1.
        2   -1    0    0  501    0  0.00000000000E+00  0.00000000000E+00 -0.34089033131E+03  0.34089033132E+03  0.25500000920E-02 0.  1.
    10030    2    1    2    0    0  0.00000000000E+00  0.00000000000E+00  0.87075006348E+03  0.15525307261E+04  0.12853583090E+04 0.  0.
        3    1    3    3  502    0 -0.43911818209E+03  0.28765776898E+03  0.88320341289E+03  0.10274337198E+04  0.10100000352E+00 0. -1.
       -3    1    3    3    0  502  0.43911818209E+03 -0.28765776898E+03 -0.12453349413E+02  0.52509700628E+03  0.10100000352E+00 0.  1.
</event>
<event>
 5   0  0.2462055E-03  0.1293175E+04  0.7818609E-02  0.9034995E-01
        1   -1    0    0  501    0  0.00000000000E+00  0.00000000000E+00  0.33849886458E+03  0.33849886461E+03  0.50400001928E-02 0. -1.
       -1   -1    0    0    0  501  0.00000000000E+00  0.00000000000E+00 -0.12350856787E+04  0.12350856787E+04  0.50400001928E-02 0.  1.
    10030    2    1    2    0    0  0.00000000000E+00  0.00000000000E+00 -0.89658681408E+03  0.15735845433E+04  0.12931745434E+04 0.  0.
        2    1    3    3  502    0 -0.21678557509E+03 -0.13886066881E+03  0.27344346740E+03  0.37556570767E+03  0.25500000920E-02 0. -1.
       -2    1    3    3    0  502  0.21678557509E+03  0.13886066881E+03 -0.11700302815E+04  0.11980188356E+04  0.25500000920E-02 0.  1.
</event>
<event>
 5   0  0.4306214E-03  0.1323697E+04  0.7818609E-02  0.9010981E-01
        2   -1    0    0  501    0  0.00000000000E+00  0.00000000000E+00  0.13212036683E+04  0.13212036684E+04  0.25500000920E-02 0.  1.
       -2   -1    0    0    0  501  0.00000000000E+00  0.00000000000E+00 -0.33154891111E+03  0.33154891112E+03  0.25500000920E-02 0. -1.
    10030    2    1    2    0    0  0.00000000000E+00  0.00000000000E+00  0.98965475723E+03  0.16527525795E+04  0.13236973032E+04 0.  0.
        3    1    3    3  502    0  0.24713963614E+03  0.38591150673E+03 -0.10141482175E+03  0.46935132582E+03  0.10100000352E+00 0. -1.
       -3    1    3    3    0  502 -0.24713963614E+03 -0.38591150673E+03  0.10910695790E+04  0.11834012537E+04  0.10100000352E+00 0.  1.
</event>
<event>
 5   0  0.2511542E-03  0.1266060E+04  0.7818609E-02  0.9056921E-01
       -1   -1    0    0    0  501  0.00000000000E+00  0.00000000000E+00  0.42251832469E+03  0.42251832472E+03  0.50400001928E-02 0. -1.
        1   -1    0    0  501    0  0.00000000000E+00  0.00000000000E+00 -0.94842549664E+03  0.94842549666E+03  0.50400001928E-02 0.  1.
    10030    2    1    2    0    0  0.00000000000E+00  0.00000000000E+00 -0.52590717196E+03  0.13709438214E+04  0.12660602702E+04 0.  0.
        4    1    3    3  502    0 -0.35735819691E+02  0.50183647806E+03  0.15307307846E+03  0.52588010018E+03  0.12699999809E+01 0. -1.
       -4    1    3    3    0  502  0.35735819691E+02 -0.50183647806E+03 -0.67898025042E+03  0.84506372119E+03  0.12699999809E+01 0.  1.
</event>
<event>
 5   0  0.1661750E-03  0.1299105E+04  0.7818609E-02  0.9030275E-01
        4   -1    0    0  501    0  0.00000000000E+00  0.00000000000E+00  0.12363086845E+04  0.12363093368E+04  0.12699999809E+01 0. -1.
       -4   -1    0    0    0  501  0.00000000000E+00  0.00000000000E+00 -0.34127083533E+03  0.34127319840E+03  0.12699999809E+01 0.  1.
    10030    2    1    2    0    0  0.00000000000E+00  0.00000000000E+00  0.89503784920E+03  0.15775825352E+04  0.12991050396E+04 0.  0.
        5    1    3    3  502    0 -0.29049663303E+02 -0.26603728267E+02 -0.33979989600E+03  0.34210773247E+03  0.46999998093E+01 0.  1.
       -5    1    3    3    0  502  0.29049663303E+02  0.26603728267E+02  0.12348377452E+04  0.12354748028E+04  0.46999998093E+01 0. -1.
</event>
<event>
 5   0  0.2511542E-03  0.1302044E+04  0.7818609E-02  0.9027945E-01
       -1   -1    0    0    0  501  0.00000000000E+00  0.00000000000E+00  0.10567247449E+04  0.10567247449E+04  0.50400001928E-02 0. -1.
        1   -1    0    0  501    0  0.00000000000E+00  0.00000000000E+00 -0.40107886207E+03  0.40107886211E+03  0.50400001928E-02 0.  1.
    10030    2    1    2    0    0  0.00000000000E+00  0.00000000000E+00  0.65564588285E+03  0.14578036070E+04  0.13020444820E+04 0.  0.
        4    1    3    3  502    0 -0.54890609479E+03 -0.26266772455E+03  0.58688070305E+03  0.84541280268E+03  0.12699999809E+01 0.  1.
       -4    1    3    3    0  502  0.54890609479E+03  0.26266772455E+03  0.68765179807E+02  0.61239080437E+03  0.12699999809E+01 0. -1.
</event>
<event>
 5   0  0.4453011E-03  0.1326398E+04  0.7818609E-02  0.9008889E-01
        2   -1    0    0  501    0  0.00000000000E+00  0.00000000000E+00  0.12203526172E+04  0.12203526172E+04  0.25500000920E-02 0.  1.
       -2   -1    0    0    0  501  0.00000000000E+00  0.00000000000E+00 -0.36041460706E+03  0.36041460707E+03  0.25500000920E-02 0. -1.
    10030    2    1    2    0    0  0.00000000000E+00  0.00000000000E+00  0.85993801011E+03  0.15807672242E+04  0.13263979931E+04 0.  0.
        1    1    3    3  502    0 -0.36507966823E+03  0.48210441893E+03  0.75444056499E+03  0.96689627212E+03  0.50400001928E-02 0. -1.
       -1    1    3    3    0  502  0.36507966823E+03 -0.48210441893E+03  0.10549744512E+03  0.61387095212E+03  0.50400001928E-02 0.  1.
</event>
<event>
 5   0  0.2356769E-03  0.1255868E+04  0.7818609E-02  0.9065313E-01
        1   -1    0    0  501    0  0.00000000000E+00  0.00000000000E+00  0.43071686950E+03  0.43071686953E+03  0.50400001928E-02 0. -1.
       -1   -1    0    0    0  501  0.00000000000E+00  0.00000000000E+00 -0.91545345424E+03  0.91545345426E+03  0.50400001928E-02 0.  1.
    10030    2    1    2    0    0  0.00000000000E+00  0.00000000000E+00 -0.48473658474E+03  0.13461703238E+04  0.12558682192E+04 0.  0.
        1    1    3    3  502    0 -0.53858433050E+03  0.28109670790E+03 -0.72165558833E+02  0.61179760392E+03  0.50400001928E-02 0. -1.
       -1    1    3    3    0  502  0.53858433050E+03 -0.28109670790E+03 -0.41257102591E+03  0.73437271987E+03  0.50400001928E-02 0.  1.
</event>
<event>
 5   0  0.2462055E-03  0.1243089E+04  0.7818609E-02  0.9075955E-01
        1   -1    0    0  501    0  0.00000000000E+00  0.00000000000E+00  0.91680130316E+03  0.91680130317E+03  0.50400001928E-02 0.  1.
       -1   -1    0    0    0  501  0.00000000000E+00  0.00000000000E+00 -0.42137559447E+03  0.42137559450E+03  0.50400001928E-02 0. -1.
    10030    2    1    2    0    0  0.00000000000E+00  0.00000000000E+00  0.49542570869E+03  0.13381768977E+04  0.12430892070E+04 0.  0.
        2    1    3    3  502    0  0.28165922886E+03 -0.54661000460E+03  0.34521291580E+03  0.70518534838E+03  0.25500000920E-02 0.  1.
       -2    1    3    3    0  502 -0.28165922886E+03  0.54661000460E+03  0.15021279289E+03  0.63299154930E+03  0.25500000920E-02 0. -1.
</event>
<event>
 5   0  0.4263540E-03  0.1306772E+04  0.7818609E-02  0.9024212E-01
        2   -1    0    0  501    0  0.00000000000E+00  0.00000000000E+00  0.14703292512E+04  0.14703292512E+04  0.25500000920E-02 0. -1.
       -2   -1    0    0    0  501  0.00000000000E+00  0.00000000000E+00 -0.29035196917E+03  0.29035196918E+03  0.25500000920E-02 0.  1.
    10030    2    1    2    0    0  0.00000000000E+00  0.00000000000E+00  0.11799772820E+04  0.17606812204E+04  0.13067715844E+04 0.  0.
        2    1    3    3  502    0 -0.59731750469E+03  0.26398338901E+03  0.61817253596E+03  0.89922895600E+03  0.25500000920E-02 0. -1.
       -2    1    3    3    0  502  0.59731750469E+03 -0.26398338901E+03  0.56180474605E+03  0.86145226436E+03  0.25500000920E-02 0.  1.
</event>
<event>
 5   0  0.4263540E-03  0.1250856E+04  0.7818609E-02  0.9069471E-01
       -2   -1    0    0    0  501  0.00000000000E+00  0.00000000000E+00  0.20644921919E+03  0.20644921920E+03  0.25500000920E-02 0. -1.
        2   -1    0    0  501    0  0.00000000000E+00  0.00000000000E+00 -0.18947053330E+04  0.18947053330E+04  0.25500000920E-02 0.  1.
    10030    2    1    2    0    0  0.00000000000E+00  0.00000000000E+00 -0.16882561138E+04  0.21011545522E+04  0.12508564052E+04 0.  0.
        2    1    3    3  502    0 -0.20109636496E+02 -0.44860327485E+03 -0.15753814846E+04  0.16381318988E+04  0.25500000920E-02 0.  1.
       -2    1    3    3    0  502  0.20109636496E+02  0.44860327485E+03 -0.11287462922E+03  0.46302265346E+03  0.25500000920E-02 0. -1.
</event>
<event>
 5   0  0.4388937E-03  0.1286967E+04  0.7818609E-02  0.9039964E-01
        2   -1    0    0  501    0  0.00000000000E+00  0.00000000000E+00  0.21389490818E+04  0.21389490818E+04  0.25500000920E-02 0. -1.
       -2   -1    0    0    0  501  0.00000000000E+00  0.00000000000E+00 -0.19358630268E+03  0.19358630270E+03  0.25500000920E-02 0.  1.
    10030    2    1    2    0    0  0.00000000000E+00  0.00000000000E+00  0.19453627791E+04  0.23325353845E+04  0.12869673568E+04 0.  0.
        5    1    3    3  502    0  0.56142329410E+03  0.20740539686E+03  0.14009517475E+04  0.15234503611E+04  0.46999998093E+01 0. -1.
       -5    1    3    3    0  502 -0.56142329410E+03 -0.20740539686E+03  0.54441103160E+03  0.80908502342E+03  0.46999998093E+01 0.  1.
</event>
<event>
 5   0  0.4453011E-03  0.1236890E+04  0.7818609E-02  0.9081166E-01
        2   -1    0    0  501    0  0.00000000000E+00  0.00000000000E+00  0.19877990789E+04  0.19877990789E+04  0.25500000920E-02 0.  1.
       -2   -1    0    0    0  501  0.00000000000E+00  0.00000000000E+00 -0.19241075018E+03  0.19241075020E+03  0.25500000920E-02 0. -1.
    10030    2    1    2    0    0  0.00000000000E+00  0.00000000000E+00  0.17953883287E+04  0.21802098291E+04  0.12368895052E+04 0.  0.
        1    1    3    3  502    0 -0.61681056723E+03  0.42784715044E+02  0.87351915038E+03  0.10701969509E+04  0.50400001928E-02 0.  1.
       -1    1    3    3    0  502  0.61681056723E+03 -0.42784715044E+02  0.92186917831E+03  0.11100128781E+04  0.50400001928E-02 0. -1.
</event>
<event>
 5   0  0.2370801E-03  0.1297113E+04  0.7818609E-02  0.9031858E-01
       -1   -1    0    0    0  501  0.00000000000E+00  0.00000000000E+00  0.31959270553E+03  0.31959270557E+03  0.50400001928E-02 0.  1.
        1   -1    0    0  501    0  0.00000000000E+00  0.00000000000E+00 -0.13161299025E+04  0.13161299025E+04  0.50400001928E-02 0. -1.
    10030    2    1    2    0    0  0.00000000000E+00  0.00000000000E+00 -0.99653719699E+03  0.16357226081E+04  0.12971129734E+04 0.  0.
        3    1    3    3  502    0  0.41883094893E+03 -0.25640183948E+03  0.35952227249E+02  0.49239601940E+03  0.10100000352E+00 0.  1.
       -3    1    3    3    0  502 -0.41883094893E+03  0.25640183948E+03 -0.10324894242E+04  0.11433265887E+04  0.10100000352E+00 0. -1.
</event>
<event>
 5   0  0.4310889E-03  0.1236054E+04  0.7818609E-02  0.9081871E-01
       -2   -1    0    0    0  501  0.00000000000E+00  0.00000000000E+00  0.39302637378E+03  0.39302637379E+03  0.25500000920E-02 0.  1.
        2   -1    0    0  501    0  0.00000000000E+00  0.00000000000E+00 -0.97183663609E+03  0.97183663609E+03  0.25500000920E-02 0. -1.
    10030    2    1    2    0    0  0.00000000000E+00  0.00000000000E+00 -0.57881026231E+03  0.13648630099E+04  0.12360540910E+04 0.  0.
        4    1    3    3  502    0  0.60481706623E+03 -0.32787468362E+02 -0.15382042549E+03  0.62493282669E+03  0.12699999809E+01 0. -1.
       -4    1    3    3    0  502 -0.60481706623E+03  0.32787468362E+02 -0.42498983682E+03  0.73993018318E+03  0.12699999809E+01 0.  1.
</event>
<event>
 5   0  0.4388937E-03  0.1301120E+04  0.7818609E-02  0.9028677E-01
        2   -1    0    0  501    0  0.00000000000E+00  0.00000000000E+00  0.20169069239E+04  0.20169069239E+04  0.25500000920E-02 0. -1.
       -2   -1    0    0    0  501  0.00000000000E+00  0.00000000000E+00 -0.20984036322E+03  0.20984036323E+03  0.25500000920E-02 0.  1.
    10030    2    1    2    0    0  0.00000000000E+00  0.00000000000E+00  0.18070665607E+04  0.22267472871E+04  0.13011202581E+04 0.  0.
        5    1    3    3  502    0  0.64788284418E+03  0.85949675013E+01  0.10030356843E+04  0.11941225763E+04  0.46999998093E+01 0. -1.
       -5    1    3    3    0  502 -0.64788284418E+03 -0.85949675013E+01  0.80403087641E+03  0.10326247109E+04  0.46999998093E+01 0.  1.
</event>
<event>
 5   0  0.4306214E-03  0.1296449E+04  0.7818609E-02  0.9032386E-01
       -2   -1    0    0    0  501  0.00000000000E+00  0.00000000000E+00  0.89765649098E+03  0.89765649099E+03  0.25500000920E-02 0.  1.
        2   -1    0    0  501    0  0.00000000000E+00  0.00000000000E+00 -0.46810196112E+03  0.46810196113E+03  0.25500000920E-02 0. -1.
    10030    2    1    2    0    0  0.00000000000E+00  0.00000000000E+00  0.42955452986E+03  0.13657584521E+04  0.12964486320E+04 0.  0.
        3    1    3    3  502    0  0.12321977530E+03  0.35700931875E+03 -0.34022388490E+03  0.50832181613E+03  0.10100000352E+00 0. -1.
       -3    1    3    3    0  502 -0.12321977530E+03 -0.35700931875E+03  0.76977841476E+03  0.85743663599E+03  0.10100000352E+00 0.  1.
</event>
<event>
 5   0  0.2356769E-03  0.9081648E+03  0.7818609E-02  0.9415432E-01
        1   -1    0    0  501    0  0.00000000000E+00  0.00000000000E+00  0.49417146223E+03  0.49417146225E+03  0.50400001928E-02 0.  1.
       -1   -1    0    0    0  501  0.00000000000E+00  0.00000000000E+00 -0.41724555749E+03  0.41724555752E+03  0.50400001928E-02 0. -1.
    10030    2    1    2    0    0  0.00000000000E+00  0.00000000000E+00  0.76925904744E+02  0.91141701977E+03  0.90816484688E+03 0.  0.
        1    1    3    3  502    0 -0.18008381543E+03 -0.38904323821E+03  0.18868540897E+03  0.46838766568E+03  0.50400001928E-02 0.  1.
       -1    1    3    3    0  502  0.18008381543E+03  0.38904323821E+03 -0.11175950422E+03  0.44302935409E+03  0.50400001928E-02 0. -1.
</event>
<event>
 5   0  0.1661750E-03  0.1328200E+04  0.7818609E-02  0.9007496E-01
       -4   -1    0    0    0  501  0.00000000000E+00  0.00000000000E+00  0.42063030267E+03  0.42063221991E+03  0.12699999809E+01 0. -1.
        4   -1    0    0  501    0  0.00000000000E+00  0.00000000000E+00 -0.10484907141E+04  0.10484914832E+04  0.12699999809E+01 0.  1.
    10030    2    1    2    0    0  0.00000000000E+00  0.00000000000E+00 -0.62786041141E+03  0.14691237031E+04  0.13282001953E+04 0.  0.
        1    1    3    3  502    0 -0.26159732768E+03 -0.52790142022E+03  0.25042176345E+02  0.58969499060E+03  0.50400001928E-02 0.  1.
       -1    1    3    3    0  502  0.26159732768E+03  0.52790142022E+03 -0.65290258775E+03  0.87942871254E+03  0.50400001928E-02 0. -1.
</event>
<event>
 5   0  0.2462055E-03  0.1342343E+04  0.7818609E-02  0.8996645E-01
       -1   -1    0    0    0  501  0.00000000000E+00  0.00000000000E+00  0.49483803711E+03  0.49483803714E+03  0.50400001928E-02 0. -1.
        1   -1    0    0  501    0  0.00000000000E+00  0.00000000000E+00 -0.91034051987E+03  0.91034051988E+03  0.50400001928E-02 0.  1.
    10030    2    1    2    0    0  0.00000000000E+00  0.00000000000E+00 -0.41550248276E+03  0.14051785570E+04  0.13423429010E+04 0.  0.
        2    1    3    3  502    0 -0.34145644414E+03 -0.19533912951E+03  0.36150696582E+03  0.53426319835E+03  0.25500000920E-02 0. -1.
       -2    1    3    3    0  502  0.34145644414E+03  0.19533912951E+03 -0.77700944858E+03  0.87091535866E+03  0.25500000920E-02 0.  1.
</event>
<event>
 5   0  0.4263540E-03  0.1292196E+04  0.7818609E-02  0.9035777E-01
       -2   -1    0    0    0  501  0.00000000000E+00  0.00000000000E+00  0.21801232214E+03  0.21801232215E+03  0.25500000920E-02 0. -1.
        2   -1    0    0  501    0  0.00000000000E+00  0.00000000000E+00 -0.19147657914E+04  0.19147657914E+04  0.25500000920E-02 0.  1.
    10030    2    1    2    0    0  0.00000000000E+00  0.00000000000E+00 -0.16967534693E+04  0.21327781136E+04  0.12921958622E+04 0.  0.
        2    1    3    3  502    0 -0.33366547785E+03  0.25648048321E+03 -0.16575083983E+04  0.17101020379E+04  0.25500000920E-02 0.  1.
       -2    1    3    3    0  502  0.33366547785E+03 -0.25648048321E+03 -0.39245070952E+02  0.42267607571E+03  0.25500000920E-02 0. -1.
</event>
<event>
 5   0  0.4310889E-03  0.1300433E+04  0.7818609E-02  0.9029222E-01
        2   -1    0    0  501    0  0.00000000000E+00  0.00000000000E+00  0.21048866734E+04  0.21048866734E+04  0.25500000920E-02 0. -1.
       -2   -1    0    0    0  501  0.00000000000E+00  0.00000000000E+00 -0.20085723802E+03  0.20085723804E+03  0.25500000920E-02 0.  1.
    10030    2    1    2    0    0  0.00000000000E+00  0.00000000000E+00  0.19040294353E+04  0.23057439114E+04  0.13004333487E+04 0.  0.
        4    1    3    3  502    0 -0.33658591779E+03 -0.54737817569E+03  0.11281389579E+04  0.12983112371E+04  0.12699999809E+01 0. -1.
       -4    1    3    3    0  502  0.33658591779E+03  0.54737817569E+03  0.77589047748E+03  0.10074326743E+04  0.12699999809E+01 0.  1.
</event>
<event>
 5   0  0.4388937E-03  0.1305125E+04  0.7818609E-02  0.9025511E-01
       -2   -1    0    0    0  501  0.00000000000E+00  0.00000000000E+00  0.51216418823E+03  0.51216418824E+03  0.25500000920E-02 0.  1.
        2   -1    0    0  501    0  0.00000000000E+00  0.00000000000E+00 -0.83144821698E+03  0.83144821699E+03  0.25500000920E-02 0. -1.
    10030    2    1    2    0    0  0.00000000000E+00  0.00000000000E+00 -0.31928402875E+03  0.13436124052E+04  0.13051252831E+04 0.  0.
        5    1    3    3  502    0  0.30525896072E+03  0.21860103661E+03 -0.70909080130E+03  0.80237229563E+03  0.46999998093E+01 0. -1.
       -5    1    3    3    0  502 -0.30525896072E+03 -0.21860103661E+03  0.38980677255E+03  0.54124010959E+03  0.46999998093E+01 0.  1.
</event>
<event>
 5   0  0.2511542E-03  0.1370887E+04  0.7818609E-02  0.8975166E-01
       -1   -1    0    0    0  501  0.00000000000E+00  0.00000000000E+00  0.36993214064E+03  0.36993214067E+03  0.50400001928E-02 0. -1.
        1   -1    0    0  501    0  0.00000000000E+00  0.00000000000E+00 -0.12700503887E+04  0.12700503887E+04  0.50400001928E-02 0.  1.
    10030    2    1    2    0    0  0.00000000000E+00  0.00000000000E+00 -0.90011824803E+03  0.16399825293E+04  0.13708865147E+04 0.  0.
        4    1    3    3  502    0  0.47936958977E+03  0.17669936476E+02  0.13566477669E+03  0.49851175993E+03  0.12699999809E+01 0. -1.
       -4    1    3    3    0  502 -0.47936958977E+03 -0.17669936476E+02 -0.10357830247E+04  0.11414707694E+04  0.12699999809E+01 0.  1.
</event>
<event>
 5   0  0.2511542E-03  0.1257509E+04  0.7818609E-02  0.9063956E-01
        1   -1    0    0  501    0  0.00000000000E+00  0.00000000000E+00  0.72144207555E+03  0.72144207557E+03  0.50400001928E-02 0.  1.
       -1   -1    0    0    0  501  0.00000000000E+00  0.00000000000E+00 -0.54797511633E+03  0.54797511635E+03  0.50400001928E-02 0. -1.
    10030    2    1    2    0    0  0.00000000000E+00  0.00000000000E+00  0.17346695923E+03  0.12694171919E+04  0.12575091336E+04 0.  0.
        4    1    3    3  502    0 -0.27334405176E+03  0.16083652730E+03  0.63477908091E+03  0.70959950226E+03  0.12699999809E+01 0.  1.
       -4    1    3    3    0  502  0.27334405176E+03 -0.16083652730E+03 -0.46131212168E+03  0.55981768966E+03  0.12699999809E+01 0. -1.
</event>
<event>
 5   0  0.4263540E-03  0.9527601E+03  0.7818609E-02  0.9361930E-01
       -2   -1    0    0    0  501  0.00000000000E+00  0.00000000000E+00  0.15521905483E+04  0.15521905483E+04  0.25500000920E-02 0.  1.
        2   -1    0    0  501    0  0.00000000000E+00  0.00000000000E+00 -0.14620494770E+03  0.14620494772E+03  0.25500000920E-02 0. -1.
    10030    2    1    2    0    0  0.00000000000E+00  0.00000000000E+00  0.14059856006E+04  0.16983954960E+04  0.95276007043E+03 0.  0.
        2    1    3    3  502    0 -0.21724134939E+03  0.10156146046E+03 -0.30759833108E+02  0.24177407114E+03  0.25500000920E-02 0. -1.
       -2    1    3    3    0  502  0.21724134939E+03 -0.10156146046E+03  0.14367454337E+04  0.14566214249E+04  0.25500000920E-02 0.  1.
</event>
<event>
 5   0  0.4453011E-03  0.1330225E+04  0.7818609E-02  0.9005934E-01
        2   -1    0    0  501    0  0.00000000000E+00  0.00000000000E+00  0.72792649768E+03  0.72792649769E+03  0.25500000920E-02 0. -1.
       -2   -1    0    0    0  501  0.00000000000E+00  0.00000000000E+00 -0.60771872419E+03  0.60771872420E+03  0.25500000920E-02 0.  1.
    10030    2    1    2    0    0  0.00000000000E+00  0.00000000000E+00  0.12020777349E+03  0.13356452219E+04  0.13302248870E+04 0.  0.
        1    1    3    3  502    0  0.21105972817E+02 -0.23588085166E+03  0.68415821405E+03  0.72398736187E+03  0.50400001928E-02 0. -1.
       -1    1    3    3    0  502 -0.21105972817E+02  0.23588085166E+03 -0.56395044057E+03  0.61165786001E+03  0.50400001928E-02 0.  1.
</event>
<event>
 5   0  0.4453011E-03  0.1309435E+04  0.7818609E-02  0.9022116E-01
        2   -1    0    0  501    0  0.00000000000E+00  0.00000000000E+00  0.76915509827E+03  0.76915509827E+03  0.25500000920E-02 0.  1.
       -2   -1    0    0    0  501  0.00000000000E+00  0.00000000000E+00 -0.55730627619E+03  0.55730627620E+03  0.25500000920E-02 0. -1.
    10030    2    1    2    0    0  0.00000000000E+00  0.00000000000E+00  0.21184882208E+03  0.13264613745E+04  0.13094349371E+04 0.  0.
        1    1    3    3  502    0 -0.41205973232E+03 -0.12555071705E+03  0.60538595353E+03  0.74299956818E+03  0.50400001928E-02 0.  1.
       -1    1    3    3    0  502  0.41205973232E+03  0.12555071705E+03 -0.39353713146E+03  0.58346180630E+03  0.50400001928E-02 0. -1.
</event>
<event>
 5   0  0.2462055E-03  0.1298398E+04  0.7818609E-02  0.9030837E-01
       -1   -1    0    0    0  501  0.00000000000E+00  0.00000000000E+00  0.63628937134E+03  0.63628937136E+03  0.50400001928E-02 0. -1.
        1   -1    0    0  501    0  0.00000000000E+00  0.00000000000E+00 -0.66237016899E+03  0.66237016900E+03  0.50400001928E-02 0.  1.
    10030    2    1    2    0    0  0.00000000000E+00  0.00000000000E+00 -0.26080797647E+02  0.12986595404E+04  0.12983976254E+04 0.  0.
        2    1    3    3  502    0  0.59095635812E+03 -0.14136117327E+03 -0.24166187777E+03  0.65392114332E+03  0.25500000920E-02 0. -1.
       -2    1    3    3    0  502 -0.59095635812E+03  0.14136117327E+03  0.21558108012E+03  0.64473839704E+03  0.25500000920E-02 0.  1.
</event>
<event>
 5   0  0.4388937E-03  0.1307289E+04  0.7818609E-02  0.9023805E-01
        2   -1    0    0  501    0  0.00000000000E+00  0.00000000000E+00  0.64339937155E+03  0.64339937156E+03  0.25500000920E-02 0.  1.
       -2   -1    0    0    0  501  0.00000000000E+00  0.00000000000E+00 -0.66405296668E+03  0.66405296668E+03  0.25500000920E-02 0. -1.
    10030    2    1    2    0    0  0.00000000000E+00  0.00000000000E+00 -0.20653595126E+02  0.13074523382E+04  0.13072891975E+04 0.  0.
        5    1    3    3  502    0 -0.38515275493E+02  0.40829262240E+02 -0.66162132941E+03  0.66401455454E+03  0.46999998093E+01 0. -1.
       -5    1    3    3    0  502  0.38515275493E+02 -0.40829262240E+02  0.64096773429E+03  0.64343778370E+03  0.46999998093E+01 0.  1.
</event>
<event>
 5   0  0.2511542E-03  0.1314572E+04  0.7818609E-02  0.9018088E-01
       -1   -1    0    0    0  501  0.00000000000E+00  0.00000000000E+00  0.10081493996E+04  0.10081493996E+04  0.50400001928E-02 0. -1.
        1   -1    0    0  501    0  0.00000000000E+00  0.00000000000E+00 -0.42853288229E+03  0.42853288232E+03  0.50400001928E-02 0.  1.
    10030    2    1    2    0    0  0.00000000000E+00  0.00000000000E+00  0.57961651734E+03  0.14366822820E+04  0.13145724294E+04 0.  0.
        4    1    3    3  502    0  0.20897091320E+03 -0.29227793238E+03 -0.31170631834E+03  0.47566550655E+03  0.12699999809E+01 0.  1.
       -4    1    3    3    0  502 -0.20897091320E+03  0.29227793238E+03  0.89132283569E+03  0.96101677542E+03  0.12699999809E+01 0. -1.
</event>
<event>
 5   0  0.2356769E-03  0.1364870E+04  0.7818609E-02  0.8979647E-01
       -1   -1    0    0    0  501  0.00000000000E+00  0.00000000000E+00  0.34816952101E+03  0.34816952104E+03  0.50400001928E-02 0. -1.
        1   -1    0    0  501    0  0.00000000000E+00  0.00000000000E+00 -0.13376180470E+04  0.13376180470E+04  0.50400001928E-02 0.  1.
    10030    2    1    2    0    0  0.00000000000E+00  0.00000000000E+00 -0.98944852603E+03  0.16857875681E+04  0.13648704477E+04 0.  0.
        1    1    3    3  502    0 -0.21857327763E+03  0.50432794614E+03 -0.99429722398E+03  0.11361108769E+04  0.50400001928E-02 0.  1.
       -1    1    3    3    0  502  0.21857327763E+03 -0.50432794614E+03  0.48486979505E+01  0.54967669120E+03  0.50400001928E-02 0. -1.
</event>
<event>
 5   0  0.2356769E-03  0.1179854E+04  0.7818609E-02  0.9130675E-01
       -1   -1    0    0    0  501  0.00000000000E+00  0.00000000000E+00  0.53831157315E+03  0.53831157317E+03  0.50400001928E-02 0. -1.
        1   -1    0    0  501    0  0.00000000000E+00  0.00000000000E+00 -0.64649143312E+03  0.64649143314E+03  0.50400001928E-02 0.  1.
    10030    2    1    2    0    0  0.00000000000E+00  0.00000000000E+00 -0.10817985997E+03  0.11848030063E+04  0.11798539239E+04 0.  0.
        1    1    3    3  502    0  0.30976612318E+02  0.37905224499E+03  0.39877142777E+03  0.55105245356E+03  0.50400001928E-02 0. -1.
       -1    1    3    3    0  502 -0.30976612318E+02 -0.37905224499E+03 -0.50695128774E+03  0.63375055275E+03  0.50400001928E-02 0.  1.
</event>
<event>
 5   0  0.2462055E-03  0.1372398E+04  0.7818609E-02  0.8974044E-01
       -1   -1    0    0    0  501  0.00000000000E+00  0.00000000000E+00  0.38473522276E+03  0.38473522280E+03  0.50400001928E-02 0. -1.
        1   -1    0    0  501    0  0.00000000000E+00  0.00000000000E+00 -0.12238789085E+04  0.12238789085E+04  0.50400001928E-02 0.  1.
    10030    2    1    2    0    0  0.00000000000E+00  0.00000000000E+00 -0.83914368572E+03  0.16086141313E+04  0.13723983744E+04 0.  0.
        2    1    3    3  502    0 -0.62735011040E+03 -0.26329289667E+03 -0.31487849606E+03  0.74969312238E+03  0.25500000920E-02 0.  1.
       -2    1    3    3    0  502  0.62735011040E+03  0.26329289667E+03 -0.52426518966E+03  0.85892100891E+03  0.25500000920E-02 0. -1.
</event>
<event>
 5   0  0.2356769E-03  0.1337735E+04  0.7818609E-02  0.9000165E-01
       -1   -1    0    0    0  501  0.00000000000E+00  0.00000000000E+00  0.61118997202E+03  0.61118997204E+03  0.50400001928E-02 0. -1.
        1   -1    0    0  501    0  0.00000000000E+00  0.00000000000E+00 -0.73198842962E+03  0.73198842964E+03  0.50400001928E-02 0.  1.
    10030    2    1    2    0    0  0.00000000000E+00  0.00000000000E+00 -0.12079845760E+03  0.13431784017E+04  0.13377353817E+04 0.  0.
        1    1    3    3  502    0 -0.12505117218E+03  0.35308191269E+03  0.49600291649E+03  0.62154929485E+03  0.50400001928E-02 0. -1.
       -1    1    3    3    0  502  0.12505117218E+03 -0.35308191269E+03 -0.61680137409E+03  0.72162910684E+03  0.50400001928E-02 0.  1.
</event>
<event>
 5   0  0.4306214E-03  0.1314397E+04  0.7818609E-02  0.9018225E-01
        2   -1    0    0  501    0  0.00000000000E+00  0.00000000000E+00  0.12183235927E+04  0.12183235927E+04  0.25500000920E-02 0. -1.
       -2   -1    0    0    0  501  0.00000000000E+00  0.00000000000E+00 -0.35451187316E+03  0.35451187317E+03  0.25500000920E-02 0.  1.
    10030    2    1    2    0    0  0.00000000000E+00  0.00000000000E+00  0.86381171953E+03  0.15728354659E+04  0.13143974726E+04 0.  0.
        3    1    3    3  502    0 -0.12418173725E+03  0.55824680313E+03  0.81937748872E+03  0.99921973374E+03  0.10100000352E+00 0. -1.
       -3    1    3    3    0  502  0.12418173725E+03 -0.55824680313E+03  0.44434230814E+02  0.57361573213E+03  0.10100000352E+00 0.  1.
</event>
<event>
 5   0  0.2370801E-03  0.1411789E+04  0.7818609E-02  0.8945329E-01
        1   -1    0    0  501    0  0.00000000000E+00  0.00000000000E+00  0.98777056020E+03  0.98777056022E+03  0.50400001928E-02 0.  1.
       -1   -1    0    0    0  501  0.00000000000E+00  0.00000000000E+00 -0.50445648734E+03  0.50445648736E+03  0.50400001928E-02 0. -1.
    10030    2    1    2    0    0  0.00000000000E+00  0.00000000000E+00  0.48331407286E+03  0.14922270476E+04  0.14117893145E+04 0.  0.
        3    1    3    3  502    0 -0.18559719740E+03 -0.71929963513E+02  0.95749342737E+03  0.97796416755E+03  0.10100000352E+00 0.  1.
       -3    1    3    3    0  502  0.18559719740E+03  0.71929963513E+02 -0.47417935451E+03  0.51426288003E+03  0.10100000352E+00 0. -1.
</event>
<event>
 5   0  0.4310889E-03  0.1313833E+04  0.7818609E-02  0.9018667E-01
       -2   -1    0    0    0  501  0.00000000000E+00  0.00000000000E+00  0.34528028479E+03  0.34528028480E+03  0.25500000920E-02 0.  1.
        2   -1    0    0  501    0  0.00000000000E+00  0.00000000000E+00 -0.12498229810E+04  0.12498229810E+04  0.25500000920E-02 0. -1.
    10030    2    1    2    0    0  0.00000000000E+00  0.00000000000E+00 -0.90454269621E+03  0.15951032658E+04  0.13138329191E+04 0.  0.
        4    1    3    3  502    0  0.50413471910E+03 -0.99902673696E+02  0.44473324697E+02  0.51586029962E+03  0.12699999809E+01 0.  1.
       -4    1    3    3    0  502 -0.50413471910E+03  0.99902673696E+02 -0.94901602091E+03  0.10792429662E+04  0.12699999809E+01 0. -1.
</event>
<event>
 5   0  0.4306214E-03  0.1319608E+04  0.7818609E-02  0.9014159E-01
       -2   -1    0    0    0  501  0.00000000000E+00  0.00000000000E+00  0.62470960994E+03  0.62470960994E+03  0.25500000920E-02 0.  1.
        2   -1    0    0  501    0  0.00000000000E+00  0.00000000000E+00 -0.69686980340E+03  0.69686980340E+03  0.25500000920E-02 0. -1.
    10030    2    1    2    0    0  0.00000000000E+00  0.00000000000E+00 -0.72160193460E+02  0.13215794133E+04  0.13196079161E+04 0.  0.
        3    1    3    3  502    0  0.36102298905E+03  0.32159550950E+03  0.41356726994E+03  0.63623829444E+03  0.10100000352E+00 0.  1.
       -3    1    3    3    0  502 -0.36102298905E+03 -0.32159550950E+03 -0.48572746340E+03  0.68534111890E+03  0.10100000352E+00 0. -1.
</event>
<event>
 5   0  0.4263540E-03  0.1315878E+04  0.7818609E-02  0.9017068E-01
       -2   -1    0    0    0  501  0.00000000000E+00  0.00000000000E+00  0.88865929428E+03  0.88865929428E+03  0.25500000920E-02 0.  1.
        2   -1    0    0  501    0  0.00000000000E+00  0.00000000000E+00 -0.48712010232E+03  0.48712010233E+03  0.25500000920E-02 0. -1.
    10030    2    1    2    0    0  0.00000000000E+00  0.00000000000E+00  0.40153919196E+03  0.13757793966E+04  0.13158781195E+04 0.  0.
        2    1    3    3  502    0 -0.12155508238E+03 -0.52824111784E+03 -0.18912666132E+03  0.57409338148E+03  0.25500000920E-02 0. -1.
       -2    1    3    3    0  502  0.12155508238E+03  0.52824111784E+03  0.59066585328E+03  0.80168601514E+03  0.25500000920E-02 0.  1.
</event>
<event>
 5   0  0.2458456E-03  0.1307936E+04  0.7818609E-02  0.9023295E-01
        1   -1    0    0  501    0  0.00000000000E+00  0.00000000000E+00  0.13320115063E+04  0.13320115063E+04  0.50400001928E-02 0.  1.
       -1   -1    0    0    0  501  0.00000000000E+00  0.00000000000E+00 -0.32107401727E+03  0.32107401731E+03  0.50400001928E-02 0. -1.
    10030    2    1    2    0    0  0.00000000000E+00  0.00000000000E+00  0.10109374890E+04  0.16530855236E+04  0.13079362147E+04 0.  0.
        5    1    3    3  502    0 -0.17944979117E+01 -0.64923044553E+03  0.60457568645E+03  0.88715119471E+03  0.46999998093E+01 0.  1.
       -5    1    3    3    0  502  0.17944979117E+01  0.64923044553E+03  0.40636180260E+03  0.76593432893E+03  0.46999998093E+01 0. -1.
</event>
<event>
 5   0  0.2356769E-03  0.1259550E+04  0.7818609E-02  0.9062272E-01
        1   -1    0    0  501    0  0.00000000000E+00  0.00000000000E+00  0.53910268701E+03  0.53910268703E+03  0.50400001928E-02 0.  1.
       -1   -1    0    0    0  501  0.00000000000E+00  0.00000000000E+00 -0.73569806275E+03  0.73569806277E+03  0.50400001928E-02 0. -1.
    10030    2    1    2    0    0  0.00000000000E+00  0.00000000000E+00 -0.19659537574E+03  0.12748007498E+04  0.12595503999E+04 0.  0.
        1    1    3    3  502    0  0.45811642089E+03 -0.42873128821E+03 -0.15313515776E+03  0.64585722041E+03  0.50400001928E-02 0. -1.
       -1    1    3    3    0  502 -0.45811642089E+03  0.42873128821E+03 -0.43460217981E+02  0.62894352939E+03  0.50400001928E-02 0.  1.
</event>
<event>
 5   0  0.4310889E-03  0.1301172E+04  0.7818609E-02  0.9028636E-01
       -2   -1    0    0    0  501  0.00000000000E+00  0.00000000000E+00  0.56624233422E+03  0.56624233423E+03  0.25500000920E-02 0.  1.
        2   -1    0    0  501    0  0.00000000000E+00  0.00000000000E+00 -0.74749312866E+03  0.74749312866E+03  0.25500000920E-02 0. -1.
    10030    2    1    2    0    0  0.00000000000E+00  0.00000000000E+00 -0.18125079444E+03  0.13137354629E+04  0.13011721700E+04 0.  0.
        4    1    3    3  502    0  0.63957345126E+03  0.11448304064E+03 -0.57137776303E+02  0.65224757917E+03  0.12699999809E+01 0. -1.
       -4    1    3    3    0  502 -0.63957345126E+03 -0.11448304064E+03 -0.12411301813E+03  0.66148788373E+03  0.12699999809E+01 0.  1.
</event>
<event>
 5   0  0.4310889E-03  0.1345400E+04  0.7818609E-02  0.8994317E-01
        2   -1    0    0  501    0  0.00000000000E+00  0.00000000000E+00  0.41358404784E+03  0.41358404784E+03  0.25500000920E-02 0. -1.
       -2   -1    0    0    0  501  0.00000000000E+00  0.00000000000E+00 -0.10941562500E+04  0.10941562500E+04  0.25500000920E-02 0.  1.
    10030    2    1    2    0    0  0.00000000000E+00  0.00000000000E+00 -0.68057220214E+03  0.15077402978E+04  0.13454004175E+04 0.  0.
        4    1    3    3  502    0  0.49129027335E+03 -0.23491226620E+03  0.10230345585E+03  0.55409161289E+03  0.12699999809E+01 0.  1.
       -4    1    3    3    0  502 -0.49129027335E+03  0.23491226620E+03 -0.78287565799E+03  0.95364868493E+03  0.12699999809E+01 0. -1.
</event>
<event>
 5   0  0.4388937E-03  0.1305333E+04  0.7818609E-02  0.9025347E-01
       -2   -1    0    0    0  501  0.00000000000E+00  0.00000000000E+00  0.79611161412E+03  0.79611161412E+03  0.25500000920E-02 0.  1.
        2   -1    0    0  501    0  0.00000000000E+00  0.00000000000E+00 -0.53506736511E+03  0.53506736512E+03  0.25500000920E-02 0. -1.
    10030    2    1    2    0    0  0.00000000000E+00  0.00000000000E+00  0.26104424900E+03  0.13311789792E+04  0.13053326683E+04 0.  0.
        5    1    3    3  502    0 -0.18811021997E+03  0.22723752505E+03 -0.46318129297E+03  0.54916422663E+03  0.46999998093E+01 0. -1.
       -5    1    3    3    0  502  0.18811021997E+03 -0.22723752505E+03  0.72422554198E+03  0.78201475261E+03  0.46999998093E+01 0.  1.
</event>
<event>
 5   0  0.4306214E-03  0.1294570E+04  0.7818609E-02  0.9033882E-01
       -2   -1    0    0    0  501  0.00000000000E+00  0.00000000000E+00  0.31666308262E+03  0.31666308263E+03  0.25500000920E-02 0. -1.
        2   -1    0    0  501    0  0.00000000000E+00  0.00000000000E+00 -0.13231030086E+04  0.13231030086E+04  0.25500000920E-02 0.  1.
    10030    2    1    2    0    0  0.00000000000E+00  0.00000000000E+00 -0.10064399260E+04  0.16397660913E+04  0.12945700095E+04 0.  0.
        3    1    3    3  502    0  0.59491698017E+03 -0.33656919605E+01 -0.82625357556E+03  0.10181515224E+04  0.10100000352E+00 0.  1.
       -3    1    3    3    0  502 -0.59491698017E+03  0.33656919605E+01 -0.18018635045E+03  0.62161456889E+03  0.10100000352E+00 0. -1.
</event>
<event>
 5   0  0.4310889E-03  0.1242651E+04  0.7818609E-02  0.9076322E-01
        2   -1    0    0  501    0  0.00000000000E+00  0.00000000000E+00  0.54047122313E+03  0.54047122313E+03  0.25500000920E-02 0.  1.
       -2   -1    0    0    0  501  0.00000000000E+00  0.00000000000E+00 -0.71427602556E+03  0.71427602556E+03  0.25500000920E-02 0. -1.
    10030    2    1    2    0    0  0.00000000000E+00  0.00000000000E+00 -0.17380480243E+03  0.12547472487E+04  0.12426514188E+04 0.  0.
        4    1    3    3  502    0 -0.31759254305E+03 -0.47597627266E+03  0.15758165406E+03  0.59350823594E+03  0.12699999809E+01 0.  1.
       -4    1    3    3    0  502  0.31759254305E+03  0.47597627266E+03 -0.33138645649E+03  0.66123901275E+03  0.12699999809E+01 0. -1.
</event>
<event>
 5   0  0.2458456E-03  0.1284378E+04  0.7818609E-02  0.9042046E-01
       -1   -1    0    0    0  501  0.00000000000E+00  0.00000000000E+00  0.84620871174E+03  0.84620871175E+03  0.50400001928E-02 0.  1.
        1   -1    0    0  501    0  0.00000000000E+00  0.00000000000E+00 -0.48735807522E+03  0.48735807525E+03  0.50400001928E-02 0. -1.
    10030    2    1    2    0    0  0.00000000000E+00  0.00000000000E+00  0.35885063651E+03  0.13335667870E+04  0.12843779024E+04 0.  0.
        5    1    3    3  502    0 -0.25338317950E+03 -0.44748396552E+03 -0.21993434822E+03  0.55931935652E+03  0.46999998093E+01 0. -1.
       -5    1    3    3    0  502  0.25338317950E+03  0.44748396552E+03  0.57878498473E+03  0.77424743048E+03  0.46999998093E+01 0.  1.
</event>
<event>
 5   0  0.2462055E-03  0.1344886E+04  0.7818609E-02  0.8994708E-01
       -1   -1    0    0    0  501  0.00000000000E+00  0.00000000000E+00  0.25481159715E+03  0.25481159720E+03  0.50400001928E-02 0. -1.
        1   -1    0    0  501    0  0.00000000000E+00  0.00000000000E+00 -0.17745648023E+04  0.17745648023E+04  0.50400001928E-02 0.  1.
    10030    2    1    2    0    0  0.00000000000E+00  0.00000000000E+00 -0.15197532051E+04  0.20293763995E+04  0.13448861536E+04 0.  0.
        2    1    3    3  502    0 -0.64489481365E+02 -0.52954542371E+03 -0.14212020037E+03  0.55206467044E+03  0.25500000920E-02 0. -1.
       -2    1    3    3    0  502  0.64489481365E+02  0.52954542371E+03 -0.13776330047E+04  0.14773117290E+04  0.25500000920E-02 0.  1.
</event>
<event>
 5   0  0.1661750E-03  0.1259604E+04  0.7818609E-02  0.9062228E-01
       -3   -1    0    0    0  501  0.00000000000E+00  0.00000000000E+00  0.54369568806E+03  0.54369569744E+03  0.10100000352E+00 0.  1.
        3   -1    0    0  501    0  0.00000000000E+00  0.00000000000E+00 -0.72954458876E+03  0.72954459575E+03  0.10100000352E+00 0. -1.
    10030    2    1    2    0    0  0.00000000000E+00  0.00000000000E+00 -0.18584890070E+03  0.12732402932E+04  0.12596035211E+04 0.  0.
        5    1    3    3  502    0 -0.23897872476E+03 -0.47109346533E+03 -0.43954837363E+03  0.68721521136E+03  0.46999998093E+01 0. -1.
       -5    1    3    3    0  502  0.23897872476E+03  0.47109346533E+03  0.25369947293E+03  0.58602508183E+03  0.46999998093E+01 0.  1.
</event>
<event>
 5   0  0.4310889E-03  0.1390948E+04  0.7818609E-02  0.8960397E-01
       -2   -1    0    0    0  501  0.00000000000E+00  0.00000000000E+00  0.55041518482E+03  0.55041518482E+03  0.25500000920E-02 0.  1.
        2   -1    0    0  501    0  0.00000000000E+00  0.00000000000E+00 -0.87876219518E+03  0.87876219518E+03  0.25500000920E-02 0. -1.
    10030    2    1    2    0    0  0.00000000000E+00  0.00000000000E+00 -0.32834701036E+03  0.14291773800E+04  0.13909479589E+04 0.  0.
        4    1    3    3  502    0  0.63525802394E+03 -0.28079785968E+03 -0.20096617473E+03  0.72304163868E+03  0.12699999809E+01 0.  1.
       -4    1    3    3    0  502 -0.63525802394E+03  0.28079785968E+03 -0.12738083563E+03  0.70613574132E+03  0.12699999809E+01 0. -1.
</event>
<event>
 5   0  0.4306214E-03  0.1253718E+04  0.7818609E-02  0.9067094E-01
       -2   -1    0    0    0  501  0.00000000000E+00  0.00000000000E+00  0.25224647149E+03  0.25224647150E+03  0.25500000920E-02 0. -1.
        2   -1    0    0  501    0  0.00000000000E+00  0.00000000000E+00 -0.15578104931E+04  0.15578104931E+04  0.25500000920E-02 0.  1.
    10030    2    1    2    0    0  0.00000000000E+00  0.00000000000E+00 -0.13055640216E+04  0.18100569646E+04  0.12537179909E+04 0.  0.
        3    1    3    3  502    0  0.16079893946E+03 -0.23347312068E+03  0.15441079095E+03  0.32281372272E+03  0.10100000352E+00 0. -1.
       -3    1    3    3    0  502 -0.16079893946E+03  0.23347312068E+03 -0.14599748126E+04  0.14872432419E+04  0.10100000352E+00 0.  1.
</event>
<event>
 5   0  0.2458456E-03  0.1249867E+04  0.7818609E-02  0.9070294E-01
       -1   -1    0    0    0  501  0.00000000000E+00  0.00000000000E+00  0.35046932404E+03  0.35046932407E+03  0.50400001928E-02 0.  1.
        1   -1    0    0  501    0  0.00000000000E+00  0.00000000000E+00 -0.11143404877E+04  0.11143404877E+04  0.50400001928E-02 0. -1.
    10030    2    1    2    0    0  0.00000000000E+00  0.00000000000E+00 -0.76387116366E+03  0.14648098118E+04  0.12498674450E+04 0.  0.
        5    1    3    3  502    0 -0.44763739867E+03 -0.23194395217E+03 -0.81468195426E+03  0.95807411730E+03  0.46999998093E+01 0. -1.
       -5    1    3    3    0  502  0.44763739867E+03  0.23194395217E+03  0.50810790598E+02  0.50673569449E+03  0.46999998093E+01 0.  1.
</event>
<event>
 5   0  0.4263540E-03  0.1350799E+04  0.7818609E-02  0.8990223E-01
       -2   -1    0    0    0  501  0.00000000000E+00  0.00000000000E+00  0.24524461878E+03  0.24524461879E+03  0.25500000920E-02 0. -1.
        2   -1    0    0  501    0  0.00000000000E+00  0.00000000000E+00 -0.18600391128E+04  0.18600391128E+04  0.25500000920E-02 0.  1.
    10030    2    1    2    0    0  0.00000000000E+00  0.00000000000E+00 -0.16147944940E+04  0.21052837315E+04  0.13507991459E+04 0.  0.
        2    1    3    3  502    0  0.51467864218E+03  0.41449890973E+03 -0.58997503540E+03  0.88587470519E+03  0.25500000920E-02 0.  1.
       -2    1    3    3    0  502 -0.51467864218E+03 -0.41449890973E+03 -0.10248194586E+04  0.12194090264E+04  0.25500000920E-02 0. -1.
</event>
<event>
 5   0  0.4310889E-03  0.1320180E+04  0.7818609E-02  0.9013714E-01
       -2   -1    0    0    0  501  0.00000000000E+00  0.00000000000E+00  0.12224922675E+04  0.12224922675E+04  0.25500000920E-02 0.  1.
        2   -1    0    0  501    0  0.00000000000E+00  0.00000000000E+00 -0.35641841962E+03  0.35641841963E+03  0.25500000920E-02 0. -1.
    10030    2    1    2    0    0  0.00000000000E+00  0.00000000000E+00  0.86607384785E+03  0.15789106871E+04  0.13201799301E+04 0.  0.
        4    1    3    3  502    0  0.49493580095E+03  0.79211277909E+02  0.94672630066E+03  0.10712274151E+04  0.12699999809E+01 0.  1.
       -4    1    3    3    0  502 -0.49493580095E+03 -0.79211277909E+02 -0.80652452809E+02  0.50768327199E+03  0.12699999809E+01 0. -1.
</event>
<event>
 5   0  0.2356769E-03  0.1286342E+04  0.7818609E-02  0.9040467E-01
       -1   -1    0    0    0  501  0.00000000000E+00  0.00000000000E+00  0.53259518895E+03  0.53259518898E+03  0.50400001928E-02 0.  1.
        1   -1    0    0  501    0  0.00000000000E+00  0.00000000000E+00 -0.77670425683E+03  0.77670425685E+03  0.50400001928E-02 0. -1.
    10030    2    1    2    0    0  0.00000000000E+00  0.00000000000E+00 -0.24410906788E+03  0.13092994458E+04  0.12863420237E+04 0.  0.
        1    1    3    3  502    0  0.24460067785E+03 -0.59483873053E+03 -0.12461811205E+03  0.65512768284E+03  0.50400001928E-02 0. -1.
       -1    1    3    3    0  502 -0.24460067785E+03  0.59483873053E+03 -0.11949095583E+03  0.65417176299E+03  0.50400001928E-02 0.  1.
</event>
<event>
 5   0  0.4263540E-03  0.1329755E+04  0.7818609E-02  0.9006297E-01
       -2   -1    0    0    0  501  0.00000000000E+00  0.00000000000E+00  0.56296171651E+03  0.56296171652E+03  0.25500000920E-02 0.  1.
        2   -1    0    0  501    0  0.00000000000E+00  0.00000000000E+00 -0.78524308275E+03  0.78524308276E+03  0.25500000920E-02 0. -1.
    10030    2    1    2    0    0  0.00000000000E+00  0.00000000000E+00 -0.22228136624E+03  0.13482047993E+04  0.13297545544E+04 0.  0.
        2    1    3    3  502    0  0.19120725137E+03 -0.69848947951E+02 -0.75287041642E+03  0.77990573304E+03  0.25500000920E-02 0. -1.
       -2    1    3    3    0  502 -0.19120725137E+03  0.69848947951E+02  0.53058905018E+03  0.56829906623E+03  0.25500000920E-02 0.  1.
</event>
<event>
 5   0  0.2458456E-03  0.1307458E+04  0.7818609E-02  0.9023672E-01
        1   -1    0    0  501    0  0.00000000000E+00  0.00000000000E+00  0.80034358103E+03  0.80034358105E+03  0.50400001928E-02 0. -1.
       -1   -1    0    0    0  501  0.00000000000E+00  0.00000000000E+00 -0.53397274694E+03  0.53397274696E+03  0.50400001928E-02 0.  1.
    10030    2    1    2    0    0  0.00000000000E+00  0.00000000000E+00  0.26637083409E+03  0.13343163280E+04  0.13074580842E+04 0.  0.
        5    1    3    3  502    0 -0.28134859947E+03  0.50400918486E+03 -0.17996858945E+03  0.60464293268E+03  0.46999998093E+01 0.  1.
       -5    1    3    3    0  502  0.28134859947E+03 -0.50400918486E+03  0.44633942354E+03  0.72967339533E+03  0.46999998093E+01 0. -1.
</event>
<event>
 5   0  0.1661750E-03  0.1287152E+04  0.7818609E-02  0.9039816E-01
        3   -1    0    0  501    0  0.00000000000E+00  0.00000000000E+00  0.22799076532E+03  0.22799078769E+03  0.10100000352E+00 0. -1.
       -3   -1    0    0    0  501  0.00000000000E+00  0.00000000000E+00 -0.18166977869E+04  0.18166977897E+04  0.10100000352E+00 0.  1.
    10030    2    1    2    0    0  0.00000000000E+00  0.00000000000E+00 -0.15887070216E+04  0.20446885774E+04  0.12871524300E+04 0.  0.
        1    1    3    3  502    0  0.93530392850E+02  0.21194641489E+03  0.15945797981E+03  0.28124022565E+03  0.50400001928E-02 0. -1.
       -1    1    3    3    0  502 -0.93530392850E+02 -0.21194641489E+03 -0.17481650014E+04  0.17634483517E+04  0.50400001928E-02 0.  1.
</event>
<event>
 5   0  0.2356769E-03  0.1340480E+04  0.7818609E-02  0.8998066E-01
       -1   -1    0    0    0  501  0.00000000000E+00  0.00000000000E+00  0.45202389859E+03  0.45202389862E+03  0.50400001928E-02 0.  1.
        1   -1    0    0  501    0  0.00000000000E+00  0.00000000000E+00 -0.99380063030E+03  0.99380063031E+03  0.50400001928E-02 0. -1.
    10030    2    1    2    0    0  0.00000000000E+00  0.00000000000E+00 -0.54177673171E+03  0.14458245289E+04  0.13404799668E+04 0.  0.
        1    1    3    3  502    0  0.15838983710E+03  0.20624378970E+03 -0.93717053082E+03  0.97258030267E+03  0.50400001928E-02 0. -1.
       -1    1    3    3    0  502 -0.15838983710E+03 -0.20624378970E+03  0.39539379911E+03  0.47324422626E+03  0.50400001928E-02 0.  1.
</event>
<event>
 5   0  0.4388937E-03  0.7580526E+03  0.7818609E-02  0.9622801E-01
        2   -1    0    0  501    0  0.00000000000E+00  0.00000000000E+00  0.78256399696E+03  0.78256399697E+03  0.25500000920E-02 0.  1.
       -2   -1    0    0    0  501  0.00000000000E+00  0.00000000000E+00 -0.18357724510E+03  0.18357724512E+03  0.25500000920E-02 0. -1.
    10030    2    1    2    0    0  0.00000000000E+00  0.00000000000E+00  0.59898675186E+03  0.96614124209E+03  0.75805261740E+03 0.  0.
        5    1    3    3  502    0  0.33783463487E+03  0.15164793911E+02  0.81420377551E+02  0.34787006104E+03  0.46999998093E+01 0. -1.
       -5    1    3    3    0  502 -0.33783463487E+03 -0.15164793911E+02  0.51756637431E+03  0.61827118104E+03  0.46999998093E+01 0.  1.
</event>
<event>
 5   0  0.2458456E-03  0.1305855E+04  0.7818609E-02  0.9024935E-01
       -1   -1    0    0    0  501  0.00000000000E+00  0.00000000000E+00  0.89735948126E+03  0.89735948127E+03  0.50400001928E-02 0.  1.
        1   -1    0    0  501    0  0.00000000000E+00  0.00000000000E+00 -0.47507623404E+03  0.47507623407E+03  0.50400001928E-02 0. -1.
    10030    2    1    2    0    0  0.00000000000E+00  0.00000000000E+00  0.42228324722E+03  0.13724357153E+04  0.13058547591E+04 0.  0.
        5    1    3    3  502    0  0.16620489785E+03  0.50109178940E+03 -0.19260003766E+03  0.56199102660E+03  0.46999998093E+01 0. -1.
       -5    1    3    3    0  502 -0.16620489785E+03 -0.50109178940E+03  0.61488328488E+03  0.81044468874E+03  0.46999998093E+01 0.  1.
</event>
<event>
 5   0  0.4306214E-03  0.1314623E+04  0.7818609E-02  0.9018049E-01
       -2   -1    0    0    0  501  0.00000000000E+00  0.00000000000E+00  0.23856987010E+03  0.23856987011E+03  0.25500000920E-02 0. -1.
        2   -1    0    0  501    0  0.00000000000E+00  0.00000000000E+00 -0.18110346615E+04  0.18110346616E+04  0.25500000920E-02 0.  1.
    10030    2    1    2    0    0  0.00000000000E+00  0.00000000000E+00 -0.15724647915E+04  0.20496045317E+04  0.13146228417E+04 0.  0.
        3    1    3    3  502    0 -0.36477424298E+03 -0.17565127513E+03  0.21102058616E+02  0.40541204456E+03  0.10100000352E+00 0. -1.
       -3    1    3    3    0  502  0.36477424298E+03  0.17565127513E+03 -0.15935668501E+04  0.16441924871E+04  0.10100000352E+00 0.  1.
</event>
<event>
 5   0  0.2356769E-03  0.1257986E+04  0.7818609E-02  0.9063563E-01
       -1   -1    0    0    0  501  0.00000000000E+00  0.00000000000E+00  0.29132290490E+03  0.29132290494E+03  0.50400001928E-02 0.  1.
        1   -1    0    0  501    0  0.00000000000E+00  0.00000000000E+00 -0.13580537946E+04  0.13580537946E+04  0.50400001928E-02 0. -1.
    10030    2    1    2    0    0  0.00000000000E+00  0.00000000000E+00 -0.10667308897E+04  0.16493766996E+04  0.12579859721E+04 0.  0.
        1    1    3    3  502    0  0.10448639060E+03 -0.49581225184E+03 -0.10219859626E+04  0.11407026355E+04  0.50400001928E-02 0. -1.
       -1    1    3    3    0  502 -0.10448639060E+03  0.49581225184E+03 -0.44744927103E+02  0.50867406403E+03  0.50400001928E-02 0.  1.
</event>
<event>
 5   0  0.2370801E-03  0.1284140E+04  0.7818609E-02  0.9042238E-01
       -1   -1    0    0    0  501  0.00000000000E+00  0.00000000000E+00  0.44778681772E+03  0.44778681774E+03  0.50400001928E-02 0.  1.
        1   -1    0    0  501    0  0.00000000000E+00  0.00000000000E+00 -0.92064751523E+03  0.92064751525E+03  0.50400001928E-02 0. -1.
    10030    2    1    2    0    0  0.00000000000E+00  0.00000000000E+00 -0.47286069752E+03  0.13684343330E+04  0.12841399007E+04 0.  0.
        3    1    3    3  502    0  0.27117754916E+02 -0.63972365842E+03 -0.18563507003E+03  0.66666492423E+03  0.10100000352E+00 0.  1.
       -3    1    3    3    0  502 -0.27117754916E+02  0.63972365842E+03 -0.28722562749E+03  0.70176940876E+03  0.10100000352E+00 0. -1.
</event>
<event>
 5   0  0.4306214E-03  0.1281147E+04  0.7818609E-02  0.9044651E-01
       -2   -1    0    0    0  501  0.00000000000E+00  0.00000000000E+00  0.53433278675E+03  0.53433278676E+03  0.25500000920E-02 0.  1.
        2   -1    0    0  501    0  0.00000000000E+00  0.00000000000E+00 -0.76793814785E+03  0.76793814786E+03  0.25500000920E-02 0. -1.
    10030    2    1    2    0    0  0.00000000000E+00  0.00000000000E+00 -0.23360536110E+03  0.13022709346E+04  0.12811471900E+04 0.  0.
        3    1    3    3  502    0  0.50783942927E+03 -0.30391321673E+03  0.13233106039E+03  0.60644509147E+03  0.10100000352E+00 0.  1.
       -3    1    3    3    0  502 -0.50783942927E+03  0.30391321673E+03 -0.36593642149E+03  0.69582584315E+03  0.10100000352E+00 0. -1.
</event>
<event>
 5   0  0.4388937E-03  0.1310058E+04  0.7818609E-02  0.9021627E-01
       -2   -1    0    0    0  501  0.00000000000E+00  0.00000000000E+00  0.49492874821E+03  0.49492874822E+03  0.25500000920E-02 0.  1.
        2   -1    0    0  501    0  0.00000000000E+00  0.00000000000E+00 -0.86691893062E+03  0.86691893062E+03  0.25500000920E-02 0. -1.
    10030    2    1    2    0    0  0.00000000000E+00  0.00000000000E+00 -0.37199018241E+03  0.13618476788E+04  0.13100581684E+04 0.  0.
        5    1    3    3  502    0 -0.43862730425E+03  0.42269578139E+03 -0.43629445209E+03  0.74929338350E+03  0.46999998093E+01 0. -1.
       -5    1    3    3    0  502  0.43862730425E+03 -0.42269578139E+03  0.64304269680E+02  0.61255429534E+03  0.46999998093E+01 0.  1.
</event>
<event>
 5   0  0.4388937E-03  0.1314065E+04  0.7818609E-02  0.9018486E-01
       -2   -1    0    0    0  501  0.00000000000E+00  0.00000000000E+00  0.46989300299E+03  0.46989300299E+03  0.25500000920E-02 0. -1.
        2   -1    0    0  501    0  0.00000000000E+00  0.00000000000E+00 -0.91870155809E+03  0.91870155809E+03  0.25500000920E-02 0.  1.
    10030    2    1    2    0    0  0.00000000000E+00  0.00000000000E+00 -0.44880855510E+03  0.13885945611E+04  0.13140645859E+04 0.  0.
        5    1    3    3  502    0  0.26448883299E+03  0.40884256608E+03  0.24170592042E+03  0.54364549900E+03  0.46999998093E+01 0. -1.
       -5    1    3    3    0  502 -0.26448883299E+03 -0.40884256608E+03 -0.69051447552E+03  0.84494906209E+03  0.46999998093E+01 0.  1.
</event>
<event>
 5   0  0.2511542E-03  0.1213722E+04  0.7818609E-02  0.9100930E-01
       -1   -1    0    0    0  501  0.00000000000E+00  0.00000000000E+00  0.47542674425E+03  0.47542674427E+03  0.50400001928E-02 0. -1.
        1   -1    0    0  501    0  0.00000000000E+00  0.00000000000E+00 -0.77463041461E+03  0.77463041462E+03  0.50400001928E-02 0.  1.
    10030    2    1    2    0    0  0.00000000000E+00  0.00000000000E+00 -0.29920367036E+03  0.12500571589E+04  0.12137215760E+04 0.  0.
        4    1    3    3  502    0 -0.81884200220E+02 -0.12768573530E+03  0.45558581122E+03  0.48017571110E+03  0.12699999809E+01 0. -1.
       -4    1    3    3    0  502  0.81884200220E+02  0.12768573530E+03 -0.75478948158E+03  0.76988144779E+03  0.12699999809E+01 0.  1.
</event>
<event>
 5   0  0.2458456E-03  0.1232164E+04  0.7818609E-02  0.9085160E-01
       -1   -1    0    0    0  501  0.00000000000E+00  0.00000000000E+00  0.85809808091E+03  0.85809808092E+03  0.50400001928E-02 0. -1.
        1   -1    0    0  501    0  0.00000000000E+00  0.00000000000E+00 -0.44232356220E+03  0.44232356223E+03  0.50400001928E-02 0.  1.
    10030    2    1    2    0    0  0.00000000000E+00  0.00000000000E+00  0.41577451871E+03  0.13004216432E+04  0.12321639500E+04 0.  0.
        5    1    3    3  502    0 -0.19073054046E+03 -0.29546629475E+02  0.82534727909E+03  0.84762690111E+03  0.46999998093E+01 0. -1.
       -5    1    3    3    0  502  0.19073054046E+03  0.29546629475E+02 -0.40957276039E+03  0.45279474205E+03  0.46999998093E+01 0.  1.
</event>
<event>
 5   0  0.2511542E-03  0.1265649E+04  0.7818609E-02  0.9057258E-01
       -1   -1    0    0    0  501  0.00000000000E+00  0.00000000000E+00  0.91426450333E+03  0.91426450335E+03  0.50400001928E-02 0.  1.
        1   -1    0    0  501    0  0.00000000000E+00  0.00000000000E+00 -0.43802079502E+03  0.43802079505E+03  0.50400001928E-02 0. -1.
    10030    2    1    2    0    0  0.00000000000E+00  0.00000000000E+00  0.47624370832E+03  0.13522852984E+04  0.12656490266E+04 0.  0.
        4    1    3    3  502    0 -0.59807683302E+02 -0.61403225618E+03  0.87577448807E+02  0.62312438008E+03  0.12699999809E+01 0. -1.
       -4    1    3    3    0  502  0.59807683302E+02  0.61403225618E+03  0.38866625951E+03  0.72916091831E+03  0.12699999809E+01 0.  1.
</event>
<event>
 5   0  0.2356769E-03  0.1317441E+04  0.7818609E-02  0.9015848E-01
       -1   -1    0    0    0  501  0.00000000000E+00  0.00000000000E+00  0.58410739984E+03  0.58410739986E+03  0.50400001928E-02 0. -1.
        1   -1    0    0  501    0  0.00000000000E+00  0.00000000000E+00 -0.74286445026E+03  0.74286445028E+03  0.50400001928E-02 0.  1.
    10030    2    1    2    0    0  0.00000000000E+00  0.00000000000E+00 -0.15875705043E+03  0.13269718501E+04  0.13174408867E+04 0.  0.
        1    1    3    3  502    0 -0.37331669547E+03  0.19134095675E+03  0.43216957162E+03  0.60228502846E+03  0.50400001928E-02 0. -1.
       -1    1    3    3    0  502  0.37331669547E+03 -0.19134095675E+03 -0.59092662204E+03  0.72468682168E+03  0.50400001928E-02 0.  1.
</event>
<event>
 5   0  0.1661750E-03  0.1318036E+04  0.7818609E-02  0.9015383E-01
        3   -1    0    0  501    0  0.00000000000E+00  0.00000000000E+00  0.10493625623E+04  0.10493625672E+04  0.10100000352E+00 0. -1.
       -3   -1    0    0    0  501  0.00000000000E+00  0.00000000000E+00 -0.41387481803E+03  0.41387483036E+03  0.10100000352E+00 0.  1.
    10030    2    1    2    0    0  0.00000000000E+00  0.00000000000E+00  0.63548774427E+03  0.14632373975E+04  0.13180360421E+04 0.  0.
        5    1    3    3  502    0  0.34511498097E+03 -0.52887155431E+03  0.10865176707E+03  0.64080946274E+03  0.46999998093E+01 0.  1.
       -5    1    3    3    0  502 -0.34511498097E+03  0.52887155431E+03  0.52683597720E+03  0.82242793478E+03  0.46999998093E+01 0. -1.
</event>
<event>
 5   0  0.2511542E-03  0.1421166E+04  0.7818609E-02  0.8938638E-01
        1   -1    0    0  501    0  0.00000000000E+00  0.00000000000E+00  0.64089271740E+03  0.64089271742E+03  0.50400001928E-02 0. -1.
       -1   -1    0    0    0  501  0.00000000000E+00  0.00000000000E+00 -0.78785181577E+03  0.78785181579E+03  0.50400001928E-02 0.  1.
    10030    2    1    2    0    0  0.00000000000E+00  0.00000000000E+00 -0.14695909837E+03  0.14287445332E+04  0.14211664099E+04 0.  0.
        4    1    3    3  502    0 -0.34569347830E+02  0.32722133923E+03 -0.70664582461E+03  0.77949905645E+03  0.12699999809E+01 0.  1.
       -4    1    3    3    0  502  0.34569347830E+02 -0.32722133923E+03  0.55968672624E+03  0.64924547676E+03  0.12699999809E+01 0. -1.
</event>
<event>
 5   0  0.4306214E-03  0.1292695E+04  0.7818609E-02  0.9035378E-01
        2   -1    0    0  501    0  0.00000000000E+00  0.00000000000E+00  0.15442582905E+04  0.15442582905E+04  0.25500000920E-02 0.  1.
       -2   -1    0    0    0  501  0.00000000000E+00  0.00000000000E+00 -0.27052793675E+03  0.27052793677E+03  0.25500000920E-02 0. -1.
    10030    2    1    2    0    0  0.00000000000E+00  0.00000000000E+00  0.12737303538E+04  0.18147862273E+04  0.12926948738E+04 0.  0.
        3    1    3    3  502    0  0.38586895235E+03  0.30366258202E+03  0.46803292841E+02  0.49325081908E+03  0.10100000352E+00 0. -1.
       -3    1    3    3    0  502 -0.38586895235E+03 -0.30366258202E+03  0.12269270609E+04  0.13215354082E+04  0.10100000352E+00 0.  1.
</event>
<event>
 5   0  0.4388937E-03  0.1246217E+04  0.7818609E-02  0.9073338E-01
       -2   -1    0    0    0  501  0.00000000000E+00  0.00000000000E+00  0.10256496265E+04  0.10256496265E+04  0.25500000920E-02 0. -1.
        2   -1    0    0  501    0  0.00000000000E+00  0.00000000000E+00 -0.37855431062E+03  0.37855431062E+03  0.25500000920E-02 0.  1.
    10030    2    1    2    0    0  0.00000000000E+00  0.00000000000E+00  0.64709531592E+03  0.14042039372E+04  0.12462168147E+04 0.  0.
        5    1    3    3  502    0 -0.23142107951E+03  0.47842922140E+03 -0.42942658190E+02  0.53321327611E+03  0.46999998093E+01 0.  1.
       -5    1    3    3    0  502  0.23142107951E+03 -0.47842922140E+03  0.69003797411E+03  0.87099066105E+03  0.46999998093E+01 0. -1.
</event>
<event>
 5   0  0.4388937E-03  0.1339501E+04  0.7818609E-02  0.8998814E-01
        2   -1    0    0  501    0  0.00000000000E+00  0.00000000000E+00  0.11693042772E+04  0.11693042772E+04  0.25500000920E-02 0.  1.
       -2   -1    0    0    0  501  0.00000000000E+00  0.00000000000E+00 -0.38361775735E+03  0.38361775736E+03  0.25500000920E-02 0. -1.
    10030    2    1    2    0    0  0.00000000000E+00  0.00000000000E+00  0.78568651982E+03  0.15529220345E+04  0.13395012273E+04 0.  0.
        5    1    3    3  502    0  0.30878050892E+03  0.43040252902E+03 -0.82272238167E+02  0.53608073165E+03  0.46999998093E+01 0. -1.
       -5    1    3    3    0  502 -0.30878050892E+03 -0.43040252902E+03  0.86795875799E+03  0.10168413029E+04  0.46999998093E+01 0.  1.
</event>
<event>
 5   0  0.2356769E-03  0.1127120E+04  0.7818609E-02  0.9179154E-01
       -1   -1    0    0    0  501  0.00000000000E+00  0.00000000000E+00  0.41996238609E+03  0.41996238612E+03  0.50400001928E-02 0. -1.
        1   -1    0    0  501    0  0.00000000000E+00  0.00000000000E+00 -0.75625842032E+03  0.75625842034E+03  0.50400001928E-02 0.  1.
    10030    2    1    2    0    0  0.00000000000E+00  0.00000000000E+00 -0.33629603423E+03  0.11762208065E+04  0.11271203853E+04 0.  0.
        1    1    3    3  502    0  0.54614946520E+03  0.13682247969E+03 -0.14257622852E+03  0.58079911351E+03  0.50400001928E-02 0.  1.
       -1    1    3    3    0  502 -0.54614946520E+03 -0.13682247969E+03 -0.19371980570E+03  0.59542169295E+03  0.50400001928E-02 0. -1.
</event>
<event>
 5   0  0.4453011E-03  0.1299569E+04  0.7818609E-02  0.9029907E-01
        2   -1    0    0  501    0  0.00000000000E+00  0.00000000000E+00  0.52072864864E+03  0.52072864864E+03  0.25500000920E-02 0.  1.
       -2   -1    0    0    0  501  0.00000000000E+00  0.00000000000E+00 -0.81082464133E+03  0.81082464133E+03  0.25500000920E-02 0. -1.
    10030    2    1    2    0    0  0.00000000000E+00  0.00000000000E+00 -0.29009599269E+03  0.13315532900E+04  0.12995685742E+04 0.  0.
        1    1    3    3  502    0 -0.17478253542E+03  0.43818265972E+03 -0.60288628327E+03  0.76552259833E+03  0.50400001928E-02 0. -1.
       -1    1    3    3    0  502  0.17478253542E+03 -0.43818265972E+03  0.31279029058E+03  0.56603069164E+03  0.50400001928E-02 0.  1.
</event>
<event>
 5   0  0.4453011E-03  0.1386840E+04  0.7818609E-02  0.8963400E-01
       -2   -1    0    0    0  501  0.00000000000E+00  0.00000000000E+00  0.66640727766E+03  0.66640727767E+03  0.25500000920E-02 0.  1.
        2   -1    0    0  501    0  0.00000000000E+00  0.00000000000E+00 -0.72152810304E+03  0.72152810305E+03  0.25500000920E-02 0. -1.
    10030    2    1    2    0    0  0.00000000000E+00  0.00000000000E+00 -0.55120825380E+02  0.13879353807E+04  0.13868404074E+04 0.  0.
        1    1    3    3  502    0  0.75208060684E+02  0.59155085660E+03 -0.38173658146E+03  0.70803353450E+03  0.50400001928E-02 0. -1.
       -1    1    3    3    0  502 -0.75208060684E+02 -0.59155085660E+03  0.32661575608E+03  0.67990184621E+03  0.50400001928E-02 0.  1.
</event>
<event>
 5   0  0.2370801E-03  0.1300387E+04  0.7818609E-02  0.9029259E-01
        1   -1    0    0  501    0  0.00000000000E+00  0.00000000000E+00  0.12158391778E+04  0.12158391778E+04  0.50400001928E-02 0.  1.
       -1   -1    0    0    0  501  0.00000000000E+00  0.00000000000E+00 -0.34770331699E+03  0.34770331702E+03  0.50400001928E-02 0. -1.
    10030    2    1    2    0    0  0.00000000000E+00  0.00000000000E+00  0.86813586079E+03  0.15635424948E+04  0.13003865811E+04 0.  0.
        3    1    3    3  502    0  0.57836223557E+03 -0.49013080971E+02  0.78635573921E+03  0.97737429700E+03  0.10100000352E+00 0.  1.
       -3    1    3    3    0  502 -0.57836223557E+03  0.49013080971E+02  0.81780121578E+02  0.58616819781E+03  0.10100000352E+00 0. -1.
</event>
<event>
 5   0  0.4310889E-03  0.1320890E+04  0.7818609E-02  0.9013161E-01
        2   -1    0    0  501    0  0.00000000000E+00  0.00000000000E+00  0.60441401505E+03  0.60441401505E+03  0.25500000920E-02 0. -1.
       -2   -1    0    0    0  501  0.00000000000E+00  0.00000000000E+00 -0.72167053995E+03  0.72167053996E+03  0.25500000920E-02 0.  1.
    10030    2    1    2    0    0  0.00000000000E+00  0.00000000000E+00 -0.11725652491E+03  0.13260845550E+04  0.13208902886E+04 0.  0.
        4    1    3    3  502    0  0.18183962795E+03 -0.86374938544E+02  0.57286029502E+03  0.60720409321E+03  0.12699999809E+01 0. -1.
       -4    1    3    3    0  502 -0.18183962795E+03  0.86374938544E+02 -0.69011681993E+03  0.71888046180E+03  0.12699999809E+01 0.  1.
</event>
<event>
 5   0  0.2462055E-03  0.1287076E+04  0.7818609E-02  0.9039877E-01
        1   -1    0    0  501    0  0.00000000000E+00  0.00000000000E+00  0.85639240402E+03  0.85639240404E+03  0.50400001928E-02 0.  1.
       -1   -1    0    0    0  501  0.00000000000E+00  0.00000000000E+00 -0.48358818849E+03  0.48358818852E+03  0.50400001928E-02 0. -1.
    10030    2    1    2    0    0  0.00000000000E+00  0.00000000000E+00  0.37280421553E+03  0.13399805926E+04  0.12870761459E+04 0.  0.
        2    1    3    3  502    0  0.47274436091E+03 -0.67689635075E+02 -0.26268949652E+03  0.54504576785E+03  0.25500000920E-02 0. -1.
       -2    1    3    3    0  502 -0.47274436091E+03  0.67689635075E+02  0.63549371205E+03  0.79493482471E+03  0.25500000920E-02 0.  1.
</event>
<event>
 5   0  0.4263540E-03  0.1388462E+04  0.7818609E-02  0.8962213E-01
        2   -1    0    0  501    0  0.00000000000E+00  0.00000000000E+00  0.13522241909E+04  0.13522241909E+04  0.25500000920E-02 0. -1.
       -2   -1    0    0    0  501  0.00000000000E+00  0.00000000000E+00 -0.35641778642E+03  0.35641778643E+03  0.25500000920E-02 0.  1.
    10030    2    1    2    0    0  0.00000000000E+00  0.00000000000E+00  0.99580640447E+03  0.17086419773E+04  0.13884621030E+04 0.  0.
        2    1    3    3  502    0 -0.46387825062E+03  0.15982111541E+03  0.11023158436E+04  0.12065761639E+04  0.25500000920E-02 0. -1.
       -2    1    3    3    0  502  0.46387825062E+03 -0.15982111541E+03 -0.10650943913E+03  0.50206581338E+03  0.25500000920E-02 0.  1.
</event>
<event>
 5   0  0.2356769E-03  0.1297316E+04  0.7818609E-02  0.9031696E-01
       -1   -1    0    0    0  501  0.00000000000E+00  0.00000000000E+00  0.84412746791E+03  0.84412746793E+03  0.50400001928E-02 0. -1.
        1   -1    0    0  501    0  0.00000000000E+00  0.00000000000E+00 -0.49845251490E+03  0.49845251493E+03  0.50400001928E-02 0.  1.
    10030    2    1    2    0    0  0.00000000000E+00  0.00000000000E+00  0.34567495301E+03  0.13425799829E+04  0.12973163983E+04 0.  0.
        1    1    3    3  502    0 -0.21829380769E+03  0.55407307472E+03 -0.93248665664E+02  0.60278061704E+03  0.50400001928E-02 0.  1.
       -1    1    3    3    0  502  0.21829380769E+03 -0.55407307472E+03  0.43892361867E+03  0.73979936582E+03  0.50400001928E-02 0. -1.
</event>
<event>
 5   0  0.4263540E-03  0.1306124E+04  0.7818609E-02  0.9024722E-01
        2   -1    0    0  501    0  0.00000000000E+00  0.00000000000E+00  0.18650996658E+04  0.18650996658E+04  0.25500000920E-02 0. -1.
       -2   -1    0    0    0  501  0.00000000000E+00  0.00000000000E+00 -0.22866888220E+03  0.22866888221E+03  0.25500000920E-02 0.  1.
    10030    2    1    2    0    0  0.00000000000E+00  0.00000000000E+00  0.16364307836E+04  0.20937685480E+04  0.13061244287E+04 0.  0.
        2    1    3    3  502    0  0.57799226021E+02  0.10950809797E+03  0.18461091247E+04  0.18502571915E+04  0.25500000920E-02 0. -1.
       -2    1    3    3    0  502 -0.57799226021E+02 -0.10950809797E+03 -0.20967834112E+03  0.24351135659E+03  0.25500000920E-02 0.  1.
</event>
<event>
 5   0  0.4388937E-03  0.1309927E+04  0.7818609E-02  0.9021730E-01
        2   -1    0    0  501    0  0.00000000000E+00  0.00000000000E+00  0.62440770030E+03  0.62440770030E+03  0.25500000920E-02 0. -1.
       -2   -1    0    0    0  501  0.00000000000E+00  0.00000000000E+00 -0.68701449608E+03  0.68701449609E+03  0.25500000920E-02 0.  1.
    10030    2    1    2    0    0  0.00000000000E+00  0.00000000000E+00 -0.62606795785E+02  0.13114221964E+04  0.13099269317E+04 0.  0.
        5    1    3    3  502    0  0.60364609456E+03  0.17089432794E+03 -0.21956478110E+03  0.66469862487E+03  0.46999998093E+01 0.  1.
       -5    1    3    3    0  502 -0.60364609456E+03 -0.17089432794E+03  0.15695798532E+03  0.64672357152E+03  0.46999998093E+01 0. -1.
</event>
<event>
 5   0  0.4388937E-03  0.1263273E+04  0.7818609E-02  0.9059208E-01
        2   -1    0    0  501    0  0.00000000000E+00  0.00000000000E+00  0.22679159426E+04  0.22679159426E+04  0.25500000920E-02 0. -1.
       -2   -1    0    0    0  501  0.00000000000E+00  0.00000000000E+00 -0.17591673998E+03  0.17591674000E+03  0.25500000920E-02 0.  1.
    10030    2    1    2    0    0  0.00000000000E+00  0.00000000000E+00  0.20919992026E+04  0.24438326826E+04  0.12632725426E+04 0.  0.
        5    1    3    3  502    0 -0.95425438071E+02  0.61759844633E+03  0.12233907611E+04  0.13737688669E+04  0.46999998093E+01 0. -1.
       -5    1    3    3    0  502  0.95425438071E+02 -0.61759844633E+03  0.86860844149E+03  0.10700638157E+04  0.46999998093E+01 0.  1.
</event>
<event>
 5   0  0.4388937E-03  0.1412756E+04  0.7818609E-02  0.8944636E-01
       -2   -1    0    0    0  501  0.00000000000E+00  0.00000000000E+00  0.22922771157E+03  0.22922771159E+03  0.25500000920E-02 0.  1.
        2   -1    0    0  501    0  0.00000000000E+00  0.00000000000E+00 -0.21767445568E+04  0.21767445568E+04  0.25500000920E-02 0. -1.
    10030    2    1    2    0    0  0.00000000000E+00  0.00000000000E+00 -0.19475168452E+04  0.24059722684E+04  0.14127564170E+04 0.  0.
        5    1    3    3  502    0  0.31714742666E+03  0.62765225131E+03 -0.86055795826E+03  0.11113558963E+04  0.46999998093E+01 0. -1.
       -5    1    3    3    0  502 -0.31714742666E+03 -0.62765225131E+03 -0.10869588869E+04  0.12946163720E+04  0.46999998093E+01 0.  1.
</event>
<event>
 5   0  0.2356769E-03  0.1310915E+04  0.7818609E-02  0.9020954E-01
       -1   -1    0    0    0  501  0.00000000000E+00  0.00000000000E+00  0.44925236864E+03  0.44925236867E+03  0.50400001928E-02 0. -1.
        1   -1    0    0  501    0  0.00000000000E+00  0.00000000000E+00 -0.95630945249E+03  0.95630945250E+03  0.50400001928E-02 0.  1.
    10030    2    1    2    0    0  0.00000000000E+00  0.00000000000E+00 -0.50705708385E+03  0.14055618212E+04  0.13109146223E+04 0.  0.
        1    1    3    3  502    0  0.12408351953E+03 -0.54428632862E+03 -0.62180984016E+03  0.83563856103E+03  0.50400001928E-02 0.  1.
       -1    1    3    3    0  502 -0.12408351953E+03  0.54428632862E+03  0.11475275631E+03  0.56992326014E+03  0.50400001928E-02 0. -1.
</event>
<event>
 5   0  0.2356769E-03  0.1252382E+04  0.7818609E-02  0.9068203E-01
       -1   -1    0    0    0  501  0.00000000000E+00  0.00000000000E+00  0.10406184160E+04  0.10406184160E+04  0.50400001928E-02 0.  1.
        1   -1    0    0  501    0  0.00000000000E+00  0.00000000000E+00 -0.37680994577E+03  0.37680994581E+03  0.50400001928E-02 0. -1.
    10030    2    1    2    0    0  0.00000000000E+00  0.00000000000E+00  0.66380847020E+03  0.14174283618E+04  0.12523823201E+04 0.  0.
        1    1    3    3  502    0  0.21197745542E+03  0.55217848468E+01 -0.33493792350E+03  0.39641940460E+03  0.50400001928E-02 0. -1.
       -1    1    3    3    0  502 -0.21197745542E+03 -0.55217848468E+01  0.99874639370E+03  0.10210089572E+04  0.50400001928E-02 0.  1.
</event>
<event>
 5   0  0.2370801E-03  0.1265132E+04  0.7818609E-02  0.9057682E-01
        1   -1    0    0  501    0  0.00000000000E+00  0.00000000000E+00  0.96167584323E+03  0.96167584325E+03  0.50400001928E-02 0.  1.
       -1   -1    0    0    0  501  0.00000000000E+00  0.00000000000E+00 -0.41608565957E+03  0.41608565960E+03  0.50400001928E-02 0. -1.
    10030    2    1    2    0    0  0.00000000000E+00  0.00000000000E+00  0.54559018366E+03  0.13777615028E+04  0.12651316573E+04 0.  0.
        3    1    3    3  502    0  0.29428365151E+03 -0.48988952444E+03  0.56812988515E+03  0.80583260688E+03  0.10100000352E+00 0.  1.
       -3    1    3    3    0  502 -0.29428365151E+03  0.48988952444E+03 -0.22539701491E+02  0.57192889597E+03  0.10100000352E+00 0. -1.
</event>
<event>
 5   0  0.4453011E-03  0.1090343E+04  0.7818609E-02  0.9214656E-01
       -2   -1    0    0    0  501  0.00000000000E+00  0.00000000000E+00  0.18467208321E+03  0.18467208323E+03  0.25500000920E-02 0. -1.
        2   -1    0    0  501    0  0.00000000000E+00  0.00000000000E+00 -0.16094040428E+04  0.16094040428E+04  0.25500000920E-02 0.  1.
    10030    2    1    2    0    0  0.00000000000E+00  0.00000000000E+00 -0.14247319596E+04  0.17940761260E+04  0.10903430604E+04 0.  0.
        1    1    3    3  502    0  0.51298719433E+02 -0.21701658593E+03 -0.15309277870E+04  0.15470835938E+04  0.50400001928E-02 0.  1.
       -1    1    3    3    0  502 -0.51298719433E+02  0.21701658593E+03  0.10619582742E+03  0.24699253222E+03  0.50400001928E-02 0. -1.
</event>
<event>
 5   0  0.2458456E-03  0.1178048E+04  0.7818609E-02  0.9132291E-01
       -1   -1    0    0    0  501  0.00000000000E+00  0.00000000000E+00  0.50113221307E+03  0.50113221310E+03  0.50400001928E-02 0.  1.
        1   -1    0    0  501    0  0.00000000000E+00  0.00000000000E+00 -0.69233083448E+03  0.69233083450E+03  0.50400001928E-02 0. -1.
    10030    2    1    2    0    0  0.00000000000E+00  0.00000000000E+00 -0.19119862141E+03  0.11934630476E+04  0.11780480182E+04 0.  0.
        5    1    3    3  502    0 -0.16914485362E+03 -0.12236308857E+03 -0.65357340578E+03  0.68612170473E+03  0.46999998093E+01 0. -1.
       -5    1    3    3    0  502  0.16914485362E+03  0.12236308857E+03  0.46237478438E+03  0.50734134286E+03  0.46999998093E+01 0.  1.
</event>
<event>
 5   0  0.4453011E-03  0.1309622E+04  0.7818609E-02  0.9021970E-01
       -2   -1    0    0    0  501  0.00000000000E+00  0.00000000000E+00  0.32955794298E+03  0.32955794299E+03  0.25500000920E-02 0.  1.
        2   -1    0    0  501    0  0.00000000000E+00  0.00000000000E+00 -0.13010677736E+04  0.13010677736E+04  0.25500000920E-02 0. -1.
    10030    2    1    2    0    0  0.00000000000E+00  0.00000000000E+00 -0.97150983060E+03  0.16306257166E+04  0.13096216540E+04 0.  0.
        1    1    3    3  502    0  0.28618716196E+03  0.50771309322E+03 -0.11409044084E+03  0.59387903265E+03  0.50400001928E-02 0.  1.
       -1    1    3    3    0  502 -0.28618716196E+03 -0.50771309322E+03 -0.85741938976E+03  0.10367466839E+04  0.50400001928E-02 0. -1.
</event>
<event>
 5   0  0.4306214E-03  0.1278551E+04  0.7818609E-02  0.9046749E-01
        2   -1    0    0  501    0  0.00000000000E+00  0.00000000000E+00  0.13280414370E+04  0.13280414370E+04  0.25500000920E-02 0. -1.
       -2   -1    0    0    0  501  0.00000000000E+00  0.00000000000E+00 -0.30772642264E+03  0.30772642265E+03  0.25500000920E-02 0.  1.
    10030    2    1    2    0    0  0.00000000000E+00  0.00000000000E+00  0.10203150143E+04  0.16357678596E+04  0.12785514312E+04 0.  0.
        3    1    3    3  502    0 -0.55143651508E+03 -0.18937175600E+03  0.84556686947E+03  0.10270965062E+04  0.10100000352E+00 0. -1.
       -3    1    3    3    0  502  0.55143651508E+03  0.18937175600E+03  0.17474814486E+03  0.60867135341E+03  0.10100000352E+00 0.  1.
</event>
<event>
 5   0  0.4263540E-03  0.1317101E+04  0.7818609E-02  0.9016113E-01
       -2   -1    0    0    0  501  0.00000000000E+00  0.00000000000E+00  0.20483594376E+03  0.20483594377E+03  0.25500000920E-02 0. -1.
        2   -1    0    0  501    0  0.00000000000E+00  0.00000000000E+00 -0.21172487196E+04  0.21172487196E+04  0.25500000920E-02 0.  1.
    10030    2    1    2    0    0  0.00000000000E+00  0.00000000000E+00 -0.19124127759E+04  0.23220846634E+04  0.13171008157E+04 0.  0.
        2    1    3    3  502    0 -0.20360253449E+03 -0.38801583460E+03 -0.18229245828E+04  0.18748504779E+04  0.25500000920E-02 0.  1.
       -2    1    3    3    0  502  0.20360253449E+03  0.38801583460E+03 -0.89488193059E+02  0.44723418547E+03  0.25500000920E-02 0. -1.
</event>
<event>
 5   0  0.2462055E-03  0.1094916E+04  0.7818609E-02  0.9210161E-01
       -1   -1    0    0    0  501  0.00000000000E+00  0.00000000000E+00  0.18637504856E+04  0.18637504856E+04  0.50400001928E-02 0. -1.
        1   -1    0    0  501    0  0.00000000000E+00  0.00000000000E+00 -0.16081036140E+03  0.16081036148E+03  0.50400001928E-02 0.  1.
    10030    2    1    2    0    0  0.00000000000E+00  0.00000000000E+00  0.17029401242E+04  0.20245608471E+04  0.10949162328E+04 0.  0.
        2    1    3    3  502    0  0.20375975552E+03  0.78667352666E+02 -0.76755412322E+02  0.23151238341E+03  0.25500000920E-02 0.  1.
       -2    1    3    3    0  502 -0.20375975552E+03 -0.78667352666E+02  0.17796955366E+04  0.17930484637E+04  0.25500000920E-02 0. -1.
</event>
<event>
 5   0  0.4388937E-03  0.1258302E+04  0.7818609E-02  0.9063302E-01
        2   -1    0    0  501    0  0.00000000000E+00  0.00000000000E+00  0.55573593699E+03  0.55573593699E+03  0.25500000920E-02 0.  1.
       -2   -1    0    0    0  501  0.00000000000E+00  0.00000000000E+00 -0.71226406184E+03  0.71226406185E+03  0.25500000920E-02 0. -1.
    10030    2    1    2    0    0  0.00000000000E+00  0.00000000000E+00 -0.15652812485E+03  0.12679999988E+04  0.12583016106E+04 0.  0.
        5    1    3    3  502    0 -0.23910598892E+03  0.40487971146E+02 -0.66325342174E+03  0.70621394860E+03  0.46999998093E+01 0. -1.
       -5    1    3    3    0  502  0.23910598892E+03 -0.40487971146E+02  0.50672529689E+03  0.56178605024E+03  0.46999998093E+01 0.  1.
</event>
<event>
 5   0  0.1661750E-03  0.1307823E+04  0.7818609E-02  0.9023384E-01
       -3   -1    0    0    0  501  0.00000000000E+00  0.00000000000E+00  0.75920235248E+03  0.75920235920E+03  0.10100000352E+00 0.  1.
        3   -1    0    0  501    0  0.00000000000E+00  0.00000000000E+00 -0.56322344659E+03  0.56322345565E+03  0.10100000352E+00 0. -1.
    10030    2    1    2    0    0  0.00000000000E+00  0.00000000000E+00  0.19597890589E+03  0.13224258149E+04  0.13078234989E+04 0.  0.
        2    1    3    3  502    0  0.43766464618E+03 -0.42992682960E+03  0.32681944554E+03  0.69512471638E+03  0.25500000920E-02 0.  1.
       -2    1    3    3    0  502 -0.43766464618E+03  0.42992682960E+03 -0.13084053965E+03  0.62730109847E+03  0.25500000920E-02 0. -1.
</event>
<event>
 5   0  0.4388937E-03  0.1313313E+04  0.7818609E-02  0.9019074E-01
       -2   -1    0    0    0  501  0.00000000000E+00  0.00000000000E+00  0.28172729336E+03  0.28172729337E+03  0.25500000920E-02 0.  1.
        2   -1    0    0  501    0  0.00000000000E+00  0.00000000000E+00 -0.15305498431E+04  0.15305498431E+04  0.25500000920E-02 0. -1.
    10030    2    1    2    0    0  0.00000000000E+00  0.00000000000E+00 -0.12488225497E+04  0.18122771364E+04  0.13133128563E+04 0.  0.
        5    1    3    3  502    0  0.20064149765E+03  0.33200210463E+02 -0.14859730430E+04  0.14998324037E+04  0.46999998093E+01 0. -1.
       -5    1    3    3    0  502 -0.20064149765E+03 -0.33200210463E+02  0.23715049331E+03  0.31244473276E+03  0.46999998093E+01 0.  1.
</event>
<event>
 5   0  0.4453011E-03  0.1308004E+04  0.7818609E-02  0.9023242E-01
        2   -1    0    0  501    0  0.00000000000E+00  0.00000000000E+00  0.14351027125E+04  0.14351027125E+04  0.25500000920E-02 0. -1.
       -2   -1    0    0    0  501  0.00000000000E+00  0.00000000000E+00 -0.29804053234E+03  0.29804053235E+03  0.25500000920E-02 0.  1.
    10030    2    1    2    0    0  0.00000000000E+00  0.00000000000E+00  0.11370621801E+04  0.17331432448E+04  0.13080042452E+04 0.  0.
        1    1    3    3  502    0 -0.14987415790E+03 -0.17654890210E+03  0.13789538184E+04  0.13982651435E+04  0.50400001928E-02 0. -1.
       -1    1    3    3    0  502  0.14987415790E+03  0.17654890210E+03 -0.24189163832E+03  0.33487810134E+03  0.50400001928E-02 0.  1.
</event>
<event>
 5   0  0.4310889E-03  0.1315920E+04  0.7818609E-02  0.9017035E-01
       -2   -1    0    0    0  501  0.00000000000E+00  0.00000000000E+00  0.69399982476E+03  0.69399982477E+03  0.25500000920E-02 0. -1.
        2   -1    0    0  501    0  0.00000000000E+00  0.00000000000E+00 -0.62379201395E+03  0.62379201395E+03  0.25500000920E-02 0.  1.
    10030    2    1    2    0    0  0.00000000000E+00  0.00000000000E+00  0.70207810817E+02  0.13177918387E+04  0.13159202839E+04 0.  0.
        4    1    3    3  502    0 -0.15230759952E+03 -0.11030461485E+03 -0.59630470742E+03  0.62525645132E+03  0.12699999809E+01 0.  1.
       -4    1    3    3    0  502  0.15230759952E+03  0.11030461485E+03  0.66651251824E+03  0.69253538739E+03  0.12699999809E+01 0. -1.
</event>
<event>
 5   0  0.2462055E-03  0.1154683E+04  0.7818609E-02  0.9153474E-01
        1   -1    0    0  501    0  0.00000000000E+00  0.00000000000E+00  0.98671094455E+03  0.98671094456E+03  0.50400001928E-02 0.  1.
       -1   -1    0    0    0  501  0.00000000000E+00  0.00000000000E+00 -0.33781255785E+03  0.33781255789E+03  0.50400001928E-02 0. -1.
    10030    2    1    2    0    0  0.00000000000E+00  0.00000000000E+00  0.64889838670E+03  0.13245235025E+04  0.11546832433E+04 0.  0.
        2    1    3    3  502    0  0.56484608655E+03 -0.10961810190E+03  0.26996409480E+03  0.63556891227E+03  0.25500000920E-02 0. -1.
       -2    1    3    3    0  502 -0.56484608655E+03  0.10961810190E+03  0.37893429190E+03  0.68895459018E+03  0.25500000920E-02 0.  1.
</event>
<event>
 5   0  0.2462055E-03  0.1039062E+04  0.7818609E-02  0.9266710E-01
        1   -1    0    0  501    0  0.00000000000E+00  0.00000000000E+00  0.50042580486E+03  0.50042580489E+03  0.50400001928E-02 0. -1.
       -1   -1    0    0    0  501  0.00000000000E+00  0.00000000000E+00 -0.53936582695E+03  0.53936582697E+03  0.50400001928E-02 0.  1.
    10030    2    1    2    0    0  0.00000000000E+00  0.00000000000E+00 -0.38940022090E+02  0.10397916319E+04  0.10390622274E+04 0.  0.
        2    1    3    3  502    0 -0.24118645018E+01  0.19960363314E+03 -0.49945778991E+03  0.53787127769E+03  0.25500000920E-02 0.  1.
       -2    1    3    3    0  502  0.24118645018E+01 -0.19960363314E+03  0.46051776782E+03  0.50192035418E+03  0.25500000920E-02 0. -1.
</event>
<event>
 5   0  0.4388937E-03  0.1347615E+04  0.7818609E-02  0.8992636E-01
        2   -1    0    0  501    0  0.00000000000E+00  0.00000000000E+00  0.12371491797E+04  0.12371491797E+04  0.25500000920E-02 0. -1.
       -2   -1    0    0    0  501  0.00000000000E+00  0.00000000000E+00 -0.36698586471E+03  0.36698586472E+03  0.25500000920E-02 0.  1.
    10030    2    1    2    0    0  0.00000000000E+00  0.00000000000E+00  0.87016331504E+03  0.16041350445E+04  0.13476145762E+04 0.  0.
        5    1    3    3  502    0  0.66025246725E+03 -0.11570601164E+03  0.35371027076E+03  0.75792760029E+03  0.46999998093E+01 0. -1.
       -5    1    3    3    0  502 -0.66025246725E+03  0.11570601164E+03  0.51645304428E+03  0.84620744418E+03  0.46999998093E+01 0.  1.
</event>
<event>
 5   0  0.4306214E-03  0.1311878E+04  0.7818609E-02  0.9020199E-01
        2   -1    0    0  501    0  0.00000000000E+00  0.00000000000E+00  0.15579202747E+04  0.15579202747E+04  0.25500000920E-02 0. -1.
       -2   -1    0    0    0  501  0.00000000000E+00  0.00000000000E+00 -0.27617324530E+03  0.27617324531E+03  0.25500000920E-02 0.  1.
    10030    2    1    2    0    0  0.00000000000E+00  0.00000000000E+00  0.12817470294E+04  0.18340935200E+04  0.13118778879E+04 0.  0.
        3    1    3    3  502    0 -0.11389251362E+02 -0.57431883285E+03  0.19813836855E+03  0.60764353046E+03  0.10100000352E+00 0. -1.
       -3    1    3    3    0  502  0.11389251362E+02  0.57431883285E+03  0.10836086609E+04  0.12264499896E+04  0.10100000352E+00 0.  1.
</event>
<event>
 5   0  0.2462055E-03  0.1439687E+04  0.7818609E-02  0.8925582E-01
       -1   -1    0    0    0  501  0.00000000000E+00  0.00000000000E+00  0.10183255766E+04  0.10183255766E+04  0.50400001928E-02 0.  1.
        1   -1    0    0  501    0  0.00000000000E+00  0.00000000000E+00 -0.50884963750E+03  0.50884963753E+03  0.50400001928E-02 0. -1.
    10030    2    1    2    0    0  0.00000000000E+00  0.00000000000E+00  0.50947593906E+03  0.15271752141E+04  0.14396869111E+04 0.  0.
        2    1    3    3  502    0 -0.68347386914E+03 -0.14554689326E+03  0.43802145286E+03  0.82473221175E+03  0.25500000920E-02 0.  1.
       -2    1    3    3    0  502  0.68347386914E+03  0.14554689326E+03  0.71454486202E+02  0.70244300234E+03  0.25500000920E-02 0. -1.
</event>
<event>
 5   0  0.4263540E-03  0.1324751E+04  0.7818609E-02  0.9010164E-01
       -2   -1    0    0    0  501  0.00000000000E+00  0.00000000000E+00  0.23545940604E+03  0.23545940605E+03  0.25500000920E-02 0.  1.
        2   -1    0    0  501    0  0.00000000000E+00  0.00000000000E+00 -0.18633424088E+04  0.18633424088E+04  0.25500000920E-02 0. -1.
    10030    2    1    2    0    0  0.00000000000E+00  0.00000000000E+00 -0.16278830028E+04  0.20988018149E+04  0.13247512926E+04 0.  0.
        2    1    3    3  502    0  0.30784434835E+03 -0.44530487363E+03 -0.14186310464E+04  0.15184131911E+04  0.25500000920E-02 0. -1.
       -2    1    3    3    0  502 -0.30784434835E+03  0.44530487363E+03 -0.20925195640E+03  0.58038862373E+03  0.25500000920E-02 0.  1.
</event>
<event>
 5   0  0.2462055E-03  0.1211098E+04  0.7818609E-02  0.9103198E-01
        1   -1    0    0  501    0  0.00000000000E+00  0.00000000000E+00  0.35097174313E+03  0.35097174317E+03  0.50400001928E-02 0.  1.
       -1   -1    0    0    0  501  0.00000000000E+00  0.00000000000E+00 -0.10447834934E+04  0.10447834934E+04  0.50400001928E-02 0. -1.
    10030    2    1    2    0    0  0.00000000000E+00  0.00000000000E+00 -0.69381175029E+03  0.13957552366E+04  0.12110978225E+04 0.  0.
        2    1    3    3  502    0 -0.35173138915E+03 -0.10714923479E+03 -0.90140325082E+03  0.97351104217E+03  0.25500000920E-02 0. -1.
       -2    1    3    3    0  502  0.35173138915E+03  0.10714923479E+03  0.20759150053E+03  0.42224419443E+03  0.25500000920E-02 0.  1.
</event>
<event>
 5   0  0.2370801E-03  0.1259184E+04  0.7818609E-02  0.9062574E-01
       -1   -1    0    0    0  501  0.00000000000E+00  0.00000000000E+00  0.69279381031E+03  0.69279381033E+03  0.50400001928E-02 0. -1.
        1   -1    0    0  501    0  0.00000000000E+00  0.00000000000E+00 -0.57215576132E+03  0.57215576134E+03  0.50400001928E-02 0.  1.
    10030    2    1    2    0    0  0.00000000000E+00  0.00000000000E+00  0.12063804900E+03  0.12649495717E+04  0.12591838150E+04 0.  0.
        3    1    3    3  502    0 -0.26598548516E+03  0.83703714600E+02 -0.50674010218E+03  0.57839444284E+03  0.10100000352E+00 0.  1.
       -3    1    3    3    0  502  0.26598548516E+03 -0.83703714600E+02  0.62737815118E+03  0.68655512883E+03  0.10100000352E+00 0. -1.
</event>
<event>
 5   0  0.4453011E-03  0.1311809E+04  0.7818609E-02  0.9020253E-01
       -2   -1    0    0    0  501  0.00000000000E+00  0.00000000000E+00  0.72951720660E+03  0.72951720660E+03  0.25500000920E-02 0.  1.
        2   -1    0    0  501    0  0.00000000000E+00  0.00000000000E+00 -0.58971933937E+03  0.58971933938E+03  0.25500000920E-02 0. -1.
    10030    2    1    2    0    0  0.00000000000E+00  0.00000000000E+00  0.13979786723E+03  0.13192365460E+04  0.13118085305E+04 0.  0.
        1    1    3    3  502    0 -0.32211924633E+03  0.53766298731E+03  0.26430185176E+03  0.68021891010E+03  0.50400001928E-02 0.  1.
       -1    1    3    3    0  502  0.32211924633E+03 -0.53766298731E+03 -0.12450398454E+03  0.63901763589E+03  0.50400001928E-02 0. -1.
</event>
<event>
 5   0  0.2462055E-03  0.1269066E+04  0.7818609E-02  0.9054463E-01
        1   -1    0    0  501    0  0.00000000000E+00  0.00000000000E+00  0.49411046224E+03  0.49411046226E+03  0.50400001928E-02 0.  1.
       -1   -1    0    0    0  501  0.00000000000E+00  0.00000000000E+00 -0.81486219129E+03  0.81486219130E+03  0.50400001928E-02 0. -1.
    10030    2    1    2    0    0  0.00000000000E+00  0.00000000000E+00 -0.32075172905E+03  0.13089726536E+04  0.12690656942E+04 0.  0.
        2    1    3    3  502    0 -0.33960818102E+03 -0.24874655995E+03 -0.65009371523E+03  0.77448718924E+03  0.25500000920E-02 0. -1.
       -2    1    3    3    0  502  0.33960818102E+03  0.24874655995E+03  0.32934198619E+03  0.53448546432E+03  0.25500000920E-02 0.  1.
</event>
<event>
 5   0  0.4453011E-03  0.1295082E+04  0.7818609E-02  0.9033475E-01
       -2   -1    0    0    0  501  0.00000000000E+00  0.00000000000E+00  0.69704167951E+03  0.69704167952E+03  0.25500000920E-02 0. -1.
        2   -1    0    0  501    0  0.00000000000E+00  0.00000000000E+00 -0.60155526918E+03  0.60155526919E+03  0.25500000920E-02 0.  1.
    10030    2    1    2    0    0  0.00000000000E+00  0.00000000000E+00  0.95486410331E+02  0.12985969487E+04  0.12950816116E+04 0.  0.
        1    1    3    3  502    0 -0.32461756695E+03 -0.45954057237E+03  0.36916750566E+03  0.67293294591E+03  0.50400001928E-02 0. -1.
       -1    1    3    3    0  502  0.32461756695E+03  0.45954057237E+03 -0.27368109533E+03  0.62566400280E+03  0.50400001928E-02 0.  1.
</event>
<event>
 5   0  0.4306214E-03  0.1299903E+04  0.7818609E-02  0.9029642E-01
       -2   -1    0    0    0  501  0.00000000000E+00  0.00000000000E+00  0.27505234152E+03  0.27505234153E+03  0.25500000920E-02 0.  1.
        2   -1    0    0  501    0  0.00000000000E+00  0.00000000000E+00 -0.15358422029E+04  0.15358422029E+04  0.25500000920E-02 0. -1.
    10030    2    1    2    0    0  0.00000000000E+00  0.00000000000E+00 -0.12607898614E+04  0.18108945445E+04  0.12999030643E+04 0.  0.
        3    1    3    3  502    0  0.88850321105E+02  0.62768399908E+03 -0.43066406852E+03  0.76638967397E+03  0.10100000352E+00 0.  1.
       -3    1    3    3    0  502 -0.88850321105E+02 -0.62768399908E+03 -0.83012579288E+03  0.10445048705E+04  0.10100000352E+00 0. -1.
</event>
<event>
 5   0  0.2356769E-03  0.1290377E+04  0.7818609E-02  0.9037231E-01
        1   -1    0    0  501    0  0.00000000000E+00  0.00000000000E+00  0.24547436819E+04  0.24547436819E+04  0.50400001928E-02 0.  1.
       -1   -1    0    0    0  501  0.00000000000E+00  0.00000000000E+00 -0.16957710528E+03  0.16957710535E+03  0.50400001928E-02 0. -1.
    10030    2    1    2    0    0  0.00000000000E+00  0.00000000000E+00  0.22851665767E+04  0.26243207873E+04  0.12903771974E+04 0.  0.
        1    1    3    3  502    0  0.41790560993E+03 -0.27811244849E+03  0.19668888292E+04  0.20299367722E+04  0.50400001928E-02 0. -1.
       -1    1    3    3    0  502 -0.41790560993E+03  0.27811244849E+03  0.31827774748E+03  0.59438401508E+03  0.50400001928E-02 0.  1.
</event>
<event>
 5   0  0.2356769E-03  0.1302768E+04  0.7818609E-02  0.9027373E-01
        1   -1    0    0  501    0  0.00000000000E+00  0.00000000000E+00  0.11595651807E+04  0.11595651807E+04  0.50400001928E-02 0.  1.
       -1   -1    0    0    0  501  0.00000000000E+00  0.00000000000E+00 -0.36591419322E+03  0.36591419326E+03  0.50400001928E-02 0. -1.
    10030    2    1    2    0    0  0.00000000000E+00  0.00000000000E+00  0.79365098745E+03  0.15254793739E+04  0.13027683718E+04 0.  0.
        1    1    3    3  502    0 -0.48264053049E+03  0.40129987573E+03  0.19293893819E+03  0.65666498751E+03  0.50400001928E-02 0. -1.
       -1    1    3    3    0  502  0.48264053049E+03 -0.40129987573E+03  0.60071204926E+03  0.86881438644E+03  0.50400001928E-02 0.  1.
</event>
<event>
 5   0  0.4453011E-03  0.1293197E+04  0.7818609E-02  0.9034977E-01
        2   -1    0    0  501    0  0.00000000000E+00  0.00000000000E+00  0.74522651664E+03  0.74522651664E+03  0.25500000920E-02 0. -1.
       -2   -1    0    0    0  501  0.00000000000E+00  0.00000000000E+00 -0.56102354099E+03  0.56102354100E+03  0.25500000920E-02 0.  1.
    10030    2    1    2    0    0  0.00000000000E+00  0.00000000000E+00  0.18420297564E+03  0.13062500576E+04  0.12931969985E+04 0.  0.
        1    1    3    3  502    0 -0.53811899372E+03 -0.35499383678E+03  0.14257528801E+03  0.66024267382E+03  0.50400001928E-02 0.  1.
       -1    1    3    3    0  502  0.53811899372E+03  0.35499383678E+03  0.41627687632E+02  0.64600738382E+03  0.50400001928E-02 0. -1.
</event>
<event>
 5   0  0.2462055E-03  0.1285573E+04  0.7818609E-02  0.9041085E-01
       -1   -1    0    0    0  501  0.00000000000E+00  0.00000000000E+00  0.36113662531E+03  0.36113662535E+03  0.50400001928E-02 0. -1.
        1   -1    0    0  501    0  0.00000000000E+00  0.00000000000E+00 -0.11440941668E+04  0.11440941668E+04  0.50400001928E-02 0.  1.
    10030    2    1    2    0    0  0.00000000000E+00  0.00000000000E+00 -0.78295754147E+03  0.15052307921E+04  0.12855727229E+04 0.  0.
        2    1    3    3  502    0 -0.45471494517E+03  0.39967527438E+03 -0.13853881620E+03  0.62104670509E+03  0.25500000920E-02 0. -1.
       -2    1    3    3    0  502  0.45471494517E+03 -0.39967527438E+03 -0.64441872527E+03  0.88418408705E+03  0.25500000920E-02 0.  1.
</event>
<event>
 5   0  0.2356769E-03  0.1275678E+04  0.7818609E-02  0.9049078E-01
        1   -1    0    0  501    0  0.00000000000E+00  0.00000000000E+00  0.50950317156E+03  0.50950317158E+03  0.50400001928E-02 0. -1.
       -1   -1    0    0    0  501  0.00000000000E+00  0.00000000000E+00 -0.79850112174E+03  0.79850112176E+03  0.50400001928E-02 0.  1.
    10030    2    1    2    0    0  0.00000000000E+00  0.00000000000E+00 -0.28899795018E+03  0.13080042933E+04  0.12756784141E+04 0.  0.
        1    1    3    3  502    0 -0.42695598010E+03 -0.76156320170E+02  0.33505740205E+03  0.54804621771E+03  0.50400001928E-02 0. -1.
       -1    1    3    3    0  502  0.42695598010E+03  0.76156320170E+02 -0.62405535223E+03  0.75995807563E+03  0.50400001928E-02 0.  1.
</event>
<event>
 5   0  0.4306214E-03  0.1277686E+04  0.7818609E-02  0.9047450E-01
       -2   -1    0    0    0  501  0.00000000000E+00  0.00000000000E+00  0.44402441845E+03  0.44402441846E+03  0.25500000920E-02 0. -1.
        2   -1    0    0  501    0  0.00000000000E+00  0.00000000000E+00 -0.91913944595E+03  0.91913944596E+03  0.25500000920E-02 0.  1.
    10030    2    1    2    0    0  0.00000000000E+00  0.00000000000E+00 -0.47511502750E+03  0.13631638644E+04  0.12776859676E+04 0.  0.
        3    1    3    3  502    0  0.62008114788E+02  0.11543952508E+03 -0.90464689126E+03  0.91408823333E+03  0.10100000352E+00 0.  1.
       -3    1    3    3    0  502 -0.62008114788E+02 -0.11543952508E+03  0.42953186376E+03  0.44907563109E+03  0.10100000352E+00 0. -1.
</event>
<event>
 5   0  0.2511542E-03  0.1257202E+04  0.7818609E-02  0.9064210E-01
       -1   -1    0    0    0  501  0.00000000000E+00  0.00000000000E+00  0.52620852827E+03  0.52620852830E+03  0.50400001928E-02 0.  1.
        1   -1    0    0  501    0  0.00000000000E+00  0.00000000000E+00 -0.75091773525E+03  0.75091773527E+03  0.50400001928E-02 0. -1.
    10030    2    1    2    0    0  0.00000000000E+00  0.00000000000E+00 -0.22470920698E+03  0.12771262636E+04  0.12572021577E+04 0.  0.
        4    1    3    3  502    0 -0.31780948676E+03 -0.24131323218E+03  0.38104094526E+03  0.55175063278E+03  0.12699999809E+01 0.  1.
       -4    1    3    3    0  502  0.31780948676E+03  0.24131323218E+03 -0.60575015224E+03  0.72537563079E+03  0.12699999809E+01 0. -1.
</event>
<event>
 5   0  0.2511542E-03  0.1362736E+04  0.7818609E-02  0.8981243E-01
        1   -1    0    0  501    0  0.00000000000E+00  0.00000000000E+00  0.97764737222E+03  0.97764737223E+03  0.50400001928E-02 0.  1.
       -1   -1    0    0    0  501  0.00000000000E+00  0.00000000000E+00 -0.47487720659E+03  0.47487720661E+03  0.50400001928E-02 0. -1.
    10030    2    1    2    0    0  0.00000000000E+00  0.00000000000E+00  0.50277016563E+03  0.14525245788E+04  0.13627361493E+04 0.  0.
        4    1    3    3  502    0  0.45333208746E+03 -0.22687575051E+03  0.73666082535E+03  0.89423339918E+03  0.12699999809E+01 0.  1.
       -4    1    3    3    0  502 -0.45333208746E+03  0.22687575051E+03 -0.23389065972E+03  0.55829117967E+03  0.12699999809E+01 0. -1.
</event>
<event>
 5   0  0.2511542E-03  0.1259371E+04  0.7818609E-02  0.9062420E-01
       -1   -1    0    0    0  501  0.00000000000E+00  0.00000000000E+00  0.42187939745E+03  0.42187939748E+03  0.50400001928E-02 0.  1.
        1   -1    0    0  501    0  0.00000000000E+00  0.00000000000E+00 -0.93985049423E+03  0.93985049424E+03  0.50400001928E-02 0. -1.
    10030    2    1    2    0    0  0.00000000000E+00  0.00000000000E+00 -0.51797109678E+03  0.13617298917E+04  0.12593705733E+04 0.  0.
        4    1    3    3  502    0  0.41605917728E+02  0.35589659237E+03 -0.81886268079E+03  0.89382948023E+03  0.12699999809E+01 0. -1.
       -4    1    3    3    0  502 -0.41605917728E+02 -0.35589659237E+03  0.30089158400E+03  0.46790041149E+03  0.12699999809E+01 0.  1.
</event>
<event>
 5   0  0.4263540E-03  0.1364287E+04  0.7818609E-02  0.8980083E-01
        2   -1    0    0  501    0  0.00000000000E+00  0.00000000000E+00  0.10157254981E+04  0.10157254981E+04  0.25500000920E-02 0. -1.
       -2   -1    0    0    0  501  0.00000000000E+00  0.00000000000E+00 -0.45811570181E+03  0.45811570182E+03  0.25500000920E-02 0.  1.
    10030    2    1    2    0    0  0.00000000000E+00  0.00000000000E+00  0.55760979625E+03  0.14738411999E+04  0.13642870657E+04 0.  0.
        2    1    3    3  502    0 -0.67758257665E+03 -0.71412456366E+02  0.31466557173E+03  0.75048804730E+03  0.25500000920E-02 0. -1.
       -2    1    3    3    0  502  0.67758257665E+03  0.71412456366E+02  0.24294422452E+03  0.72335315258E+03  0.25500000920E-02 0.  1.
</event>
<event>
 5   0  0.4310889E-03  0.1290576E+04  0.7818609E-02  0.9037072E-01
        2   -1    0    0  501    0  0.00000000000E+00  0.00000000000E+00  0.87595265771E+03  0.87595265771E+03  0.25500000920E-02 0. -1.
       -2   -1    0    0    0  501  0.00000000000E+00  0.00000000000E+00 -0.47536423677E+03  0.47536423678E+03  0.25500000920E-02 0.  1.
    10030    2    1    2    0    0  0.00000000000E+00  0.00000000000E+00  0.40058842094E+03  0.13513168945E+04  0.12905759437E+04 0.  0.
        4    1    3    3  502    0  0.52519910078E+03  0.26541691816E+02 -0.19128065593E+03  0.55957882295E+03  0.12699999809E+01 0.  1.
       -4    1    3    3    0  502 -0.52519910078E+03 -0.26541691816E+02  0.59186907687E+03  0.79173807153E+03  0.12699999809E+01 0. -1.
</event>
<event>
 5   0  0.4306214E-03  0.1331366E+04  0.7818609E-02  0.9005055E-01
       -2   -1    0    0    0  501  0.00000000000E+00  0.00000000000E+00  0.43457801908E+03  0.43457801909E+03  0.25500000920E-02 0. -1.
        2   -1    0    0  501    0  0.00000000000E+00  0.00000000000E+00 -0.10196876163E+04  0.10196876163E+04  0.25500000920E-02 0.  1.
    10030    2    1    2    0    0  0.00000000000E+00  0.00000000000E+00 -0.58510959726E+03  0.14542656354E+04  0.13313659518E+04 0.  0.
        3    1    3    3  502    0 -0.16085775132E+03 -0.28478248340E+02  0.41234351381E+03  0.44352385547E+03  0.10100000352E+00 0. -1.
       -3    1    3    3    0  502  0.16085775132E+03  0.28478248340E+02 -0.99745311106E+03  0.10107417800E+04  0.10100000352E+00 0.  1.
</event>
<event>
 5   0  0.2370801E-03  0.1303731E+04  0.7818609E-02  0.9026611E-01
       -1   -1    0    0    0  501  0.00000000000E+00  0.00000000000E+00  0.31595173295E+03  0.31595173299E+03  0.50400001928E-02 0.  1.
        1   -1    0    0  501    0  0.00000000000E+00  0.00000000000E+00 -0.13449169491E+04  0.13449169491E+04  0.50400001928E-02 0. -1.
    10030    2    1    2    0    0  0.00000000000E+00  0.00000000000E+00 -0.10289652161E+04  0.16608686821E+04  0.13037313232E+04 0.  0.
        3    1    3    3  502    0 -0.16565498943E+03 -0.56679968052E+03 -0.16276267070E+03  0.61253175472E+03  0.10100000352E+00 0. -1.
       -3    1    3    3    0  502  0.16565498943E+03  0.56679968052E+03 -0.86620254540E+03  0.10483369273E+04  0.10100000352E+00 0.  1.
</event>
<event>
 5   0  0.4388937E-03  0.1252482E+04  0.7818609E-02  0.9068120E-01
       -2   -1    0    0    0  501  0.00000000000E+00  0.00000000000E+00  0.66906614349E+03  0.66906614350E+03  0.25500000920E-02 0. -1.
        2   -1    0    0  501    0  0.00000000000E+00  0.00000000000E+00 -0.58615702843E+03  0.58615702844E+03  0.25500000920E-02 0.  1.
    10030    2    1    2    0    0  0.00000000000E+00  0.00000000000E+00  0.82909115063E+02  0.12552231719E+04  0.12524820518E+04 0.  0.
        5    1    3    3  502    0 -0.34462006804E+03 -0.17410085799E+03 -0.45265756496E+03  0.59497484078E+03  0.46999998093E+01 0.  1.
       -5    1    3    3    0  502  0.34462006804E+03  0.17410085799E+03  0.53556668002E+03  0.66024833115E+03  0.46999998093E+01 0. -1.
</event>
<event>
 5   0  0.1661750E-03  0.1235036E+04  0.7818609E-02  0.9082730E-01
       -3   -1    0    0    0  501  0.00000000000E+00  0.00000000000E+00  0.31522523211E+03  0.31522524829E+03  0.10100000352E+00 0. -1.
        3   -1    0    0  501    0  0.00000000000E+00  0.00000000000E+00 -0.12097024574E+04  0.12097024616E+04  0.10100000352E+00 0.  1.
    10030    2    1    2    0    0  0.00000000000E+00  0.00000000000E+00 -0.89447722532E+03  0.15249277099E+04  0.12350364423E+04 0.  0.
        5    1    3    3  502    0 -0.29028108281E+03  0.50027843687E+03 -0.71425022436E+03  0.91908492232E+03  0.46999998093E+01 0.  1.
       -5    1    3    3    0  502  0.29028108281E+03 -0.50027843687E+03 -0.18022700096E+03  0.60584278762E+03  0.46999998093E+01 0. -1.
</event>
<event>
 5   0  0.4263540E-03  0.1305688E+04  0.7818609E-02  0.9025066E-01
        2   -1    0    0  501    0  0.00000000000E+00  0.00000000000E+00  0.14256415839E+04  0.14256415839E+04  0.25500000920E-02 0. -1.
       -2   -1    0    0    0  501  0.00000000000E+00  0.00000000000E+00 -0.29895697710E+03  0.29895697711E+03  0.25500000920E-02 0.  1.
    10030    2    1    2    0    0  0.00000000000E+00  0.00000000000E+00  0.11266846068E+04  0.17245985610E+04  0.13056883217E+04 0.  0.
        2    1    3    3  502    0  0.18986331773E+03  0.58993461253E+03  0.29221841002E+03  0.68517335445E+03  0.25500000920E-02 0.  1.
       -2    1    3    3    0  502 -0.18986331773E+03 -0.58993461253E+03  0.83446619677E+03  0.10394252066E+04  0.25500000920E-02 0. -1.
</event>
<event>
 5   0  0.2370801E-03  0.1257789E+04  0.7818609E-02  0.9063725E-01
        1   -1    0    0  501    0  0.00000000000E+00  0.00000000000E+00  0.73501142314E+03  0.73501142316E+03  0.50400001928E-02 0. -1.
       -1   -1    0    0    0  501  0.00000000000E+00  0.00000000000E+00 -0.53809835897E+03  0.53809835899E+03  0.50400001928E-02 0.  1.
    10030    2    1    2    0    0  0.00000000000E+00  0.00000000000E+00  0.19691306417E+03  0.12731097822E+04  0.12577892361E+04 0.  0.
        3    1    3    3  502    0 -0.53330857192E+03 -0.30762732291E+03 -0.31386260572E+02  0.61647198658E+03  0.10100000352E+00 0. -1.
       -3    1    3    3    0  502  0.53330857192E+03  0.30762732291E+03  0.22829932475E+03  0.65663779557E+03  0.10100000352E+00 0.  1.
</event>
<event>
 5   0  0.4388937E-03  0.1165004E+04  0.7818609E-02  0.9144052E-01
        2   -1    0    0  501    0  0.00000000000E+00  0.00000000000E+00  0.11678370159E+04  0.11678370159E+04  0.25500000920E-02 0. -1.
       -2   -1    0    0    0  501  0.00000000000E+00  0.00000000000E+00 -0.29054450133E+03  0.29054450134E+03  0.25500000920E-02 0.  1.
    10030    2    1    2    0    0  0.00000000000E+00  0.00000000000E+00  0.87729251454E+03  0.14583815172E+04  0.11650040745E+04 0.  0.
        5    1    3    3  502    0 -0.45278714136E+03  0.12247123861E+03  0.87097228360E+03  0.98925740253E+03  0.46999998093E+01 0. -1.
       -5    1    3    3    0  502  0.45278714136E+03 -0.12247123861E+03  0.63202309398E+01  0.46912411469E+03  0.46999998093E+01 0.  1.
</event>
<event>
 5   0  0.2458456E-03  0.1311929E+04  0.7818609E-02  0.9020158E-01
        1   -1    0    0  501    0  0.00000000000E+00  0.00000000000E+00  0.38406926949E+03  0.38406926952E+03  0.50400001928E-02 0. -1.
       -1   -1    0    0    0  501  0.00000000000E+00  0.00000000000E+00 -0.11203439184E+04  0.11203439184E+04  0.50400001928E-02 0.  1.
    10030    2    1    2    0    0  0.00000000000E+00  0.00000000000E+00 -0.73627464887E+03  0.15044131879E+04  0.13119293736E+04 0.  0.
        5    1    3    3  502    0 -0.50316444587E+03  0.26321841030E+03  0.83796550114E+01  0.56793547144E+03  0.46999998093E+01 0. -1.
       -5    1    3    3    0  502  0.50316444587E+03 -0.26321841030E+03 -0.74465430388E+03  0.93647771644E+03  0.46999998093E+01 0.  1.
</event>
<event>
 5   0  0.4388937E-03  0.1298628E+04  0.7818609E-02  0.9030654E-01
       -2   -1    0    0    0  501  0.00000000000E+00  0.00000000000E+00  0.69393167418E+03  0.69393167418E+03  0.25500000920E-02 0. -1.
        2   -1    0    0  501    0  0.00000000000E+00  0.00000000000E+00 -0.60756492685E+03  0.60756492685E+03  0.25500000920E-02 0.  1.
    10030    2    1    2    0    0  0.00000000000E+00  0.00000000000E+00  0.86366747326E+02  0.13014966010E+04  0.12986278094E+04 0.  0.
        5    1    3    3  502    0  0.58398800164E+03  0.17646043236E+03 -0.17958267760E+03  0.63596564242E+03  0.46999998093E+01 0.  1.
       -5    1    3    3    0  502 -0.58398800164E+03 -0.17646043236E+03  0.26594942493E+03  0.66553095861E+03  0.46999998093E+01 0. -1.
</event>
<event>
 5   0  0.4453011E-03  0.1220112E+04  0.7818609E-02  0.9095432E-01
       -2   -1    0    0    0  501  0.00000000000E+00  0.00000000000E+00  0.44799572907E+03  0.44799572907E+03  0.25500000920E-02 0.  1.
        2   -1    0    0  501    0  0.00000000000E+00  0.00000000000E+00 -0.83074139282E+03  0.83074139282E+03  0.25500000920E-02 0. -1.
    10030    2    1    2    0    0  0.00000000000E+00  0.00000000000E+00 -0.38274566375E+03  0.12787371219E+04  0.12201124472E+04 0.  0.
        1    1    3    3  502    0 -0.41640746042E+03  0.40401980540E+03  0.62098158838E+01  0.58022903933E+03  0.50400001928E-02 0.  1.
       -1    1    3    3    0  502  0.41640746042E+03 -0.40401980540E+03 -0.38895547963E+03  0.69850808256E+03  0.50400001928E-02 0. -1.
</event>
<event>
 5   0  0.4310889E-03  0.1308842E+04  0.7818609E-02  0.9022583E-01
        2   -1    0    0  501    0  0.00000000000E+00  0.00000000000E+00  0.86447972899E+03  0.86447972900E+03  0.25500000920E-02 0. -1.
       -2   -1    0    0    0  501  0.00000000000E+00  0.00000000000E+00 -0.49540418838E+03  0.49540418839E+03  0.25500000920E-02 0.  1.
    10030    2    1    2    0    0  0.00000000000E+00  0.00000000000E+00  0.36907554061E+03  0.13598839174E+04  0.13088420509E+04 0.  0.
        4    1    3    3  502    0 -0.32737790928E+03  0.73143934386E+02 -0.39928182537E+03  0.52149201297E+03  0.12699999809E+01 0.  1.
       -4    1    3    3    0  502  0.32737790928E+03 -0.73143934386E+02  0.76835736598E+03  0.83839190441E+03  0.12699999809E+01 0. -1.
</event>
<event>
 5   0  0.2370801E-03  0.1332791E+04  0.7818609E-02  0.9003958E-01
        1   -1    0    0  501    0  0.00000000000E+00  0.00000000000E+00  0.47489669737E+03  0.47489669740E+03  0.50400001928E-02 0. -1.
       -1   -1    0    0    0  501  0.00000000000E+00  0.00000000000E+00 -0.93511524017E+03  0.93511524018E+03  0.50400001928E-02 0.  1.
    10030    2    1    2    0    0  0.00000000000E+00  0.00000000000E+00 -0.46021854280E+03  0.14100119376E+04  0.13327912653E+04 0.  0.
        3    1    3    3  502    0  0.36292122072E+03  0.36216551496E+03  0.22023919045E+03  0.55801521833E+03  0.10100000352E+00 0. -1.
       -3    1    3    3    0  502 -0.36292122072E+03 -0.36216551496E+03 -0.68045773325E+03  0.85199671925E+03  0.10100000352E+00 0.  1.
</event>
<event>
 5   0  0.2511542E-03  0.1332601E+04  0.7818609E-02  0.9004105E-01
       -1   -1    0    0    0  501  0.00000000000E+00  0.00000000000E+00  0.69848175802E+03  0.69848175803E+03  0.50400001928E-02 0.  1.
        1   -1    0    0  501    0  0.00000000000E+00  0.00000000000E+00 -0.63560171030E+03  0.63560171032E+03  0.50400001928E-02 0. -1.
    10030    2    1    2    0    0  0.00000000000E+00  0.00000000000E+00  0.62880047711E+02  0.13340834684E+04  0.13326007655E+04 0.  0.
        4    1    3    3  502    0 -0.54549895428E+03  0.28180340826E+03  0.29051806609E+03  0.67925299385E+03  0.12699999809E+01 0. -1.
       -4    1    3    3    0  502  0.54549895428E+03 -0.28180340826E+03 -0.22763801838E+03  0.65483047451E+03  0.12699999809E+01 0.  1.
</event>
<event>
 5   0  0.4453011E-03  0.9603680E+03  0.7818609E-02  0.9353113E-01
       -2   -1    0    0    0  501  0.00000000000E+00  0.00000000000E+00  0.27618466204E+03  0.27618466205E+03  0.25500000920E-02 0. -1.
        2   -1    0    0  501    0  0.00000000000E+00  0.00000000000E+00 -0.83486421882E+03  0.83486421882E+03  0.25500000920E-02 0.  1.
    10030    2    1    2    0    0  0.00000000000E+00  0.00000000000E+00 -0.55867955678E+03  0.11110488809E+04  0.96036803806E+03 0.  0.
        1    1    3    3  502    0 -0.30274702233E+03 -0.43614390749E+02 -0.70757799073E+03  0.77085964196E+03  0.50400001928E-02 0.  1.
       -1    1    3    3    0  502  0.30274702233E+03  0.43614390749E+02  0.14889843395E+03  0.34018923891E+03  0.50400001928E-02 0. -1.
</event>
<event>
 5   0  0.2356769E-03  0.1282922E+04  0.7818609E-02  0.9043219E-01
        1   -1    0    0  501    0  0.00000000000E+00  0.00000000000E+00  0.63192343342E+03  0.63192343344E+03  0.50400001928E-02 0.  1.
       -1   -1    0    0    0  501  0.00000000000E+00  0.00000000000E+00 -0.65114241584E+03  0.65114241585E+03  0.50400001928E-02 0. -1.
    10030    2    1    2    0    0  0.00000000000E+00  0.00000000000E+00 -0.19218982410E+02  0.12830658493E+04  0.12829219011E+04 0.  0.
        1    1    3    3  502    0 -0.98269710528E+02 -0.40011145487E+03 -0.50132108019E+03  0.64889824918E+03  0.50400001928E-02 0. -1.
       -1    1    3    3    0  502  0.98269710528E+02  0.40011145487E+03  0.48210209778E+03  0.63416760011E+03  0.50400001928E-02 0.  1.
</event>
<event>
 5   0  0.4310889E-03  0.1228897E+04  0.7818609E-02  0.9087932E-01
       -2   -1    0    0    0  501  0.00000000000E+00  0.00000000000E+00  0.32998124289E+03  0.32998124290E+03  0.25500000920E-02 0.  1.
        2   -1    0    0  501    0  0.00000000000E+00  0.00000000000E+00 -0.11441473853E+04  0.11441473853E+04  0.25500000920E-02 0. -1.
    10030    2    1    2    0    0  0.00000000000E+00  0.00000000000E+00 -0.81416614241E+03  0.14741286282E+04  0.12288973533E+04 0.  0.
        4    1    3    3  502    0  0.17708597037E+03 -0.65763911628E+01 -0.11128275170E+04  0.11268493179E+04  0.12699999809E+01 0. -1.
       -4    1    3    3    0  502 -0.17708597037E+03  0.65763911628E+01  0.29866137455E+03  0.34727931031E+03  0.12699999809E+01 0.  1.
</event>
<event>
 5   0  0.4388937E-03  0.1114053E+04  0.7818609E-02  0.9191602E-01
       -2   -1    0    0    0  501  0.00000000000E+00  0.00000000000E+00  0.29609215975E+03  0.29609215976E+03  0.25500000920E-02 0.  1.
        2   -1    0    0  501    0  0.00000000000E+00  0.00000000000E+00 -0.10479125232E+04  0.10479125232E+04  0.25500000920E-02 0. -1.
    10030    2    1    2    0    0  0.00000000000E+00  0.00000000000E+00 -0.75182036348E+03  0.13440046830E+04  0.11140532882E+04 0.  0.
        5    1    3    3  502    0 -0.24045243102E+03 -0.50058982566E+03 -0.42778645918E+03  0.70102131907E+03  0.46999998093E+01 0. -1.
       -5    1    3    3    0  502  0.24045243102E+03  0.50058982566E+03 -0.32403390430E+03  0.64298336392E+03  0.46999998093E+01 0.  1.
</event>
<event>
 5   0  0.4388937E-03  0.1355513E+04  0.7818609E-02  0.8986666E-01
        2   -1    0    0  501    0  0.00000000000E+00  0.00000000000E+00  0.11086942425E+04  0.11086942426E+04  0.25500000920E-02 0.  1.
       -2   -1    0    0    0  501  0.00000000000E+00  0.00000000000E+00 -0.41431948213E+03  0.41431948214E+03  0.25500000920E-02 0. -1.
    10030    2    1    2    0    0  0.00000000000E+00  0.00000000000E+00  0.69437476041E+03  0.15230137247E+04  0.13555126328E+04 0.  0.
        5    1    3    3  502    0  0.45278545954E+03  0.34900377127E+02 -0.21806879136E+03  0.50379439900E+03  0.46999998093E+01 0. -1.
       -5    1    3    3    0  502 -0.45278545954E+03 -0.34900377127E+02  0.91244355178E+03  0.10192193257E+04  0.46999998093E+01 0.  1.
</event>
<event>
 5   0  0.2511542E-03  0.1312649E+04  0.7818609E-02  0.9019594E-01
       -1   -1    0    0    0  501  0.00000000000E+00  0.00000000000E+00  0.54813491810E+03  0.54813491812E+03  0.50400001928E-02 0.  1.
        1   -1    0    0  501    0  0.00000000000E+00  0.00000000000E+00 -0.78586798477E+03  0.78586798479E+03  0.50400001928E-02 0. -1.
    10030    2    1    2    0    0  0.00000000000E+00  0.00000000000E+00 -0.23773306668E+03  0.13340029029E+04  0.13126487474E+04 0.  0.
        4    1    3    3  502    0 -0.57044491430E+03  0.72035697647E+02 -0.44050134958E+03  0.72432009075E+03  0.12699999809E+01 0. -1.
       -4    1    3    3    0  502  0.57044491430E+03 -0.72035697647E+02  0.20276828291E+03  0.60968281215E+03  0.12699999809E+01 0.  1.
</event>
<event>
 5   0  0.2511542E-03  0.1291939E+04  0.7818609E-02  0.9035982E-01
        1   -1    0    0  501    0  0.00000000000E+00  0.00000000000E+00  0.15947218049E+04  0.15947218049E+04  0.50400001928E-02 0. -1.
       -1   -1    0    0    0  501  0.00000000000E+00  0.00000000000E+00 -0.26166093425E+03  0.26166093430E+03  0.50400001928E-02 0.  1.
    10030    2    1    2    0    0  0.00000000000E+00  0.00000000000E+00  0.13330608706E+04  0.18563827392E+04  0.12919386942E+04 0.  0.
        4    1    3    3  502    0  0.16865784218E+03 -0.48882968967E+03  0.12228060194E+04  0.13276505969E+04  0.12699999809E+01 0. -1.
       -4    1    3    3    0  502 -0.16865784218E+03  0.48882968967E+03  0.11025485118E+03  0.52873214234E+03  0.12699999809E+01 0.  1.
</event>
<event>
 5   0  0.1661750E-03  0.1150037E+04  0.7818609E-02  0.9157749E-01
        3   -1    0    0  501    0  0.00000000000E+00  0.00000000000E+00  0.15297486019E+03  0.15297489353E+03  0.10100000352E+00 0.  1.
       -3   -1    0    0    0  501  0.00000000000E+00  0.00000000000E+00 -0.21614418914E+04  0.21614418938E+04  0.10100000352E+00 0. -1.
    10030    2    1    2    0    0  0.00000000000E+00  0.00000000000E+00 -0.20084670313E+04  0.23144167873E+04  0.11500370645E+04 0.  0.
        3    1    3    3  502    0  0.47130948287E+03 -0.32226721175E+03 -0.86689036771E+03  0.10380210519E+04  0.10100000352E+00 0.  1.
       -3    1    3    3    0  502 -0.47130948287E+03  0.32226721175E+03 -0.11415766635E+04  0.12763957354E+04  0.10100000352E+00 0. -1.
</event>
<event>
 5   0  0.2356769E-03  0.1173656E+04  0.7818609E-02  0.9136233E-01
       -1   -1    0    0    0  501  0.00000000000E+00  0.00000000000E+00  0.36091997596E+03  0.36091997600E+03  0.50400001928E-02 0. -1.
        1   -1    0    0  501    0  0.00000000000E+00  0.00000000000E+00 -0.95413628153E+03  0.95413628154E+03  0.50400001928E-02 0.  1.
    10030    2    1    2    0    0  0.00000000000E+00  0.00000000000E+00 -0.59321630556E+03  0.13150562575E+04  0.11736555608E+04 0.  0.
        1    1    3    3  502    0  0.55372434747E+03  0.40311726754E+02 -0.50959098445E+03  0.75360378168E+03  0.50400001928E-02 0. -1.
       -1    1    3    3    0  502 -0.55372434747E+03 -0.40311726754E+02 -0.83625321111E+02  0.56145247586E+03  0.50400001928E-02 0.  1.
</event>
<event>
 5   0  0.4388937E-03  0.1401635E+04  0.7818609E-02  0.8952636E-01
       -2   -1    0    0    0  501  0.00000000000E+00  0.00000000000E+00  0.27823304101E+03  0.27823304102E+03  0.25500000920E-02 0. -1.
        2   -1    0    0  501    0  0.00000000000E+00  0.00000000000E+00 -0.17652289757E+04  0.17652289757E+04  0.25500000920E-02 0.  1.
    10030    2    1    2    0    0  0.00000000000E+00  0.00000000000E+00 -0.14869959347E+04  0.20434620167E+04  0.14016347969E+04 0.  0.
        5    1    3    3  502    0 -0.95448398737E+01  0.53780073025E+03 -0.13984276202E+04  0.14983132611E+04  0.46999998093E+01 0.  1.
       -5    1    3    3    0  502  0.95448398737E+01 -0.53780073025E+03 -0.88568314485E+02  0.54514875562E+03  0.46999998093E+01 0. -1.
</event>
<event>
 5   0  0.4310889E-03  0.1294893E+04  0.7818609E-02  0.9033625E-01
        2   -1    0    0  501    0  0.00000000000E+00  0.00000000000E+00  0.85034908921E+03  0.85034908921E+03  0.25500000920E-02 0. -1.
       -2   -1    0    0    0  501  0.00000000000E+00  0.00000000000E+00 -0.49295838662E+03  0.49295838663E+03  0.25500000920E-02 0.  1.
    10030    2    1    2    0    0  0.00000000000E+00  0.00000000000E+00  0.35739070259E+03  0.13433074758E+04  0.12948926057E+04 0.  0.
        4    1    3    3  502    0 -0.61937009582E+03  0.18336382131E+03  0.13296195401E+03  0.65948623995E+03  0.12699999809E+01 0. -1.
       -4    1    3    3    0  502  0.61937009582E+03 -0.18336382131E+03  0.22442874858E+03  0.68382123589E+03  0.12699999809E+01 0.  1.
</event>
<event>
 5   0  0.4453011E-03  0.1382647E+04  0.7818609E-02  0.8966476E-01
       -2   -1    0    0    0  501  0.00000000000E+00  0.00000000000E+00  0.48749416930E+03  0.48749416931E+03  0.25500000920E-02 0. -1.
        2   -1    0    0  501    0  0.00000000000E+00  0.00000000000E+00 -0.98037755445E+03  0.98037755445E+03  0.25500000920E-02 0.  1.
    10030    2    1    2    0    0  0.00000000000E+00  0.00000000000E+00 -0.49288338515E+03  0.14678717238E+04  0.13826472312E+04 0.  0.
        1    1    3    3  502    0 -0.40910937009E+03 -0.55687913644E+03 -0.26879901046E+03  0.74144302367E+03  0.50400001928E-02 0. -1.
       -1    1    3    3    0  502  0.40910937009E+03  0.55687913644E+03 -0.22408437468E+03  0.72642870008E+03  0.50400001928E-02 0.  1.
</event>
<event>
 5   0  0.4453011E-03  0.1179502E+04  0.7818609E-02  0.9130990E-01
       -2   -1    0    0    0  501  0.00000000000E+00  0.00000000000E+00  0.68971188855E+03  0.68971188856E+03  0.25500000920E-02 0.  1.
        2   -1    0    0  501    0  0.00000000000E+00  0.00000000000E+00 -0.50427768812E+03  0.50427768813E+03  0.25500000920E-02 0. -1.
    10030    2    1    2    0    0  0.00000000000E+00  0.00000000000E+00  0.18543420043E+03  0.11939895767E+04  0.11795021266E+04 0.  0.
        1    1    3    3  502    0  0.35163241396E+02  0.26262165886E+03  0.62606590342E+03  0.67982726092E+03  0.50400001928E-02 0.  1.
       -1    1    3    3    0  502 -0.35163241396E+02 -0.26262165886E+03 -0.44063170299E+03  0.51416231576E+03  0.50400001928E-02 0. -1.
</event>
<event>
 5   0  0.2462055E-03  0.1342050E+04  0.7818609E-02  0.8996868E-01
       -1   -1    0    0    0  501  0.00000000000E+00  0.00000000000E+00  0.13202225495E+04  0.13202225496E+04  0.50400001928E-02 0.  1.
        1   -1    0    0  501    0  0.00000000000E+00  0.00000000000E+00 -0.34105948313E+03  0.34105948317E+03  0.50400001928E-02 0. -1.
    10030    2    1    2    0    0  0.00000000000E+00  0.00000000000E+00  0.97916306641E+03  0.16612820327E+04  0.13420498059E+04 0.  0.
        2    1    3    3  502    0 -0.12441273540E+03  0.53746688165E+03  0.96244955649E+03  0.11093504074E+04  0.25500000920E-02 0.  1.
       -2    1    3    3    0  502  0.12441273540E+03 -0.53746688165E+03  0.16713509922E+02  0.55193162532E+03  0.25500000920E-02 0. -1.
</event>
<event>
 5   0  0.2458456E-03  0.1525248E+04  0.7818609E-02  0.8867834E-01
        1   -1    0    0  501    0  0.00000000000E+00  0.00000000000E+00  0.15889965836E+04  0.15889965836E+04  0.50400001928E-02 0. -1.
       -1   -1    0    0    0  501  0.00000000000E+00  0.00000000000E+00 -0.36601445368E+03  0.36601445371E+03  0.50400001928E-02 0.  1.
    10030    2    1    2    0    0  0.00000000000E+00  0.00000000000E+00  0.12229821299E+04  0.19550110373E+04  0.15252484604E+04 0.  0.
        5    1    3    3  502    0  0.16062079339E+03 -0.74301623357E+03  0.68947324563E+03  0.10262882680E+04  0.46999998093E+01 0.  1.
       -5    1    3    3    0  502 -0.16062079339E+03  0.74301623357E+03  0.53350888428E+03  0.92872276931E+03  0.46999998093E+01 0. -1.
</event>
<event>
 5   0  0.4388937E-03  0.1409242E+04  0.7818609E-02  0.8947156E-01
        2   -1    0    0  501    0  0.00000000000E+00  0.00000000000E+00  0.57939914851E+03  0.57939914851E+03  0.25500000920E-02 0.  1.
       -2   -1    0    0    0  501  0.00000000000E+00  0.00000000000E+00 -0.85690618262E+03  0.85690618262E+03  0.25500000920E-02 0. -1.
    10030    2    1    2    0    0  0.00000000000E+00  0.00000000000E+00 -0.27750703411E+03  0.14363053311E+04  0.14092419417E+04 0.  0.
        5    1    3    3  502    0  0.61306150773E+03 -0.29196144199E+03 -0.33046885580E+03  0.75519378342E+03  0.46999998093E+01 0.  1.
       -5    1    3    3    0  502 -0.61306150773E+03  0.29196144199E+03  0.52961821685E+02  0.68111154771E+03  0.46999998093E+01 0. -1.
</event>
<event>
 5   0  0.2511542E-03  0.1290363E+04  0.7818609E-02  0.9037243E-01
        1   -1    0    0  501    0  0.00000000000E+00  0.00000000000E+00  0.67775235940E+03  0.67775235942E+03  0.50400001928E-02 0. -1.
       -1   -1    0    0    0  501  0.00000000000E+00  0.00000000000E+00 -0.61417554855E+03  0.61417554857E+03  0.50400001928E-02 0.  1.
    10030    2    1    2    0    0  0.00000000000E+00  0.00000000000E+00  0.63576810843E+02  0.12919279080E+04  0.12903626268E+04 0.  0.
        4    1    3    3  502    0 -0.40300313223E+03  0.48728446265E+03  0.16000483802E+03  0.65227358771E+03  0.12699999809E+01 0. -1.
       -4    1    3    3    0  502  0.40300313223E+03 -0.48728446265E+03 -0.96428027175E+02  0.63965432028E+03  0.12699999809E+01 0.  1.
</event>
<event>
 5   0  0.4263540E-03  0.1305570E+04  0.7818609E-02  0.9025160E-01
       -2   -1    0    0    0  501  0.00000000000E+00  0.00000000000E+00  0.61890463920E+03  0.61890463921E+03  0.25500000920E-02 0.  1.
        2   -1    0    0  501    0  0.00000000000E+00  0.00000000000E+00 -0.68852006636E+03  0.68852006636E+03  0.25500000920E-02 0. -1.
    10030    2    1    2    0    0  0.00000000000E+00  0.00000000000E+00 -0.69615427157E+02  0.13074247056E+04  0.13055700108E+04 0.  0.
        2    1    3    3  502    0  0.71525153570E+02  0.36295154015E+03  0.50380260772E+03  0.62503338762E+03  0.25500000920E-02 0.  1.
       -2    1    3    3    0  502 -0.71525153570E+02 -0.36295154015E+03 -0.57341803487E+03  0.68239131795E+03  0.25500000920E-02 0. -1.
</event>
<event>
 5   0  0.2356769E-03  0.1269139E+04  0.7818609E-02  0.9054402E-01
        1   -1    0    0  501    0  0.00000000000E+00  0.00000000000E+00  0.10794855676E+04  0.10794855676E+04  0.50400001928E-02 0.  1.
       -1   -1    0    0    0  501  0.00000000000E+00  0.00000000000E+00 -0.37302835620E+03  0.37302835623E+03  0.50400001928E-02 0. -1.
    10030    2    1    2    0    0  0.00000000000E+00  0.00000000000E+00  0.70645721139E+03  0.14525139238E+04  0.12691394358E+04 0.  0.
        1    1    3    3  502    0  0.12738926017E+03  0.46335147132E+03 -0.12108662672E+03  0.49556491076E+03  0.50400001928E-02 0. -1.
       -1    1    3    3    0  502 -0.12738926017E+03 -0.46335147132E+03  0.82754383811E+03  0.95694901306E+03  0.50400001928E-02 0.  1.
</event>
<event>
 5   0  0.4306214E-03  0.1297219E+04  0.7818609E-02  0.9031773E-01
       -2   -1    0    0    0  501  0.00000000000E+00  0.00000000000E+00  0.54333719925E+03  0.54333719926E+03  0.25500000920E-02 0. -1.
        2   -1    0    0  501    0  0.00000000000E+00  0.00000000000E+00 -0.77427882551E+03  0.77427882552E+03  0.25500000920E-02 0.  1.
    10030    2    1    2    0    0  0.00000000000E+00  0.00000000000E+00 -0.23094162626E+03  0.13176160248E+04  0.12972193161E+04 0.  0.
        3    1    3    3  502    0 -0.57182875941E+03 -0.23804827817E+02  0.19451572083E+03  0.60447595136E+03  0.10100000352E+00 0. -1.
       -3    1    3    3    0  502  0.57182875941E+03  0.23804827817E+02 -0.42545734709E+03  0.71314007342E+03  0.10100000352E+00 0.  1.
</event>
<event>
 5   0  0.4388937E-03  0.1273591E+04  0.7818609E-02  0.9050774E-01
        2   -1    0    0  501    0  0.00000000000E+00  0.00000000000E+00  0.12402851156E+04  0.12402851156E+04  0.25500000920E-02 0. -1.
       -2   -1    0    0    0  501  0.00000000000E+00  0.00000000000E+00 -0.32694803716E+03  0.32694803717E+03  0.25500000920E-02 0.  1.
    10030    2    1    2    0    0  0.00000000000E+00  0.00000000000E+00  0.91333707846E+03  0.15672331528E+04  0.12735914323E+04 0.  0.
        5    1    3    3  502    0 -0.18765760265E+03 -0.27820430930E+03  0.11226216528E+04  0.11717143333E+04  0.46999998093E+01 0. -1.
       -5    1    3    3    0  502  0.18765760265E+03  0.27820430930E+03 -0.20928457431E+03  0.39551881951E+03  0.46999998093E+01 0.  1.
</event>
<event>
 5   0  0.2356769E-03  0.1091485E+04  0.7818609E-02  0.9213531E-01
        1   -1    0    0  501    0  0.00000000000E+00  0.00000000000E+00  0.13309526061E+04  0.13309526061E+04  0.50400001928E-02 0.  1.
       -1   -1    0    0    0  501  0.00000000000E+00  0.00000000000E+00 -0.22377570112E+03  0.22377570118E+03  0.50400001928E-02 0. -1.
    10030    2    1    2    0    0  0.00000000000E+00  0.00000000000E+00  0.11071769050E+04  0.15547283073E+04  0.10914849567E+04 0.  0.
        1    1    3    3  502    0 -0.12129611087E+03 -0.30960547196E+03  0.11699944638E+04  0.12163286316E+04  0.50400001928E-02 0.  1.
       -1    1    3    3    0  502  0.12129611087E+03  0.30960547196E+03 -0.62817558796E+02  0.33839967568E+03  0.50400001928E-02 0. -1.
</event>
<event>
 5   0  0.2511542E-03  0.1083148E+04  0.7818609E-02  0.9221775E-01
       -1   -1    0    0    0  501  0.00000000000E+00  0.00000000000E+00  0.87880363150E+03  0.87880363151E+03  0.50400001928E-02 0. -1.
        1   -1    0    0  501    0  0.00000000000E+00  0.00000000000E+00 -0.33375178631E+03  0.33375178635E+03  0.50400001928E-02 0.  1.
    10030    2    1    2    0    0  0.00000000000E+00  0.00000000000E+00  0.54505184519E+03  0.12125554179E+04  0.10831477865E+04 0.  0.
        4    1    3    3  502    0  0.25212263444E+03 -0.12970032519E+03 -0.24402677611E+03  0.37408378408E+03  0.12699999809E+01 0.  1.
       -4    1    3    3    0  502 -0.25212263444E+03  0.12970032519E+03  0.78907862130E+03  0.83847163377E+03  0.12699999809E+01 0. -1.
</event>
<event>
 5   0  0.2458456E-03  0.1333058E+04  0.7818609E-02  0.9003753E-01
        1   -1    0    0  501    0  0.00000000000E+00  0.00000000000E+00  0.71126765801E+03  0.71126765803E+03  0.50400001928E-02 0.  1.
       -1   -1    0    0    0  501  0.00000000000E+00  0.00000000000E+00 -0.62460402623E+03  0.62460402625E+03  0.50400001928E-02 0. -1.
    10030    2    1    2    0    0  0.00000000000E+00  0.00000000000E+00  0.86663631782E+02  0.13358716843E+04  0.13330576026E+04 0.  0.
        5    1    3    3  502    0  0.13877556365E+03 -0.14066192423E+03 -0.59456053587E+03  0.62655307421E+03  0.46999998093E+01 0. -1.
       -5    1    3    3    0  502 -0.13877556365E+03  0.14066192423E+03  0.68122416765E+03  0.70931861006E+03  0.46999998093E+01 0.  1.
</event>
<event>
 5   0  0.2458456E-03  0.1250458E+04  0.7818609E-02  0.9069802E-01
       -1   -1    0    0    0  501  0.00000000000E+00  0.00000000000E+00  0.23134170103E+03  0.23134170109E+03  0.50400001928E-02 0. -1.
        1   -1    0    0  501    0  0.00000000000E+00  0.00000000000E+00 -0.16897580867E+04  0.16897580867E+04  0.50400001928E-02 0.  1.
    10030    2    1    2    0    0  0.00000000000E+00  0.00000000000E+00 -0.14584163857E+04  0.19210997878E+04  0.12504583322E+04 0.  0.
        5    1    3    3  502    0 -0.86372879114E+02 -0.61284541119E+03 -0.59309325544E+03  0.85721728396E+03  0.46999998093E+01 0. -1.
       -5    1    3    3    0  502  0.86372879114E+02  0.61284541119E+03 -0.86532313023E+03  0.10638825038E+04  0.46999998093E+01 0.  1.
</event>
<event>
 5   0  0.4388937E-03  0.1311954E+04  0.7818609E-02  0.9020139E-01
       -2   -1    0    0    0  501  0.00000000000E+00  0.00000000000E+00  0.32639745758E+03  0.32639745759E+03  0.25500000920E-02 0.  1.
        2   -1    0    0  501    0  0.00000000000E+00  0.00000000000E+00 -0.13183490646E+04  0.13183490646E+04  0.25500000920E-02 0. -1.
    10030    2    1    2    0    0  0.00000000000E+00  0.00000000000E+00 -0.99195160698E+03  0.16447465222E+04  0.13119539365E+04 0.  0.
        5    1    3    3  502    0  0.47033957281E+03 -0.39095532536E+03 -0.19872756253E+03  0.64310194704E+03  0.46999998093E+01 0.  1.
       -5    1    3    3    0  502 -0.47033957281E+03  0.39095532536E+03 -0.79322404445E+03  0.10016445751E+04  0.46999998093E+01 0. -1.
</event>
<event>
 5   0  0.4388937E-03  0.1210849E+04  0.7818609E-02  0.9103413E-01
        2   -1    0    0  501    0  0.00000000000E+00  0.00000000000E+00  0.14031822032E+04  0.14031822032E+04  0.25500000920E-02 0.  1.
       -2   -1    0    0    0  501  0.00000000000E+00  0.00000000000E+00 -0.26121961481E+03  0.26121961482E+03  0.25500000920E-02 0. -1.
    10030    2    1    2    0    0  0.00000000000E+00  0.00000000000E+00  0.11419625884E+04  0.16644018180E+04  0.12108488174E+04 0.  0.
        5    1    3    3  502    0  0.22511515309E+03  0.39937694236E+03  0.11144822694E+04  0.12051023164E+04  0.46999998093E+01 0.  1.
       -5    1    3    3    0  502 -0.22511515309E+03 -0.39937694236E+03  0.27480318986E+02  0.45929950160E+03  0.46999998093E+01 0. -1.
</event>
<event>
 5   0  0.4306214E-03  0.1244909E+04  0.7818609E-02  0.9074431E-01
        2   -1    0    0  501    0  0.00000000000E+00  0.00000000000E+00  0.16615476139E+04  0.16615476139E+04  0.25500000920E-02 0.  1.
       -2   -1    0    0    0  501  0.00000000000E+00  0.00000000000E+00 -0.23318596968E+03  0.23318596969E+03  0.25500000920E-02 0. -1.
    10030    2    1    2    0    0  0.00000000000E+00  0.00000000000E+00  0.14283616442E+04  0.18947335836E+04  0.12449089790E+04 0.  0.
        3    1    3    3  502    0 -0.10621602653E+02  0.39673234537E+03  0.14440046097E+04  0.14975508991E+04  0.10100000352E+00 0.  1.
       -3    1    3    3    0  502  0.10621602653E+02 -0.39673234537E+03 -0.15642965469E+02  0.39718268451E+03  0.10100000352E+00 0. -1.
</event>
<event>
 5   0  0.4388937E-03  0.1364981E+04  0.7818609E-02  0.8979564E-01
        2   -1    0    0  501    0  0.00000000000E+00  0.00000000000E+00  0.15254503985E+04  0.15254503985E+04  0.25500000920E-02 0.  1.
       -2   -1    0    0    0  501  0.00000000000E+00  0.00000000000E+00 -0.30534816147E+03  0.30534816148E+03  0.25500000920E-02 0. -1.
    10030    2    1    2    0    0  0.00000000000E+00  0.00000000000E+00  0.12201022370E+04  0.18307985600E+04  0.13649812813E+04 0.  0.
        5    1    3    3  502    0 -0.20969160353E+03  0.52353705228E+03  0.11255390222E+04  0.12589367714E+04  0.46999998093E+01 0.  1.
       -5    1    3    3    0  502  0.20969160353E+03 -0.52353705228E+03  0.94563214812E+02  0.57186178863E+03  0.46999998093E+01 0. -1.
</event>
<event>
 5   0  0.2462055E-03  0.1308530E+04  0.7818609E-02  0.9022828E-01
       -1   -1    0    0    0  501  0.00000000000E+00  0.00000000000E+00  0.28863803339E+03  0.28863803343E+03  0.50400001928E-02 0. -1.
        1   -1    0    0  501    0  0.00000000000E+00  0.00000000000E+00 -0.14830443624E+04  0.14830443624E+04  0.50400001928E-02 0.  1.
    10030    2    1    2    0    0  0.00000000000E+00  0.00000000000E+00 -0.11944063290E+04  0.17716823958E+04  0.13085304861E+04 0.  0.
        2    1    3    3  502    0  0.54700822179E+03  0.31972381669E+03 -0.37629087700E+03  0.73690985730E+03  0.25500000920E-02 0. -1.
       -2    1    3    3    0  502 -0.54700822179E+03 -0.31972381669E+03 -0.81811545200E+03  0.10347725385E+04  0.25500000920E-02 0.  1.
</event>
<event>
 5   0  0.4306214E-03  0.1333919E+04  0.7818609E-02  0.9003091E-01
        2   -1    0    0  501    0  0.00000000000E+00  0.00000000000E+00  0.90282004834E+03  0.90282004835E+03  0.25500000920E-02 0. -1.
       -2   -1    0    0    0  501  0.00000000000E+00  0.00000000000E+00 -0.49271753375E+03  0.49271753376E+03  0.25500000920E-02 0.  1.
    10030    2    1    2    0    0  0.00000000000E+00  0.00000000000E+00  0.41010251459E+03  0.13955375821E+04  0.13339194393E+04 0.  0.
        3    1    3    3  502    0 -0.13062562826E+03 -0.65001421643E+03  0.12922049128E+03  0.67548462743E+03  0.10100000352E+00 0.  1.
       -3    1    3    3    0  502  0.13062562826E+03  0.65001421643E+03  0.28088202331E+03  0.72005295468E+03  0.10100000352E+00 0. -1.
</event>
<event>
 5   0  0.4263540E-03  0.7671407E+03  0.7818609E-02  0.9608836E-01
       -2   -1    0    0    0  501  0.00000000000E+00  0.00000000000E+00  0.73313030326E+03  0.73313030326E+03  0.25500000920E-02 0.  1.
        2   -1    0    0  501    0  0.00000000000E+00  0.00000000000E+00 -0.20068223495E+03  0.20068223496E+03  0.25500000920E-02 0. -1.
    10030    2    1    2    0    0  0.00000000000E+00  0.00000000000E+00  0.53244806831E+03  0.93381253823E+03  0.76714073748E+03 0.  0.
        2    1    3    3  502    0 -0.18350478018E+02  0.36893848778E+03  0.14046308329E+03  0.39519896961E+03  0.25500000920E-02 0.  1.
       -2    1    3    3    0  502  0.18350478018E+02 -0.36893848778E+03  0.39198498502E+03  0.53861356862E+03  0.25500000920E-02 0. -1.
</event>
<event>
 5   0  0.4306214E-03  0.1300136E+04  0.7818609E-02  0.9029457E-01
        2   -1    0    0  501    0  0.00000000000E+00  0.00000000000E+00  0.65068444308E+03  0.65068444308E+03  0.25500000920E-02 0. -1.
       -2   -1    0    0    0  501  0.00000000000E+00  0.00000000000E+00 -0.64945228040E+03  0.64945228041E+03  0.25500000920E-02 0.  1.
    10030    2    1    2    0    0  0.00000000000E+00  0.00000000000E+00  0.12321626711E+01  0.13001367235E+04  0.13001361396E+04 0.  0.
        3    1    3    3  502    0  0.36981896265E+03 -0.39200448114E+03  0.36414740807E+03  0.65041288684E+03  0.10100000352E+00 0. -1.
       -3    1    3    3    0  502 -0.36981896265E+03  0.39200448114E+03 -0.36291524540E+03  0.64972383665E+03  0.10100000352E+00 0.  1.
</event>
<event>
 5   0  0.2462055E-03  0.1309679E+04  0.7818609E-02  0.9021925E-01
        1   -1    0    0  501    0  0.00000000000E+00  0.00000000000E+00  0.80714121905E+03  0.80714121907E+03  0.50400001928E-02 0.  1.
       -1   -1    0    0    0  501  0.00000000000E+00  0.00000000000E+00 -0.53127565975E+03  0.53127565977E+03  0.50400001928E-02 0. -1.
    10030    2    1    2    0    0  0.00000000000E+00  0.00000000000E+00  0.27586555931E+03  0.13384168788E+04  0.13096785616E+04 0.  0.
        2    1    3    3  502    0  0.61447426861E+03 -0.21261101421E+03  0.58559881282E+02  0.65284862705E+03  0.25500000920E-02 0. -1.
       -2    1    3    3    0  502 -0.61447426861E+03  0.21261101421E+03  0.21730567803E+03  0.68556825178E+03  0.25500000920E-02 0.  1.
</event>
<event>
 5   0  0.4263540E-03  0.1307145E+04  0.7818609E-02  0.9023918E-01
       -2   -1    0    0    0  501  0.00000000000E+00  0.00000000000E+00  0.11264887313E+04  0.11264887313E+04  0.25500000920E-02 0.  1.
        2   -1    0    0  501    0  0.00000000000E+00  0.00000000000E+00 -0.37919314250E+03  0.37919314251E+03  0.25500000920E-02 0. -1.
    10030    2    1    2    0    0  0.00000000000E+00  0.00000000000E+00  0.74729558884E+03  0.15056818738E+04  0.13071446776E+04 0.  0.
        2    1    3    3  502    0  0.27952621658E+03 -0.10623930201E+03  0.10430662274E+04  0.10850847201E+04  0.25500000920E-02 0.  1.
       -2    1    3    3    0  502 -0.27952621658E+03  0.10623930201E+03 -0.29577063860E+03  0.42059715371E+03  0.25500000920E-02 0. -1.
</event>
<event>
 5   0  0.2511542E-03  0.1282481E+04  0.7818609E-02  0.9043575E-01
       -1   -1    0    0    0  501  0.00000000000E+00  0.00000000000E+00  0.16267666561E+03  0.16267666568E+03  0.50400001928E-02 0. -1.
        1   -1    0    0  501    0  0.00000000000E+00  0.00000000000E+00 -0.25276463056E+04  0.25276463056E+04  0.50400001928E-02 0.  1.
    10030    2    1    2    0    0  0.00000000000E+00  0.00000000000E+00 -0.23649696400E+04  0.26903229713E+04  0.12824805229E+04 0.  0.
        4    1    3    3  502    0  0.16458970357E+03  0.36412724088E+03 -0.13044920326E+03  0.42035345318E+03  0.12699999809E+01 0. -1.
       -4    1    3    3    0  502 -0.16458970357E+03 -0.36412724088E+03 -0.22345204367E+04  0.22699695181E+04  0.12699999809E+01 0.  1.
</event>
<event>
 5   0  0.2511542E-03  0.1286460E+04  0.7818609E-02  0.9040372E-01
        1   -1    0    0  501    0  0.00000000000E+00  0.00000000000E+00  0.16515218691E+04  0.16515218691E+04  0.50400001928E-02 0. -1.
       -1   -1    0    0    0  501  0.00000000000E+00  0.00000000000E+00 -0.25052346444E+03  0.25052346449E+03  0.50400001928E-02 0.  1.
    10030    2    1    2    0    0  0.00000000000E+00  0.00000000000E+00  0.14009984047E+04  0.19020453336E+04  0.12864602292E+04 0.  0.
        4    1    3    3  502    0 -0.26094126939E+03 -0.24190923492E+03 -0.91757661867E+02  0.36746633236E+03  0.12699999809E+01 0.  1.
       -4    1    3    3    0  502  0.26094126939E+03  0.24190923492E+03  0.14927560666E+04  0.15345790013E+04  0.12699999809E+01 0. -1.
</event>
<event>
 5   0  0.4310889E-03  0.1320277E+04  0.7818609E-02  0.9013638E-01
       -2   -1    0    0    0  501  0.00000000000E+00  0.00000000000E+00  0.41992358505E+03  0.41992358505E+03  0.25500000920E-02 0.  1.
        2   -1    0    0  501    0  0.00000000000E+00  0.00000000000E+00 -0.10377667322E+04  0.10377667322E+04  0.25500000920E-02 0. -1.
    10030    2    1    2    0    0  0.00000000000E+00  0.00000000000E+00 -0.61784314713E+03  0.14576903172E+04  0.13202768295E+04 0.  0.
        4    1    3    3  502    0 -0.49167493240E+02  0.48653039767E+03 -0.79853044499E+03  0.93636625031E+03  0.12699999809E+01 0. -1.
       -4    1    3    3    0  502  0.49167493240E+02 -0.48653039767E+03  0.18068729786E+03  0.52132406692E+03  0.12699999809E+01 0.  1.
</event>
<event>
 5   0  0.2370801E-03  0.1330805E+04  0.7818609E-02  0.9005487E-01
        1   -1    0    0  501    0  0.00000000000E+00  0.00000000000E+00  0.31344880688E+03  0.31344880692E+03  0.50400001928E-02 0. -1.
       -1   -1    0    0    0  501  0.00000000000E+00  0.00000000000E+00 -0.14125447773E+04  0.14125447773E+04  0.50400001928E-02 0.  1.
    10030    2    1    2    0    0  0.00000000000E+00  0.00000000000E+00 -0.10990959704E+04  0.17259935843E+04  0.13308049822E+04 0.  0.
        3    1    3    3  502    0 -0.26724881399E+03 -0.40641372972E+03 -0.11384373624E+04  0.12379958347E+04  0.10100000352E+00 0.  1.
       -3    1    3    3    0  502  0.26724881399E+03  0.40641372972E+03  0.39341391979E+02  0.48799774959E+03  0.10100000352E+00 0. -1.
</event>
<event>
 5   0  0.1661750E-03  0.1292322E+04  0.7818609E-02  0.9035676E-01
        4   -1    0    0  501    0  0.00000000000E+00  0.00000000000E+00  0.51237339737E+03  0.51237497132E+03  0.12699999809E+01 0.  1.
       -4   -1    0    0    0  501  0.00000000000E+00  0.00000000000E+00 -0.81487954843E+03  0.81488053809E+03  0.12699999809E+01 0. -1.
    10030    2    1    2    0    0  0.00000000000E+00  0.00000000000E+00 -0.30250615106E+03  0.13272555094E+04  0.12923224117E+04 0.  0.
        1    1    3    3  502    0  0.61811281612E+03  0.76557231119E+02 -0.32794973891E+03  0.70390020199E+03  0.50400001928E-02 0. -1.
       -1    1    3    3    0  502 -0.61811281612E+03 -0.76557231119E+02  0.25443587844E+02  0.62335530741E+03  0.50400001928E-02 0.  1.
</event>
<event>
 5   0  0.4453011E-03  0.1326444E+04  0.7818609E-02  0.9008854E-01
        2   -1    0    0  501    0  0.00000000000E+00  0.00000000000E+00  0.56275459188E+03  0.56275459188E+03  0.25500000920E-02 0.  1.
       -2   -1    0    0    0  501  0.00000000000E+00  0.00000000000E+00 -0.78162530389E+03  0.78162530389E+03  0.25500000920E-02 0. -1.
    10030    2    1    2    0    0  0.00000000000E+00  0.00000000000E+00 -0.21887071201E+03  0.13443798958E+04  0.13264437099E+04 0.  0.
        1    1    3    3  502    0 -0.65740241418E+03 -0.59113774533E+02 -0.43823160180E+02  0.66150800593E+03  0.50400001928E-02 0.  1.
       -1    1    3    3    0  502  0.65740241418E+03  0.59113774533E+02 -0.17504755183E+03  0.68287188985E+03  0.50400001928E-02 0. -1.
</event>
<event>
 5   0  0.4306214E-03  0.1328279E+04  0.7818609E-02  0.9007435E-01
        2   -1    0    0  501    0  0.00000000000E+00  0.00000000000E+00  0.39122973256E+03  0.39122973257E+03  0.25500000920E-02 0.  1.
       -2   -1    0    0    0  501  0.00000000000E+00  0.00000000000E+00 -0.11274229677E+04  0.11274229677E+04  0.25500000920E-02 0. -1.
    10030    2    1    2    0    0  0.00000000000E+00  0.00000000000E+00 -0.73619323510E+03  0.15186527002E+04  0.13282791666E+04 0.  0.
        3    1    3    3  502    0 -0.78658433074E+02 -0.24145424451E+03  0.33352966146E+03  0.41920084275E+03  0.10100000352E+00 0.  1.
       -3    1    3    3    0  502  0.78658433074E+02  0.24145424451E+03 -0.10697228966E+04  0.10994518575E+04  0.10100000352E+00 0. -1.
</event>
<event>
 5   0  0.4263540E-03  0.1311767E+04  0.7818609E-02  0.9020285E-01
       -2   -1    0    0    0  501  0.00000000000E+00  0.00000000000E+00  0.22230503895E+03  0.22230503896E+03  0.25500000920E-02 0. -1.
        2   -1    0    0  501    0  0.00000000000E+00  0.00000000000E+00 -0.19351040860E+04  0.19351040860E+04  0.25500000920E-02 0.  1.
    10030    2    1    2    0    0  0.00000000000E+00  0.00000000000E+00 -0.17127990470E+04  0.21574091249E+04  0.13117673410E+04 0.  0.
        2    1    3    3  502    0 -0.36671924006E+03  0.36832773469E+03 -0.19846408941E+03  0.55635987990E+03  0.25500000920E-02 0. -1.
       -2    1    3    3    0  502  0.36671924006E+03 -0.36832773469E+03 -0.15143349576E+04  0.16010492450E+04  0.25500000920E-02 0.  1.
</event>
<event>
 5   0  0.2356769E-03  0.1288720E+04  0.7818609E-02  0.9038558E-01
        1   -1    0    0  501    0  0.00000000000E+00  0.00000000000E+00  0.11342357612E+04  0.11342357612E+04  0.50400001928E-02 0. -1.
       -1   -1    0    0    0  501  0.00000000000E+00  0.00000000000E+00 -0.36606132230E+03  0.36606132233E+03  0.50400001928E-02 0.  1.
    10030    2    1    2    0    0  0.00000000000E+00  0.00000000000E+00  0.76817443892E+03  0.15002970836E+04  0.12887200512E+04 0.  0.
        1    1    3    3  502    0  0.43728602279E+03 -0.11151777765E+03 -0.15136363047E+03  0.47598973635E+03  0.50400001928E-02 0.  1.
       -1    1    3    3    0  502 -0.43728602279E+03  0.11151777765E+03  0.91953806939E+03  0.10243073472E+04  0.50400001928E-02 0. -1.
</event>
<event>
 5   0  0.4310889E-03  0.1325490E+04  0.7818609E-02  0.9009592E-01
       -2   -1    0    0    0  501  0.00000000000E+00  0.00000000000E+00  0.45449609934E+03  0.45449609935E+03  0.25500000920E-02 0. -1.
        2   -1    0    0  501    0  0.00000000000E+00  0.00000000000E+00 -0.96641322324E+03  0.96641322325E+03  0.25500000920E-02 0.  1.
    10030    2    1    2    0    0  0.00000000000E+00  0.00000000000E+00 -0.51191712390E+03  0.14209093226E+04  0.13254901589E+04 0.  0.
        4    1    3    3  502    0 -0.44153198408E+02 -0.32034149681E+03  0.36418547077E+03  0.48703269862E+03  0.12699999809E+01 0. -1.
       -4    1    3    3    0  502  0.44153198408E+02  0.32034149681E+03 -0.87610259467E+03  0.93387662397E+03  0.12699999809E+01 0.  1.
</event>
<event>
 5   0  0.2370801E-03  0.1171190E+04  0.7818609E-02  0.9138455E-01
       -1   -1    0    0    0  501  0.00000000000E+00  0.00000000000E+00  0.16392499893E+03  0.16392499900E+03  0.50400001928E-02 0. -1.
        1   -1    0    0  501    0  0.00000000000E+00  0.00000000000E+00 -0.20919399614E+04  0.20919399614E+04  0.50400001928E-02 0.  1.
    10030    2    1    2    0    0  0.00000000000E+00  0.00000000000E+00 -0.19280149625E+04  0.22558649604E+04  0.11711895765E+04 0.  0.
        3    1    3    3  502    0 -0.37779473557E+03  0.37516443773E+03 -0.49439458369E+03  0.72656949575E+03  0.10100000352E+00 0. -1.
       -3    1    3    3    0  502  0.37779473557E+03 -0.37516443773E+03 -0.14336203788E+04  0.15292954646E+04  0.10100000352E+00 0.  1.
</event>
<event>
 5   0  0.4306214E-03  0.1286389E+04  0.7818609E-02  0.9040429E-01
       -2   -1    0    0    0  501  0.00000000000E+00  0.00000000000E+00  0.48612359875E+03  0.48612359875E+03  0.25500000920E-02 0.  1.
        2   -1    0    0  501    0  0.00000000000E+00  0.00000000000E+00 -0.85101657018E+03  0.85101657019E+03  0.25500000920E-02 0. -1.
    10030    2    1    2    0    0  0.00000000000E+00  0.00000000000E+00 -0.36489297144E+03  0.13371401689E+04  0.12863891133E+04 0.  0.
        3    1    3    3  502    0 -0.39472132004E+03 -0.41114015904E+03 -0.49229757972E+03  0.75312553275E+03  0.10100000352E+00 0.  1.
       -3    1    3    3    0  502  0.39472132004E+03  0.41114015904E+03  0.12740460829E+03  0.58401463619E+03  0.10100000352E+00 0. -1.
</event>
<event>
 5   0  0.4306214E-03  0.1297061E+04  0.7818609E-02  0.9031899E-01
        2   -1    0    0  501    0  0.00000000000E+00  0.00000000000E+00  0.18214367667E+04  0.18214367667E+04  0.25500000920E-02 0. -1.
       -2   -1    0    0    0  501  0.00000000000E+00  0.00000000000E+00 -0.23091213482E+03  0.23091213483E+03  0.25500000920E-02 0.  1.
    10030    2    1    2    0    0  0.00000000000E+00  0.00000000000E+00  0.15905246319E+04  0.20523489015E+04  0.12970610660E+04 0.  0.
        3    1    3    3  502    0  0.34844824302E+02  0.49985818014E+03  0.14467415480E+04  0.15310563278E+04  0.10100000352E+00 0. -1.
       -3    1    3    3    0  502 -0.34844824302E+02 -0.49985818014E+03  0.14378308392E+03  0.52129257376E+03  0.10100000352E+00 0.  1.
</event>
<event>
 5   0  0.2511542E-03  0.1285398E+04  0.7818609E-02  0.9041225E-01
        1   -1    0    0  501    0  0.00000000000E+00  0.00000000000E+00  0.89955210391E+03  0.89955210392E+03  0.50400001928E-02 0. -1.
       -1   -1    0    0    0  501  0.00000000000E+00  0.00000000000E+00 -0.45918647805E+03  0.45918647808E+03  0.50400001928E-02 0.  1.
    10030    2    1    2    0    0  0.00000000000E+00  0.00000000000E+00  0.44036562585E+03  0.13587385820E+04  0.12853982456E+04 0.  0.
        4    1    3    3  502    0  0.59774425349E+03  0.80631351361E+02 -0.14428830463E+02  0.60333192477E+03  0.12699999809E+01 0.  1.
       -4    1    3    3    0  502 -0.59774425349E+03 -0.80631351361E+02  0.45479445632E+03  0.75540665723E+03  0.12699999809E+01 0. -1.
</event>
<event>
 5   0  0.2356769E-03  0.1237571E+04  0.7818609E-02  0.9080592E-01
       -1   -1    0    0    0  501  0.00000000000E+00  0.00000000000E+00  0.41987997354E+03  0.41987997357E+03  0.50400001928E-02 0.  1.
        1   -1    0    0  501    0  0.00000000000E+00  0.00000000000E+00 -0.91191581742E+03  0.91191581743E+03  0.50400001928E-02 0. -1.
    10030    2    1    2    0    0  0.00000000000E+00  0.00000000000E+00 -0.49203584388E+03  0.13317957910E+04  0.12375705060E+04 0.  0.
        1    1    3    3  502    0  0.40330999291E+03  0.10151387222E+03  0.24704932353E+03  0.48373276189E+03  0.50400001928E-02 0.  1.
       -1    1    3    3    0  502 -0.40330999291E+03 -0.10151387222E+03 -0.73908516741E+03  0.84806302911E+03  0.50400001928E-02 0. -1.
</event>
<event>
 5   0  0.4453011E-03  0.1298518E+04  0.7818609E-02  0.9030741E-01
       -2   -1    0    0    0  501  0.00000000000E+00  0.00000000000E+00  0.66801536067E+03  0.66801536067E+03  0.25500000920E-02 0.  1.
        2   -1    0    0  501    0  0.00000000000E+00  0.00000000000E+00 -0.63102930566E+03  0.63102930567E+03  0.25500000920E-02 0. -1.
    10030    2    1    2    0    0  0.00000000000E+00  0.00000000000E+00  0.36986055005E+02  0.12990446663E+04  0.12985180310E+04 0.  0.
        1    1    3    3  502    0  0.39281706575E+03  0.71958879949E+02  0.53061268668E+03  0.66410326820E+03  0.50400001928E-02 0.  1.
       -1    1    3    3    0  502 -0.39281706575E+03 -0.71958879949E+02 -0.49362663168E+03  0.63494139814E+03  0.50400001928E-02 0. -1.
</event>
<event>
 5   0  0.2511542E-03  0.1279256E+04  0.7818609E-02  0.9046179E-01
       -1   -1    0    0    0  501  0.00000000000E+00  0.00000000000E+00  0.48297823420E+03  0.48297823423E+03  0.50400001928E-02 0.  1.
        1   -1    0    0  501    0  0.00000000000E+00  0.00000000000E+00 -0.84708634487E+03  0.84708634488E+03  0.50400001928E-02 0. -1.
    10030    2    1    2    0    0  0.00000000000E+00  0.00000000000E+00 -0.36410811066E+03  0.13300645791E+04  0.12792564514E+04 0.  0.
        4    1    3    3  502    0 -0.57737275722E+03 -0.18557405781E+03 -0.39341503541E+03  0.72289282380E+03  0.12699999809E+01 0. -1.
       -4    1    3    3    0  502  0.57737275722E+03  0.18557405781E+03  0.29306924745E+02  0.60717175531E+03  0.12699999809E+01 0.  1.
</event>
<event>
 5   0  0.4388937E-03  0.1309582E+04  0.7818609E-02  0.9022001E-01
        2   -1    0    0  501    0  0.00000000000E+00  0.00000000000E+00  0.93266201409E+03  0.93266201409E+03  0.25500000920E-02 0. -1.
       -2   -1    0    0    0  501  0.00000000000E+00  0.00000000000E+00 -0.45970682240E+03  0.45970682241E+03  0.25500000920E-02 0.  1.
    10030    2    1    2    0    0  0.00000000000E+00  0.00000000000E+00  0.47295519169E+03  0.13923688365E+04  0.13095817514E+04 0.  0.
        5    1    3    3  502    0  0.27331630486E+03  0.55423869572E+03  0.63540662788E+01  0.61801682703E+03  0.46999998093E+01 0.  1.
       -5    1    3    3    0  502 -0.27331630486E+03 -0.55423869572E+03  0.46660112541E+03  0.77435200947E+03  0.46999998093E+01 0. -1.
</event>
<event>
 5   0  0.2462055E-03  0.1306153E+04  0.7818609E-02  0.9024700E-01
        1   -1    0    0  501    0  0.00000000000E+00  0.00000000000E+00  0.62156343899E+03  0.62156343901E+03  0.50400001928E-02 0. -1.
       -1   -1    0    0    0  501  0.00000000000E+00  0.00000000000E+00 -0.68618703653E+03  0.68618703655E+03  0.50400001928E-02 0.  1.
    10030    2    1    2    0    0  0.00000000000E+00  0.00000000000E+00 -0.64623597546E+02  0.13077504756E+04  0.13061527847E+04 0.  0.
        2    1    3    3  502    0 -0.41988239126E+02 -0.21915444852E+03 -0.64683540028E+03  0.68424244211E+03  0.25500000920E-02 0.  1.
       -2    1    3    3    0  502  0.41988239126E+02  0.21915444852E+03  0.58221180273E+03  0.62350803345E+03  0.25500000920E-02 0. -1.
</event>
<event>
 5   0  0.2458456E-03  0.1283611E+04  0.7818609E-02  0.9042664E-01
       -1   -1    0    0    0  501  0.00000000000E+00  0.00000000000E+00  0.30391174892E+03  0.30391174896E+03  0.50400001928E-02 0. -1.
        1   -1    0    0  501    0  0.00000000000E+00  0.00000000000E+00 -0.13553738863E+04  0.13553738863E+04  0.50400001928E-02 0.  1.
    10030    2    1    2    0    0  0.00000000000E+00  0.00000000000E+00 -0.10514621374E+04  0.16592856353E+04  0.12836106080E+04 0.  0.
        5    1    3    3  502    0 -0.18880335430E+03  0.25274006583E+03 -0.12482029073E+04  0.12874613918E+04  0.46999998093E+01 0.  1.
       -5    1    3    3    0  502  0.18880335430E+03 -0.25274006583E+03  0.19674076996E+03  0.37182424347E+03  0.46999998093E+01 0. -1.
</event>
<event>
 5   0  0.2356769E-03  0.1721626E+04  0.7818609E-02  0.8749125E-01
       -1   -1    0    0    0  501  0.00000000000E+00  0.00000000000E+00  0.54746504509E+03  0.54746504511E+03  0.50400001928E-02 0.  1.
        1   -1    0    0  501    0  0.00000000000E+00  0.00000000000E+00 -0.13535099668E+04  0.13535099668E+04  0.50400001928E-02 0. -1.
    10030    2    1    2    0    0  0.00000000000E+00  0.00000000000E+00 -0.80604492169E+03  0.19009750119E+04  0.17216264345E+04 0.  0.
        1    1    3    3  502    0 -0.36588156024E+03  0.77916964432E+03 -0.39752990315E+03  0.94815857043E+03  0.50400001928E-02 0. -1.
       -1    1    3    3    0  502  0.36588156024E+03 -0.77916964432E+03 -0.40851501854E+03  0.95281644147E+03  0.50400001928E-02 0.  1.
</event>
<event>
 5   0  0.4388937E-03  0.1277183E+04  0.7818609E-02  0.9047858E-01
       -2   -1    0    0    0  501  0.00000000000E+00  0.00000000000E+00  0.89334747397E+03  0.89334747397E+03  0.25500000920E-02 0. -1.
        2   -1    0    0  501    0  0.00000000000E+00  0.00000000000E+00 -0.45648397647E+03  0.45648397647E+03  0.25500000920E-02 0.  1.
    10030    2    1    2    0    0  0.00000000000E+00  0.00000000000E+00  0.43686349750E+03  0.13498314504E+04  0.12771825356E+04 0.  0.
        5    1    3    3  502    0  0.80949685814E+02  0.46346047072E+03 -0.23790184572E+03  0.52722655259E+03  0.46999998093E+01 0.  1.
       -5    1    3    3    0  502 -0.80949685814E+02 -0.46346047072E+03  0.67476534323E+03  0.82260489786E+03  0.46999998093E+01 0. -1.
</event>
<event>
 5   0  0.2462055E-03  0.1261946E+04  0.7818609E-02  0.9060298E-01
       -1   -1    0    0    0  501  0.00000000000E+00  0.00000000000E+00  0.57320892499E+03  0.57320892501E+03  0.50400001928E-02 0. -1.
        1   -1    0    0  501    0  0.00000000000E+00  0.00000000000E+00 -0.69455862407E+03  0.69455862409E+03  0.50400001928E-02 0.  1.
    10030    2    1    2    0    0  0.00000000000E+00  0.00000000000E+00 -0.12134969909E+03  0.12677675491E+04  0.12619464367E+04 0.  0.
        2    1    3    3  502    0  0.17700916742E+03  0.60445255800E+03 -0.22657693439E+02  0.63024480268E+03  0.25500000920E-02 0. -1.
       -2    1    3    3    0  502 -0.17700916742E+03 -0.60445255800E+03 -0.98692005649E+02  0.63752274642E+03  0.25500000920E-02 0.  1.
</event>
<event>
 5   0  0.2370801E-03  0.1298873E+04  0.7818609E-02  0.9030459E-01
        1   -1    0    0  501    0  0.00000000000E+00  0.00000000000E+00  0.11635753547E+04  0.11635753547E+04  0.50400001928E-02 0.  1.
       -1   -1    0    0    0  501  0.00000000000E+00  0.00000000000E+00 -0.36247571189E+03  0.36247571192E+03  0.50400001928E-02 0. -1.
    10030    2    1    2    0    0  0.00000000000E+00  0.00000000000E+00  0.80109964281E+03  0.15260510666E+04  0.12988730578E+04 0.  0.
        3    1    3    3  502    0  0.98604893561E+02  0.42344508915E+02  0.11530863964E+04  0.11580691820E+04  0.10100000352E+00 0.  1.
       -3    1    3    3    0  502 -0.98604893561E+02 -0.42344508915E+02 -0.35198675363E+03  0.36798188461E+03  0.10100000352E+00 0. -1.
</event>
<event>
 5   0  0.4306214E-03  0.1268993E+04  0.7818609E-02  0.9054522E-01
        2   -1    0    0  501    0  0.00000000000E+00  0.00000000000E+00  0.93061712664E+03  0.93061712664E+03  0.25500000920E-02 0.  1.
       -2   -1    0    0    0  501  0.00000000000E+00  0.00000000000E+00 -0.43260100924E+03  0.43260100925E+03  0.25500000920E-02 0. -1.
    10030    2    1    2    0    0  0.00000000000E+00  0.00000000000E+00  0.49801611739E+03  0.13632181359E+04  0.12689931571E+04 0.  0.
        3    1    3    3  502    0  0.36013888780E+03 -0.46154587662E+03  0.51184057105E+03  0.77762805704E+03  0.10100000352E+00 0.  1.
       -3    1    3    3    0  502 -0.36013888780E+03  0.46154587662E+03 -0.13824453655E+02  0.58559007885E+03  0.10100000352E+00 0. -1.
</event>
<event>
 5   0  0.4388937E-03  0.1302176E+04  0.7818609E-02  0.9027842E-01
        2   -1    0    0  501    0  0.00000000000E+00  0.00000000000E+00  0.18077228931E+04  0.18077228931E+04  0.25500000920E-02 0. -1.
       -2   -1    0    0    0  501  0.00000000000E+00  0.00000000000E+00 -0.23450243570E+03  0.23450243571E+03  0.25500000920E-02 0.  1.
    10030    2    1    2    0    0  0.00000000000E+00  0.00000000000E+00  0.15732204574E+04  0.20422253289E+04  0.13021757509E+04 0.  0.
        5    1    3    3  502    0 -0.39546554063E+03  0.43206248332E+03  0.34074891971E+03  0.67764511332E+03  0.46999998093E+01 0. -1.
       -5    1    3    3    0  502  0.39546554063E+03 -0.43206248332E+03  0.12324715377E+04  0.13645802155E+04  0.46999998093E+01 0.  1.
</event>
<event>
 5   0  0.4453011E-03  0.1037547E+04  0.7818609E-02  0.9268296E-01
        2   -1    0    0  501    0  0.00000000000E+00  0.00000000000E+00  0.17493203556E+04  0.17493203556E+04  0.25500000920E-02 0.  1.
       -2   -1    0    0    0  501  0.00000000000E+00  0.00000000000E+00 -0.15384598181E+03  0.15384598183E+03  0.25500000920E-02 0. -1.
    10030    2    1    2    0    0  0.00000000000E+00  0.00000000000E+00  0.15954743738E+04  0.19031663374E+04  0.10375469293E+04 0.  0.
        1    1    3    3  502    0  0.19029473727E+03 -0.28293226340E+03  0.15149043682E+04  0.15528032707E+04  0.50400001928E-02 0.  1.
       -1    1    3    3    0  502 -0.19029473727E+03  0.28293226340E+03  0.80570005606E+02  0.35036306674E+03  0.50400001928E-02 0. -1.
</event>
<event>
 5   0  0.2511542E-03  0.8259535E+03  0.7818609E-02  0.9523192E-01
        1   -1    0    0  501    0  0.00000000000E+00  0.00000000000E+00  0.15960501294E+03  0.15960501302E+03  0.50400001928E-02 0.  1.
       -1   -1    0    0    0  501  0.00000000000E+00  0.00000000000E+00 -0.10685740992E+04  0.10685740992E+04  0.50400001928E-02 0. -1.
    10030    2    1    2    0    0  0.00000000000E+00  0.00000000000E+00 -0.90896908623E+03  0.12281791122E+04  0.82595346838E+03 0.  0.
        4    1    3    3  502    0 -0.22423517270E+03 -0.19026774375E+03 -0.88561984756E+03  0.93317059227E+03  0.12699999809E+01 0. -1.
       -4    1    3    3    0  502  0.22423517270E+03  0.19026774375E+03 -0.23349238669E+02  0.29500851993E+03  0.12699999809E+01 0.  1.
</event>
<event>
 5   0  0.2370801E-03  0.1160449E+04  0.7818609E-02  0.9148197E-01
        1   -1    0    0  501    0  0.00000000000E+00  0.00000000000E+00  0.54398354978E+03  0.54398354980E+03  0.50400001928E-02 0. -1.
       -1   -1    0    0    0  501  0.00000000000E+00  0.00000000000E+00 -0.61888034964E+03  0.61888034966E+03  0.50400001928E-02 0.  1.
    10030    2    1    2    0    0  0.00000000000E+00  0.00000000000E+00 -0.74896799862E+02  0.11628638995E+04  0.11604494466E+04 0.  0.
        3    1    3    3  502    0 -0.23143723899E+03 -0.49428626790E+03 -0.23478097190E+03  0.59414158683E+03  0.10100000352E+00 0.  1.
       -3    1    3    3    0  502  0.23143723899E+03  0.49428626790E+03  0.15988417204E+03  0.56872231264E+03  0.10100000352E+00 0. -1.
</event>
<event>
 5   0  0.2356769E-03  0.1300012E+04  0.7818609E-02  0.9029556E-01
        1   -1    0    0  501    0  0.00000000000E+00  0.00000000000E+00  0.69891391901E+03  0.69891391903E+03  0.50400001928E-02 0. -1.
       -1   -1    0    0    0  501  0.00000000000E+00  0.00000000000E+00 -0.60452057579E+03  0.60452057581E+03  0.50400001928E-02 0.  1.
    10030    2    1    2    0    0  0.00000000000E+00  0.00000000000E+00  0.94393343220E+02  0.13034344948E+04  0.13000120688E+04 0.  0.
        1    1    3    3  502    0  0.49222790855E+03  0.89065367079E+02 -0.36897061922E+03  0.62157885376E+03  0.50400001928E-02 0.  1.
       -1    1    3    3    0  502 -0.49222790855E+03 -0.89065367079E+02  0.46336396244E+03  0.68185564109E+03  0.50400001928E-02 0. -1.
</event>
<event>
 5   0  0.4263540E-03  0.1281639E+04  0.7818609E-02  0.9044254E-01
        2   -1    0    0  501    0  0.00000000000E+00  0.00000000000E+00  0.10850763297E+04  0.10850763297E+04  0.25500000920E-02 0. -1.
       -2   -1    0    0    0  501  0.00000000000E+00  0.00000000000E+00 -0.37845225410E+03  0.37845225411E+03  0.25500000920E-02 0.  1.
    10030    2    1    2    0    0  0.00000000000E+00  0.00000000000E+00  0.70662407563E+03  0.14635285838E+04  0.12816389240E+04 0.  0.
        2    1    3    3  502    0 -0.40891301215E+02 -0.60994363553E+03  0.57280503962E+03  0.83774038369E+03  0.25500000920E-02 0.  1.
       -2    1    3    3    0  502  0.40891301215E+02  0.60994363553E+03  0.13381903601E+03  0.62578820015E+03  0.25500000920E-02 0. -1.
</event>
<event>
 5   0  0.2356769E-03  0.1257481E+04  0.7818609E-02  0.9063980E-01
       -1   -1    0    0    0  501  0.00000000000E+00  0.00000000000E+00  0.74253785265E+03  0.74253785267E+03  0.50400001928E-02 0.  1.
        1   -1    0    0  501    0  0.00000000000E+00  0.00000000000E+00 -0.53238309902E+03  0.53238309905E+03  0.50400001928E-02 0. -1.
    10030    2    1    2    0    0  0.00000000000E+00  0.00000000000E+00  0.21015475363E+03  0.12749209517E+04  0.12574809790E+04 0.  0.
        1    1    3    3  502    0  0.20515480750E+03  0.54192728812E+03  0.35247163354E+03  0.67824032107E+03  0.50400001928E-02 0.  1.
       -1    1    3    3    0  502 -0.20515480750E+03 -0.54192728812E+03 -0.14231687992E+03  0.59668063064E+03  0.50400001928E-02 0. -1.
</event>
<event>
 5   0  0.1661750E-03  0.1233572E+04  0.7818609E-02  0.9083968E-01
       -4   -1    0    0    0  501  0.00000000000E+00  0.00000000000E+00  0.62127393471E+03  0.62127523277E+03  0.12699999809E+01 0. -1.
        4   -1    0    0  501    0  0.00000000000E+00  0.00000000000E+00 -0.61232764192E+03  0.61232895894E+03  0.12699999809E+01 0.  1.
    10030    2    1    2    0    0  0.00000000000E+00  0.00000000000E+00  0.89462927913E+01  0.12336041917E+04  0.12335717513E+04 0.  0.
        4    1    3    3  502    0 -0.33099205161E+03 -0.50734665442E+03  0.12052290228E+03  0.61764370704E+03  0.12699999809E+01 0. -1.
       -4    1    3    3    0  502  0.33099205161E+03  0.50734665442E+03 -0.11157660949E+03  0.61596048466E+03  0.12699999809E+01 0.  1.
</event>
<event>
 5   0  0.2511542E-03  0.1299746E+04  0.7818609E-02  0.9029767E-01
        1   -1    0    0  501    0  0.00000000000E+00  0.00000000000E+00  0.31867856172E+03  0.31867856176E+03  0.50400001928E-02 0.  1.
       -1   -1    0    0    0  501  0.00000000000E+00  0.00000000000E+00 -0.13252692244E+04  0.13252692244E+04  0.50400001928E-02 0. -1.
    10030    2    1    2    0    0  0.00000000000E+00  0.00000000000E+00 -0.10065906627E+04  0.16439477862E+04  0.12997459604E+04 0.  0.
        4    1    3    3  502    0  0.43251649171E+03 -0.22090903238E+03  0.42870676829E+02  0.48755597014E+03  0.12699999809E+01 0.  1.
       -4    1    3    3    0  502 -0.43251649171E+03  0.22090903238E+03 -0.10494613395E+04  0.11563918161E+04  0.12699999809E+01 0. -1.
</event>
<event>
 5   0  0.4453011E-03  0.1088181E+04  0.7818609E-02  0.9216789E-01
        2   -1    0    0  501    0  0.00000000000E+00  0.00000000000E+00  0.11762972107E+04  0.11762972107E+04  0.25500000920E-02 0. -1.
       -2   -1    0    0    0  501  0.00000000000E+00  0.00000000000E+00 -0.25166618314E+03  0.25166618316E+03  0.25500000920E-02 0.  1.
    10030    2    1    2    0    0  0.00000000000E+00  0.00000000000E+00  0.92463102758E+03  0.14279633939E+04  0.10881805535E+04 0.  0.
        1    1    3    3  502    0  0.43084662997E+03  0.31768151065E+03  0.59010904634E+03  0.79673022244E+03  0.50400001928E-02 0. -1.
       -1    1    3    3    0  502 -0.43084662997E+03 -0.31768151065E+03  0.33452198124E+03  0.63123317144E+03  0.50400001928E-02 0.  1.
</event>
<event>
 5   0  0.4306214E-03  0.1278195E+04  0.7818609E-02  0.9047038E-01
       -2   -1    0    0    0  501  0.00000000000E+00  0.00000000000E+00  0.89376785413E+03  0.89376785414E+03  0.25500000920E-02 0.  1.
        2   -1    0    0  501    0  0.00000000000E+00  0.00000000000E+00 -0.45699266550E+03  0.45699266551E+03  0.25500000920E-02 0. -1.
    10030    2    1    2    0    0  0.00000000000E+00  0.00000000000E+00  0.43677518864E+03  0.13507605196E+04  0.12781945924E+04 0.  0.
        3    1    3    3  502    0  0.40167836420E+03  0.46776444640E+03  0.40622745568E+02  0.61789910442E+03  0.10100000352E+00 0.  1.
       -3    1    3    3    0  502 -0.40167836420E+03 -0.46776444640E+03  0.39615244307E+03  0.73286141523E+03  0.10100000352E+00 0. -1.
</event>
<event>
 5   0  0.2462055E-03  0.1261159E+04  0.7818609E-02  0.9060946E-01
        1   -1    0    0  501    0  0.00000000000E+00  0.00000000000E+00  0.12948287183E+04  0.12948287183E+04  0.50400001928E-02 0. -1.
       -1   -1    0    0    0  501  0.00000000000E+00  0.00000000000E+00 -0.30709134419E+03  0.30709134423E+03  0.50400001928E-02 0.  1.
    10030    2    1    2    0    0  0.00000000000E+00  0.00000000000E+00  0.98773737415E+03  0.16019200626E+04  0.12611592947E+04 0.  0.
        2    1    3    3  502    0  0.57168362747E+03 -0.20457027836E+03  0.71002433973E+03  0.93424072472E+03  0.25500000920E-02 0. -1.
       -2    1    3    3    0  502 -0.57168362747E+03  0.20457027836E+03  0.27771303442E+03  0.66767933786E+03  0.25500000920E-02 0.  1.
</event>
<event>
 5   0  0.1661750E-03  0.1233975E+04  0.7818609E-02  0.9083627E-01
        3   -1    0    0  501    0  0.00000000000E+00  0.00000000000E+00  0.15278817475E+04  0.15278817509E+04  0.10100000352E+00 0.  1.
       -3   -1    0    0    0  501  0.00000000000E+00  0.00000000000E+00 -0.24915110351E+03  0.24915112398E+03  0.10100000352E+00 0. -1.
    10030    2    1    2    0    0  0.00000000000E+00  0.00000000000E+00  0.12787306440E+04  0.17770328749E+04  0.12339747884E+04 0.  0.
        4    1    3    3  502    0 -0.44221390686E+03  0.37991174439E+03  0.34853247908E+03  0.67923675903E+03  0.12699999809E+01 0.  1.
       -4    1    3    3    0  502  0.44221390686E+03 -0.37991174439E+03  0.93019816495E+03  0.10977961158E+04  0.12699999809E+01 0. -1.
</event>
<event>
 5   0  0.2458456E-03  0.1301965E+04  0.7818609E-02  0.9028009E-01
       -1   -1    0    0    0  501  0.00000000000E+00  0.00000000000E+00  0.75071784216E+03  0.75071784218E+03  0.50400001928E-02 0.  1.
        1   -1    0    0  501    0  0.00000000000E+00  0.00000000000E+00 -0.56449694813E+03  0.56449694816E+03  0.50400001928E-02 0. -1.
    10030    2    1    2    0    0  0.00000000000E+00  0.00000000000E+00  0.18622089403E+03  0.13152147903E+04  0.13019645630E+04 0.  0.
        5    1    3    3  502    0  0.35481767944E+03 -0.52603741017E+03  0.24000318326E+03  0.67840589658E+03  0.46999998093E+01 0.  1.
       -5    1    3    3    0  502 -0.35481767944E+03  0.52603741017E+03 -0.53782289234E+02  0.63680889376E+03  0.46999998093E+01 0. -1.
</event>
<event>
 5   0  0.4388937E-03  0.1309192E+04  0.7818609E-02  0.9022307E-01
       -2   -1    0    0    0  501  0.00000000000E+00  0.00000000000E+00  0.61113129062E+03  0.61113129063E+03  0.25500000920E-02 0. -1.
        2   -1    0    0  501    0  0.00000000000E+00  0.00000000000E+00 -0.70115250308E+03  0.70115250309E+03  0.25500000920E-02 0.  1.
    10030    2    1    2    0    0  0.00000000000E+00  0.00000000000E+00 -0.90021212463E+02  0.13122837937E+04  0.13091924750E+04 0.  0.
        5    1    3    3  502    0  0.85839860535E+02 -0.10819934170E+03  0.59634282577E+03  0.61214576291E+03  0.46999998093E+01 0. -1.
       -5    1    3    3    0  502 -0.85839860535E+02  0.10819934170E+03 -0.68636403824E+03  0.70013803081E+03  0.46999998093E+01 0.  1.
</event>
<event>
 5   0  0.4453011E-03  0.1328381E+04  0.7818609E-02  0.9007356E-01
        2   -1    0    0  501    0  0.00000000000E+00  0.00000000000E+00  0.98118213989E+03  0.98118213989E+03  0.25500000920E-02 0.  1.
       -2   -1    0    0    0  501  0.00000000000E+00  0.00000000000E+00 -0.44961004180E+03  0.44961004181E+03  0.25500000920E-02 0. -1.
    10030    2    1    2    0    0  0.00000000000E+00  0.00000000000E+00  0.53157209809E+03  0.14307921817E+04  0.13283814858E+04 0.  0.
        1    1    3    3  502    0 -0.18535136630E+02 -0.54426706041E+03  0.67533572891E+03  0.86755318633E+03  0.50400001928E-02 0.  1.
       -1    1    3    3    0  502  0.18535136630E+02  0.54426706041E+03 -0.14376363082E+03  0.56323899538E+03  0.50400001928E-02 0. -1.
</event>
<event>
 5   0  0.2458456E-03  0.1294553E+04  0.7818609E-02  0.9033896E-01
        1   -1    0    0  501    0  0.00000000000E+00  0.00000000000E+00  0.17225406842E+04  0.17225406842E+04  0.50400001928E-02 0.  1.
       -1   -1    0    0    0  501  0.00000000000E+00  0.00000000000E+00 -0.24322624290E+03  0.24322624295E+03  0.50400001928E-02 0. -1.
    10030    2    1    2    0    0  0.00000000000E+00  0.00000000000E+00  0.14793144413E+04  0.19657669272E+04  0.12945533576E+04 0.  0.
        5    1    3    3  502    0 -0.36469197813E+03  0.10626045388E+03  0.15354584878E+04  0.15817542100E+04  0.46999998093E+01 0.  1.
       -5    1    3    3    0  502  0.36469197813E+03 -0.10626045388E+03 -0.56144046547E+02  0.38401271715E+03  0.46999998093E+01 0. -1.
</event>
<event>
 5   0  0.2511542E-03  0.1249515E+04  0.7818609E-02  0.9070587E-01
        1   -1    0    0  501    0  0.00000000000E+00  0.00000000000E+00  0.73847827059E+03  0.73847827061E+03  0.50400001928E-02 0. -1.
       -1   -1    0    0    0  501  0.00000000000E+00  0.00000000000E+00 -0.52854859831E+03  0.52854859834E+03  0.50400001928E-02 0.  1.
    10030    2    1    2    0    0  0.00000000000E+00  0.00000000000E+00  0.20992967228E+03  0.12670268689E+04  0.12495145535E+04 0.  0.
        4    1    3    3  502    0 -0.19439028656E+03 -0.53915200305E+03 -0.14721238081E+03  0.59173098944E+03  0.12699999809E+01 0.  1.
       -4    1    3    3    0  502  0.19439028656E+03  0.53915200305E+03  0.35714205309E+03  0.67529587951E+03  0.12699999809E+01 0. -1.
</event>
<event>
 5   0  0.4310889E-03  0.1292756E+04  0.7818609E-02  0.9035330E-01
       -2   -1    0    0    0  501  0.00000000000E+00  0.00000000000E+00  0.27646899353E+03  0.27646899354E+03  0.25500000920E-02 0. -1.
        2   -1    0    0  501    0  0.00000000000E+00  0.00000000000E+00 -0.15112162466E+04  0.15112162466E+04  0.25500000920E-02 0.  1.
    10030    2    1    2    0    0  0.00000000000E+00  0.00000000000E+00 -0.12347472531E+04  0.17876852402E+04  0.12927558698E+04 0.  0.
        4    1    3    3  502    0 -0.26716803663E+03  0.19613978551E+03 -0.13847650296E+04  0.14238768821E+04  0.12699999809E+01 0.  1.
       -4    1    3    3    0  502  0.26716803663E+03 -0.19613978551E+03  0.15001777649E+03  0.36380835809E+03  0.12699999809E+01 0. -1.
</event>
<event>
 5   0  0.4453011E-03  0.1288033E+04  0.7818609E-02  0.9039109E-01
       -2   -1    0    0    0  501  0.00000000000E+00  0.00000000000E+00  0.90235727772E+03  0.90235727773E+03  0.25500000920E-02 0. -1.
        2   -1    0    0  501    0  0.00000000000E+00  0.00000000000E+00 -0.45963761028E+03  0.45963761029E+03  0.25500000920E-02 0.  1.
    10030    2    1    2    0    0  0.00000000000E+00  0.00000000000E+00  0.44271966744E+03  0.13619948880E+04  0.12880331405E+04 0.  0.
        1    1    3    3  502    0  0.72184538673E+02 -0.21507092835E+03  0.85870676292E+03  0.88816857440E+03  0.50400001928E-02 0. -1.
       -1    1    3    3    0  502 -0.72184538673E+02  0.21507092835E+03 -0.41598709548E+03  0.47382631362E+03  0.50400001928E-02 0.  1.
</event>
<event>
 5   0  0.4388937E-03  0.1246829E+04  0.7818609E-02  0.9072827E-01
        2   -1    0    0  501    0  0.00000000000E+00  0.00000000000E+00  0.13818245578E+04  0.13818245578E+04  0.25500000920E-02 0.  1.
       -2   -1    0    0    0  501  0.00000000000E+00  0.00000000000E+00 -0.28125534064E+03  0.28125534066E+03  0.25500000920E-02 0. -1.
    10030    2    1    2    0    0  0.00000000000E+00  0.00000000000E+00  0.11005692172E+04  0.16630798985E+04  0.12468288363E+04 0.  0.
        5    1    3    3  502    0  0.39858062160E+03 -0.12914948922E+03  0.11659927751E+04  0.12389944892E+04  0.46999998093E+01 0.  1.
       -5    1    3    3    0  502 -0.39858062160E+03  0.12914948922E+03 -0.65423557955E+02  0.42408540933E+03  0.46999998093E+01 0. -1.
</event>
<event>
 5   0  0.4388937E-03  0.1259248E+04  0.7818609E-02  0.9062521E-01
        2   -1    0    0  501    0  0.00000000000E+00  0.00000000000E+00  0.14159880846E+04  0.14159880846E+04  0.25500000920E-02 0. -1.
       -2   -1    0    0    0  501  0.00000000000E+00  0.00000000000E+00 -0.27996460544E+03  0.27996460545E+03  0.25500000920E-02 0.  1.
    10030    2    1    2    0    0  0.00000000000E+00  0.00000000000E+00  0.11360234792E+04  0.16959526901E+04  0.12592482606E+04 0.  0.
        5    1    3    3  502    0 -0.52949169795E+02 -0.37587577982E+03 -0.10850211630E+03  0.39481769929E+03  0.46999998093E+01 0.  1.
       -5    1    3    3    0  502  0.52949169795E+02  0.37587577982E+03  0.12445255955E+04  0.13011349908E+04  0.46999998093E+01 0. -1.
</event>
<event>
 5   0  0.4388937E-03  0.1265314E+04  0.7818609E-02  0.9057533E-01
       -2   -1    0    0    0  501  0.00000000000E+00  0.00000000000E+00  0.24815395654E+03  0.24815395655E+03  0.25500000920E-02 0.  1.
        2   -1    0    0  501    0  0.00000000000E+00  0.00000000000E+00 -0.16129289340E+04  0.16129289340E+04  0.25500000920E-02 0. -1.
    10030    2    1    2    0    0  0.00000000000E+00  0.00000000000E+00 -0.13647749774E+04  0.18610828905E+04  0.12653137107E+04 0.  0.
        5    1    3    3  502    0  0.57099978691E+03 -0.13733379144E+03 -0.10283689749E+04  0.11842576432E+04  0.46999998093E+01 0. -1.
       -5    1    3    3    0  502 -0.57099978691E+03  0.13733379144E+03 -0.33640600258E+03  0.67682524738E+03  0.46999998093E+01 0.  1.
</event>
<event>
 5   0  0.2458456E-03  0.1277507E+04  0.7818609E-02  0.9047595E-01
       -1   -1    0    0    0  501  0.00000000000E+00  0.00000000000E+00  0.49266176410E+03  0.49266176412E+03  0.50400001928E-02 0.  1.
        1   -1    0    0  501    0  0.00000000000E+00  0.00000000000E+00 -0.82816681805E+03  0.82816681806E+03  0.50400001928E-02 0. -1.
    10030    2    1    2    0    0  0.00000000000E+00  0.00000000000E+00 -0.33550505395E+03  0.13208285822E+04  0.12775071437E+04 0.  0.
        5    1    3    3  502    0  0.21076111284E+03  0.36371150170E+03  0.32946912400E+03  0.53411449785E+03  0.46999998093E+01 0.  1.
       -5    1    3    3    0  502 -0.21076111284E+03 -0.36371150170E+03 -0.66497417795E+03  0.78671408433E+03  0.46999998093E+01 0. -1.
</event>
<event>
 5   0  0.4453011E-03  0.1321535E+04  0.7818609E-02  0.9012660E-01
       -2   -1    0    0    0  501  0.00000000000E+00  0.00000000000E+00  0.32244631482E+03  0.32244631483E+03  0.25500000920E-02 0.  1.
        2   -1    0    0  501    0  0.00000000000E+00  0.00000000000E+00 -0.13540665201E+04  0.13540665201E+04  0.25500000920E-02 0. -1.
    10030    2    1    2    0    0  0.00000000000E+00  0.00000000000E+00 -0.10316202053E+04  0.16765128349E+04  0.13215351065E+04 0.  0.
        1    1    3    3  502    0 -0.32028006309E+03 -0.39579224997E+03  0.18488571882E+02  0.50948272912E+03  0.50400001928E-02 0.  1.
       -1    1    3    3    0  502  0.32028006309E+03  0.39579224997E+03 -0.10501087771E+04  0.11670301058E+04  0.50400001928E-02 0. -1.
</event>
<event>
 5   0  0.2462055E-03  0.1240326E+04  0.7818609E-02  0.9078274E-01
       -1   -1    0    0    0  501  0.00000000000E+00  0.00000000000E+00  0.22842785516E+03  0.22842785521E+03  0.50400001928E-02 0. -1.
        1   -1    0    0  501    0  0.00000000000E+00  0.00000000000E+00 -0.16836910136E+04  0.16836910136E+04  0.50400001928E-02 0.  1.
    10030    2    1    2    0    0  0.00000000000E+00  0.00000000000E+00 -0.14552631585E+04  0.19121188688E+04  0.12403256460E+04 0.  0.
        2    1    3    3  502    0  0.15337461256E+03  0.34849512541E+03 -0.14822877466E+04  0.15304083076E+04  0.25500000920E-02 0.  1.
       -2    1    3    3    0  502 -0.15337461256E+03 -0.34849512541E+03  0.27024588122E+02  0.38171056126E+03  0.25500000920E-02 0. -1.
</event>
<event>
 5   0  0.2462055E-03  0.1249585E+04  0.7818609E-02  0.9070529E-01
        1   -1    0    0  501    0  0.00000000000E+00  0.00000000000E+00  0.34366828757E+03  0.34366828761E+03  0.50400001928E-02 0. -1.
       -1   -1    0    0    0  501  0.00000000000E+00  0.00000000000E+00 -0.11358785959E+04  0.11358785959E+04  0.50400001928E-02 0.  1.
    10030    2    1    2    0    0  0.00000000000E+00  0.00000000000E+00 -0.79221030831E+03  0.14795468835E+04  0.12495846542E+04 0.  0.
        2    1    3    3  502    0  0.17586066911E+03  0.49906856389E+03 -0.78946198099E+03  0.95039287973E+03  0.25500000920E-02 0.  1.
       -2    1    3    3    0  502 -0.17586066911E+03 -0.49906856389E+03 -0.27483273220E+01  0.52915400378E+03  0.25500000920E-02 0. -1.
</event>
<event>
 5   0  0.2370801E-03  0.1444554E+04  0.7818609E-02  0.8922185E-01
       -1   -1    0    0    0  501  0.00000000000E+00  0.00000000000E+00  0.44173669871E+03  0.44173669874E+03  0.50400001928E-02 0. -1.
        1   -1    0    0  501    0  0.00000000000E+00  0.00000000000E+00 -0.11809835690E+04  0.11809835690E+04  0.50400001928E-02 0.  1.
    10030    2    1    2    0    0  0.00000000000E+00  0.00000000000E+00 -0.73924687024E+03  0.16227202677E+04  0.14445536100E+04 0.  0.
        3    1    3    3  502    0  0.33098056499E+03 -0.32451021160E+03 -0.99186358406E+03  0.10948280191E+04  0.10100000352E+00 0.  1.
       -3    1    3    3    0  502 -0.33098056499E+03  0.32451021160E+03  0.25261671382E+03  0.52789224860E+03  0.10100000352E+00 0. -1.
</event>
<event>
 5   0  0.4453011E-03  0.1288752E+04  0.7818609E-02  0.9038533E-01
        2   -1    0    0  501    0  0.00000000000E+00  0.00000000000E+00  0.15928268178E+04  0.15928268178E+04  0.25500000920E-02 0. -1.
       -2   -1    0    0    0  501  0.00000000000E+00  0.00000000000E+00 -0.26068126724E+03  0.26068126725E+03  0.25500000920E-02 0.  1.
    10030    2    1    2    0    0  0.00000000000E+00  0.00000000000E+00  0.13321455506E+04  0.18535080851E+04  0.12887515096E+04 0.  0.
        1    1    3    3  502    0 -0.57677292484E+03 -0.16880546733E+03  0.10004637634E+04  0.11670861299E+04  0.50400001928E-02 0.  1.
       -1    1    3    3    0  502  0.57677292484E+03  0.16880546733E+03  0.33168178718E+03  0.68642195522E+03  0.50400001928E-02 0. -1.
</event>
<event>
 5   0  0.2511542E-03  0.1346943E+04  0.7818609E-02  0.8993145E-01
       -1   -1    0    0    0  501  0.00000000000E+00  0.00000000000E+00  0.61007344390E+03  0.61007344392E+03  0.50400001928E-02 0.  1.
        1   -1    0    0  501    0  0.00000000000E+00  0.00000000000E+00 -0.74345772095E+03  0.74345772097E+03  0.50400001928E-02 0. -1.
    10030    2    1    2    0    0  0.00000000000E+00  0.00000000000E+00 -0.13338427705E+03  0.13535311649E+04  0.13469429271E+04 0.  0.
        4    1    3    3  502    0  0.61589859847E+03 -0.65515221123E+02  0.19906098398E+03  0.65057683331E+03  0.12699999809E+01 0.  1.
       -4    1    3    3    0  502 -0.61589859847E+03  0.65515221123E+02 -0.33244526103E+03  0.70295433157E+03  0.12699999809E+01 0. -1.
</event>
<event>
 5   0  0.2511542E-03  0.1289934E+04  0.7818609E-02  0.9037586E-01
        1   -1    0    0  501    0  0.00000000000E+00  0.00000000000E+00  0.42581271451E+03  0.42581271454E+03  0.50400001928E-02 0. -1.
       -1   -1    0    0    0  501  0.00000000000E+00  0.00000000000E+00 -0.97691396763E+03  0.97691396764E+03  0.50400001928E-02 0.  1.
    10030    2    1    2    0    0  0.00000000000E+00  0.00000000000E+00 -0.55110125312E+03  0.14027266822E+04  0.12899339339E+04 0.  0.
        4    1    3    3  502    0 -0.50976471799E+03 -0.36566050491E+03 -0.11274980826E+03  0.63740238839E+03  0.12699999809E+01 0. -1.
       -4    1    3    3    0  502  0.50976471799E+03  0.36566050491E+03 -0.43835144486E+03  0.76532429379E+03  0.12699999809E+01 0.  1.
</event>
<event>
 5   0  0.2458456E-03  0.1589966E+04  0.7818609E-02  0.8826736E-01
       -1   -1    0    0    0  501  0.00000000000E+00  0.00000000000E+00  0.32571563415E+03  0.32571563419E+03  0.50400001928E-02 0.  1.
        1   -1    0    0  501    0  0.00000000000E+00  0.00000000000E+00 -0.19403374669E+04  0.19403374669E+04  0.50400001928E-02 0. -1.
    10030    2    1    2    0    0  0.00000000000E+00  0.00000000000E+00 -0.16146218327E+04  0.22660531011E+04  0.15899663500E+04 0.  0.
        5    1    3    3  502    0  0.38698540602E+03  0.65188140319E+03 -0.46624188195E+03  0.89000598357E+03  0.46999998093E+01 0.  1.
       -5    1    3    3    0  502 -0.38698540602E+03 -0.65188140319E+03 -0.11483799508E+04  0.13760471175E+04  0.46999998093E+01 0. -1.
</event>
<event>
 5   0  0.4263540E-03  0.1273176E+04  0.7818609E-02  0.9051111E-01
       -2   -1    0    0    0  501  0.00000000000E+00  0.00000000000E+00  0.72557280889E+03  0.72557280890E+03  0.25500000920E-02 0.  1.
        2   -1    0    0  501    0  0.00000000000E+00  0.00000000000E+00 -0.55851663305E+03  0.55851663306E+03  0.25500000920E-02 0. -1.
    10030    2    1    2    0    0  0.00000000000E+00  0.00000000000E+00  0.16705617584E+03  0.12840894420E+04  0.12731763150E+04 0.  0.
        2    1    3    3  502    0 -0.37151111556E+03 -0.30934981221E+03  0.50123585289E+03  0.69638724538E+03  0.25500000920E-02 0.  1.
       -2    1    3    3    0  502  0.37151111556E+03  0.30934981221E+03 -0.33417967705E+03  0.58770219657E+03  0.25500000920E-02 0. -1.
</event>
<event>
 5   0  0.4310889E-03  0.1266006E+04  0.7818609E-02  0.9056965E-01
        2   -1    0    0  501    0  0.00000000000E+00  0.00000000000E+00  0.10944909397E+04  0.10944909397E+04  0.25500000920E-02 0.  1.
       -2   -1    0    0    0  501  0.00000000000E+00  0.00000000000E+00 -0.36609995524E+03  0.36609995525E+03  0.25500000920E-02 0. -1.
    10030    2    1    2    0    0  0.00000000000E+00  0.00000000000E+00  0.72839098448E+03  0.14605908950E+04  0.12660064519E+04 0.  0.
        4    1    3    3  502    0  0.51621029412E+02 -0.92906257142E+02  0.10841216426E+04  0.10893198117E+04  0.12699999809E+01 0.  1.
       -4    1    3    3    0  502 -0.51621029412E+02  0.92906257142E+02 -0.35573065809E+03  0.37127108331E+03  0.12699999809E+01 0. -1.
</event>
<event>
 5   0  0.4388937E-03  0.1308058E+04  0.7818609E-02  0.9023199E-01
       -2   -1    0    0    0  501  0.00000000000E+00  0.00000000000E+00  0.88684557474E+03  0.88684557475E+03  0.25500000920E-02 0.  1.
        2   -1    0    0  501    0  0.00000000000E+00  0.00000000000E+00 -0.48233182904E+03  0.48233182904E+03  0.25500000920E-02 0. -1.
    10030    2    1    2    0    0  0.00000000000E+00  0.00000000000E+00  0.40451374571E+03  0.13691774038E+04  0.13080578705E+04 0.  0.
        5    1    3    3  502    0  0.57850796227E+03  0.30137370505E+03  0.25173262361E+03  0.69920596128E+03  0.46999998093E+01 0.  1.
       -5    1    3    3    0  502 -0.57850796227E+03 -0.30137370505E+03  0.15278112210E+03  0.66997144251E+03  0.46999998093E+01 0. -1.
</event>
<event>
 5   0  0.4306214E-03  0.1282916E+04  0.7818609E-02  0.9043223E-01
       -2   -1    0    0    0  501  0.00000000000E+00  0.00000000000E+00  0.46521456461E+03  0.46521456462E+03  0.25500000920E-02 0. -1.
        2   -1    0    0  501    0  0.00000000000E+00  0.00000000000E+00 -0.88447045136E+03  0.88447045136E+03  0.25500000920E-02 0.  1.
    10030    2    1    2    0    0  0.00000000000E+00  0.00000000000E+00 -0.41925588675E+03  0.13496850160E+04  0.12829162653E+04 0.  0.
        3    1    3    3  502    0 -0.13547838730E+02  0.62471427779E+03 -0.36214556500E+03  0.72221942182E+03  0.10100000352E+00 0.  1.
       -3    1    3    3    0  502  0.13547838730E+02 -0.62471427779E+03 -0.57110321750E+02  0.62746559416E+03  0.10100000352E+00 0. -1.
</event>
<event>
 5   0  0.4388937E-03  0.1300607E+04  0.7818609E-02  0.9029084E-01
        2   -1    0    0  501    0  0.00000000000E+00  0.00000000000E+00  0.48509574739E+03  0.48509574739E+03  0.25500000920E-02 0.  1.
       -2   -1    0    0    0  501  0.00000000000E+00  0.00000000000E+00 -0.87177516814E+03  0.87177516814E+03  0.25500000920E-02 0. -1.
    10030    2    1    2    0    0  0.00000000000E+00  0.00000000000E+00 -0.38667942075E+03  0.13568709155E+04  0.13006066688E+04 0.  0.
        5    1    3    3  502    0 -0.22146097293E+03  0.32491757603E+03 -0.73367985299E+03  0.83242093344E+03  0.46999998093E+01 0. -1.
       -5    1    3    3    0  502  0.22146097293E+03 -0.32491757603E+03  0.34700043224E+03  0.52444998209E+03  0.46999998093E+01 0.  1.
</event>
<event>
 5   0  0.4263540E-03  0.1303819E+04  0.7818609E-02  0.9026542E-01
       -2   -1    0    0    0  501  0.00000000000E+00  0.00000000000E+00  0.47454380397E+03  0.47454380397E+03  0.25500000920E-02 0. -1.
        2   -1    0    0  501    0  0.00000000000E+00  0.00000000000E+00 -0.89556717466E+03  0.89556717466E+03  0.25500000920E-02 0.  1.
    10030    2    1    2    0    0  0.00000000000E+00  0.00000000000E+00 -0.42102337069E+03  0.13701109786E+04  0.13038187815E+04 0.  0.
        2    1    3    3  502    0 -0.28328349861E+03  0.57879164466E+03 -0.10682071064E+03  0.65319214075E+03  0.25500000920E-02 0.  1.
       -2    1    3    3    0  502  0.28328349861E+03 -0.57879164466E+03 -0.31420266005E+03  0.71691883788E+03  0.25500000920E-02 0. -1.
</event>
<event>
 5   0  0.2356769E-03  0.1310601E+04  0.7818609E-02  0.9021200E-01
        1   -1    0    0  501    0  0.00000000000E+00  0.00000000000E+00  0.46976303302E+03  0.46976303305E+03  0.50400001928E-02 0.  1.
       -1   -1    0    0    0  501  0.00000000000E+00  0.00000000000E+00 -0.91411806369E+03  0.91411806370E+03  0.50400001928E-02 0. -1.
    10030    2    1    2    0    0  0.00000000000E+00  0.00000000000E+00 -0.44435503066E+03  0.13838810967E+04  0.13106011967E+04 0.  0.
        1    1    3    3  502    0 -0.62097843002E+03  0.13516332775E+03 -0.39091078674E+03  0.74611968137E+03  0.50400001928E-02 0. -1.
       -1    1    3    3    0  502  0.62097843002E+03 -0.13516332775E+03 -0.53444243929E+02  0.63776141538E+03  0.50400001928E-02 0.  1.
</event>
<event>
 5   0  0.2511542E-03  0.1231326E+04  0.7818609E-02  0.9085870E-01
        1   -1    0    0  501    0  0.00000000000E+00  0.00000000000E+00  0.97754076348E+03  0.97754076350E+03  0.50400001928E-02 0.  1.
       -1   -1    0    0    0  501  0.00000000000E+00  0.00000000000E+00 -0.38774947022E+03  0.38774947025E+03  0.50400001928E-02 0. -1.
    10030    2    1    2    0    0  0.00000000000E+00  0.00000000000E+00  0.58979129327E+03  0.13652902337E+04  0.12313259734E+04 0.  0.
        4    1    3    3  502    0 -0.10676454566E+03 -0.43968926419E+03 -0.16803726380E+03  0.48266287632E+03  0.12699999809E+01 0. -1.
       -4    1    3    3    0  502  0.10676454566E+03  0.43968926419E+03  0.75782855707E+03  0.88262735742E+03  0.12699999809E+01 0.  1.
</event>
<event>
 5   0  0.4310889E-03  0.1296880E+04  0.7818609E-02  0.9032043E-01
        2   -1    0    0  501    0  0.00000000000E+00  0.00000000000E+00  0.12930073891E+04  0.12930073891E+04  0.25500000920E-02 0.  1.
       -2   -1    0    0    0  501  0.00000000000E+00  0.00000000000E+00 -0.32519123073E+03  0.32519123074E+03  0.25500000920E-02 0. -1.
    10030    2    1    2    0    0  0.00000000000E+00  0.00000000000E+00  0.96781615834E+03  0.16181986198E+04  0.12968803556E+04 0.  0.
        4    1    3    3  502    0 -0.18812493150E+03 -0.43450194768E+03 -0.68908594709E+02  0.47846937176E+03  0.12699999809E+01 0. -1.
       -4    1    3    3    0  502  0.18812493150E+03  0.43450194768E+03  0.10367247531E+04  0.11397292481E+04  0.12699999809E+01 0.  1.
</event>
<event>
 5   0  0.4310889E-03  0.1279279E+04  0.7818609E-02  0.9046161E-01
       -2   -1    0    0    0  501  0.00000000000E+00  0.00000000000E+00  0.58865933981E+03  0.58865933982E+03  0.25500000920E-02 0.  1.
        2   -1    0    0  501    0  0.00000000000E+00  0.00000000000E+00 -0.69503461168E+03  0.69503461169E+03  0.25500000920E-02 0. -1.
    10030    2    1    2    0    0  0.00000000000E+00  0.00000000000E+00 -0.10637527187E+03  0.12836939515E+04  0.12792788839E+04 0.  0.
        4    1    3    3  502    0 -0.19238395497E+03  0.48873554530E+03  0.31312426579E+03  0.61149197713E+03  0.12699999809E+01 0.  1.
       -4    1    3    3    0  502  0.19238395497E+03 -0.48873554530E+03 -0.41949953766E+03  0.67220197438E+03  0.12699999809E+01 0. -1.
</event>
<event>
 5   0  0.2462055E-03  0.1304924E+04  0.7818609E-02  0.9025670E-01
        1   -1    0    0  501    0  0.00000000000E+00  0.00000000000E+00  0.85412334053E+03  0.85412334055E+03  0.50400001928E-02 0. -1.
       -1   -1    0    0    0  501  0.00000000000E+00  0.00000000000E+00 -0.49841353141E+03  0.49841353143E+03  0.50400001928E-02 0.  1.
    10030    2    1    2    0    0  0.00000000000E+00  0.00000000000E+00  0.35570980913E+03  0.13525368720E+04  0.13049239525E+04 0.  0.
        2    1    3    3  502    0 -0.42008573761E+03 -0.15040923620E+03  0.67126160346E+03  0.80603170258E+03  0.25500000920E-02 0. -1.
       -2    1    3    3    0  502  0.42008573761E+03  0.15040923620E+03 -0.31555179433E+03  0.54650516940E+03  0.25500000920E-02 0.  1.
</event>
<event>
 5   0  0.2462055E-03  0.1328025E+04  0.7818609E-02  0.9007632E-01
       -1   -1    0    0    0  501  0.00000000000E+00  0.00000000000E+00  0.10882306446E+04  0.10882306446E+04  0.50400001928E-02 0. -1.
        1   -1    0    0  501    0  0.00000000000E+00  0.00000000000E+00 -0.40516449406E+03  0.40516449409E+03  0.50400001928E-02 0.  1.
    10030    2    1    2    0    0  0.00000000000E+00  0.00000000000E+00  0.68306615053E+03  0.14933951387E+04  0.13280247265E+04 0.  0.
        2    1    3    3  502    0 -0.23606622421E+03  0.59534557389E+03  0.14434407457E+03  0.65650500868E+03  0.25500000920E-02 0.  1.
       -2    1    3    3    0  502  0.23606622421E+03 -0.59534557389E+03  0.53872207596E+03  0.83689013000E+03  0.25500000920E-02 0. -1.
</event>
<event>
 5   0  0.4263540E-03  0.1273624E+04  0.7818609E-02  0.9050747E-01
       -2   -1    0    0    0  501  0.00000000000E+00  0.00000000000E+00  0.62306185048E+03  0.62306185048E+03  0.25500000920E-02 0. -1.
        2   -1    0    0  501    0  0.00000000000E+00  0.00000000000E+00 -0.65086527132E+03  0.65086527132E+03  0.25500000920E-02 0.  1.
    10030    2    1    2    0    0  0.00000000000E+00  0.00000000000E+00 -0.27803420836E+02  0.12739271218E+04  0.12736236813E+04 0.  0.
        2    1    3    3  502    0 -0.70274101722E+02  0.10149828534E+02  0.61909015918E+03  0.62314853253E+03  0.25500000920E-02 0. -1.
       -2    1    3    3    0  502  0.70274101722E+02 -0.10149828534E+02 -0.64689358001E+03  0.65077858928E+03  0.25500000920E-02 0.  1.
</event>
<event>
 5   0  0.4306214E-03  0.1280485E+04  0.7818609E-02  0.9045185E-01
       -2   -1    0    0    0  501  0.00000000000E+00  0.00000000000E+00  0.22422584340E+03  0.22422584341E+03  0.25500000920E-02 0.  1.
        2   -1    0    0  501    0  0.00000000000E+00  0.00000000000E+00 -0.18281152522E+04  0.18281152522E+04  0.25500000920E-02 0. -1.
    10030    2    1    2    0    0  0.00000000000E+00  0.00000000000E+00 -0.16038894088E+04  0.20523410956E+04  0.12804853521E+04 0.  0.
        3    1    3    3  502    0  0.56754522702E+03 -0.12787403587E+03 -0.12303748838E+04  0.13609855689E+04  0.10100000352E+00 0.  1.
       -3    1    3    3    0  502 -0.56754522702E+03  0.12787403587E+03 -0.37351452497E+03  0.69135552672E+03  0.10100000352E+00 0. -1.
</event>
<event>
 5   0  0.1661750E-03  0.1305655E+04  0.7818609E-02  0.9025093E-01
       -3   -1    0    0    0  501  0.00000000000E+00  0.00000000000E+00  0.10694674689E+04  0.10694674737E+04  0.10100000352E+00 0.  1.
        3   -1    0    0  501    0  0.00000000000E+00  0.00000000000E+00 -0.39850067223E+03  0.39850068503E+03  0.10100000352E+00 0. -1.
    10030    2    1    2    0    0  0.00000000000E+00  0.00000000000E+00  0.67096679669E+03  0.14679681587E+04  0.13056546529E+04 0.  0.
        5    1    3    3  502    0 -0.58004154287E+03 -0.14613767759E+03  0.62943772885E+03  0.86834230391E+03  0.46999998093E+01 0.  1.
       -5    1    3    3    0  502  0.58004154287E+03  0.14613767759E+03  0.41529067840E+02  0.59962585480E+03  0.46999998093E+01 0. -1.
</event>
<event>
 5   0  0.4263540E-03  0.1333110E+04  0.7818609E-02  0.9003713E-01
        2   -1    0    0  501    0  0.00000000000E+00  0.00000000000E+00  0.60232444678E+03  0.60232444678E+03  0.25500000920E-02 0. -1.
       -2   -1    0    0    0  501  0.00000000000E+00  0.00000000000E+00 -0.73763514168E+03  0.73763514168E+03  0.25500000920E-02 0.  1.
    10030    2    1    2    0    0  0.00000000000E+00  0.00000000000E+00 -0.13531069490E+03  0.13399595885E+04  0.13331101660E+04 0.  0.
        2    1    3    3  502    0  0.47654778793E+03 -0.72214425033E+02 -0.53043700563E+03  0.71671203026E+03  0.25500000920E-02 0.  1.
       -2    1    3    3    0  502 -0.47654778793E+03  0.72214425033E+02  0.39512631073E+03  0.62324755820E+03  0.25500000920E-02 0. -1.
</event>
<event>
 5   0  0.4453011E-03  0.1313747E+04  0.7818609E-02  0.9018734E-01
       -2   -1    0    0    0  501  0.00000000000E+00  0.00000000000E+00  0.37227793591E+03  0.37227793592E+03  0.25500000920E-02 0. -1.
        2   -1    0    0  501    0  0.00000000000E+00  0.00000000000E+00 -0.11590339729E+04  0.11590339729E+04  0.25500000920E-02 0.  1.
    10030    2    1    2    0    0  0.00000000000E+00  0.00000000000E+00 -0.78675603703E+03  0.15313119089E+04  0.13137469697E+04 0.  0.
        1    1    3    3  502    0  0.45424644151E+03  0.30915617536E+03  0.26184284512E+02  0.55009361673E+03  0.50400001928E-02 0. -1.
       -1    1    3    3    0  502 -0.45424644151E+03 -0.30915617536E+03 -0.81294032155E+03  0.98121829213E+03  0.50400001928E-02 0.  1.
</event>
<event>
 5   0  0.2370801E-03  0.1303259E+04  0.7818609E-02  0.9026985E-01
       -1   -1    0    0    0  501  0.00000000000E+00  0.00000000000E+00  0.44167169198E+03  0.44167169200E+03  0.50400001928E-02 0. -1.
        1   -1    0    0  501    0  0.00000000000E+00  0.00000000000E+00 -0.96139526035E+03  0.96139526036E+03  0.50400001928E-02 0.  1.
    10030    2    1    2    0    0  0.00000000000E+00  0.00000000000E+00 -0.51972356837E+03  0.14030669524E+04  0.13032591014E+04 0.  0.
        3    1    3    3  502    0  0.58893360648E+03 -0.11290194907E+03 -0.53440406759E+03  0.80322933251E+03  0.10100000352E+00 0.  1.
       -3    1    3    3    0  502 -0.58893360648E+03  0.11290194907E+03  0.14680499216E+02  0.59983761986E+03  0.10100000352E+00 0. -1.
</event>
<event>
 5   0  0.4388937E-03  0.1267555E+04  0.7818609E-02  0.9055698E-01
       -2   -1    0    0    0  501  0.00000000000E+00  0.00000000000E+00  0.34408649240E+03  0.34408649241E+03  0.25500000920E-02 0. -1.
        2   -1    0    0  501    0  0.00000000000E+00  0.00000000000E+00 -0.11673627965E+04  0.11673627965E+04  0.25500000920E-02 0.  1.
    10030    2    1    2    0    0  0.00000000000E+00  0.00000000000E+00 -0.82327630411E+03  0.15114492889E+04  0.12675547641E+04 0.  0.
        5    1    3    3  502    0  0.26874133885E+03  0.51734686535E+02 -0.10932495382E+04  0.11269938011E+04  0.46999998093E+01 0.  1.
       -5    1    3    3    0  502 -0.26874133885E+03 -0.51734686535E+02  0.26997323407E+03  0.38445548782E+03  0.46999998093E+01 0. -1.
</event>
<event>
 5   0  0.4310889E-03  0.1282139E+04  0.7818609E-02  0.9043851E-01
       -2   -1    0    0    0  501  0.00000000000E+00  0.00000000000E+00  0.30989790815E+03  0.30989790816E+03  0.25500000920E-02 0.  1.
        2   -1    0    0  501    0  0.00000000000E+00  0.00000000000E+00 -0.13261458534E+04  0.13261458534E+04  0.25500000920E-02 0. -1.
    10030    2    1    2    0    0  0.00000000000E+00  0.00000000000E+00 -0.10162479453E+04  0.16360437616E+04  0.12821385664E+04 0.  0.
        4    1    3    3  502    0  0.10070085098E+03 -0.29693644992E+03 -0.12216232569E+04  0.12612204056E+04  0.12699999809E+01 0. -1.
       -4    1    3    3    0  502 -0.10070085098E+03  0.29693644992E+03  0.20537531165E+03  0.37482335602E+03  0.12699999809E+01 0.  1.
</event>
<event>
 5   0  0.4263540E-03  0.1008139E+04  0.7818609E-02  0.9299663E-01
        2   -1    0    0  501    0  0.00000000000E+00  0.00000000000E+00  0.15279280353E+04  0.15279280353E+04  0.25500000920E-02 0. -1.
       -2   -1    0    0    0  501  0.00000000000E+00  0.00000000000E+00 -0.16629453897E+03  0.16629453899E+03  0.25500000920E-02 0.  1.
    10030    2    1    2    0    0  0.00000000000E+00  0.00000000000E+00  0.13616334964E+04  0.16942225743E+04  0.10081390544E+04 0.  0.
        2    1    3    3  502    0  0.20241533437E+03  0.35379233520E+03  0.11791913008E+04  0.12476510361E+04  0.25500000920E-02 0. -1.
       -2    1    3    3    0  502 -0.20241533437E+03 -0.35379233520E+03  0.18244219560E+03  0.44657153825E+03  0.25500000920E-02 0.  1.
</event>
<event>
 5   0  0.2370801E-03  0.1348060E+04  0.7818609E-02  0.8992298E-01
        1   -1    0    0  501    0  0.00000000000E+00  0.00000000000E+00  0.10990628161E+04  0.10990628161E+04  0.50400001928E-02 0. -1.
       -1   -1    0    0    0  501  0.00000000000E+00  0.00000000000E+00 -0.41336738203E+03  0.41336738206E+03  0.50400001928E-02 0.  1.
    10030    2    1    2    0    0  0.00000000000E+00  0.00000000000E+00  0.68569543408E+03  0.15124301982E+04  0.13480604126E+04 0.  0.
        3    1    3    3  502    0  0.78296702607E+02  0.64049770553E+03  0.12428992604E+03  0.65712683734E+03  0.10100000352E+00 0.  1.
       -3    1    3    3    0  502 -0.78296702607E+02 -0.64049770553E+03  0.56140550803E+03  0.85530336085E+03  0.10100000352E+00 0. -1.
</event>
<event>
 5   0  0.2458456E-03  0.1299251E+04  0.7818609E-02  0.9030159E-01
       -1   -1    0    0    0  501  0.00000000000E+00  0.00000000000E+00  0.30051200078E+03  0.30051200082E+03  0.50400001928E-02 0. -1.
        1   -1    0    0  501    0  0.00000000000E+00  0.00000000000E+00 -0.14043141736E+04  0.14043141736E+04  0.50400001928E-02 0.  1.
    10030    2    1    2    0    0  0.00000000000E+00  0.00000000000E+00 -0.11038021728E+04  0.17048261744E+04  0.12992509566E+04 0.  0.
        5    1    3    3  502    0  0.37004961619E+02 -0.47462267332E+03 -0.11318629830E+04  0.12279136580E+04  0.46999998093E+01 0. -1.
       -5    1    3    3    0  502 -0.37004961619E+02  0.47462267332E+03  0.28060810216E+02  0.47691251639E+03  0.46999998093E+01 0.  1.
</event>
<event>
 5   0  0.4453011E-03  0.1293330E+04  0.7818609E-02  0.9034871E-01
       -2   -1    0    0    0  501  0.00000000000E+00  0.00000000000E+00  0.53796173457E+03  0.53796173457E+03  0.25500000920E-02 0. -1.
        2   -1    0    0  501    0  0.00000000000E+00  0.00000000000E+00 -0.77733382227E+03  0.77733382227E+03  0.25500000920E-02 0.  1.
    10030    2    1    2    0    0  0.00000000000E+00  0.00000000000E+00 -0.23937208770E+03  0.13152955568E+04  0.12933303544E+04 0.  0.
        1    1    3    3  502    0 -0.44415387958E+03  0.23664936468E+02  0.35769334342E+03  0.57076897771E+03  0.50400001928E-02 0. -1.
       -1    1    3    3    0  502  0.44415387958E+03 -0.23664936468E+02 -0.59706543112E+03  0.74452657913E+03  0.50400001928E-02 0.  1.
</event>
<event>
 5   0  0.4388937E-03  0.1288363E+04  0.7818609E-02  0.9038845E-01
        2   -1    0    0  501    0  0.00000000000E+00  0.00000000000E+00  0.41644953318E+03  0.41644953319E+03  0.25500000920E-02 0.  1.
       -2   -1    0    0    0  501  0.00000000000E+00  0.00000000000E+00 -0.99644687326E+03  0.99644687326E+03  0.25500000920E-02 0. -1.
    10030    2    1    2    0    0  0.00000000000E+00  0.00000000000E+00 -0.57999734008E+03  0.14128964065E+04  0.12883630470E+04 0.  0.
        5    1    3    3  502    0  0.61059685180E+02 -0.15986054959E+03 -0.97104498572E+03  0.98601933793E+03  0.46999998093E+01 0. -1.
       -5    1    3    3    0  502 -0.61059685180E+02  0.15986054959E+03  0.39104764565E+03  0.42687706853E+03  0.46999998093E+01 0.  1.
</event>
<event>
 5   0  0.4388937E-03  0.1299217E+04  0.7818609E-02  0.9030186E-01
        2   -1    0    0  501    0  0.00000000000E+00  0.00000000000E+00  0.10041428554E+04  0.10041428554E+04  0.25500000920E-02 0.  1.
       -2   -1    0    0    0  501  0.00000000000E+00  0.00000000000E+00 -0.42025021372E+03  0.42025021373E+03  0.25500000920E-02 0. -1.
    10030    2    1    2    0    0  0.00000000000E+00  0.00000000000E+00  0.58389264170E+03  0.14243930692E+04  0.12992170713E+04 0.  0.
        5    1    3    3  502    0  0.29889948440E+03  0.19533776972E+03  0.88688157389E+03  0.95607466349E+03  0.46999998093E+01 0.  1.
       -5    1    3    3    0  502 -0.29889948440E+03 -0.19533776972E+03 -0.30298893219E+03  0.46831840566E+03  0.46999998093E+01 0. -1.
</event>
<event>
 5   0  0.2511542E-03  0.1203325E+04  0.7818609E-02  0.9109951E-01
        1   -1    0    0  501    0  0.00000000000E+00  0.00000000000E+00  0.83051553540E+03  0.83051553542E+03  0.50400001928E-02 0. -1.
       -1   -1    0    0    0  501  0.00000000000E+00  0.00000000000E+00 -0.43587127567E+03  0.43587127570E+03  0.50400001928E-02 0.  1.
    10030    2    1    2    0    0  0.00000000000E+00  0.00000000000E+00  0.39464425973E+03  0.12663868111E+04  0.12033251695E+04 0.  0.
        4    1    3    3  502    0 -0.31102826461E+03  0.45424866190E+03 -0.58124018663E+02  0.55358869450E+03  0.12699999809E+01 0. -1.
       -4    1    3    3    0  502  0.31102826461E+03 -0.45424866190E+03  0.45276827840E+03  0.71279811662E+03  0.12699999809E+01 0.  1.
</event>
<event>
 5   0  0.2511542E-03  0.1341007E+04  0.7818609E-02  0.8997664E-01
        1   -1    0    0  501    0  0.00000000000E+00  0.00000000000E+00  0.94962598294E+03  0.94962598296E+03  0.50400001928E-02 0. -1.
       -1   -1    0    0    0  501  0.00000000000E+00  0.00000000000E+00 -0.47342314186E+03  0.47342314188E+03  0.50400001928E-02 0.  1.
    10030    2    1    2    0    0  0.00000000000E+00  0.00000000000E+00  0.47620284109E+03  0.14230491248E+04  0.13410069597E+04 0.  0.
        4    1    3    3  502    0  0.31141427522E+02  0.45122990526E+03  0.76335322010E+03  0.88729249261E+03  0.12699999809E+01 0. -1.
       -4    1    3    3    0  502 -0.31141427522E+02 -0.45122990526E+03 -0.28715037901E+03  0.53575663223E+03  0.12699999809E+01 0.  1.
</event>
<event>
 5   0  0.2462055E-03  0.1257937E+04  0.7818609E-02  0.9063603E-01
        1   -1    0    0  501    0  0.00000000000E+00  0.00000000000E+00  0.11807166017E+04  0.11807166017E+04  0.50400001928E-02 0.  1.
       -1   -1    0    0    0  501  0.00000000000E+00  0.00000000000E+00 -0.33505218924E+03  0.33505218928E+03  0.50400001928E-02 0. -1.
    10030    2    1    2    0    0  0.00000000000E+00  0.00000000000E+00  0.84566441241E+03  0.15157687909E+04  0.12579374902E+04 0.  0.
        2    1    3    3  502    0 -0.26966227819E+03 -0.49258289568E+03  0.81493392146E+02  0.56744764196E+03  0.25500000920E-02 0. -1.
       -2    1    3    3    0  502  0.26966227819E+03  0.49258289568E+03  0.76417102027E+03  0.94832114899E+03  0.25500000920E-02 0.  1.
</event>
<event>
 5   0  0.4453011E-03  0.1332515E+04  0.7818609E-02  0.9004170E-01
        2   -1    0    0  501    0  0.00000000000E+00  0.00000000000E+00  0.48768169184E+03  0.48768169185E+03  0.25500000920E-02 0. -1.
       -2   -1    0    0    0  501  0.00000000000E+00  0.00000000000E+00 -0.91022316030E+03  0.91022316031E+03  0.25500000920E-02 0.  1.
    10030    2    1    2    0    0  0.00000000000E+00  0.00000000000E+00 -0.42254146846E+03  0.13979048522E+04  0.13325151718E+04 0.  0.
        1    1    3    3  502    0  0.79884050823E+02 -0.48557021590E+03  0.25992426998E+03  0.55652540130E+03  0.50400001928E-02 0. -1.
       -1    1    3    3    0  502 -0.79884050823E+02  0.48557021590E+03 -0.68246573844E+03  0.84137945085E+03  0.50400001928E-02 0.  1.
</event>
<event>
 5   0  0.4388937E-03  0.1343286E+04  0.7818609E-02  0.8995926E-01
        2   -1    0    0  501    0  0.00000000000E+00  0.00000000000E+00  0.44299358428E+03  0.44299358429E+03  0.25500000920E-02 0.  1.
       -2   -1    0    0    0  501  0.00000000000E+00  0.00000000000E+00 -0.10183088896E+04  0.10183088896E+04  0.25500000920E-02 0. -1.
    10030    2    1    2    0    0  0.00000000000E+00  0.00000000000E+00 -0.57531530535E+03  0.14613024739E+04  0.13432859784E+04 0.  0.
        5    1    3    3  502    0 -0.29420479942E+03 -0.19271759966E+03 -0.91010335996E+03  0.97570833400E+03  0.46999998093E+01 0. -1.
       -5    1    3    3    0  502  0.29420479942E+03  0.19271759966E+03  0.33478805461E+03  0.48559413993E+03  0.46999998093E+01 0.  1.
</event>
<event>
 5   0  0.4306214E-03  0.6994350E+03  0.7818609E-02  0.9718199E-01
       -2   -1    0    0    0  501  0.00000000000E+00  0.00000000000E+00  0.17409185819E+03  0.17409185820E+03  0.25500000920E-02 0. -1.
        2   -1    0    0  501    0  0.00000000000E+00  0.00000000000E+00 -0.70251614873E+03  0.70251614874E+03  0.25500000920E-02 0.  1.
    10030    2    1    2    0    0  0.00000000000E+00  0.00000000000E+00 -0.52842429055E+03  0.87660800694E+03  0.69943503415E+03 0.  0.
        3    1    3    3  502    0 -0.78000515688E+02 -0.18941396882E+03  0.91030900786E+02  0.22416147557E+03  0.10100000352E+00 0. -1.
       -3    1    3    3    0  502  0.78000515688E+02  0.18941396882E+03 -0.61945519133E+03  0.65244653137E+03  0.10100000352E+00 0.  1.
</event>
<event>
 5   0  0.2511542E-03  0.1303925E+04  0.7818609E-02  0.9026458E-01
        1   -1    0    0  501    0  0.00000000000E+00  0.00000000000E+00  0.15713840713E+04  0.15713840714E+04  0.50400001928E-02 0.  1.
       -1   -1    0    0    0  501  0.00000000000E+00  0.00000000000E+00 -0.27049740405E+03  0.27049740410E+03  0.50400001928E-02 0. -1.
    10030    2    1    2    0    0  0.00000000000E+00  0.00000000000E+00  0.13008866673E+04  0.18418814755E+04  0.13039253232E+04 0.  0.
        4    1    3    3  502    0  0.37125634810E+03 -0.41997924130E+03  0.18016286234E+03  0.58879037780E+03  0.12699999809E+01 0. -1.
       -4    1    3    3    0  502 -0.37125634810E+03  0.41997924130E+03  0.11207238049E+04  0.12530910976E+04  0.12699999809E+01 0.  1.
</event>
<event>
 5   0  0.4453011E-03  0.1314545E+04  0.7818609E-02  0.9018109E-01
        2   -1    0    0  501    0  0.00000000000E+00  0.00000000000E+00  0.82263964092E+03  0.82263964092E+03  0.25500000920E-02 0.  1.
       -2   -1    0    0    0  501  0.00000000000E+00  0.00000000000E+00 -0.52514779810E+03  0.52514779810E+03  0.25500000920E-02 0. -1.
    10030    2    1    2    0    0  0.00000000000E+00  0.00000000000E+00  0.29749184282E+03  0.13477874390E+04  0.13145453907E+04 0.  0.
        1    1    3    3  502    0  0.20909970201E+03  0.27718603043E+03 -0.42344611455E+03  0.54759601240E+03  0.50400001928E-02 0. -1.
       -1    1    3    3    0  502 -0.20909970201E+03 -0.27718603043E+03  0.72093795737E+03  0.80019142663E+03  0.50400001928E-02 0.  1.
</event>
<event>
 5   0  0.2511542E-03  0.1300095E+04  0.7818609E-02  0.9029490E-01
       -1   -1    0    0    0  501  0.00000000000E+00  0.00000000000E+00  0.59466858446E+03  0.59466858448E+03  0.50400001928E-02 0.  1.
        1   -1    0    0  501    0  0.00000000000E+00  0.00000000000E+00 -0.71058362385E+03  0.71058362386E+03  0.50400001928E-02 0. -1.
    10030    2    1    2    0    0  0.00000000000E+00  0.00000000000E+00 -0.11591503939E+03  0.13052522083E+04  0.13000950085E+04 0.  0.
        4    1    3    3  502    0  0.15359289276E+03 -0.83379933988E+02 -0.68655390876E+03  0.70844962604E+03  0.12699999809E+01 0. -1.
       -4    1    3    3    0  502 -0.15359289276E+03  0.83379933988E+02  0.57063886938E+03  0.59680258230E+03  0.12699999809E+01 0.  1.
</event>
<event>
 5   0  0.4306214E-03  0.1318038E+04  0.7818609E-02  0.9015382E-01
       -2   -1    0    0    0  501  0.00000000000E+00  0.00000000000E+00  0.40722357738E+03  0.40722357738E+03  0.25500000920E-02 0. -1.
        2   -1    0    0  501    0  0.00000000000E+00  0.00000000000E+00 -0.10665051980E+04  0.10665051980E+04  0.25500000920E-02 0.  1.
    10030    2    1    2    0    0  0.00000000000E+00  0.00000000000E+00 -0.65928162063E+03  0.14737287754E+04  0.13180380298E+04 0.  0.
        3    1    3    3  502    0 -0.78537110025E+02  0.65367658102E+03 -0.29714011228E+03  0.72232500078E+03  0.10100000352E+00 0. -1.
       -3    1    3    3    0  502  0.78537110025E+02 -0.65367658102E+03 -0.36214150835E+03  0.75140377461E+03  0.10100000352E+00 0.  1.
</event>
<event>
 5   0  0.4310889E-03  0.1006000E+04  0.7818609E-02  0.9301988E-01
       -2   -1    0    0    0  501  0.00000000000E+00  0.00000000000E+00  0.32685186187E+03  0.32685186188E+03  0.25500000920E-02 0. -1.
        2   -1    0    0  501    0  0.00000000000E+00  0.00000000000E+00 -0.77407865080E+03  0.77407865081E+03  0.25500000920E-02 0.  1.
    10030    2    1    2    0    0  0.00000000000E+00  0.00000000000E+00 -0.44722678893E+03  0.11009305127E+04  0.10060000959E+04 0.  0.
        4    1    3    3  502    0  0.73668694794E+02  0.29625064536E+03  0.21388040044E+03  0.37274382632E+03  0.12699999809E+01 0. -1.
       -4    1    3    3    0  502 -0.73668694794E+02 -0.29625064536E+03 -0.66110718937E+03  0.72818668637E+03  0.12699999809E+01 0.  1.
</event>
<event>
 5   0  0.2356769E-03  0.1315286E+04  0.7818609E-02  0.9017530E-01
        1   -1    0    0  501    0  0.00000000000E+00  0.00000000000E+00  0.45794700376E+03  0.45794700379E+03  0.50400001928E-02 0.  1.
       -1   -1    0    0    0  501  0.00000000000E+00  0.00000000000E+00 -0.94442039165E+03  0.94442039166E+03  0.50400001928E-02 0. -1.
    10030    2    1    2    0    0  0.00000000000E+00  0.00000000000E+00 -0.48647338789E+03  0.14023673955E+04  0.13152862634E+04 0.  0.
        1    1    3    3  502    0 -0.28033686695E+03 -0.43661866852E+03 -0.67405539042E+03  0.85063228839E+03  0.50400001928E-02 0. -1.
       -1    1    3    3    0  502  0.28033686695E+03  0.43661866852E+03  0.18758200253E+03  0.55173510707E+03  0.50400001928E-02 0.  1.
</event>
<event>
 5   0  0.4453011E-03  0.1366592E+04  0.7818609E-02  0.8978362E-01
       -2   -1    0    0    0  501  0.00000000000E+00  0.00000000000E+00  0.44974672276E+03  0.44974672276E+03  0.25500000920E-02 0.  1.
        2   -1    0    0  501    0  0.00000000000E+00  0.00000000000E+00 -0.10381258552E+04  0.10381258552E+04  0.25500000920E-02 0. -1.
    10030    2    1    2    0    0  0.00000000000E+00  0.00000000000E+00 -0.58837913248E+03  0.14878725780E+04  0.13665924063E+04 0.  0.
        1    1    3    3  502    0  0.69795278229E+02 -0.67035447792E+03 -0.17174942239E+03  0.69551734058E+03  0.50400001928E-02 0. -1.
       -1    1    3    3    0  502 -0.69795278229E+02  0.67035447792E+03 -0.41662971008E+03  0.79235523742E+03  0.50400001928E-02 0.  1.
</event>
<event>
 5   0  0.2458456E-03  0.1051004E+04  0.7818609E-02  0.9254308E-01
       -1   -1    0    0    0  501  0.00000000000E+00  0.00000000000E+00  0.45237924839E+03  0.45237924842E+03  0.50400001928E-02 0.  1.
        1   -1    0    0  501    0  0.00000000000E+00  0.00000000000E+00 -0.61044468789E+03  0.61044468791E+03  0.50400001928E-02 0. -1.
    10030    2    1    2    0    0  0.00000000000E+00  0.00000000000E+00 -0.15806543950E+03  0.10628239363E+04  0.10510042990E+04 0.  0.
        5    1    3    3  502    0 -0.35776649460E+03 -0.36659377338E+03  0.39514303113E+02  0.51378140243E+03  0.46999998093E+01 0.  1.
       -5    1    3    3    0  502  0.35776649460E+03  0.36659377338E+03 -0.19757974261E+03  0.54904253389E+03  0.46999998093E+01 0. -1.
</event>
<event>
 5   0  0.2458456E-03  0.1273503E+04  0.7818609E-02  0.9050846E-01
       -1   -1    0    0    0  501  0.00000000000E+00  0.00000000000E+00  0.77590195850E+03  0.77590195852E+03  0.50400001928E-02 0. -1.
        1   -1    0    0  501    0  0.00000000000E+00  0.00000000000E+00 -0.52255625131E+03  0.52255625133E+03  0.50400001928E-02 0.  1.
    10030    2    1    2    0    0  0.00000000000E+00  0.00000000000E+00  0.25334570719E+03  0.12984582098E+04  0.12735029153E+04 0.  0.
        5    1    3    3  502    0 -0.89973561919E+02  0.47570383051E+03  0.54834807976E+03  0.73150330333E+03  0.46999998093E+01 0. -1.
       -5    1    3    3    0  502  0.89973561919E+02 -0.47570383051E+03 -0.29500237257E+03  0.56695490652E+03  0.46999998093E+01 0.  1.
</event>
<event>
 5   0  0.2511542E-03  0.1294141E+04  0.7818609E-02  0.9034224E-01
        1   -1    0    0  501    0  0.00000000000E+00  0.00000000000E+00  0.16531703506E+04  0.16531703506E+04  0.50400001928E-02 0. -1.
       -1   -1    0    0    0  501  0.00000000000E+00  0.00000000000E+00 -0.25327100672E+03  0.25327100677E+03  0.50400001928E-02 0.  1.
    10030    2    1    2    0    0  0.00000000000E+00  0.00000000000E+00  0.13998993439E+04  0.19064413574E+04  0.12941408255E+04 0.  0.
        4    1    3    3  502    0 -0.55302728533E+03 -0.21473505601E+03  0.31935593377E+03  0.67375080552E+03  0.12699999809E+01 0.  1.
       -4    1    3    3    0  502  0.55302728533E+03  0.21473505601E+03  0.10805434101E+04  0.12326905519E+04  0.12699999809E+01 0. -1.
</event>
<event>
 5   0  0.2370801E-03  0.1320142E+04  0.7818609E-02  0.9013743E-01
        1   -1    0    0  501    0  0.00000000000E+00  0.00000000000E+00  0.12638091310E+04  0.12638091310E+04  0.50400001928E-02 0.  1.
       -1   -1    0    0    0  501  0.00000000000E+00  0.00000000000E+00 -0.34474631001E+03  0.34474631005E+03  0.50400001928E-02 0. -1.
    10030    2    1    2    0    0  0.00000000000E+00  0.00000000000E+00  0.91906282099E+03  0.16085554411E+04  0.13201417113E+04 0.  0.
        3    1    3    3  502    0  0.47873400481E+01  0.51337045698E+03 -0.45982242920E+02  0.51544788445E+03  0.10100000352E+00 0. -1.
       -3    1    3    3    0  502 -0.47873400481E+01 -0.51337045698E+03  0.96504506391E+03  0.10931075566E+04  0.10100000352E+00 0.  1.
</event>
<event>
 5   0  0.2370801E-03  0.1321169E+04  0.7818609E-02  0.9012944E-01
        1   -1    0    0  501    0  0.00000000000E+00  0.00000000000E+00  0.50189284765E+03  0.50189284767E+03  0.50400001928E-02 0.  1.
       -1   -1    0    0    0  501  0.00000000000E+00  0.00000000000E+00 -0.86945213543E+03  0.86945213544E+03  0.50400001928E-02 0. -1.
    10030    2    1    2    0    0  0.00000000000E+00  0.00000000000E+00 -0.36755928778E+03  0.13713449831E+04  0.13211688888E+04 0.  0.
        3    1    3    3  502    0 -0.50207677937E+03  0.83787681997E+02 -0.62080477351E+03  0.80280760151E+03  0.10100000352E+00 0. -1.
       -3    1    3    3    0  502  0.50207677937E+03 -0.83787681997E+02  0.25324548573E+03  0.56853738160E+03  0.10100000352E+00 0.  1.
</event>
<event>
 5   0  0.2511542E-03  0.1280167E+04  0.7818609E-02  0.9045442E-01
        1   -1    0    0  501    0  0.00000000000E+00  0.00000000000E+00  0.20288569409E+04  0.20288569409E+04  0.50400001928E-02 0. -1.
       -1   -1    0    0    0  501  0.00000000000E+00  0.00000000000E+00 -0.20193979489E+03  0.20193979495E+03  0.50400001928E-02 0.  1.
    10030    2    1    2    0    0  0.00000000000E+00  0.00000000000E+00  0.18269171460E+04  0.22307967358E+04  0.12801671056E+04 0.  0.
        4    1    3    3  502    0 -0.52319355200E+03 -0.35513452925E+03  0.10864340429E+04  0.12570571066E+04  0.12699999809E+01 0. -1.
       -4    1    3    3    0  502  0.52319355200E+03  0.35513452925E+03  0.74048310308E+03  0.97373962925E+03  0.12699999809E+01 0.  1.
</event>
<event>
 5   0  0.2370801E-03  0.1299238E+04  0.7818609E-02  0.9030170E-01
        1   -1    0    0  501    0  0.00000000000E+00  0.00000000000E+00  0.11029126838E+04  0.11029126839E+04  0.50400001928E-02 0.  1.
       -1   -1    0    0    0  501  0.00000000000E+00  0.00000000000E+00 -0.38262739187E+03  0.38262739190E+03  0.50400001928E-02 0. -1.
    10030    2    1    2    0    0  0.00000000000E+00  0.00000000000E+00  0.72028529197E+03  0.14855400758E+04  0.12992376283E+04 0.  0.
        3    1    3    3  502    0 -0.11868510954E+03 -0.37460501896E+03  0.95160939015E+03  0.10295511241E+04  0.10100000352E+00 0.  1.
       -3    1    3    3    0  502  0.11868510954E+03  0.37460501896E+03 -0.23132409818E+03  0.45598895168E+03  0.10100000352E+00 0. -1.
</event>
<event>
 5   0  0.2356769E-03  0.1287151E+04  0.7818609E-02  0.9039817E-01
        1   -1    0    0  501    0  0.00000000000E+00  0.00000000000E+00  0.42274427339E+03  0.42274427342E+03  0.50400001928E-02 0. -1.
       -1   -1    0    0    0  501  0.00000000000E+00  0.00000000000E+00 -0.97976410738E+03  0.97976410740E+03  0.50400001928E-02 0.  1.
    10030    2    1    2    0    0  0.00000000000E+00  0.00000000000E+00 -0.55701983399E+03  0.14025083808E+04  0.12871513752E+04 0.  0.
        1    1    3    3  502    0  0.71810349314E+02 -0.13676055029E+03  0.40224615364E+03  0.43088530090E+03  0.50400001928E-02 0. -1.
       -1    1    3    3    0  502 -0.71810349314E+02  0.13676055029E+03 -0.95926598763E+03  0.97162307992E+03  0.50400001928E-02 0.  1.
</event>
<event>
 5   0  0.2458456E-03  0.1354462E+04  0.7818609E-02  0.8987457E-01
       -1   -1    0    0    0  501  0.00000000000E+00  0.00000000000E+00  0.36722034799E+03  0.36722034802E+03  0.50400001928E-02 0.  1.
        1   -1    0    0  501    0  0.00000000000E+00  0.00000000000E+00 -0.12489560947E+04  0.12489560948E+04  0.50400001928E-02 0. -1.
    10030    2    1    2    0    0  0.00000000000E+00  0.00000000000E+00 -0.88173574675E+03  0.16161764428E+04  0.13544623904E+04 0.  0.
        5    1    3    3  502    0 -0.44654048530E+03 -0.83773680822E+02  0.15836748907E+03  0.48116399096E+03  0.46999998093E+01 0.  1.
       -5    1    3    3    0  502  0.44654048530E+03  0.83773680822E+02 -0.10401032358E+04  0.11350124518E+04  0.46999998093E+01 0. -1.
</event>
<event>
 5   0  0.4306214E-03  0.1289386E+04  0.7818609E-02  0.9038025E-01
        2   -1    0    0  501    0  0.00000000000E+00  0.00000000000E+00  0.14120036960E+04  0.14120036960E+04  0.25500000920E-02 0.  1.
       -2   -1    0    0    0  501  0.00000000000E+00  0.00000000000E+00 -0.29435393975E+03  0.29435393976E+03  0.25500000920E-02 0. -1.
    10030    2    1    2    0    0  0.00000000000E+00  0.00000000000E+00  0.11176497562E+04  0.17063576357E+04  0.12893856690E+04 0.  0.
        3    1    3    3  502    0  0.32488722592E+03 -0.53383718064E+03  0.76846807988E+03  0.99049333415E+03  0.10100000352E+00 0. -1.
       -3    1    3    3    0  502 -0.32488722592E+03  0.53383718064E+03  0.34918167635E+03  0.71586430159E+03  0.10100000352E+00 0.  1.
</event>
<event>
 5   0  0.4263540E-03  0.1328149E+04  0.7818609E-02  0.9007536E-01
       -2   -1    0    0    0  501  0.00000000000E+00  0.00000000000E+00  0.95179825831E+03  0.95179825831E+03  0.25500000920E-02 0. -1.
        2   -1    0    0  501    0  0.00000000000E+00  0.00000000000E+00 -0.46332799122E+03  0.46332799123E+03  0.25500000920E-02 0.  1.
    10030    2    1    2    0    0  0.00000000000E+00  0.00000000000E+00  0.48847026709E+03  0.14151262495E+04  0.13281487493E+04 0.  0.
        2    1    3    3  502    0 -0.21158546660E+03  0.16429232281E+02  0.91469406077E+03  0.93899071037E+03  0.25500000920E-02 0. -1.
       -2    1    3    3    0  502  0.21158546660E+03 -0.16429232281E+02 -0.42622379368E+03  0.47613553917E+03  0.25500000920E-02 0.  1.
</event>
<event>
 5   0  0.2458456E-03  0.1303191E+04  0.7818609E-02  0.9027039E-01
        1   -1    0    0  501    0  0.00000000000E+00  0.00000000000E+00  0.56376223278E+03  0.56376223281E+03  0.50400001928E-02 0.  1.
       -1   -1    0    0    0  501  0.00000000000E+00  0.00000000000E+00 -0.75311272288E+03  0.75311272290E+03  0.50400001928E-02 0. -1.
    10030    2    1    2    0    0  0.00000000000E+00  0.00000000000E+00 -0.18935049010E+03  0.13168749557E+04  0.13031907155E+04 0.  0.
        5    1    3    3  502    0  0.31816408841E+03  0.48794685780E+03 -0.38968931830E+03  0.70085688838E+03  0.46999998093E+01 0. -1.
       -5    1    3    3    0  502 -0.31816408841E+03 -0.48794685780E+03  0.20033882820E+03  0.61601806733E+03  0.46999998093E+01 0.  1.
</event>
<event>
 5   0  0.4306214E-03  0.1094896E+04  0.7818609E-02  0.9210181E-01
       -2   -1    0    0    0  501  0.00000000000E+00  0.00000000000E+00  0.74809994894E+03  0.74809994895E+03  0.25500000920E-02 0. -1.
        2   -1    0    0  501    0  0.00000000000E+00  0.00000000000E+00 -0.40061416643E+03  0.40061416644E+03  0.25500000920E-02 0.  1.
    10030    2    1    2    0    0  0.00000000000E+00  0.00000000000E+00  0.34748578251E+03  0.11487141154E+04  0.10948962279E+04 0.  0.
        3    1    3    3  502    0 -0.15949349366E+03 -0.20291424776E+03  0.68026462054E+03  0.72757977613E+03  0.10100000352E+00 0. -1.
       -3    1    3    3    0  502  0.15949349366E+03  0.20291424776E+03 -0.33277883804E+03  0.42113433926E+03  0.10100000352E+00 0.  1.
</event>
<event>
 5   0  0.4453011E-03  0.1318254E+04  0.7818609E-02  0.9015213E-01
        2   -1    0    0  501    0  0.00000000000E+00  0.00000000000E+00  0.28561960176E+04  0.28561960176E+04  0.25500000920E-02 0. -1.
       -2   -1    0    0    0  501  0.00000000000E+00  0.00000000000E+00 -0.15210745246E+03  0.15210745249E+03  0.25500000920E-02 0.  1.
    10030    2    1    2    0    0  0.00000000000E+00  0.00000000000E+00  0.27040885651E+04  0.30083034701E+04  0.13182544519E+04 0.  0.
        1    1    3    3  502    0 -0.28524653447E+03  0.19558426378E+03  0.26324876970E+04  0.26551102170E+04  0.50400001928E-02 0. -1.
       -1    1    3    3    0  502  0.28524653447E+03 -0.19558426378E+03  0.71600868135E+02  0.35319325306E+03  0.50400001928E-02 0.  1.
</event>
<event>
 5   0  0.4310889E-03  0.1364469E+04  0.7818609E-02  0.8979947E-01
       -2   -1    0    0    0  501  0.00000000000E+00  0.00000000000E+00  0.88514776385E+03  0.88514776386E+03  0.25500000920E-02 0.  1.
        2   -1    0    0  501    0  0.00000000000E+00  0.00000000000E+00 -0.52583763363E+03  0.52583763364E+03  0.25500000920E-02 0. -1.
    10030    2    1    2    0    0  0.00000000000E+00  0.00000000000E+00  0.35931013022E+03  0.14109853975E+04  0.13644691357E+04 0.  0.
        4    1    3    3  502    0 -0.18783261969E+03 -0.12372889675E+02  0.85776042509E+03  0.87817352566E+03  0.12699999809E+01 0.  1.
       -4    1    3    3    0  502  0.18783261969E+03  0.12372889675E+02 -0.49845029487E+03  0.53281187184E+03  0.12699999809E+01 0. -1.
</event>
<event>
 5   0  0.4263540E-03  0.1351122E+04  0.7818609E-02  0.8989979E-01
        2   -1    0    0  501    0  0.00000000000E+00  0.00000000000E+00  0.12925426235E+04  0.12925426235E+04  0.25500000920E-02 0. -1.
       -2   -1    0    0    0  501  0.00000000000E+00  0.00000000000E+00 -0.35308926291E+03  0.35308926292E+03  0.25500000920E-02 0.  1.
    10030    2    1    2    0    0  0.00000000000E+00  0.00000000000E+00  0.93945336058E+03  0.16456318864E+04  0.13511223812E+04 0.  0.
        2    1    3    3  502    0 -0.24840438133E+03  0.59244236459E+03  0.72431013300E+03  0.96815177570E+03  0.25500000920E-02 0. -1.
       -2    1    3    3    0  502  0.24840438133E+03 -0.59244236459E+03  0.21514322758E+03  0.67748011071E+03  0.25500000920E-02 0.  1.
</event>
<event>
 5   0  0.2458456E-03  0.1316637E+04  0.7818609E-02  0.9016475E-01
       -1   -1    0    0    0  501  0.00000000000E+00  0.00000000000E+00  0.42520443351E+03  0.42520443354E+03  0.50400001928E-02 0.  1.
        1   -1    0    0  501    0  0.00000000000E+00  0.00000000000E+00 -0.10192350756E+04  0.10192350756E+04  0.50400001928E-02 0. -1.
    10030    2    1    2    0    0  0.00000000000E+00  0.00000000000E+00 -0.59403064205E+03  0.14444395091E+04  0.13166370387E+04 0.  0.
        5    1    3    3  502    0  0.15820931101E+03  0.21067590964E+03 -0.95885402157E+03  0.99440316254E+03  0.46999998093E+01 0. -1.
       -5    1    3    3    0  502 -0.15820931101E+03 -0.21067590964E+03  0.36482337952E+03  0.45003634657E+03  0.46999998093E+01 0.  1.
</event>
<event>
 5   0  0.4263540E-03  0.1271100E+04  0.7818609E-02  0.9052802E-01
        2   -1    0    0  501    0  0.00000000000E+00  0.00000000000E+00  0.43911113923E+03  0.43911113924E+03  0.25500000920E-02 0. -1.
       -2   -1    0    0    0  501  0.00000000000E+00  0.00000000000E+00 -0.91986760525E+03  0.91986760525E+03  0.25500000920E-02 0.  1.
    10030    2    1    2    0    0  0.00000000000E+00  0.00000000000E+00 -0.48075646601E+03  0.13589787445E+04  0.12711004871E+04 0.  0.
        2    1    3    3  502    0  0.23471560880E+03  0.11520367715E+03  0.37894645786E+03  0.46039518045E+03  0.25500000920E-02 0. -1.
       -2    1    3    3    0  502 -0.23471560880E+03 -0.11520367715E+03 -0.85970292388E+03  0.89858356404E+03  0.25500000920E-02 0.  1.
</event>
<event>
 5   0  0.2458456E-03  0.7598698E+03  0.7818609E-02  0.9619992E-01
        1   -1    0    0  501    0  0.00000000000E+00  0.00000000000E+00  0.27185193383E+03  0.27185193388E+03  0.50400001928E-02 0. -1.
       -1   -1    0    0    0  501  0.00000000000E+00  0.00000000000E+00 -0.53098956959E+03  0.53098956962E+03  0.50400001928E-02 0.  1.
    10030    2    1    2    0    0  0.00000000000E+00  0.00000000000E+00 -0.25913763576E+03  0.80284150350E+03  0.75986983456E+03 0.  0.
        5    1    3    3  502    0 -0.17860016841E+03 -0.82009083350E+02 -0.47307792569E+03  0.51229710489E+03  0.46999998093E+01 0.  1.
       -5    1    3    3    0  502  0.17860016841E+03  0.82009083350E+02  0.21394028993E+03  0.29054439861E+03  0.46999998093E+01 0. -1.
</event>
<event>
 5   0  0.2462055E-03  0.1300866E+04  0.7818609E-02  0.9028879E-01
       -1   -1    0    0    0  501  0.00000000000E+00  0.00000000000E+00  0.67237117154E+03  0.67237117156E+03  0.50400001928E-02 0.  1.
        1   -1    0    0  501    0  0.00000000000E+00  0.00000000000E+00 -0.62921064683E+03  0.62921064685E+03  0.50400001928E-02 0. -1.
    10030    2    1    2    0    0  0.00000000000E+00  0.00000000000E+00  0.43160524708E+02  0.13015818184E+04  0.13008660189E+04 0.  0.
        2    1    3    3  502    0  0.14901963783E+03  0.66643953263E-01  0.65506073190E+03  0.67179715643E+03  0.25500000920E-02 0.  1.
       -2    1    3    3    0  502 -0.14901963783E+03 -0.66643953263E-01 -0.61190020720E+03  0.62978466199E+03  0.25500000920E-02 0. -1.
</event>
<event>
 5   0  0.2462055E-03  0.1309304E+04  0.7818609E-02  0.9022219E-01
       -1   -1    0    0    0  501  0.00000000000E+00  0.00000000000E+00  0.37011131982E+03  0.37011131985E+03  0.50400001928E-02 0.  1.
        1   -1    0    0  501    0  0.00000000000E+00  0.00000000000E+00 -0.11579475409E+04  0.11579475409E+04  0.50400001928E-02 0. -1.
    10030    2    1    2    0    0  0.00000000000E+00  0.00000000000E+00 -0.78783622111E+03  0.15280588608E+04  0.13093043843E+04 0.  0.
        2    1    3    3  502    0  0.34938042190E+03 -0.48366059117E+03 -0.70832620597E+03  0.92613188085E+03  0.25500000920E-02 0.  1.
       -2    1    3    3    0  502 -0.34938042190E+03  0.48366059117E+03 -0.79510015143E+02  0.60192697994E+03  0.25500000920E-02 0. -1.
</event>
<event>
 5   0  0.2511542E-03  0.1195286E+04  0.7818609E-02  0.9116992E-01
       -1   -1    0    0    0  501  0.00000000000E+00  0.00000000000E+00  0.46661178063E+03  0.46661178066E+03  0.50400001928E-02 0.  1.
        1   -1    0    0  501    0  0.00000000000E+00  0.00000000000E+00 -0.76546997704E+03  0.76546997706E+03  0.50400001928E-02 0. -1.
    10030    2    1    2    0    0  0.00000000000E+00  0.00000000000E+00 -0.29885819641E+03  0.12320817577E+04  0.11952862570E+04 0.  0.
        4    1    3    3  502    0  0.59990219430E+02  0.50651205256E+02  0.46127124731E+03  0.46790719969E+03  0.12699999809E+01 0.  1.
       -4    1    3    3    0  502 -0.59990219430E+02 -0.50651205256E+02 -0.76012944373E+03  0.76417455803E+03  0.12699999809E+01 0. -1.
</event>
<event>
 5   0  0.4453011E-03  0.1373621E+04  0.7818609E-02  0.8973137E-01
        2   -1    0    0  501    0  0.00000000000E+00  0.00000000000E+00  0.85029937355E+03  0.85029937355E+03  0.25500000920E-02 0. -1.
       -2   -1    0    0    0  501  0.00000000000E+00  0.00000000000E+00 -0.55475611650E+03  0.55475611651E+03  0.25500000920E-02 0.  1.
    10030    2    1    2    0    0  0.00000000000E+00  0.00000000000E+00  0.29554325705E+03  0.14050554901E+04  0.13736211681E+04 0.  0.
        1    1    3    3  502    0  0.20660275635E+03 -0.38092475485E+03  0.69280715144E+03  0.81717202406E+03  0.50400001928E-02 0. -1.
       -1    1    3    3    0  502 -0.20660275635E+03  0.38092475485E+03 -0.39726389439E+03  0.58788346600E+03  0.50400001928E-02 0.  1.
</event>
<event>
 5   0  0.4310889E-03  0.1305143E+04  0.7818609E-02  0.9025497E-01
        2   -1    0    0  501    0  0.00000000000E+00  0.00000000000E+00  0.13890412519E+04  0.13890412519E+04  0.25500000920E-02 0. -1.
       -2   -1    0    0    0  501  0.00000000000E+00  0.00000000000E+00 -0.30657788911E+03  0.30657788912E+03  0.25500000920E-02 0.  1.
    10030    2    1    2    0    0  0.00000000000E+00  0.00000000000E+00  0.10824633628E+04  0.16956191410E+04  0.13051426511E+04 0.  0.
        4    1    3    3  502    0 -0.57482652484E+03  0.27879291650E+03  0.36840274846E+03  0.73747760775E+03  0.12699999809E+01 0. -1.
       -4    1    3    3    0  502  0.57482652484E+03 -0.27879291650E+03  0.71406061431E+03  0.95814153326E+03  0.12699999809E+01 0.  1.
</event>
<event>
 5   0  0.2370801E-03  0.1304053E+04  0.7818609E-02  0.9026357E-01
        1   -1    0    0  501    0  0.00000000000E+00  0.00000000000E+00  0.52365748659E+03  0.52365748662E+03  0.50400001928E-02 0. -1.
       -1   -1    0    0    0  501  0.00000000000E+00  0.00000000000E+00 -0.81186364982E+03  0.81186364984E+03  0.50400001928E-02 0.  1.
    10030    2    1    2    0    0  0.00000000000E+00  0.00000000000E+00 -0.28820616323E+03  0.13355211365E+04  0.13040528798E+04 0.  0.
        3    1    3    3  502    0  0.52557454529E+03 -0.56815819869E+02 -0.53499640671E+03  0.75211555325E+03  0.10100000352E+00 0.  1.
       -3    1    3    3    0  502 -0.52557454529E+03  0.56815819869E+02  0.24679024348E+03  0.58340558321E+03  0.10100000352E+00 0. -1.
</event>
<event>
 5   0  0.4306214E-03  0.1271817E+04  0.7818609E-02  0.9052218E-01
       -2   -1    0    0    0  501  0.00000000000E+00  0.00000000000E+00  0.62009609720E+03  0.62009609721E+03  0.25500000920E-02 0.  1.
        2   -1    0    0  501    0  0.00000000000E+00  0.00000000000E+00 -0.65212376742E+03  0.65212376742E+03  0.25500000920E-02 0. -1.
    10030    2    1    2    0    0  0.00000000000E+00  0.00000000000E+00 -0.32027670213E+02  0.12722198646E+04  0.12718166583E+04 0.  0.
        3    1    3    3  502    0  0.22284234595E+03 -0.92594758882E+02 -0.60454285418E+03  0.65092593532E+03  0.10100000352E+00 0. -1.
       -3    1    3    3    0  502 -0.22284234595E+03  0.92594758882E+02  0.57251518397E+03  0.62129392931E+03  0.10100000352E+00 0.  1.
</event>
<event>
 5   0  0.2370801E-03  0.1246388E+04  0.7818609E-02  0.9073195E-01
        1   -1    0    0  501    0  0.00000000000E+00  0.00000000000E+00  0.42809832381E+03  0.42809832384E+03  0.50400001928E-02 0.  1.
       -1   -1    0    0    0  501  0.00000000000E+00  0.00000000000E+00 -0.90720048339E+03  0.90720048341E+03  0.50400001928E-02 0. -1.
    10030    2    1    2    0    0  0.00000000000E+00  0.00000000000E+00 -0.47910215958E+03  0.13352988073E+04  0.12463883927E+04 0.  0.
        3    1    3    3  502    0 -0.51331715341E+03 -0.13330169649E+03 -0.59016915779E+03  0.79345036851E+03  0.10100000352E+00 0. -1.
       -3    1    3    3    0  502  0.51331715341E+03  0.13330169649E+03  0.11106699821E+03  0.54184843874E+03  0.10100000352E+00 0.  1.
</event>
<event>
 5   0  0.2462055E-03  0.1300703E+04  0.7818609E-02  0.9029008E-01
        1   -1    0    0  501    0  0.00000000000E+00  0.00000000000E+00  0.14097154545E+04  0.14097154545E+04  0.50400001928E-02 0.  1.
       -1   -1    0    0    0  501  0.00000000000E+00  0.00000000000E+00 -0.30003002151E+03  0.30003002155E+03  0.50400001928E-02 0. -1.
    10030    2    1    2    0    0  0.00000000000E+00  0.00000000000E+00  0.11096854330E+04  0.17097454760E+04  0.13007028226E+04 0.  0.
        2    1    3    3  502    0 -0.43445138645E+03 -0.43376952379E+03  0.83692909393E+03  0.10379567983E+04  0.25500000920E-02 0.  1.
       -2    1    3    3    0  502  0.43445138645E+03  0.43376952379E+03  0.27275633902E+03  0.67178867767E+03  0.25500000920E-02 0. -1.
</event>
<event>
 5   0  0.4263540E-03  0.1313472E+04  0.7818609E-02  0.9018950E-01
       -2   -1    0    0    0  501  0.00000000000E+00  0.00000000000E+00  0.47864868211E+03  0.47864868211E+03  0.25500000920E-02 0.  1.
        2   -1    0    0  501    0  0.00000000000E+00  0.00000000000E+00 -0.90108232584E+03  0.90108232584E+03  0.25500000920E-02 0. -1.
    10030    2    1    2    0    0  0.00000000000E+00  0.00000000000E+00 -0.42243364373E+03  0.13797310080E+04  0.13134715341E+04 0.  0.
        2    1    3    3  502    0 -0.57479817968E+03 -0.31313795000E+03 -0.15510348506E+03  0.67268522667E+03  0.25500000920E-02 0. -1.
       -2    1    3    3    0  502  0.57479817968E+03  0.31313795000E+03 -0.26733015867E+03  0.70704578129E+03  0.25500000920E-02 0.  1.
</event>
<event>
 5   0  0.2458456E-03  0.1159709E+04  0.7818609E-02  0.9148873E-01
        1   -1    0    0  501    0  0.00000000000E+00  0.00000000000E+00  0.78418671449E+03  0.78418671450E+03  0.50400001928E-02 0.  1.
       -1   -1    0    0    0  501  0.00000000000E+00  0.00000000000E+00 -0.42876444823E+03  0.42876444826E+03  0.50400001928E-02 0. -1.
    10030    2    1    2    0    0  0.00000000000E+00  0.00000000000E+00  0.35542226626E+03  0.12129511628E+04  0.11597092463E+04 0.  0.
        5    1    3    3  502    0 -0.54303902205E+03  0.10992232119E+03 -0.11210705311E+01  0.55407368008E+03  0.46999998093E+01 0.  1.
       -5    1    3    3    0  502  0.54303902205E+03 -0.10992232119E+03  0.35654333679E+03  0.65887748267E+03  0.46999998093E+01 0. -1.
</event>
<event>
 5   0  0.2356769E-03  0.1289722E+04  0.7818609E-02  0.9037755E-01
       -1   -1    0    0    0  501  0.00000000000E+00  0.00000000000E+00  0.56194217818E+03  0.56194217820E+03  0.50400001928E-02 0. -1.
        1   -1    0    0  501    0  0.00000000000E+00  0.00000000000E+00 -0.74001553595E+03  0.74001553597E+03  0.50400001928E-02 0.  1.
    10030    2    1    2    0    0  0.00000000000E+00  0.00000000000E+00 -0.17807335777E+03  0.13019577142E+04  0.12897223611E+04 0.  0.
        1    1    3    3  502    0 -0.47739551654E+03 -0.87671939846E+02  0.33955330105E+03  0.59235909087E+03  0.50400001928E-02 0. -1.
       -1    1    3    3    0  502  0.47739551654E+03  0.87671939846E+02 -0.51762665882E+03  0.70959862331E+03  0.50400001928E-02 0.  1.
</event>
<event>
 5   0  0.4310889E-03  0.1313531E+04  0.7818609E-02  0.9018903E-01
       -2   -1    0    0    0  501  0.00000000000E+00  0.00000000000E+00  0.37278772863E+03  0.37278772864E+03  0.25500000920E-02 0. -1.
        2   -1    0    0  501    0  0.00000000000E+00  0.00000000000E+00 -0.11570683104E+04  0.11570683104E+04  0.25500000920E-02 0.  1.
    10030    2    1    2    0    0  0.00000000000E+00  0.00000000000E+00 -0.78428058173E+03  0.15298560390E+04  0.13135309167E+04 0.  0.
        4    1    3    3  502    0 -0.27902074972E+03 -0.29438420445E+03 -0.99376160267E+03  0.10733491391E+04  0.12699999809E+01 0.  1.
       -4    1    3    3    0  502  0.27902074972E+03  0.29438420445E+03  0.20948102094E+03  0.45650689988E+03  0.12699999809E+01 0. -1.
</event>
<event>
 5   0  0.2356769E-03  0.1273210E+04  0.7818609E-02  0.9051084E-01
       -1   -1    0    0    0  501  0.00000000000E+00  0.00000000000E+00  0.70878091839E+03  0.70878091841E+03  0.50400001928E-02 0.  1.
        1   -1    0    0  501    0  0.00000000000E+00  0.00000000000E+00 -0.57177845729E+03  0.57177845732E+03  0.50400001928E-02 0. -1.
    10030    2    1    2    0    0  0.00000000000E+00  0.00000000000E+00  0.13700246110E+03  0.12805593757E+04  0.12732095823E+04 0.  0.
        1    1    3    3  502    0  0.15931785705E+03  0.52316188107E+03  0.39624290372E+03  0.67534359562E+03  0.50400001928E-02 0.  1.
       -1    1    3    3    0  502 -0.15931785705E+03 -0.52316188107E+03 -0.25924044262E+03  0.60521578011E+03  0.50400001928E-02 0. -1.
</event>
<event>
 5   0  0.4310889E-03  0.1303850E+04  0.7818609E-02  0.9026518E-01
       -2   -1    0    0    0  501  0.00000000000E+00  0.00000000000E+00  0.12701838924E+04  0.12701838924E+04  0.25500000920E-02 0. -1.
        2   -1    0    0  501    0  0.00000000000E+00  0.00000000000E+00 -0.33460219257E+03  0.33460219258E+03  0.25500000920E-02 0.  1.
    10030    2    1    2    0    0  0.00000000000E+00  0.00000000000E+00  0.93558169983E+03  0.16047860850E+04  0.13038501684E+04 0.  0.
        4    1    3    3  502    0  0.64755785530E+03  0.75168941748E+02  0.46186803752E+03  0.79894007456E+03  0.12699999809E+01 0. -1.
       -4    1    3    3    0  502 -0.64755785530E+03 -0.75168941748E+02  0.47371366231E+03  0.80584601043E+03  0.12699999809E+01 0.  1.
</event>
<event>
 5   0  0.4388937E-03  0.1248918E+04  0.7818609E-02  0.9071085E-01
       -2   -1    0    0    0  501  0.00000000000E+00  0.00000000000E+00  0.48921701316E+03  0.48921701316E+03  0.25500000920E-02 0. -1.
        2   -1    0    0  501    0  0.00000000000E+00  0.00000000000E+00 -0.79708756877E+03  0.79708756877E+03  0.25500000920E-02 0.  1.
    10030    2    1    2    0    0  0.00000000000E+00  0.00000000000E+00 -0.30787055561E+03  0.12863045819E+04  0.12489176108E+04 0.  0.
        5    1    3    3  502    0  0.58186017951E+03 -0.62935427812E+02  0.70308368594E+02  0.58948069796E+03  0.46999998093E+01 0. -1.
       -5    1    3    3    0  502 -0.58186017951E+03  0.62935427812E+02 -0.37817892421E+03  0.69682388398E+03  0.46999998093E+01 0.  1.
</event>
<event>
 5   0  0.2511542E-03  0.1339282E+04  0.7818609E-02  0.8998981E-01
        1   -1    0    0  501    0  0.00000000000E+00  0.00000000000E+00  0.13114443333E+04  0.13114443333E+04  0.50400001928E-02 0. -1.
       -1   -1    0    0    0  501  0.00000000000E+00  0.00000000000E+00 -0.34192771568E+03  0.34192771572E+03  0.50400001928E-02 0.  1.
    10030    2    1    2    0    0  0.00000000000E+00  0.00000000000E+00  0.96951661761E+03  0.16533720490E+04  0.13392821438E+04 0.  0.
        4    1    3    3  502    0  0.37931232590E+02 -0.12527982250E+03 -0.32597880639E+03  0.35127995594E+03  0.12699999809E+01 0.  1.
       -4    1    3    3    0  502 -0.37931232590E+02  0.12527982250E+03  0.12954954240E+04  0.13020920931E+04  0.12699999809E+01 0. -1.
</event>
<event>
 5   0  0.4388937E-03  0.1382536E+04  0.7818609E-02  0.8966558E-01
        2   -1    0    0  501    0  0.00000000000E+00  0.00000000000E+00  0.70550438553E+03  0.70550438553E+03  0.25500000920E-02 0. -1.
       -2   -1    0    0    0  501  0.00000000000E+00  0.00000000000E+00 -0.67731857665E+03  0.67731857665E+03  0.25500000920E-02 0.  1.
    10030    2    1    2    0    0  0.00000000000E+00  0.00000000000E+00  0.28185808880E+02  0.13828229622E+04  0.13825356794E+04 0.  0.
        5    1    3    3  502    0 -0.35451616638E+03 -0.17371317942E+03  0.58163583375E+03  0.70297959716E+03  0.46999998093E+01 0. -1.
       -5    1    3    3    0  502  0.35451616638E+03  0.17371317942E+03 -0.55345002487E+03  0.67984336502E+03  0.46999998093E+01 0.  1.
</event>
<event>
 5   0  0.1661750E-03  0.1292012E+04  0.7818609E-02  0.9035923E-01
       -4   -1    0    0    0  501  0.00000000000E+00  0.00000000000E+00  0.64980553536E+03  0.64980677642E+03  0.12699999809E+01 0. -1.
        4   -1    0    0  501    0  0.00000000000E+00  0.00000000000E+00 -0.64222658662E+03  0.64222784233E+03  0.12699999809E+01 0.  1.
    10030    2    1    2    0    0  0.00000000000E+00  0.00000000000E+00  0.75789487353E+01  0.12920346188E+04  0.12920123899E+04 0.  0.
        3    1    3    3  502    0 -0.44668758320E+03  0.54916941597E+02  0.46723927397E+03  0.64873586058E+03  0.10100000352E+00 0. -1.
       -3    1    3    3    0  502  0.44668758320E+03 -0.54916941597E+02 -0.45966032524E+03  0.64329875817E+03  0.10100000352E+00 0.  1.
</event>
<event>
 5   0  0.4263540E-03  0.1313699E+04  0.7818609E-02  0.9018772E-01
       -2   -1    0    0    0  501  0.00000000000E+00  0.00000000000E+00  0.44585725278E+03  0.44585725278E+03  0.25500000920E-02 0.  1.
        2   -1    0    0  501    0  0.00000000000E+00  0.00000000000E+00 -0.96768879814E+03  0.96768879814E+03  0.25500000920E-02 0. -1.
    10030    2    1    2    0    0  0.00000000000E+00  0.00000000000E+00 -0.52183154536E+03  0.14135460509E+04  0.13136987007E+04 0.  0.
        2    1    3    3  502    0 -0.62824154232E+02  0.34930379373E+03  0.33380545460E+03  0.48722284039E+03  0.25500000920E-02 0.  1.
       -2    1    3    3    0  502  0.62824154232E+02 -0.34930379373E+03 -0.85563699996E+03  0.92632321054E+03  0.25500000920E-02 0. -1.
</event>
<event>
 5   0  0.2370801E-03  0.1320604E+04  0.7818609E-02  0.9013383E-01
        1   -1    0    0  501    0  0.00000000000E+00  0.00000000000E+00  0.91028650652E+03  0.91028650653E+03  0.50400001928E-02 0.  1.
       -1   -1    0    0    0  501  0.00000000000E+00  0.00000000000E+00 -0.47896898274E+03  0.47896898277E+03  0.50400001928E-02 0. -1.
    10030    2    1    2    0    0  0.00000000000E+00  0.00000000000E+00  0.43131752378E+03  0.13892554893E+04  0.13206044102E+04 0.  0.
        3    1    3    3  502    0  0.22118898600E+02 -0.41293326356E+03  0.75719675062E+03  0.86275724000E+03  0.10100000352E+00 0.  1.
       -3    1    3    3    0  502 -0.22118898600E+02  0.41293326356E+03 -0.32587922684E+03  0.52649824930E+03  0.10100000352E+00 0. -1.
</event>
</LesHouchesEvents>
